Generated by trjconv : CNT in water t= 228.00000
33518
    1C        C    1   2.833   2.760   4.745
    1C        C    2   2.890   2.711   4.864
    1C        C    3   2.840   2.771   4.980
    1C        C    4   2.840   2.764   4.257
    1C        C    5   2.893   2.717   4.380
    1C        C    6   2.836   2.760   4.501
    1C        C    7   3.003   2.631   4.622
    1C        C    8   2.889   2.713   4.623
    1C        C    9   3.069   2.596   4.742
    1C        C   10   3.003   2.626   4.863
    1C        C   11   3.181   2.500   4.971
    1C        C   12   3.057   2.565   4.977
    1C        C   13   2.844   2.767   3.767
    1C        C   14   2.895   2.715   3.888
    1C        C   15   2.847   2.766   4.010
    1C        C   16   3.010   2.638   4.135
    1C        C   17   2.893   2.717   4.135
    1C        C   18   3.078   2.610   4.256
    1C        C   19   3.011   2.639   4.377
    1C        C   20   3.205   2.563   4.501
    1C        C   21   3.071   2.606   4.500
    1C        C   22   3.277   2.541   4.621
    1C        C   23   3.204   2.553   4.741
    1C        C   24   3.410   2.481   4.861
    1C        C   25   3.269   2.505   4.859
    1C        C   26   3.489   2.474   4.976
    1C        C   27   2.847   2.766   3.277
    1C        C   28   2.902   2.722   3.399
    1C        C   29   2.853   2.771   3.523
    1C        C   30   3.012   2.635   3.647
    1C        C   31   2.897   2.718   3.646
    1C        C   32   3.074   2.598   3.769
    1C        C   33   3.012   2.635   3.890
    1C        C   34   3.203   2.549   4.014
    1C        C   35   3.071   2.599   4.013
    1C        C   36   3.274   2.530   4.134
    1C        C   37   3.208   2.557   4.257
    1C        C   38   3.413   2.511   4.378
    1C        C   39   3.274   2.537   4.381
    1C        C   40   3.485   2.505   4.499
    1C        C   41   3.415   2.512   4.622
    1C        C   42   3.628   2.490   4.741
    1C        C   43   3.486   2.484   4.740
    1C        C   44   3.703   2.488   4.861
    1C        C   45   3.628   2.484   4.978
    1C        C   46   2.834   2.750   2.788
    1C        C   47   2.888   2.707   2.911
    1C        C   48   2.839   2.755   3.034
    1C        C   49   3.012   2.632   3.158
    1C        C   50   2.898   2.716   3.155
    1C        C   51   3.074   2.599   3.281
    1C        C   52   3.011   2.633   3.402
    1C        C   53   3.203   2.543   3.526
    1C        C   54   3.074   2.600   3.525
    1C        C   55   3.274   2.524   3.646
    1C        C   56   3.206   2.549   3.768
    1C        C   57   3.410   2.506   3.891
    1C        C   58   3.271   2.528   3.892
    1C        C   59   3.484   2.504   4.012
    1C        C   60   3.413   2.507   4.135
    1C        C   61   3.626   2.501   4.257
    1C        C   62   3.485   2.502   4.256
    1C        C   63   3.697   2.510   4.379
    1C        C   64   3.626   2.504   4.500
    1C        C   65   3.836   2.547   4.623
    1C        C   66   3.700   2.509   4.621
    1C        C   67   3.907   2.558   4.744
    1C        C   68   3.841   2.519   4.863
    1C        C   69   4.050   2.585   4.980
    1C        C   70   3.922   2.529   4.977
    1C        C   71   2.822   2.733   2.303
    1C        C   72   2.881   2.694   2.425
    1C        C   73   2.825   2.740   2.546
    1C        C   74   3.004   2.623   2.667
    1C        C   75   2.882   2.695   2.667
    1C        C   76   3.067   2.592   2.790
    1C        C   77   3.007   2.631   2.912
    1C        C   78   3.200   2.542   3.034
    1C        C   79   3.069   2.595   3.034
    1C        C   80   3.270   2.528   3.156
    1C        C   81   3.206   2.547   3.281
    1C        C   82   3.410   2.493   3.401
    1C        C   83   3.271   2.520   3.404
    1C        C   84   3.481   2.490   3.523
    1C        C   85   3.413   2.502   3.647
    1C        C   86   3.623   2.501   3.769
    1C        C   87   3.482   2.497   3.770
    1C        C   88   3.692   2.514   3.891
    1C        C   89   3.625   2.507   4.016
    1C        C   90   3.833   2.549   4.136
    1C        C   91   3.699   2.508   4.136
    1C        C   92   3.900   2.581   4.257
    1C        C   93   3.831   2.553   4.377
    1C        C   94   4.026   2.636   4.496
    1C        C   95   3.900   2.572   4.499
    1C        C   96   4.089   2.667   4.618
    1C        C   97   4.034   2.623   4.740
    1C        C   98   4.188   2.764   4.862
    1C        C   99   4.099   2.652   4.863
    1C        C  100   4.217   2.836   4.979
    1C        C  101   2.824   2.734   2.066
    1C        C  102   2.986   2.586   2.186
    1C        C  103   2.873   2.675   2.183
    1C        C  104   3.058   2.568   2.307
    1C        C  105   2.998   2.614   2.426
    1C        C  106   3.197   2.530   2.548
    1C        C  107   3.067   2.585   2.546
    1C        C  108   3.263   2.510   2.672
    1C        C  109   3.197   2.536   2.794
    1C        C  110   3.408   2.492   2.914
    1C        C  111   3.269   2.518   2.914
    1C        C  112   3.481   2.491   3.035
    1C        C  113   3.409   2.503   3.156
    1C        C  114   3.620   2.496   3.278
    1C        C  115   3.479   2.491   3.278
    1C        C  116   3.690   2.511   3.400
    1C        C  117   3.622   2.497   3.523
    1C        C  118   3.828   2.545   3.645
    1C        C  119   3.692   2.509   3.645
    1C        C  120   3.895   2.568   3.768
    1C        C  121   3.829   2.548   3.891
    1C        C  122   4.022   2.639   4.010
    1C        C  123   3.897   2.574   4.012
    1C        C  124   4.087   2.676   4.130
    1C        C  125   4.027   2.641   4.253
    1C        C  126   4.198   2.763   4.376
    1C        C  127   4.091   2.672   4.375
    1C        C  128   4.241   2.818   4.499
    1C        C  129   4.192   2.763   4.620
    1C        C  130   4.332   2.925   4.743
    1C        C  131   4.241   2.815   4.741
    1C        C  132   4.362   2.996   4.861
    1C        C  133   4.288   2.956   4.972
    1C        C  134   3.170   2.460   2.080
    1C        C  135   3.037   2.503   2.082
    1C        C  136   3.257   2.476   2.189
    1C        C  137   3.189   2.512   2.308
    1C        C  138   3.402   2.478   2.427
    1C        C  139   3.262   2.497   2.428
    1C        C  140   3.474   2.479   2.549
    1C        C  141   3.403   2.491   2.671
    1C        C  142   3.618   2.497   2.790
    1C        C  143   3.477   2.487   2.791
    1C        C  144   3.690   2.503   2.911
    1C        C  145   3.622   2.498   3.034
    1C        C  146   3.829   2.539   3.155
    1C        C  147   3.693   2.502   3.156
    1C        C  148   3.893   2.566   3.278
    1C        C  149   3.828   2.540   3.400
    1C        C  150   4.020   2.631   3.522
    1C        C  151   3.895   2.566   3.522
    1C        C  152   4.081   2.667   3.644
    1C        C  153   4.022   2.630   3.767
    1C        C  154   4.192   2.763   3.885
    1C        C  155   4.082   2.674   3.887
    1C        C  156   4.246   2.810   4.007
    1C        C  157   4.201   2.759   4.131
    1C        C  158   4.340   2.919   4.252
    1C        C  159   4.253   2.807   4.253
    1C        C  160   4.376   2.979   4.374
    1C        C  161   4.329   2.928   4.498
    1C        C  162   4.437   3.109   4.616
    1C        C  163   4.366   2.987   4.620
    1C        C  164   4.471   3.177   4.735
    1C        C  165   4.432   3.119   4.857
    1C        C  166   4.508   3.316   4.972
    1C        C  167   4.480   3.180   4.974
    1C        C  168   3.475   2.437   2.073
    1C        C  169   3.396   2.456   2.188
    1C        C  170   3.613   2.461   2.307
    1C        C  171   3.471   2.453   2.307
    1C        C  172   3.687   2.487   2.425
    1C        C  173   3.615   2.487   2.546
    1C        C  174   3.824   2.537   2.666
    1C        C  175   3.686   2.508   2.667
    1C        C  176   3.891   2.564   2.788
    1C        C  177   3.827   2.539   2.911
    1C        C  178   4.023   2.623   3.031
    1C        C  179   3.896   2.560   3.032
    1C        C  180   4.084   2.659   3.153
    1C        C  181   4.019   2.630   3.275
    1C        C  182   4.193   2.748   3.396
    1C        C  183   4.079   2.665   3.398
    1C        C  184   4.246   2.800   3.516
    1C        C  185   4.194   2.753   3.639
    1C        C  186   4.335   2.913   3.764
    1C        C  187   4.243   2.806   3.760
    1C        C  188   4.379   2.972   3.884
    1C        C  189   4.339   2.916   4.008
    1C        C  190   4.449   3.098   4.130
    1C        C  191   4.385   2.972   4.129
    1C        C  192   4.468   3.169   4.251
    1C        C  193   4.440   3.105   4.374
    1C        C  194   4.501   3.310   4.491
    1C        C  195   4.466   3.174   4.494
    1C        C  196   4.519   3.382   4.612
    1C        C  197   4.510   3.314   4.735
    1C        C  198   4.553   3.530   4.850
    1C        C  199   4.528   3.389   4.854
    1C        C  200   4.588   3.618   4.958
    1C        C  201   3.614   2.418   2.071
    1C        C  202   3.822   2.510   2.181
    1C        C  203   3.688   2.461   2.186
    1C        C  204   3.894   2.537   2.301
    1C        C  205   3.825   2.517   2.422
    1C        C  206   4.015   2.618   2.543
    1C        C  207   3.891   2.551   2.543
    1C        C  208   4.075   2.662   2.663
    1C        C  209   4.017   2.628   2.787
    1C        C  210   4.194   2.747   2.906
    1C        C  211   4.082   2.660   2.909
    1C        C  212   4.248   2.795   3.028
    1C        C  213   4.197   2.745   3.149
    1C        C  214   4.334   2.904   3.272
    1C        C  215   4.245   2.795   3.273
    1C        C  216   4.374   2.965   3.394
    1C        C  217   4.335   2.909   3.518
    1C        C  218   4.439   3.094   3.638
    1C        C  219   4.374   2.969   3.640
    1C        C  220   4.471   3.160   3.759
    1C        C  221   4.443   3.098   3.883
    1C        C  222   4.501   3.301   4.004
    1C        C  223   4.469   3.163   4.006
    1C        C  224   4.508   3.375   4.124
    1C        C  225   4.501   3.306   4.247
    1C        C  226   4.514   3.520   4.365
    1C        C  227   4.508   3.378   4.368
    1C        C  228   4.508   3.593   4.486
    1C        C  229   4.520   3.523   4.608
    1C        C  230   4.496   3.736   4.724
    1C        C  231   4.533   3.598   4.727
    1C        C  232   4.494   3.815   4.841
    1C        C  233   4.545   3.752   4.956
    1C        C  234   4.013   2.610   2.062
    1C        C  235   3.893   2.540   2.064
    1C        C  236   4.078   2.645   2.182
    1C        C  237   4.020   2.603   2.303
    1C        C  238   4.198   2.731   2.422
    1C        C  239   4.083   2.647   2.422
    1C        C  240   4.252   2.781   2.542
    1C        C  241   4.192   2.741   2.664
    1C        C  242   4.339   2.899   2.784
    1C        C  243   4.245   2.794   2.783
    1C        C  244   4.384   2.957   2.904
    1C        C  245   4.341   2.901   3.027
    1C        C  246   4.437   3.088   3.148
    1C        C  247   4.375   2.961   3.150
    1C        C  248   4.459   3.156   3.270
    1C        C  249   4.435   3.092   3.394
    1C        C  250   4.492   3.298   3.512
    1C        C  251   4.458   3.161   3.515
    1C        C  252   4.508   3.366   3.635
    1C        C  253   4.498   3.298   3.759
    1C        C  254   4.519   3.510   3.877
    1C        C  255   4.511   3.369   3.880
    1C        C  256   4.511   3.584   3.997
    1C        C  257   4.508   3.516   4.121
    1C        C  258   4.485   3.728   4.240
    1C        C  259   4.506   3.588   4.242
    1C        C  260   4.463   3.798   4.361
    1C        C  261   4.483   3.732   4.484
    1C        C  262   4.420   3.937   4.599
    1C        C  263   4.464   3.803   4.604
    1C        C  264   4.397   4.006   4.720
    1C        C  265   4.430   3.941   4.840
    1C        C  266   4.327   4.134   4.954
    1C        C  267   4.392   4.011   4.955
    1C        C  268   4.254   2.775   2.066
    1C        C  269   4.193   2.726   2.183
    1C        C  270   4.347   2.884   2.297
    1C        C  271   4.252   2.778   2.300
    1C        C  272   4.381   2.949   2.418
    1C        C  273   4.345   2.887   2.540
    1C        C  274   4.452   3.075   2.658
    1C        C  275   4.383   2.951   2.660
    1C        C  276   4.472   3.146   2.779
    1C        C  277   4.448   3.084   2.903
    1C        C  278   4.502   3.289   3.022
    1C        C  279   4.467   3.152   3.025
    1C        C  280   4.510   3.361   3.144
    1C        C  281   4.495   3.292   3.266
    1C        C  282   4.506   3.505   3.387
    1C        C  283   4.502   3.364   3.388
    1C        C  284   4.506   3.574   3.510
    1C        C  285   4.509   3.507   3.635
    1C        C  286   4.481   3.720   3.752
    1C        C  287   4.506   3.581   3.755
    1C        C  288   4.460   3.787   3.875
    1C        C  289   4.485   3.723   3.998
    1C        C  290   4.418   3.928   4.114
    1C        C  291   4.471   3.797   4.117
    1C        C  292   4.389   3.995   4.235
    1C        C  293   4.419   3.932   4.358
    1C        C  294   4.319   4.125   4.474
    1C        C  295   4.388   4.002   4.477
    1C        C  296   4.279   4.184   4.596
    1C        C  297   4.325   4.129   4.718
    1C        C  298   4.202   4.314   4.833
    1C        C  299   4.281   4.195   4.836
    1C        C  300   4.168   4.396   4.945
    1C        C  301   4.347   2.878   2.064
    1C        C  302   4.472   3.064   2.175
    1C        C  303   4.398   2.941   2.178
    1C        C  304   4.483   3.140   2.295
    1C        C  305   4.446   3.074   2.415
    1C        C  306   4.509   3.279   2.534
    1C        C  307   4.475   3.141   2.536
    1C        C  308   4.518   3.353   2.653
    1C        C  309   4.501   3.284   2.776
    1C        C  310   4.520   3.496   2.897
    1C        C  311   4.515   3.355   2.898
    1C        C  312   4.512   3.568   3.018
    1C        C  313   4.513   3.502   3.143
    1C        C  314   4.484   3.714   3.261
    1C        C  315   4.510   3.575   3.264
    1C        C  316   4.468   3.780   3.385
    1C        C  317   4.485   3.714   3.509
    1C        C  318   4.416   3.918   3.623
    1C        C  319   4.471   3.788   3.629
    1C        C  320   4.385   3.982   3.745
    1C        C  321   4.411   3.920   3.870
    1C        C  322   4.308   4.108   3.989
    1C        C  323   4.381   3.987   3.991
    1C        C  324   4.275   4.172   4.110
    1C        C  325   4.318   4.117   4.233
    1C        C  326   4.183   4.285   4.351
    1C        C  327   4.282   4.184   4.352
    1C        C  328   4.135   4.340   4.472
    1C        C  329   4.187   4.291   4.595
    1C        C  330   4.021   4.433   4.713
    1C        C  331   4.138   4.352   4.712
    1C        C  332   3.967   4.487   4.831
    1C        C  333   4.047   4.467   4.944
    1C        C  334   4.551   3.263   2.059
    1C        C  335   4.530   3.125   2.060
    1C        C  336   4.529   3.347   2.169
    1C        C  337   4.504   3.280   2.291
    1C        C  338   4.524   3.491   2.410
    1C        C  339   4.521   3.350   2.412
    1C        C  340   4.519   3.565   2.530
    1C        C  341   4.522   3.494   2.652
    1C        C  342   4.483   3.703   2.772
    1C        C  343   4.514   3.565   2.774
    1C        C  344   4.461   3.774   2.892
    1C        C  345   4.481   3.706   3.015
    1C        C  346   4.411   3.907   3.137
    1C        C  347   4.460   3.775   3.136
    1C        C  348   4.385   3.974   3.259
    1C        C  349   4.418   3.912   3.381
    1C        C  350   4.315   4.102   3.498
    1C        C  351   4.389   3.982   3.500
    1C        C  352   4.271   4.161   3.619
    1C        C  353   4.315   4.105   3.741
    1C        C  354   4.174   4.263   3.865
    1C        C  355   4.271   4.160   3.863
    1C        C  356   4.124   4.320   3.984
    1C        C  357   4.178   4.275   4.106
    1C        C  358   4.014   4.409   4.228
    1C        C  359   4.129   4.328   4.228
    1C        C  360   3.952   4.447   4.349
    1C        C  361   4.016   4.415   4.472
    1C        C  362   3.827   4.520   4.591
    1C        C  363   3.954   4.458   4.591
    1C        C  364   3.759   4.545   4.712
    1C        C  365   3.834   4.535   4.831
    1C        C  366   3.627   4.584   4.947
    1C        C  367   3.765   4.572   4.948
    1C        C  368   4.498   3.562   2.051
    1C        C  369   4.521   3.488   2.168
    1C        C  370   4.498   3.702   2.282
    1C        C  371   4.520   3.563   2.288
    1C        C  372   4.478   3.770   2.404
    1C        C  373   4.492   3.704   2.528
    1C        C  374   4.419   3.904   2.646
    1C        C  375   4.470   3.773   2.650
    1C        C  376   4.385   3.968   2.767
    1C        C  377   4.414   3.907   2.892
    1C        C  378   4.314   4.094   3.010
    1C        C  379   4.384   3.971   3.014
    1C        C  380   4.269   4.150   3.132
    1C        C  381   4.311   4.094   3.255
    1C        C  382   4.172   4.257   3.375
    1C        C  383   4.273   4.158   3.375
    1C        C  384   4.117   4.304   3.497
    1C        C  385   4.170   4.260   3.620
    1C        C  386   4.004   4.390   3.740
    1C        C  387   4.118   4.307   3.743
    1C        C  388   3.943   4.435   3.859
    1C        C  389   4.005   4.396   3.980
    1C        C  390   3.820   4.490   4.107
    1C        C  391   3.950   4.435   4.105
    1C        C  392   3.751   4.515   4.228
    1C        C  393   3.824   4.505   4.349
    1C        C  394   3.616   4.552   4.469
    1C        C  395   3.757   4.535   4.469
    1C        C  396   3.545   4.561   4.591
    1C        C  397   3.618   4.560   4.712
    1C        C  398   3.407   4.549   4.835
    1C        C  399   3.547   4.565   4.834
    1C        C  400   3.340   4.516   4.954
    1C        C  401   4.493   3.701   2.049
    1C        C  402   4.450   3.916   2.164
    1C        C  403   4.487   3.780   2.165
    1C        C  404   4.407   3.973   2.286
    1C        C  405   4.429   3.903   2.406
    1C        C  406   4.323   4.094   2.522
    1C        C  407   4.396   3.973   2.524
    1C        C  408   4.277   4.150   2.643
    1C        C  409   4.308   4.086   2.766
    1C        C  410   4.170   4.246   2.884
    1C        C  411   4.272   4.149   2.887
    1C        C  412   4.123   4.297   3.008
    1C        C  413   4.176   4.256   3.132
    1C        C  414   3.998   4.376   3.250
    1C        C  415   4.117   4.300   3.253
    1C        C  416   3.941   4.417   3.372
    1C        C  417   4.004   4.388   3.495
    1C        C  418   3.813   4.479   3.616
    1C        C  419   3.944   4.426   3.617
    1C        C  420   3.746   4.506   3.738
    1C        C  421   3.813   4.490   3.861
    1C        C  422   3.611   4.536   3.984
    1C        C  423   3.750   4.512   3.986
    1C        C  424   3.541   4.540   4.106
    1C        C  425   3.611   4.533   4.228
    1C        C  426   3.399   4.545   4.354
    1C        C  427   3.540   4.545   4.350
    1C        C  428   3.327   4.548   4.475
    1C        C  429   3.404   4.557   4.594
    1C        C  430   3.195   4.512   4.720
    1C        C  431   3.333   4.544   4.715
    1C        C  432   3.123   4.487   4.840
    1C        C  433   3.204   4.488   4.955
    1C        C  434   4.383   4.121   2.052
    1C        C  435   4.445   3.995   2.049
    1C        C  436   4.302   4.162   2.162
    1C        C  437   4.329   4.092   2.283
    1C        C  438   4.176   4.249   2.400
    1C        C  439   4.278   4.152   2.401
    1C        C  440   4.124   4.299   2.521
    1C        C  441   4.174   4.247   2.642
    1C        C  442   3.999   4.373   2.763
    1C        C  443   4.114   4.291   2.762
    1C        C  444   3.938   4.407   2.886
    1C        C  445   4.005   4.375   3.006
    1C        C  446   3.809   4.467   3.128
    1C        C  447   3.939   4.411   3.126
    1C        C  448   3.743   4.491   3.250
    1C        C  449   3.811   4.474   3.372
    1C        C  450   3.606   4.527   3.495
    1C        C  451   3.743   4.496   3.494
    1C        C  452   3.537   4.538   3.618
    1C        C  453   3.608   4.536   3.740
    1C        C  454   3.397   4.535   3.861
    1C        C  455   3.538   4.544   3.863
    1C        C  456   3.330   4.524   3.985
    1C        C  457   3.400   4.532   4.107
    1C        C  458   3.194   4.496   4.233
    1C        C  459   3.332   4.528   4.231
    1C        C  460   3.127   4.481   4.357
    1C        C  461   3.190   4.513   4.479
    1C        C  462   2.997   4.428   4.602
    1C        C  463   3.122   4.494   4.601
    1C        C  464   2.930   4.394   4.722
    1C        C  465   2.987   4.441   4.843
    1C        C  466   2.796   4.339   4.953
    1C        C  467   2.907   4.425   4.960
    1C        C  468   4.119   4.285   2.042
    1C        C  469   4.188   4.249   2.158
    1C        C  470   4.002   4.368   2.275
    1C        C  471   4.123   4.294   2.276
    1C        C  472   3.937   4.398   2.397
    1C        C  473   4.006   4.376   2.519
    1C        C  474   3.810   4.462   2.640
    1C        C  475   3.942   4.410   2.640
    1C        C  476   3.745   4.490   2.762
    1C        C  477   3.813   4.473   2.884
    1C        C  478   3.604   4.517   3.006
    1C        C  479   3.743   4.492   3.005
    1C        C  480   3.533   4.523   3.128
    1C        C  481   3.604   4.519   3.249
    1C        C  482   3.394   4.527   3.375
    1C        C  483   3.536   4.531   3.372
    1C        C  484   3.324   4.526   3.498
    1C        C  485   3.396   4.542   3.619
    1C        C  486   3.186   4.501   3.743
    1C        C  487   3.324   4.531   3.740
    1C        C  488   3.124   4.471   3.866
    1C        C  489   3.192   4.494   3.988
    1C        C  490   3.001   4.408   4.113
    1C        C  491   3.127   4.473   4.111
    1C        C  492   2.943   4.374   4.237
    1C        C  493   3.000   4.420   4.359
    1C        C  494   2.827   4.298   4.481
    1C        C  495   2.936   4.388   4.481
    1C        C  496   2.772   4.251   4.602
    1C        C  497   2.814   4.313   4.722
    1C        C  498   2.660   4.163   4.843
    1C        C  499   2.746   4.275   4.840
    1C        C  500   2.588   4.117   4.954
    1C        C  501   3.997   4.352   2.037
    1C        C  502   3.812   4.465   2.156
    1C        C  503   3.938   4.402   2.154
    1C        C  504   3.741   4.483   2.276
    1C        C  505   3.811   4.461   2.397
    1C        C  506   3.601   4.506   2.518
    1C        C  507   3.740   4.479   2.518
    1C        C  508   3.533   4.516   2.641
    1C        C  509   3.606   4.517   2.762
    1C        C  510   3.393   4.524   2.886
    1C        C  511   3.535   4.523   2.883
    1C        C  512   3.322   4.521   3.007
    1C        C  513   3.391   4.524   3.131
    1C        C  514   3.185   4.488   3.254
    1C        C  515   3.322   4.521   3.254
    1C        C  516   3.118   4.467   3.377
    1C        C  517   3.187   4.495   3.497
    1C        C  518   2.996   4.409   3.624
    1C        C  519   3.121   4.475   3.620
    1C        C  520   2.937   4.369   3.746
    1C        C  521   2.999   4.405   3.867
    1C        C  522   2.833   4.278   3.994
    1C        C  523   2.943   4.366   3.991
    1C        C  524   2.783   4.234   4.119
    1C        C  525   2.834   4.285   4.240
    1C        C  526   2.689   4.132   4.361
    1C        C  527   2.777   4.242   4.362
    1C        C  528   2.647   4.075   4.484
    1C        C  529   2.686   4.139   4.603
    1C        C  530   2.586   3.956   4.731
    1C        C  531   2.634   4.089   4.725
    1C        C  532   2.535   3.898   4.851
    1C        C  533   2.525   3.992   4.959
    1C        C  534   3.613   4.552   2.036
    1C        C  535   3.748   4.513   2.041
    1C        C  536   3.532   4.536   2.153
    1C        C  537   3.602   4.514   2.275
    1C        C  538   3.390   4.512   2.399
    1C        C  539   3.531   4.517   2.396
    1C        C  540   3.319   4.507   2.521
    1C        C  541   3.391   4.511   2.642
    1C        C  542   3.182   4.485   2.765
    1C        C  543   3.321   4.511   2.765
    1C        C  544   3.116   4.465   2.888
    1C        C  545   3.184   4.490   3.009
    1C        C  546   2.995   4.397   3.133
    1C        C  547   3.119   4.464   3.132
    1C        C  548   2.937   4.361   3.257
    1C        C  549   2.993   4.400   3.380
    1C        C  550   2.829   4.272   3.503
    1C        C  551   2.936   4.364   3.504
    1C        C  552   2.777   4.227   3.627
    1C        C  553   2.827   4.279   3.748
    1C        C  554   2.695   4.117   3.874
    1C        C  555   2.783   4.229   3.872
    1C        C  556   2.655   4.060   3.997
    1C        C  557   2.698   4.121   4.118
    1C        C  558   2.599   3.936   4.242
    1C        C  559   2.659   4.064   4.241
    1C        C  560   2.566   3.877   4.366
    1C        C  561   2.587   3.947   4.487
    1C        C  562   2.532   3.746   4.611
    1C        C  563   2.567   3.883   4.612
    1C        C  564   2.521   3.676   4.734
    1C        C  565   2.517   3.756   4.851
    1C        C  566   2.527   3.542   4.973
    1C        C  567   2.516   3.681   4.969
    1C        C  568   3.324   4.476   2.038
    1C        C  569   3.392   4.513   2.154
    1C        C  570   3.181   4.475   2.278
    1C        C  571   3.320   4.509   2.276
    1C        C  572   3.115   4.449   2.400
    1C        C  573   3.182   4.473   2.522
    1C        C  574   2.986   4.400   2.645
    1C        C  575   3.113   4.462   2.644
    1C        C  576   2.930   4.358   2.768
    1C        C  577   2.994   4.394   2.889
    1C        C  578   2.823   4.271   3.014
    1C        C  579   2.933   4.359   3.011
    1C        C  580   2.773   4.220   3.137
    1C        C  581   2.827   4.272   3.256
    1C        C  582   2.690   4.114   3.379
    1C        C  583   2.780   4.222   3.380
    1C        C  584   2.651   4.058   3.503
    1C        C  585   2.690   4.116   3.626
    1C        C  586   2.598   3.931   3.753
    1C        C  587   2.656   4.060   3.751
    1C        C  588   2.573   3.868   3.877
    1C        C  589   2.594   3.933   4.000
    1C        C  590   2.532   3.731   4.126
    1C        C  591   2.567   3.868   4.123
    1C        C  592   2.520   3.665   4.250
    1C        C  593   2.526   3.742   4.369
    1C        C  594   2.511   3.532   4.493
    1C        C  595   2.515   3.673   4.492
    1C        C  596   2.516   3.461   4.615
    1C        C  597   2.514   3.534   4.736
    1C        C  598   2.532   3.322   4.857
    1C        C  599   2.520   3.463   4.857
    1C        C  600   2.535   3.246   4.975
    1C        C  601   3.193   4.433   2.041
    1C        C  602   2.979   4.393   2.157
    1C        C  603   3.115   4.439   2.158
    1C        C  604   2.926   4.349   2.281
    1C        C  605   2.988   4.387   2.402
    1C        C  606   2.813   4.273   2.526
    1C        C  607   2.922   4.362   2.525
    1C        C  608   2.772   4.217   2.649
    1C        C  609   2.825   4.263   2.771
    1C        C  610   2.685   4.108   2.892
    1C        C  611   2.769   4.221   2.893
    1C        C  612   2.649   4.048   3.015
    1C        C  613   2.683   4.111   3.137
    1C        C  614   2.580   3.928   3.264
    1C        C  615   2.642   4.055   3.260
    1C        C  616   2.560   3.864   3.388
    1C        C  617   2.592   3.930   3.508
    1C        C  618   2.530   3.729   3.635
    1C        C  619   2.570   3.865   3.632
    1C        C  620   2.519   3.660   3.758
    1C        C  621   2.531   3.733   3.878
    1C        C  622   2.516   3.524   4.006
    1C        C  623   2.520   3.665   4.002
    1C        C  624   2.515   3.452   4.127
    1C        C  625   2.516   3.524   4.249
    1C        C  626   2.538   3.317   4.377
    1C        C  627   2.521   3.458   4.373
    1C        C  628   2.549   3.248   4.500
    1C        C  629   2.534   3.321   4.620
    1C        C  630   2.588   3.110   4.740
    1C        C  631   2.547   3.246   4.739
    1C        C  632   2.608   3.040   4.863
    1C        C  633   2.555   3.107   4.977
    1C        C  634   2.774   4.308   2.050
    1C        C  635   2.889   4.388   2.046
    1C        C  636   2.745   4.229   2.162
    1C        C  637   2.810   4.267   2.281
    1C        C  638   2.674   4.110   2.407
    1C        C  639   2.760   4.222   2.405
    1C        C  640   2.639   4.047   2.528
    1C        C  641   2.683   4.107   2.649
    1C        C  642   2.582   3.920   2.773
    1C        C  643   2.645   4.047   2.771
    1C        C  644   2.558   3.856   2.896
    1C        C  645   2.581   3.924   3.017
    1C        C  646   2.525   3.724   3.146
    1C        C  647   2.555   3.862   3.141
    1C        C  648   2.519   3.653   3.268
    1C        C  649   2.533   3.725   3.389
    1C        C  650   2.514   3.517   3.515
    1C        C  651   2.521   3.658   3.513
    1C        C  652   2.515   3.447   3.638
    1C        C  653   2.513   3.519   3.759
    1C        C  654   2.541   3.314   3.885
    1C        C  655   2.518   3.453   3.884
    1C        C  656   2.556   3.246   4.008
    1C        C  657   2.536   3.312   4.131
    1C        C  658   2.602   3.114   4.256
    1C        C  659   2.554   3.247   4.255
    1C        C  660   2.639   3.053   4.377
    1C        C  661   2.599   3.116   4.497
    1C        C  662   2.703   2.931   4.622
    1C        C  663   2.624   3.048   4.619
    1C        C  664   2.740   2.868   4.743
    1C        C  665   2.692   2.924   4.864
    1C        C  666   2.737   2.865   4.983
    1C        C  667   2.673   4.028   2.049
    1C        C  668   2.677   4.106   2.165
    1C        C  669   2.585   3.913   2.287
    1C        C  670   2.641   4.043   2.287
    1C        C  671   2.559   3.846   2.409
    1C        C  672   2.587   3.916   2.529
    1C        C  673   2.524   3.715   2.656
    1C        C  674   2.559   3.852   2.651
    1C        C  675   2.513   3.647   2.779
    1C        C  676   2.531   3.717   2.901
    1C        C  677   2.505   3.510   3.028
    1C        C  678   2.517   3.651   3.025
    1C        C  679   2.508   3.438   3.149
    1C        C  680   2.508   3.512   3.270
    1C        C  681   2.531   3.304   3.398
    1C        C  682   2.514   3.445   3.394
    1C        C  683   2.553   3.238   3.521
    1C        C  684   2.532   3.307   3.643
    1C        C  685   2.604   3.108   3.767
    1C        C  686   2.555   3.240   3.765
    1C        C  687   2.641   3.051   3.891
    1C        C  688   2.606   3.113   4.013
    1C        C  689   2.712   2.931   4.134
    1C        C  690   2.633   3.047   4.135
    1C        C  691   2.752   2.874   4.258
    1C        C  692   2.709   2.930   4.380
    1C        C  693   2.751   2.873   4.503
    1C        C  694   2.630   3.895   2.055
    1C        C  695   2.521   3.705   2.174
    1C        C  696   2.572   3.837   2.169
    1C        C  697   2.501   3.637   2.296
    1C        C  698   2.516   3.712   2.415
    1C        C  699   2.486   3.501   2.540
    1C        C  700   2.500   3.642   2.537
    1C        C  701   2.499   3.431   2.662
    1C        C  702   2.505   3.506   2.782
    1C        C  703   2.531   3.299   2.906
    1C        C  704   2.511   3.439   2.906
    1C        C  705   2.542   3.230   3.029
    1C        C  706   2.528   3.299   3.152
    1C        C  707   2.593   3.101   3.275
    1C        C  708   2.544   3.234   3.277
    1C        C  709   2.630   3.043   3.398
    1C        C  710   2.602   3.105   3.522
    1C        C  711   2.704   2.922   3.643
    1C        C  712   2.628   3.041   3.645
    1C        C  713   2.746   2.869   3.767
    1C        C  714   2.709   2.927   3.890
    1C        C  715   2.752   2.871   4.012
    1C        C  716   2.448   3.500   2.065
    1C        C  717   2.485   3.635   2.059
    1C        C  718   2.463   3.419   2.182
    1C        C  719   2.474   3.497   2.300
    1C        C  720   2.507   3.287   2.423
    1C        C  721   2.478   3.425   2.422
    1C        C  722   2.526   3.218   2.544
    1C        C  723   2.523   3.292   2.664
    1C        C  724   2.576   3.087   2.787
    1C        C  725   2.540   3.224   2.787
    1C        C  726   2.620   3.031   2.909
    1C        C  727   2.591   3.097   3.030
    1C        C  728   2.701   2.919   3.154
    1C        C  729   2.621   3.035   3.153
    1C        C  730   2.752   2.871   3.276
    1C        C  731   2.709   2.927   3.399
    1C        C  732   2.752   2.869   3.521
    1C        C  733   2.486   3.199   2.067
    1C        C  734   2.481   3.277   2.183
    1C        C  735   2.586   3.086   2.301
    1C        C  736   2.523   3.213   2.303
    1C        C  737   2.615   3.022   2.423
    1C        C  738   2.578   3.086   2.544
    1C        C  739   2.690   2.907   2.666
    1C        C  740   2.605   3.020   2.666
    1C        C  741   2.742   2.858   2.787
    1C        C  742   2.701   2.915   2.909
    1C        C  743   2.743   2.860   3.032
    1C        C  744   2.546   3.074   2.069
    1C        C  745   2.685   2.897   2.180
    1C        C  746   2.611   3.017   2.180
    1C        C  747   2.728   2.840   2.302
    1C        C  748   2.686   2.900   2.423
    1C        C  749   2.731   2.846   2.545
    1C        C  750   2.733   2.839   2.062
    1C        C  751   3.672   2.321   1.975
    1C        O  752   3.692   2.197   1.982
    1C        O  753   3.652   2.348   1.839
    1C        C  754   4.596   3.054   1.947
    1C        O  755   4.540   3.062   1.835
    1C        O  756   4.726   3.001   1.949
    1C        C  757   4.442   4.227   1.968
    1C        O  758   4.496   4.333   2.008
    1C        O  759   4.449   4.226   1.828
    1C        C  760   3.589   4.646   1.923
    1C        O  761   3.505   4.738   1.935
    1C        O  762   3.606   4.604   1.790
    1C        C  763   2.871   4.497   1.947
    1C        O  764   2.916   4.484   1.829
    1C        O  765   2.818   4.620   1.987
    1C        C  766   2.358   3.461   1.953
    1C        O  767   2.417   3.467   1.842
    1C        O  768   2.226   3.506   1.944
    1C        C  769   4.721   3.600   5.019
    1C        O  770   4.720   3.564   5.140
    1C        O  771   4.843   3.593   4.951
    1C        C  772   4.267   4.466   5.029
    1C        O  773   4.247   4.523   5.140
    1C        O  774   4.376   4.526   4.963
    1C        C  775   4.140   2.545   5.091
    1C        O  776   4.206   2.440   5.071
    1C        O  777   4.088   2.526   5.219
    1C        C  778   2.896   4.539   5.055
    1C        O  779   2.814   4.634   5.054
    1C        O  780   2.939   4.532   5.188
    1C        C  781   2.467   3.030   5.068
    1C        O  782   2.349   2.997   5.038
    1C        O  783   2.503   3.016   5.202
    1C        C  784   2.429   3.984   5.072
    1C        O  785   2.324   4.050   5.050
    1C        O  786   2.468   3.997   5.206
    1C        C  787   2.949   2.410   2.007
    1C        O  788   2.886   2.433   1.901
    1C        O  789   2.932   2.273   2.026
    1C        C  790   3.185   2.381   5.059
    1C        O  791   3.138   2.268   5.028
    1C        O  792   3.198   2.395   5.198
    1C        H  793   4.265   3.033   5.042
    1C        H  794   4.159   2.819   5.067
    1C        H  795   4.545   3.117   5.030
    1C        H  796   4.488   3.365   5.066
    1C        H  797   4.544   3.804   5.049
    1C        H  798   4.406   3.967   5.052
    1C        H  799   4.337   4.192   5.043
    1C        H  800   4.010   4.497   5.040
    1C        H  801   3.818   4.637   5.015
    1C        H  802   3.579   4.626   5.034
    1C        H  803   3.398   4.483   5.038
    1C        H  804   3.167   4.449   5.047
    1C        H  805   3.911   2.443   5.040
    1C        H  806   3.680   2.437   5.059
    1C        H  807   3.009   2.569   5.073
    1C        H  808   3.439   2.475   5.071
    1C        H  809   2.864   2.719   5.071
    1C        H  810   2.689   2.874   5.078
    1C        H  811   2.466   3.282   5.048
    1C        H  812   2.569   3.501   5.062
    1C        H  813   2.505   3.726   5.066
    1C        H  814   2.528   4.195   4.996
    1C        H  815   2.729   4.341   5.037
    1C        H  816   2.697   2.875   1.968
    1C        H  817   2.851   2.694   1.971
    1C        H  818   3.198   2.381   2.012
    1C        H  819   3.419   2.408   1.987
    1C        H  820   3.832   2.541   1.976
    1C        H  821   4.078   2.578   1.984
    1C        H  822   4.259   2.706   1.985
    1C        H  823   4.399   2.894   1.971
    1C        H  824   4.576   3.311   1.967
    1C        H  825   4.443   3.515   1.973
    1C        H  826   4.484   3.751   1.954
    1C        H  827   3.800   4.510   1.947
    1C        H  828   3.935   4.323   1.954
    1C        H  829   4.168   4.269   1.948
    1C        H  830   4.509   3.971   1.967
    1C        H  831   2.661   3.833   1.973
    1C        H  832   2.748   4.047   1.975
    1C        H  833   2.688   4.340   1.995
    1C        H  834   3.365   4.492   1.940
    1C        H  835   3.143   4.411   1.949
    1C        H  836   2.527   3.014   1.983
    1C        H  837   2.406   3.211   1.997
    1C        H  838   2.462   3.687   1.968
    2V3OU   H29  839   2.799   3.540   2.250
    2V3OU   C27  840   2.785   3.499   2.354
    2V3OU   H27  841   2.733   3.570   2.422
    2V3OU   H28  842   2.734   3.399   2.354
    2V3OU   O11  843   2.910   3.470   2.416
    2V3OU   C15  844   2.925   3.402   2.535
    2V3OU   C13  845   3.049   3.373   2.597
    2V3OU   C14  846   3.075   3.262   2.678
    2V3OU   C16  847   2.971   3.178   2.715
    2V3OU    H6  848   2.987   3.095   2.785
    2V3OU   C12  849   3.211   3.221   2.720
    2V3OU    O2  850   3.234   3.119   2.788
    2V3OU   C10  851   3.323   3.303   2.671
    2V3OU    C8  852   3.452   3.260   2.701
    2V3OU   O10  853   3.486   3.150   2.773
    2V3OU   H26  854   3.402   3.106   2.795
    2V3OU    C6  855   3.559   3.346   2.658
    2V3OU    C5  856   3.536   3.462   2.586
    2V3OU    C4  857   3.698   3.293   2.656
    2V3OU    H4  858   3.720   3.228   2.745
    2V3OU    H5  859   3.705   3.227   2.564
    2V3OU    C2  860   3.812   3.395   2.658
    2V3OU    O6  861   3.799   3.475   2.776
    2V3OU   H21  862   3.760   3.563   2.760
    2V3OU    C3  863   3.781   3.494   2.546
    2V3OU    H2  864   3.860   3.573   2.540
    2V3OU    H3  865   3.779   3.438   2.449
    2V3OU   C25  866   3.943   3.318   2.643
    2V3OU    O7  867   4.002   3.296   2.537
    2V3OU   C26  868   4.022   3.287   2.768
    2V3OU   H22  869   4.056   3.382   2.818
    2V3OU   H23  870   4.116   3.230   2.744
    2V3OU    O8  871   3.956   3.209   2.865
    2V3OU   H24  872   3.926   3.267   2.937
    2V3OU    C1  873   3.646   3.562   2.568
    2V3OU    H1  874   3.620   3.615   2.471
    2V3OU    O3  875   3.658   3.658   2.673
    2V3OU   C19  876   3.615   3.794   2.657
    2V3OU    H9  877   3.517   3.798   2.601
    2V3OU    O4  878   3.708   3.849   2.566
    2V3OU   C20  879   3.840   3.869   2.618
    2V3OU   H10  880   3.891   3.771   2.640
    2V3OU   C24  881   3.608   3.856   2.796
    2V3OU   H16  882   3.534   3.790   2.849
    2V3OU   H17  883   3.559   3.956   2.781
    2V3OU   C23  884   3.749   3.878   2.851
    2V3OU   H15  885   3.789   3.773   2.872
    2V3OU    N1  886   3.735   3.952   2.975
    2V3OU   H19  887   3.806   3.921   3.038
    2V3OU   H20  888   3.648   3.929   3.018
    2V3OU   C21  889   3.846   3.946   2.750
    2V3OU   H11  890   3.954   3.928   2.778
    2V3OU    O5  891   3.819   4.085   2.752
    2V3OU   H18  892   3.776   4.102   2.837
    2V3OU   C22  893   3.911   3.940   2.504
    2V3OU   H12  894   3.854   4.035   2.487
    2V3OU   H13  895   3.906   3.882   2.408
    2V3OU   H14  896   4.016   3.965   2.535
    2V3OU   C11  897   3.156   3.473   2.581
    2V3OU    O1  898   3.128   3.585   2.535
    2V3OU    C9  899   3.294   3.426   2.607
    2V3OU    C7  900   3.401   3.502   2.560
    2V3OU    O9  901   3.384   3.625   2.499
    2V3OU   H25  902   3.291   3.624   2.472
    2V3OU   C17  903   2.823   3.316   2.581
    2V3OU    H7  904   2.726   3.347   2.542
    2V3OU   C18  905   2.844   3.211   2.670
    2V3OU    H8  906   2.774   3.167   2.743
    3SOL     OW  907   3.101   5.228   0.602
    3SOL    HW1  908   3.130   5.316   0.564
    3SOL    HW2  909   3.138   5.219   0.695
    4SOL     OW  910   0.437   6.301   2.167
    4SOL    HW1  911   0.513   6.264   2.114
    4SOL    HW2  912   0.471   6.376   2.225
    5SOL     OW  913   4.139   0.782   2.906
    5SOL    HW1  914   4.140   0.793   2.806
    5SOL    HW2  915   4.098   0.863   2.947
    6SOL     OW  916   3.975   0.959   1.514
    6SOL    HW1  917   3.912   0.972   1.591
    6SOL    HW2  918   3.968   1.037   1.452
    7SOL     OW  919   6.706   3.402   2.356
    7SOL    HW1  920   6.658   3.315   2.363
    7SOL    HW2  921   6.802   3.390   2.379
    8SOL     OW  922   2.973   0.459   0.007
    8SOL    HW1  923   2.890   0.434   0.057
    8SOL    HW2  924   3.024   0.376   7.004
    9SOL     OW  925   5.562   0.129   6.302
    9SOL    HW1  926   5.593   0.224   6.305
    9SOL    HW2  927   5.622   0.076   6.242
   10SOL     OW  928   1.427   5.138   6.250
   10SOL    HW1  929   1.426   5.192   6.334
   10SOL    HW2  930   1.447   5.042   6.273
   11SOL     OW  931   2.826   0.050   5.994
   11SOL    HW1  932   2.817   0.014   6.087
   11SOL    HW2  933   2.913   0.020   5.955
   12SOL     OW  934   3.558   5.745   2.967
   12SOL    HW1  935   3.591   5.828   3.011
   12SOL    HW2  936   3.463   5.758   2.937
   13SOL     OW  937   4.262   6.265   3.907
   13SOL    HW1  938   4.187   6.318   3.869
   13SOL    HW2  939   4.265   6.175   3.863
   14SOL     OW  940   3.469   6.185   5.747
   14SOL    HW1  941   3.428   6.274   5.769
   14SOL    HW2  942   3.536   6.161   5.817
   15SOL     OW  943   1.847   6.483   1.710
   15SOL    HW1  944   1.946   6.482   1.693
   15SOL    HW2  945   1.816   6.577   1.722
   16SOL     OW  946   5.081   3.013   5.583
   16SOL    HW1  947   5.167   2.971   5.611
   16SOL    HW2  948   5.034   2.953   5.518
   17SOL     OW  949   5.098   5.729   5.958
   17SOL    HW1  950   5.096   5.685   5.868
   17SOL    HW2  951   5.140   5.819   5.951
   18SOL     OW  952   3.293   1.256   5.964
   18SOL    HW1  953   3.299   1.355   5.952
   18SOL    HW2  954   3.370   1.212   5.918
   19SOL     OW  955   0.489   1.180   3.389
   19SOL    HW1  956   0.514   1.187   3.292
   19SOL    HW2  957   0.487   1.271   3.430
   20SOL     OW  958   5.750   2.604   4.482
   20SOL    HW1  959   5.704   2.556   4.407
   20SOL    HW2  960   5.758   2.543   4.560
   21SOL     OW  961   3.726   1.996   2.456
   21SOL    HW1  962   3.771   2.028   2.373
   21SOL    HW2  963   3.641   2.046   2.469
   22SOL     OW  964   2.211   6.450   0.301
   22SOL    HW1  965   2.272   6.413   0.371
   22SOL    HW2  966   2.248   6.536   0.266
   23SOL     OW  967   5.369   6.110   3.312
   23SOL    HW1  968   5.410   6.053   3.241
   23SOL    HW2  969   5.423   6.193   3.324
   24SOL     OW  970   4.583   0.741   3.316
   24SOL    HW1  971   4.678   0.741   3.287
   24SOL    HW2  972   4.552   0.647   3.332
   25SOL     OW  973   3.090   0.483   4.691
   25SOL    HW1  974   3.157   0.486   4.617
   25SOL    HW2  975   3.052   0.391   4.698
   26SOL     OW  976   0.012   1.113   0.171
   26SOL    HW1  977   0.066   1.181   0.220
   26SOL    HW2  978   7.003   1.149   0.081
   27SOL     OW  979   1.045   2.272   2.376
   27SOL    HW1  980   1.053   2.366   2.343
   27SOL    HW2  981   1.036   2.272   2.476
   28SOL     OW  982   2.969   2.068   5.478
   28SOL    HW1  983   3.029   2.051   5.400
   28SOL    HW2  984   2.920   2.155   5.465
   29SOL     OW  985   5.724   1.706   2.089
   29SOL    HW1  986   5.822   1.689   2.100
   29SOL    HW2  987   5.691   1.763   2.164
   30SOL     OW  988   4.224   1.116   4.225
   30SOL    HW1  989   4.179   1.143   4.310
   30SOL    HW2  990   4.156   1.085   4.159
   31SOL     OW  991   1.336   2.524   6.691
   31SOL    HW1  992   1.306   2.609   6.734
   31SOL    HW2  993   1.431   2.505   6.718
   32SOL     OW  994   0.490   1.658   2.406
   32SOL    HW1  995   0.514   1.662   2.309
   32SOL    HW2  996   0.572   1.668   2.462
   33SOL     OW  997   2.073   4.539   6.230
   33SOL    HW1  998   2.019   4.619   6.205
   33SOL    HW2  999   2.133   4.562   6.306
   34SOL     OW 1000   2.744   0.386   4.346
   34SOL    HW1 1001   2.711   0.413   4.437
   34SOL    HW2 1002   2.818   0.447   4.318
   35SOL     OW 1003   3.348   3.742   7.001
   35SOL    HW1 1004   3.425   3.752   6.937
   35SOL    HW2 1005   3.333   3.829   0.031
   36SOL     OW 1006   6.116   0.986   4.492
   36SOL    HW1 1007   6.214   0.995   4.477
   36SOL    HW2 1008   6.100   0.932   4.575
   37SOL     OW 1009   1.142   1.729   0.673
   37SOL    HW1 1010   1.105   1.779   0.595
   37SOL    HW2 1011   1.189   1.647   0.641
   38SOL     OW 1012   6.641   4.616   2.364
   38SOL    HW1 1013   6.701   4.544   2.327
   38SOL    HW2 1014   6.693   4.672   2.429
   39SOL     OW 1015   0.101   4.761   6.898
   39SOL    HW1 1016   0.122   4.697   6.972
   39SOL    HW2 1017   0.053   4.840   6.935
   40SOL     OW 1018   5.175   1.836   0.281
   40SOL    HW1 1019   5.185   1.922   0.330
   40SOL    HW2 1020   5.230   1.765   0.327
   41SOL     OW 1021   6.998   5.760   3.682
   41SOL    HW1 1022   6.997   5.768   3.782
   41SOL    HW2 1023   6.905   5.741   3.650
   42SOL     OW 1024   2.857   5.146   5.471
   42SOL    HW1 1025   2.839   5.208   5.547
   42SOL    HW2 1026   2.955   5.126   5.466
   43SOL     OW 1027   6.060   6.840   5.472
   43SOL    HW1 1028   6.147   6.793   5.486
   43SOL    HW2 1029   5.986   6.784   5.510
   44SOL     OW 1030   4.430   1.924   6.122
   44SOL    HW1 1031   4.341   1.959   6.153
   44SOL    HW2 1032   4.432   1.824   6.133
   45SOL     OW 1033   4.079   6.258   2.947
   45SOL    HW1 1034   4.018   6.229   2.874
   45SOL    HW2 1035   4.046   6.223   3.034
   46SOL     OW 1036   0.836   2.860   3.058
   46SOL    HW1 1037   0.776   2.845   2.980
   46SOL    HW2 1038   0.872   2.953   3.056
   47SOL     OW 1039   4.722   4.256   0.731
   47SOL    HW1 1040   4.743   4.317   0.655
   47SOL    HW2 1041   4.719   4.308   0.816
   48SOL     OW 1042   6.955   3.170   5.763
   48SOL    HW1 1043   0.030   3.148   5.732
   48SOL    HW2 1044   6.943   3.141   5.858
   49SOL     OW 1045   5.233   4.139   1.487
   49SOL    HW1 1046   5.298   4.119   1.413
   49SOL    HW2 1047   5.250   4.078   1.564
   50SOL     OW 1048   5.381   0.762   4.858
   50SOL    HW1 1049   5.446   0.687   4.873
   50SOL    HW2 1050   5.347   0.759   4.764
   51SOL     OW 1051   2.123   6.794   3.210
   51SOL    HW1 1052   2.082   6.780   3.119
   51SOL    HW2 1053   2.061   6.849   3.266
   52SOL     OW 1054   6.100   2.661   2.777
   52SOL    HW1 1055   6.055   2.628   2.860
   52SOL    HW2 1056   6.194   2.628   2.775
   53SOL     OW 1057   3.808   6.751   4.306
   53SOL    HW1 1058   3.760   6.799   4.233
   53SOL    HW2 1059   3.904   6.781   4.307
   54SOL     OW 1060   3.616   5.246   0.899
   54SOL    HW1 1061   3.692   5.247   0.965
   54SOL    HW2 1062   3.539   5.195   0.937
   55SOL     OW 1063   2.462   2.162   6.639
   55SOL    HW1 1064   2.530   2.138   6.569
   55SOL    HW2 1065   2.395   2.225   6.600
   56SOL     OW 1066   0.166   6.859   1.011
   56SOL    HW1 1067   0.243   6.795   1.017
   56SOL    HW2 1068   0.105   6.830   0.937
   57SOL     OW 1069   5.279   1.171   1.086
   57SOL    HW1 1070   5.356   1.219   1.044
   57SOL    HW2 1071   5.280   1.075   1.057
   58SOL     OW 1072   6.898   6.442   5.844
   58SOL    HW1 1073   6.817   6.494   5.871
   58SOL    HW2 1074   6.907   6.444   5.744
   59SOL     OW 1075   0.930   1.705   5.091
   59SOL    HW1 1076   0.880   1.665   5.167
   59SOL    HW2 1077   1.029   1.695   5.106
   60SOL     OW 1078   5.317   2.544   5.062
   60SOL    HW1 1079   5.287   2.593   5.144
   60SOL    HW2 1080   5.368   2.606   5.003
   61SOL     OW 1081   5.730   2.186   4.498
   61SOL    HW1 1082   5.700   2.273   4.538
   61SOL    HW2 1083   5.774   2.131   4.569
   62SOL     OW 1084   1.184   1.267   1.664
   62SOL    HW1 1085   1.124   1.209   1.608
   62SOL    HW2 1086   1.134   1.302   1.743
   63SOL     OW 1087   5.014   1.094   3.287
   63SOL    HW1 1088   5.085   1.023   3.292
   63SOL    HW2 1089   4.947   1.069   3.217
   64SOL     OW 1090   6.763   3.343   5.848
   64SOL    HW1 1091   6.836   3.289   5.805
   64SOL    HW2 1092   6.794   3.378   5.936
   65SOL     OW 1093   0.627   5.092   6.456
   65SOL    HW1 1094   0.644   5.046   6.543
   65SOL    HW2 1095   0.531   5.120   6.451
   66SOL     OW 1096   3.954   1.382   5.346
   66SOL    HW1 1097   3.944   1.401   5.248
   66SOL    HW2 1098   3.997   1.460   5.391
   67SOL     OW 1099   5.281   4.308   5.712
   67SOL    HW1 1100   5.342   4.388   5.703
   67SOL    HW2 1101   5.317   4.247   5.782
   68SOL     OW 1102   6.001   1.033   6.753
   68SOL    HW1 1103   5.951   1.083   6.681
   68SOL    HW2 1104   5.948   0.953   6.781
   69SOL     OW 1105   0.815   3.438   5.932
   69SOL    HW1 1106   0.775   3.359   5.979
   69SOL    HW2 1107   0.743   3.500   5.904
   70SOL     OW 1108   5.436   4.077   4.909
   70SOL    HW1 1109   5.505   4.079   4.982
   70SOL    HW2 1110   5.463   4.009   4.841
   71SOL     OW 1111   4.564   1.527   3.221
   71SOL    HW1 1112   4.469   1.522   3.192
   71SOL    HW2 1113   4.578   1.608   3.279
   72SOL     OW 1114   1.813   0.066   4.480
   72SOL    HW1 1115   1.802   0.159   4.515
   72SOL    HW2 1116   1.907   0.035   4.496
   73SOL     OW 1117   3.867   0.572   1.246
   73SOL    HW1 1118   3.951   0.572   1.300
   73SOL    HW2 1119   3.888   0.560   1.149
   74SOL     OW 1120   4.419   6.656   0.036
   74SOL    HW1 1121   4.366   6.715   6.992
   74SOL    HW2 1122   4.490   6.608   7.002
   75SOL     OW 1123   4.811   0.541   0.932
   75SOL    HW1 1124   4.863   0.573   1.011
   75SOL    HW2 1125   4.735   0.485   0.963
   76SOL     OW 1126   3.437   3.752   1.411
   76SOL    HW1 1127   3.353   3.719   1.454
   76SOL    HW2 1128   3.499   3.786   1.481
   77SOL     OW 1129   0.193   7.002   3.388
   77SOL    HW1 1130   0.281   0.014   3.425
   77SOL    HW2 1131   0.131   0.063   3.384
   78SOL     OW 1132   6.285   1.792   6.890
   78SOL    HW1 1133   6.203   1.848   6.899
   78SOL    HW2 1134   6.352   1.822   6.958
   79SOL     OW 1135   3.308   6.053   0.944
   79SOL    HW1 1136   3.363   6.076   1.024
   79SOL    HW2 1137   3.215   6.030   0.972
   80SOL     OW 1138   5.235   1.351   4.508
   80SOL    HW1 1139   5.281   1.381   4.425
   80SOL    HW2 1140   5.207   1.255   4.498
   81SOL     OW 1141   2.138   0.072   2.622
   81SOL    HW1 1142   2.043   0.087   2.596
   81SOL    HW2 1143   2.176   7.014   2.568
   82SOL     OW 1144   6.042   4.560   1.141
   82SOL    HW1 1145   6.105   4.508   1.200
   82SOL    HW2 1146   6.088   4.642   1.108
   83SOL     OW 1147   0.587   0.856   0.266
   83SOL    HW1 1148   0.634   0.788   0.321
   83SOL    HW2 1149   0.528   0.810   0.200
   84SOL     OW 1150   5.985   2.968   3.137
   84SOL    HW1 1151   5.937   2.890   3.177
   84SOL    HW2 1152   5.998   2.952   3.039
   85SOL     OW 1153   1.692   1.111   3.858
   85SOL    HW1 1154   1.646   1.035   3.813
   85SOL    HW2 1155   1.691   1.191   3.797
   86SOL     OW 1156   6.972   1.237   5.309
   86SOL    HW1 1157   6.924   1.286   5.382
   86SOL    HW2 1158   6.964   1.289   5.223
   87SOL     OW 1159   4.667   3.732   0.919
   87SOL    HW1 1160   4.767   3.726   0.915
   87SOL    HW2 1161   4.627   3.655   0.869
   88SOL     OW 1162   3.521   1.639   5.318
   88SOL    HW1 1163   3.452   1.574   5.349
   88SOL    HW2 1164   3.530   1.713   5.384
   89SOL     OW 1165   1.597   2.680   5.781
   89SOL    HW1 1166   1.589   2.673   5.880
   89SOL    HW2 1167   1.604   2.589   5.741
   90SOL     OW 1168   3.249   5.160   2.734
   90SOL    HW1 1169   3.285   5.141   2.642
   90SOL    HW2 1170   3.275   5.086   2.795
   91SOL     OW 1171   5.539   4.242   5.358
   91SOL    HW1 1172   5.558   4.283   5.268
   91SOL    HW2 1173   5.593   4.158   5.368
   92SOL     OW 1174   4.328   4.817   0.675
   92SOL    HW1 1175   4.250   4.833   0.615
   92SOL    HW2 1176   4.373   4.731   0.650
   93SOL     OW 1177   3.171   4.228   0.315
   93SOL    HW1 1178   3.092   4.212   0.256
   93SOL    HW2 1179   3.149   4.198   0.408
   94SOL     OW 1180   2.208   5.763   6.423
   94SOL    HW1 1181   2.216   5.700   6.500
   94SOL    HW2 1182   2.129   5.823   6.436
   95SOL     OW 1183   0.966   0.776   3.728
   95SOL    HW1 1184   0.974   0.724   3.643
   95SOL    HW2 1185   0.869   0.791   3.749
   96SOL     OW 1186   3.153   0.824   4.960
   96SOL    HW1 1187   3.146   0.774   5.047
   96SOL    HW2 1188   3.188   0.762   4.890
   97SOL     OW 1189   2.173   3.204   5.900
   97SOL    HW1 1190   2.122   3.233   5.819
   97SOL    HW2 1191   2.271   3.206   5.881
   98SOL     OW 1192   0.475   3.401   0.938
   98SOL    HW1 1193   0.524   3.489   0.937
   98SOL    HW2 1194   0.455   3.374   0.844
   99SOL     OW 1195   3.619   3.097   1.328
   99SOL    HW1 1196   3.679   3.159   1.278
   99SOL    HW2 1197   3.626   3.115   1.426
  100SOL     OW 1198   0.073   6.966   5.078
  100SOL    HW1 1199   0.157   6.989   5.126
  100SOL    HW2 1200   0.003   6.937   5.143
  101SOL     OW 1201   1.480   5.162   2.096
  101SOL    HW1 1202   1.469   5.261   2.105
  101SOL    HW2 1203   1.537   5.128   2.171
  102SOL     OW 1204   4.471   5.928   2.086
  102SOL    HW1 1205   4.379   5.915   2.048
  102SOL    HW2 1206   4.533   5.860   2.048
  103SOL     OW 1207   2.092   1.890   1.756
  103SOL    HW1 1208   2.107   1.984   1.789
  103SOL    HW2 1209   1.998   1.880   1.723
  104SOL     OW 1210   0.994   5.491   2.637
  104SOL    HW1 1211   1.014   5.427   2.562
  104SOL    HW2 1212   0.917   5.549   2.611
  105SOL     OW 1213   6.562   2.133   6.734
  105SOL    HW1 1214   6.608   2.048   6.759
  105SOL    HW2 1215   6.559   2.194   6.813
  106SOL     OW 1216   3.538   6.338   4.690
  106SOL    HW1 1217   3.465   6.339   4.621
  106SOL    HW2 1218   3.521   6.265   4.756
  107SOL     OW 1219   1.299   0.932   1.339
  107SOL    HW1 1220   1.301   0.881   1.253
  107SOL    HW2 1221   1.392   0.947   1.372
  108SOL     OW 1222   2.282   6.501   5.558
  108SOL    HW1 1223   2.366   6.492   5.613
  108SOL    HW2 1224   2.278   6.428   5.490
  109SOL     OW 1225   0.589   0.467   1.908
  109SOL    HW1 1226   0.643   0.455   1.825
  109SOL    HW2 1227   0.509   0.407   1.905
  110SOL     OW 1228   2.948   5.989   4.618
  110SOL    HW1 1229   2.864   5.970   4.567
  110SOL    HW2 1230   2.957   5.924   4.694
  111SOL     OW 1231   1.953   1.056   4.428
  111SOL    HW1 1232   1.941   0.957   4.426
  111SOL    HW2 1233   1.985   1.087   4.338
  112SOL     OW 1234   3.695   6.352   6.444
  112SOL    HW1 1235   3.599   6.378   6.435
  112SOL    HW2 1236   3.701   6.262   6.488
  113SOL     OW 1237   0.372   5.155   3.209
  113SOL    HW1 1238   0.442   5.208   3.256
  113SOL    HW2 1239   0.303   5.127   3.276
  114SOL     OW 1240   1.066   0.026   2.425
  114SOL    HW1 1241   1.062   7.006   2.517
  114SOL    HW2 1242   0.974   0.050   2.394
  115SOL     OW 1243   4.631   1.376   2.986
  115SOL    HW1 1244   4.601   1.393   3.080
  115SOL    HW2 1245   4.731   1.368   2.984
  116SOL     OW 1246   5.996   5.523   2.353
  116SOL    HW1 1247   6.076   5.562   2.399
  116SOL    HW2 1248   5.965   5.442   2.403
  117SOL     OW 1249   1.573   2.349   0.545
  117SOL    HW1 1250   1.604   2.264   0.504
  117SOL    HW2 1251   1.478   2.339   0.575
  118SOL     OW 1252   1.646   0.836   2.579
  118SOL    HW1 1253   1.634   0.737   2.589
  118SOL    HW2 1254   1.711   0.868   2.648
  119SOL     OW 1255   0.463   0.428   0.146
  119SOL    HW1 1256   0.475   0.384   0.057
  119SOL    HW2 1257   0.516   0.513   0.149
  120SOL     OW 1258   5.362   0.006   6.735
  120SOL    HW1 1259   5.412   6.999   6.818
  120SOL    HW2 1260   5.342   0.104   6.736
  121SOL     OW 1261   1.038   3.525   6.081
  121SOL    HW1 1262   0.954   3.515   6.028
  121SOL    HW2 1263   1.102   3.452   6.058
  122SOL     OW 1264   1.727   3.797   5.904
  122SOL    HW1 1265   1.649   3.756   5.858
  122SOL    HW2 1266   1.790   3.725   5.934
  123SOL     OW 1267   0.498   1.120   2.588
  123SOL    HW1 1268   0.445   1.051   2.537
  123SOL    HW2 1269   0.437   1.191   2.621
  124SOL     OW 1270   3.649   2.970   0.434
  124SOL    HW1 1271   3.627   2.874   0.453
  124SOL    HW2 1272   3.733   2.995   0.481
  125SOL     OW 1273   3.345   2.012   0.595
  125SOL    HW1 1274   3.423   2.073   0.580
  125SOL    HW2 1275   3.363   1.952   0.672
  126SOL     OW 1276   2.130   4.272   0.579
  126SOL    HW1 1277   2.080   4.253   0.664
  126SOL    HW2 1278   2.220   4.228   0.583
  127SOL     OW 1279   0.708   5.067   6.726
  127SOL    HW1 1280   0.797   5.110   6.741
  127SOL    HW2 1281   0.708   4.974   6.762
  128SOL     OW 1282   5.220   2.445   1.420
  128SOL    HW1 1283   5.243   2.369   1.359
  128SOL    HW2 1284   5.300   2.470   1.474
  129SOL     OW 1285   2.481   3.407   6.123
  129SOL    HW1 1286   2.512   3.374   6.212
  129SOL    HW2 1287   2.382   3.421   6.126
  130SOL     OW 1288   1.423   1.723   4.515
  130SOL    HW1 1289   1.523   1.729   4.507
  130SOL    HW2 1290   1.399   1.686   4.604
  131SOL     OW 1291   4.704   0.786   3.054
  131SOL    HW1 1292   4.605   0.792   3.042
  131SOL    HW2 1293   4.737   0.697   3.022
  132SOL     OW 1294   3.057   3.059   1.729
  132SOL    HW1 1295   3.052   3.110   1.815
  132SOL    HW2 1296   2.968   3.062   1.684
  133SOL     OW 1297   5.389   0.448   4.393
  133SOL    HW1 1298   5.290   0.459   4.384
  133SOL    HW2 1299   5.434   0.486   4.312
  134SOL     OW 1300   6.658   0.597   2.440
  134SOL    HW1 1301   6.752   0.582   2.408
  134SOL    HW2 1302   6.645   0.694   2.462
  135SOL     OW 1303   5.501   3.442   3.340
  135SOL    HW1 1304   5.569   3.458   3.268
  135SOL    HW2 1305   5.546   3.441   3.429
  136SOL     OW 1306   1.936   4.741   6.018
  136SOL    HW1 1307   1.900   4.648   6.022
  136SOL    HW2 1308   1.860   4.806   6.015
  137SOL     OW 1309   5.750   2.404   3.284
  137SOL    HW1 1310   5.700   2.466   3.345
  137SOL    HW2 1311   5.833   2.373   3.330
  138SOL     OW 1312   1.462   4.626   2.526
  138SOL    HW1 1313   1.544   4.622   2.583
  138SOL    HW2 1314   1.381   4.613   2.583
  139SOL     OW 1315   1.552   0.322   5.247
  139SOL    HW1 1316   1.521   0.367   5.331
  139SOL    HW2 1317   1.479   0.326   5.179
  140SOL     OW 1318   1.325   6.364   3.906
  140SOL    HW1 1319   1.410   6.348   3.957
  140SOL    HW2 1320   1.287   6.276   3.875
  141SOL     OW 1321   0.329   2.321   5.147
  141SOL    HW1 1322   0.280   2.301   5.232
  141SOL    HW2 1323   0.306   2.413   5.117
  142SOL     OW 1324   1.454   3.684   1.130
  142SOL    HW1 1325   1.360   3.687   1.163
  142SOL    HW2 1326   1.455   3.679   1.030
  143SOL     OW 1327   5.526   4.294   0.444
  143SOL    HW1 1328   5.561   4.297   0.537
  143SOL    HW2 1329   5.586   4.237   0.388
  144SOL     OW 1330   1.534   4.850   6.022
  144SOL    HW1 1331   1.456   4.864   5.961
  144SOL    HW2 1332   1.612   4.816   5.969
  145SOL     OW 1333   0.714   5.643   0.525
  145SOL    HW1 1334   0.769   5.567   0.559
  145SOL    HW2 1335   0.755   5.679   0.441
  146SOL     OW 1336   4.810   0.582   6.134
  146SOL    HW1 1337   4.779   0.669   6.174
  146SOL    HW2 1338   4.737   0.545   6.077
  147SOL     OW 1339   5.650   3.328   6.832
  147SOL    HW1 1340   5.611   3.306   6.742
  147SOL    HW2 1341   5.577   3.351   6.895
  148SOL     OW 1342   6.695   5.422   0.813
  148SOL    HW1 1343   6.680   5.508   0.764
  148SOL    HW2 1344   6.649   5.426   0.902
  149SOL     OW 1345   4.072   1.925   4.006
  149SOL    HW1 1346   3.978   1.889   4.005
  149SOL    HW2 1347   4.074   2.009   4.059
  150SOL     OW 1348   5.994   6.928   0.927
  150SOL    HW1 1349   6.034   6.859   0.988
  150SOL    HW2 1350   6.066   6.991   0.898
  151SOL     OW 1351   3.011   2.661   1.190
  151SOL    HW1 1352   3.054   2.632   1.275
  151SOL    HW2 1353   3.071   2.639   1.113
  152SOL     OW 1354   0.335   0.648   1.702
  152SOL    HW1 1355   0.362   0.556   1.676
  152SOL    HW2 1356   0.356   0.712   1.628
  153SOL     OW 1357   2.653   0.831   3.165
  153SOL    HW1 1358   2.571   0.844   3.220
  153SOL    HW2 1359   2.631   0.843   3.068
  154SOL     OW 1360   0.721   3.190   2.035
  154SOL    HW1 1361   0.636   3.175   2.085
  154SOL    HW2 1362   0.710   3.266   1.971
  155SOL     OW 1363   0.318   1.694   3.987
  155SOL    HW1 1364   0.376   1.666   4.063
  155SOL    HW2 1365   0.282   1.785   4.005
  156SOL     OW 1366   6.802   1.097   0.316
  156SOL    HW1 1367   6.798   1.183   0.367
  156SOL    HW2 1368   6.886   1.095   0.261
  157SOL     OW 1369   5.293   3.402   1.961
  157SOL    HW1 1370   5.380   3.378   2.004
  157SOL    HW2 1371   5.243   3.319   1.939
  158SOL     OW 1372   1.817   4.353   2.514
  158SOL    HW1 1373   1.915   4.350   2.497
  158SOL    HW2 1374   1.773   4.412   2.447
  159SOL     OW 1375   4.874   3.778   2.589
  159SOL    HW1 1376   4.884   3.843   2.513
  159SOL    HW2 1377   4.778   3.753   2.599
  160SOL     OW 1378   5.194   5.827   0.888
  160SOL    HW1 1379   5.162   5.753   0.947
  160SOL    HW2 1380   5.175   5.915   0.931
  161SOL     OW 1381   1.856   6.250   3.886
  161SOL    HW1 1382   1.948   6.290   3.885
  161SOL    HW2 1383   1.835   6.217   3.978
  162SOL     OW 1384   3.645   6.193   0.454
  162SOL    HW1 1385   3.571   6.238   0.504
  162SOL    HW2 1386   3.734   6.224   0.489
  163SOL     OW 1387   5.844   5.745   1.135
  163SOL    HW1 1388   5.879   5.656   1.106
  163SOL    HW2 1389   5.914   5.815   1.119
  164SOL     OW 1390   6.991   3.926   2.043
  164SOL    HW1 1391   0.037   3.950   1.970
  164SOL    HW2 1392   7.017   3.973   2.127
  165SOL     OW 1393   5.037   3.373   1.421
  165SOL    HW1 1394   4.960   3.426   1.456
  165SOL    HW2 1395   5.015   3.276   1.426
  166SOL     OW 1396   0.860   3.806   2.626
  166SOL    HW1 1397   0.856   3.808   2.526
  166SOL    HW2 1398   0.782   3.753   2.661
  167SOL     OW 1399   5.205   2.958   6.776
  167SOL    HW1 1400   5.188   3.042   6.827
  167SOL    HW2 1401   5.296   2.962   6.734
  168SOL     OW 1402   3.105   3.522   1.589
  168SOL    HW1 1403   3.130   3.426   1.594
  168SOL    HW2 1404   3.153   3.565   1.512
  169SOL     OW 1405   5.341   2.094   1.666
  169SOL    HW1 1406   5.332   1.996   1.682
  169SOL    HW2 1407   5.304   2.145   1.743
  170SOL     OW 1408   0.770   0.461   3.085
  170SOL    HW1 1409   0.722   0.536   3.038
  170SOL    HW2 1410   0.833   0.417   3.022
  171SOL     OW 1411   3.222   4.655   6.675
  171SOL    HW1 1412   3.128   4.660   6.642
  171SOL    HW2 1413   3.244   4.561   6.701
  172SOL     OW 1414   6.363   1.279   2.950
  172SOL    HW1 1415   6.331   1.239   2.865
  172SOL    HW2 1416   6.463   1.275   2.954
  173SOL     OW 1417   5.874   1.380   4.018
  173SOL    HW1 1418   5.814   1.303   3.995
  173SOL    HW2 1419   5.823   1.465   4.009
  174SOL     OW 1420   4.241   5.429   3.725
  174SOL    HW1 1421   4.266   5.454   3.819
  174SOL    HW2 1422   4.275   5.337   3.706
  175SOL     OW 1423   3.379   0.599   1.870
  175SOL    HW1 1424   3.431   0.526   1.915
  175SOL    HW2 1425   3.286   0.567   1.853
  176SOL     OW 1426   0.134   4.234   0.936
  176SOL    HW1 1427   0.086   4.321   0.919
  176SOL    HW2 1428   0.232   4.252   0.947
  177SOL     OW 1429   5.261   2.604   2.824
  177SOL    HW1 1430   5.168   2.639   2.813
  177SOL    HW2 1431   5.292   2.564   2.738
  178SOL     OW 1432   2.162   3.550   6.480
  178SOL    HW1 1433   2.092   3.591   6.422
  178SOL    HW2 1434   2.163   3.451   6.466
  179SOL     OW 1435   4.059   1.695   5.299
  179SOL    HW1 1436   4.014   1.707   5.210
  179SOL    HW2 1437   3.990   1.694   5.371
  180SOL     OW 1438   2.050   6.878   0.055
  180SOL    HW1 1439   1.968   6.902   0.004
  180SOL    HW2 1440   2.026   6.852   0.148
  181SOL     OW 1441   3.081   3.376   6.200
  181SOL    HW1 1442   3.048   3.407   6.111
  181SOL    HW2 1443   3.131   3.290   6.188
  182SOL     OW 1444   3.539   1.936   5.324
  182SOL    HW1 1445   3.559   1.941   5.422
  182SOL    HW2 1446   3.445   1.968   5.308
  183SOL     OW 1447   3.827   2.059   3.140
  183SOL    HW1 1448   3.828   1.960   3.147
  183SOL    HW2 1449   3.895   2.098   3.203
  184SOL     OW 1450   0.667   6.591   4.599
  184SOL    HW1 1451   0.732   6.632   4.662
  184SOL    HW2 1452   0.671   6.491   4.606
  185SOL     OW 1453   1.098   1.327   6.098
  185SOL    HW1 1454   1.061   1.325   6.006
  185SOL    HW2 1455   1.023   1.323   6.164
  186SOL     OW 1456   5.716   0.659   4.262
  186SOL    HW1 1457   5.792   0.685   4.322
  186SOL    HW2 1458   5.744   0.669   4.167
  187SOL     OW 1459   4.650   0.153   2.470
  187SOL    HW1 1460   4.699   0.100   2.539
  187SOL    HW2 1461   4.654   0.104   2.382
  188SOL     OW 1462   0.948   2.422   3.332
  188SOL    HW1 1463   0.992   2.439   3.421
  188SOL    HW2 1464   0.860   2.378   3.346
  189SOL     OW 1465   2.310   5.091   1.430
  189SOL    HW1 1466   2.338   5.105   1.525
  189SOL    HW2 1467   2.220   5.047   1.428
  190SOL     OW 1468   4.922   2.641   5.021
  190SOL    HW1 1469   4.980   2.642   4.939
  190SOL    HW2 1470   4.844   2.702   5.008
  191SOL     OW 1471   5.850   0.302   6.880
  191SOL    HW1 1472   5.863   0.335   6.973
  191SOL    HW2 1473   5.772   0.239   6.878
  192SOL     OW 1474   1.126   5.669   1.705
  192SOL    HW1 1475   1.187   5.746   1.687
  192SOL    HW2 1476   1.042   5.702   1.749
  193SOL     OW 1477   4.382   3.585   5.369
  193SOL    HW1 1478   4.334   3.571   5.283
  193SOL    HW2 1479   4.458   3.520   5.376
  194SOL     OW 1480   4.326   1.083   3.109
  194SOL    HW1 1481   4.416   1.079   3.065
  194SOL    HW2 1482   4.315   1.003   3.169
  195SOL     OW 1483   1.923   0.330   4.919
  195SOL    HW1 1484   1.831   0.312   4.885
  195SOL    HW2 1485   1.918   0.365   5.012
  196SOL     OW 1486   2.452   0.493   0.887
  196SOL    HW1 1487   2.383   0.423   0.904
  196SOL    HW2 1488   2.451   0.559   0.962
  197SOL     OW 1489   2.661   0.223   1.467
  197SOL    HW1 1490   2.591   0.225   1.539
  197SOL    HW2 1491   2.725   0.298   1.480
  198SOL     OW 1492   5.216   0.278   1.522
  198SOL    HW1 1493   5.257   0.355   1.571
  198SOL    HW2 1494   5.244   0.193   1.566
  199SOL     OW 1495   0.284   1.427   3.855
  199SOL    HW1 1496   0.264   1.499   3.920
  199SOL    HW2 1497   0.375   1.389   3.874
  200SOL     OW 1498   0.916   4.284   1.590
  200SOL    HW1 1499   1.005   4.252   1.623
  200SOL    HW2 1500   0.918   4.289   1.490
  201SOL     OW 1501   6.418   6.966   5.816
  201SOL    HW1 1502   6.369   0.036   5.807
  201SOL    HW2 1503   6.362   6.902   5.867
  202SOL     OW 1504   4.529   1.194   0.068
  202SOL    HW1 1505   4.617   1.214   0.110
  202SOL    HW2 1506   4.533   1.216   6.988
  203SOL     OW 1507   5.359   2.198   4.795
  203SOL    HW1 1508   5.342   2.225   4.889
  203SOL    HW2 1509   5.375   2.099   4.791
  204SOL     OW 1510   0.801   1.029   5.631
  204SOL    HW1 1511   0.777   1.015   5.727
  204SOL    HW2 1512   0.824   0.941   5.589
  205SOL     OW 1513   0.736   1.510   2.937
  205SOL    HW1 1514   0.794   1.542   2.862
  205SOL    HW2 1515   0.781   1.529   3.024
  206SOL     OW 1516   0.009   4.223   1.203
  206SOL    HW1 1517   0.091   4.219   1.145
  206SOL    HW2 1518   0.009   4.144   1.264
  207SOL     OW 1519   5.873   1.964   3.361
  207SOL    HW1 1520   5.884   1.869   3.330
  207SOL    HW2 1521   5.842   1.964   3.456
  208SOL     OW 1522   5.904   2.907   5.091
  208SOL    HW1 1523   5.908   2.911   4.991
  208SOL    HW2 1524   5.905   3.000   5.128
  209SOL     OW 1525   0.479   4.530   3.727
  209SOL    HW1 1526   0.519   4.616   3.758
  209SOL    HW2 1527   0.500   4.458   3.794
  210SOL     OW 1528   4.092   2.268   1.121
  210SOL    HW1 1529   4.140   2.196   1.170
  210SOL    HW2 1530   4.068   2.236   1.029
  211SOL     OW 1531   2.202   5.989   2.864
  211SOL    HW1 1532   2.246   5.915   2.814
  211SOL    HW2 1533   2.150   6.047   2.801
  212SOL     OW 1534   1.322   3.915   1.780
  212SOL    HW1 1535   1.341   3.820   1.753
  212SOL    HW2 1536   1.268   3.915   1.865
  213SOL     OW 1537   3.561   0.883   0.591
  213SOL    HW1 1538   3.586   0.958   0.530
  213SOL    HW2 1539   3.626   0.808   0.582
  214SOL     OW 1540   4.704   4.977   1.754
  214SOL    HW1 1541   4.749   4.893   1.723
  214SOL    HW2 1542   4.618   4.989   1.705
  215SOL     OW 1543   2.446   3.769   0.732
  215SOL    HW1 1544   2.388   3.749   0.811
  215SOL    HW2 1545   2.457   3.686   0.676
  216SOL     OW 1546   2.162   6.152   3.722
  216SOL    HW1 1547   2.088   6.086   3.732
  216SOL    HW2 1548   2.217   6.154   3.804
  217SOL     OW 1549   1.008   2.071   3.634
  217SOL    HW1 1550   1.064   2.148   3.665
  217SOL    HW2 1551   1.005   2.001   3.706
  218SOL     OW 1552   0.170   3.963   4.409
  218SOL    HW1 1553   0.161   4.031   4.482
  218SOL    HW2 1554   0.113   3.990   4.331
  219SOL     OW 1555   4.539   0.043   6.467
  219SOL    HW1 1556   4.601   7.014   6.530
  219SOL    HW2 1557   4.547   0.142   6.480
  220SOL     OW 1558   2.626   0.127   1.006
  220SOL    HW1 1559   2.726   0.129   1.015
  220SOL    HW2 1560   2.587   0.206   1.053
  221SOL     OW 1561   6.872   3.038   1.065
  221SOL    HW1 1562   6.834   3.021   1.156
  221SOL    HW2 1563   6.969   3.062   1.074
  222SOL     OW 1564   2.146   5.417   5.696
  222SOL    HW1 1565   2.079   5.477   5.739
  222SOL    HW2 1566   2.183   5.461   5.614
  223SOL     OW 1567   5.949   2.685   6.948
  223SOL    HW1 1568   5.966   2.740   6.867
  223SOL    HW2 1569   5.852   2.662   6.954
  224SOL     OW 1570   1.797   1.423   4.734
  224SOL    HW1 1571   1.728   1.470   4.678
  224SOL    HW2 1572   1.854   1.366   4.676
  225SOL     OW 1573   4.239   3.275   6.154
  225SOL    HW1 1574   4.319   3.305   6.206
  225SOL    HW2 1575   4.156   3.304   6.201
  226SOL     OW 1576   2.059   1.094   5.920
  226SOL    HW1 1577   1.988   1.039   5.876
  226SOL    HW2 1578   2.116   1.035   5.977
  227SOL     OW 1579   1.786   3.929   2.428
  227SOL    HW1 1580   1.808   3.926   2.330
  227SOL    HW2 1581   1.706   3.872   2.446
  228SOL     OW 1582   3.124   6.188   3.885
  228SOL    HW1 1583   3.189   6.227   3.819
  228SOL    HW2 1584   3.131   6.088   3.881
  229SOL     OW 1585   5.673   6.010   6.793
  229SOL    HW1 1586   5.599   5.963   6.841
  229SOL    HW2 1587   5.701   6.090   6.846
  230SOL     OW 1588   3.212   5.212   3.923
  230SOL    HW1 1589   3.231   5.257   3.836
  230SOL    HW2 1590   3.250   5.266   3.998
  231SOL     OW 1591   6.294   1.869   6.051
  231SOL    HW1 1592   6.226   1.884   5.980
  231SOL    HW2 1593   6.286   1.776   6.087
  232SOL     OW 1594   1.067   3.000   6.622
  232SOL    HW1 1595   1.142   2.936   6.602
  232SOL    HW2 1596   1.013   2.964   6.698
  233SOL     OW 1597   2.807   1.453   3.383
  233SOL    HW1 1598   2.847   1.403   3.307
  233SOL    HW2 1599   2.783   1.546   3.354
  234SOL     OW 1600   5.350   0.214   5.532
  234SOL    HW1 1601   5.403   0.218   5.616
  234SOL    HW2 1602   5.264   0.263   5.545
  235SOL     OW 1603   3.631   2.622   1.549
  235SOL    HW1 1604   3.729   2.639   1.560
  235SOL    HW2 1605   3.615   2.577   1.461
  236SOL     OW 1606   5.020   3.192   6.585
  236SOL    HW1 1607   4.964   3.118   6.621
  236SOL    HW2 1608   4.989   3.216   6.493
  237SOL     OW 1609   5.843   4.529   2.087
  237SOL    HW1 1610   5.777   4.562   2.020
  237SOL    HW2 1611   5.803   4.457   2.142
  238SOL     OW 1612   4.670   2.498   0.495
  238SOL    HW1 1613   4.689   2.456   0.406
  238SOL    HW2 1614   4.594   2.451   0.539
  239SOL     OW 1615   0.731   5.519   6.713
  239SOL    HW1 1616   0.806   5.584   6.702
  239SOL    HW2 1617   0.662   5.536   6.642
  240SOL     OW 1618   0.407   2.599   3.260
  240SOL    HW1 1619   0.352   2.679   3.283
  240SOL    HW2 1620   0.369   2.519   3.306
  241SOL     OW 1621   2.214   0.800   5.071
  241SOL    HW1 1622   2.219   0.700   5.077
  241SOL    HW2 1623   2.219   0.839   5.162
  242SOL     OW 1624   3.169   3.023   4.687
  242SOL    HW1 1625   3.074   3.055   4.680
  242SOL    HW2 1626   3.188   2.996   4.781
  243SOL     OW 1627   3.871   0.769   5.623
  243SOL    HW1 1628   3.901   0.853   5.669
  243SOL    HW2 1629   3.928   0.753   5.543
  244SOL     OW 1630   5.962   2.954   4.805
  244SOL    HW1 1631   5.943   3.052   4.794
  244SOL    HW2 1632   5.905   2.901   4.743
  245SOL     OW 1633   5.981   4.373   3.698
  245SOL    HW1 1634   6.052   4.310   3.729
  245SOL    HW2 1635   5.909   4.379   3.767
  246SOL     OW 1636   4.537   2.600   3.684
  246SOL    HW1 1637   4.484   2.515   3.690
  246SOL    HW2 1638   4.475   2.678   3.696
  247SOL     OW 1639   2.938   1.570   1.378
  247SOL    HW1 1640   2.950   1.476   1.346
  247SOL    HW2 1641   2.988   1.633   1.317
  248SOL     OW 1642   3.435   1.629   2.775
  248SOL    HW1 1643   3.364   1.587   2.719
  248SOL    HW2 1644   3.515   1.649   2.718
  249SOL     OW 1645   4.508   0.453   5.281
  249SOL    HW1 1646   4.472   0.365   5.250
  249SOL    HW2 1647   4.583   0.438   5.345
  250SOL     OW 1648   5.014   2.314   0.843
  250SOL    HW1 1649   4.973   2.401   0.869
  250SOL    HW2 1650   5.086   2.290   0.908
  251SOL     OW 1651   4.663   4.366   5.844
  251SOL    HW1 1652   4.719   4.351   5.762
  251SOL    HW2 1653   4.573   4.323   5.831
  252SOL     OW 1654   6.455   6.144   0.291
  252SOL    HW1 1655   6.414   6.232   0.319
  252SOL    HW2 1656   6.460   6.084   0.371
  253SOL     OW 1657   2.818   5.457   6.859
  253SOL    HW1 1658   2.869   5.385   6.811
  253SOL    HW2 1659   2.744   5.415   6.912
  254SOL     OW 1660   5.138   2.858   3.658
  254SOL    HW1 1661   5.090   2.772   3.673
  254SOL    HW2 1662   5.125   2.888   3.564
  255SOL     OW 1663   1.730   3.398   4.867
  255SOL    HW1 1664   1.691   3.428   4.780
  255SOL    HW2 1665   1.687   3.447   4.943
  256SOL     OW 1666   6.562   3.873   6.103
  256SOL    HW1 1667   6.632   3.836   6.043
  256SOL    HW2 1668   6.550   3.813   6.182
  257SOL     OW 1669   4.878   6.804   3.463
  257SOL    HW1 1670   4.803   6.867   3.441
  257SOL    HW2 1671   4.859   6.714   3.425
  258SOL     OW 1672   2.095   5.139   4.923
  258SOL    HW1 1673   2.033   5.159   4.999
  258SOL    HW2 1674   2.186   5.172   4.944
  259SOL     OW 1675   0.938   1.945   1.940
  259SOL    HW1 1676   1.005   1.893   1.887
  259SOL    HW2 1677   0.973   2.038   1.954
  260SOL     OW 1678   4.409   1.181   1.250
  260SOL    HW1 1679   4.322   1.148   1.213
  260SOL    HW2 1680   4.446   1.113   1.313
  261SOL     OW 1681   6.476   3.363   0.754
  261SOL    HW1 1682   6.393   3.307   0.763
  261SOL    HW2 1683   6.515   3.350   0.663
  262SOL     OW 1684   6.548   4.018   0.628
  262SOL    HW1 1685   6.555   4.115   0.605
  262SOL    HW2 1686   6.639   3.982   0.647
  263SOL     OW 1687   1.127   1.118   3.813
  263SOL    HW1 1688   1.162   1.034   3.770
  263SOL    HW2 1689   1.203   1.171   3.850
  264SOL     OW 1690   5.467   3.386   6.608
  264SOL    HW1 1691   5.395   3.358   6.671
  264SOL    HW2 1692   5.461   3.484   6.591
  265SOL     OW 1693   4.854   5.369   2.713
  265SOL    HW1 1694   4.936   5.367   2.657
  265SOL    HW2 1695   4.864   5.304   2.789
  266SOL     OW 1696   2.854   2.947   5.590
  266SOL    HW1 1697   2.944   2.954   5.633
  266SOL    HW2 1698   2.810   3.037   5.590
  267SOL     OW 1699   0.524   1.800   6.635
  267SOL    HW1 1700   0.528   1.824   6.538
  267SOL    HW2 1701   0.475   1.714   6.646
  268SOL     OW 1702   3.634   0.601   5.660
  268SOL    HW1 1703   3.706   0.660   5.624
  268SOL    HW2 1704   3.593   0.644   5.741
  269SOL     OW 1705   1.037   3.700   1.844
  269SOL    HW1 1706   0.997   3.791   1.832
  269SOL    HW2 1707   0.993   3.636   1.781
  270SOL     OW 1708   0.241   0.481   6.953
  270SOL    HW1 1709   0.262   0.391   6.991
  270SOL    HW2 1710   0.196   0.537   0.005
  271SOL     OW 1711   1.246   1.717   6.972
  271SOL    HW1 1712   1.326   1.772   6.950
  271SOL    HW2 1713   1.167   1.777   6.988
  272SOL     OW 1714   3.357   5.180   4.223
  272SOL    HW1 1715   3.301   5.262   4.210
  272SOL    HW2 1716   3.398   5.181   4.314
  273SOL     OW 1717   2.047   4.130   4.807
  273SOL    HW1 1718   2.111   4.182   4.864
  273SOL    HW2 1719   2.089   4.043   4.782
  274SOL     OW 1720   4.311   1.739   2.881
  274SOL    HW1 1721   4.400   1.731   2.837
  274SOL    HW2 1722   4.242   1.694   2.825
  275SOL     OW 1723   5.992   5.056   5.426
  275SOL    HW1 1724   6.081   5.099   5.441
  275SOL    HW2 1725   5.954   5.086   5.339
  276SOL     OW 1726   0.185   5.920   2.444
  276SOL    HW1 1727   0.123   5.986   2.485
  276SOL    HW2 1728   0.136   5.834   2.426
  277SOL     OW 1729   1.278   3.793   0.658
  277SOL    HW1 1730   1.320   3.879   0.629
  277SOL    HW2 1731   1.179   3.801   0.652
  278SOL     OW 1732   6.170   5.175   2.190
  278SOL    HW1 1733   6.246   5.223   2.232
  278SOL    HW2 1734   6.193   5.151   2.095
  279SOL     OW 1735   6.242   2.785   4.559
  279SOL    HW1 1736   6.188   2.703   4.576
  279SOL    HW2 1737   6.186   2.852   4.509
  280SOL     OW 1738   3.004   0.067   3.045
  280SOL    HW1 1739   3.100   0.089   3.062
  280SOL    HW2 1740   2.983   6.995   3.084
  281SOL     OW 1741   2.946   4.820   2.429
  281SOL    HW1 1742   2.939   4.910   2.388
  281SOL    HW2 1743   2.912   4.751   2.365
  282SOL     OW 1744   3.332   1.474   5.421
  282SOL    HW1 1745   3.267   1.528   5.475
  282SOL    HW2 1746   3.282   1.420   5.353
  283SOL     OW 1747   6.495   1.472   5.623
  283SOL    HW1 1748   6.533   1.453   5.533
  283SOL    HW2 1749   6.489   1.386   5.675
  284SOL     OW 1750   1.084   4.100   4.423
  284SOL    HW1 1751   1.116   4.030   4.486
  284SOL    HW2 1752   1.000   4.141   4.458
  285SOL     OW 1753   6.232   4.760   5.653
  285SOL    HW1 1754   6.282   4.755   5.567
  285SOL    HW2 1755   6.137   4.786   5.635
  286SOL     OW 1756   3.603   5.974   5.330
  286SOL    HW1 1757   3.643   6.052   5.282
  286SOL    HW2 1758   3.638   5.971   5.424
  287SOL     OW 1759   0.284   4.320   0.063
  287SOL    HW1 1760   0.375   4.350   0.034
  287SOL    HW2 1761   0.289   4.225   0.096
  288SOL     OW 1762   3.410   1.934   5.674
  288SOL    HW1 1763   3.505   1.906   5.678
  288SOL    HW2 1764   3.390   1.994   5.751
  289SOL     OW 1765   0.317   4.984   4.711
  289SOL    HW1 1766   0.313   4.895   4.756
  289SOL    HW2 1767   0.296   4.974   4.614
  290SOL     OW 1768   5.609   2.406   4.306
  290SOL    HW1 1769   5.542   2.408   4.231
  290SOL    HW2 1770   5.642   2.313   4.319
  291SOL     OW 1771   1.664   2.038   4.738
  291SOL    HW1 1772   1.574   2.079   4.748
  291SOL    HW2 1773   1.655   1.939   4.723
  292SOL     OW 1774   1.452   2.020   2.845
  292SOL    HW1 1775   1.366   2.031   2.895
  292SOL    HW2 1776   1.443   1.946   2.779
  293SOL     OW 1777   4.271   5.055   1.856
  293SOL    HW1 1778   4.233   4.984   1.915
  293SOL    HW2 1779   4.250   5.145   1.894
  294SOL     OW 1780   6.337   5.324   6.593
  294SOL    HW1 1781   6.284   5.311   6.677
  294SOL    HW2 1782   6.300   5.401   6.541
  295SOL     OW 1783   3.031   1.813   4.206
  295SOL    HW1 1784   3.001   1.816   4.301
  295SOL    HW2 1785   3.127   1.783   4.203
  296SOL     OW 1786   4.852   1.760   2.886
  296SOL    HW1 1787   4.943   1.784   2.852
  296SOL    HW2 1788   4.860   1.712   2.973
  297SOL     OW 1789   2.273   4.196   2.758
  297SOL    HW1 1790   2.339   4.248   2.704
  297SOL    HW2 1791   2.302   4.100   2.763
  298SOL     OW 1792   3.466   6.336   0.615
  298SOL    HW1 1793   3.392   6.316   0.681
  298SOL    HW2 1794   3.495   6.431   0.626
  299SOL     OW 1795   4.070   3.821   6.674
  299SOL    HW1 1796   3.984   3.868   6.696
  299SOL    HW2 1797   4.121   3.875   6.608
  300SOL     OW 1798   5.938   0.900   1.316
  300SOL    HW1 1799   5.893   0.872   1.401
  300SOL    HW2 1800   5.952   0.999   1.316
  301SOL     OW 1801   4.970   3.219   1.012
  301SOL    HW1 1802   4.957   3.129   1.053
  301SOL    HW2 1803   4.902   3.282   1.050
  302SOL     OW 1804   0.447   0.683   3.338
  302SOL    HW1 1805   0.521   0.748   3.355
  302SOL    HW2 1806   0.480   0.590   3.354
  303SOL     OW 1807   6.062   0.112   1.206
  303SOL    HW1 1808   6.113   0.145   1.127
  303SOL    HW2 1809   6.066   0.180   1.279
  304SOL     OW 1810   2.631   0.250   4.140
  304SOL    HW1 1811   2.675   0.160   4.146
  304SOL    HW2 1812   2.645   0.299   4.226
  305SOL     OW 1813   0.594   3.135   0.481
  305SOL    HW1 1814   0.587   3.085   0.568
  305SOL    HW2 1815   0.645   3.079   0.415
  306SOL     OW 1816   2.039   0.471   3.827
  306SOL    HW1 1817   2.057   0.526   3.908
  306SOL    HW2 1818   1.950   0.496   3.787
  307SOL     OW 1819   5.139   6.552   0.453
  307SOL    HW1 1820   5.139   6.456   0.484
  307SOL    HW2 1821   5.045   6.585   0.449
  308SOL     OW 1822   5.872   3.571   5.337
  308SOL    HW1 1823   5.888   3.486   5.387
  308SOL    HW2 1824   5.877   3.554   5.239
  309SOL     OW 1825   3.674   5.523   6.746
  309SOL    HW1 1826   3.580   5.491   6.758
  309SOL    HW2 1827   3.689   5.605   6.800
  310SOL     OW 1828   6.231   0.065   5.185
  310SOL    HW1 1829   6.225   0.086   5.283
  310SOL    HW2 1830   6.326   0.043   5.162
  311SOL     OW 1831   5.118   4.644   2.754
  311SOL    HW1 1832   5.191   4.693   2.707
  311SOL    HW2 1833   5.125   4.546   2.734
  312SOL     OW 1834   4.261   1.304   5.515
  312SOL    HW1 1835   4.175   1.274   5.475
  312SOL    HW2 1836   4.306   1.225   5.558
  313SOL     OW 1837   3.479   3.727   2.079
  313SOL    HW1 1838   3.475   3.630   2.104
  313SOL    HW2 1839   3.538   3.776   2.143
  314SOL     OW 1840   3.876   5.279   6.570
  314SOL    HW1 1841   3.822   5.271   6.654
  314SOL    HW2 1842   3.825   5.332   6.502
  315SOL     OW 1843   1.520   2.776   3.565
  315SOL    HW1 1844   1.571   2.732   3.491
  315SOL    HW2 1845   1.471   2.855   3.529
  316SOL     OW 1846   2.901   1.315   3.617
  316SOL    HW1 1847   2.821   1.361   3.578
  316SOL    HW2 1848   2.942   1.255   3.549
  317SOL     OW 1849   0.367   0.509   1.091
  317SOL    HW1 1850   0.404   0.439   1.030
  317SOL    HW2 1851   0.341   0.589   1.037
  318SOL     OW 1852   1.037   5.974   6.779
  318SOL    HW1 1853   0.999   5.882   6.771
  318SOL    HW2 1854   1.118   5.982   6.721
  319SOL     OW 1855   6.730   0.714   3.781
  319SOL    HW1 1856   6.711   0.712   3.879
  319SOL    HW2 1857   6.645   0.725   3.730
  320SOL     OW 1858   6.310   2.295   0.333
  320SOL    HW1 1859   6.314   2.298   0.432
  320SOL    HW2 1860   6.333   2.203   0.301
  321SOL     OW 1861   4.031   1.365   0.412
  321SOL    HW1 1862   4.030   1.408   0.502
  321SOL    HW2 1863   4.120   1.323   0.396
  322SOL     OW 1864   4.106   3.483   4.540
  322SOL    HW1 1865   4.156   3.504   4.624
  322SOL    HW2 1866   4.069   3.390   4.546
  323SOL     OW 1867   1.205   2.818   6.407
  323SOL    HW1 1868   1.298   2.851   6.392
  323SOL    HW2 1869   1.171   2.772   6.325
  324SOL     OW 1870   2.314   1.864   4.381
  324SOL    HW1 1871   2.395   1.879   4.437
  324SOL    HW2 1872   2.265   1.951   4.369
  325SOL     OW 1873   0.848   3.088   1.703
  325SOL    HW1 1874   0.944   3.060   1.709
  325SOL    HW2 1875   0.835   3.147   1.623
  326SOL     OW 1876   1.001   5.185   6.940
  326SOL    HW1 1877   1.030   5.276   6.910
  326SOL    HW2 1878   1.026   5.172   0.019
  327SOL     OW 1879   1.477   5.127   3.751
  327SOL    HW1 1880   1.387   5.119   3.708
  327SOL    HW2 1881   1.465   5.135   3.850
  328SOL     OW 1882   1.314   5.316   1.676
  328SOL    HW1 1883   1.340   5.276   1.764
  328SOL    HW2 1884   1.229   5.274   1.644
  329SOL     OW 1885   3.994   3.836   4.697
  329SOL    HW1 1886   3.930   3.760   4.691
  329SOL    HW2 1887   3.979   3.899   4.621
  330SOL     OW 1888   2.921   0.099   0.989
  330SOL    HW1 1889   2.991   0.027   0.990
  330SOL    HW2 1890   2.956   0.179   0.942
  331SOL     OW 1891   3.871   5.758   0.764
  331SOL    HW1 1892   3.776   5.788   0.758
  331SOL    HW2 1893   3.900   5.722   0.675
  332SOL     OW 1894   3.553   1.840   4.257
  332SOL    HW1 1895   3.649   1.856   4.280
  332SOL    HW2 1896   3.498   1.917   4.290
  333SOL     OW 1897   3.519   6.783   5.940
  333SOL    HW1 1898   3.577   6.743   6.012
  333SOL    HW2 1899   3.576   6.819   5.867
  334SOL     OW 1900   2.773   0.780   1.363
  334SOL    HW1 1901   2.688   0.729   1.363
  334SOL    HW2 1902   2.831   0.750   1.439
  335SOL     OW 1903   3.595   6.778   4.768
  335SOL    HW1 1904   3.653   6.751   4.691
  335SOL    HW2 1905   3.502   6.796   4.735
  336SOL     OW 1906   2.136   0.771   3.897
  336SOL    HW1 1907   2.120   0.735   3.805
  336SOL    HW2 1908   2.051   0.808   3.935
  337SOL     OW 1909   0.002   3.062   6.898
  337SOL    HW1 1910   0.066   3.138   6.911
  337SOL    HW2 1911   6.942   3.073   6.959
  338SOL     OW 1912   3.045   2.848   1.570
  338SOL    HW1 1913   3.086   2.886   1.653
  338SOL    HW2 1914   3.002   2.921   1.518
  339SOL     OW 1915   3.008   6.711   4.183
  339SOL    HW1 1916   3.098   6.733   4.147
  339SOL    HW2 1917   2.938   6.745   4.120
  340SOL     OW 1918   5.004   4.625   5.647
  340SOL    HW1 1919   4.906   4.612   5.629
  340SOL    HW2 1920   5.032   4.568   5.724
  341SOL     OW 1921   6.471   1.541   4.564
  341SOL    HW1 1922   6.460   1.616   4.629
  341SOL    HW2 1923   6.516   1.464   4.609
  342SOL     OW 1924   5.971   4.012   7.011
  342SOL    HW1 1925   5.928   4.028   6.922
  342SOL    HW2 1926   6.011   4.097   0.028
  343SOL     OW 1927   1.646   4.788   0.739
  343SOL    HW1 1928   1.699   4.704   0.750
  343SOL    HW2 1929   1.691   4.847   0.671
  344SOL     OW 1930   0.920   5.177   1.854
  344SOL    HW1 1931   0.997   5.166   1.918
  344SOL    HW2 1932   0.854   5.104   1.869
  345SOL     OW 1933   5.773   1.488   3.682
  345SOL    HW1 1934   5.716   1.406   3.674
  345SOL    HW2 1935   5.786   1.510   3.778
  346SOL     OW 1936   1.866   0.755   2.420
  346SOL    HW1 1937   1.936   0.764   2.490
  346SOL    HW2 1938   1.823   0.844   2.404
  347SOL     OW 1939   3.236   5.727   6.117
  347SOL    HW1 1940   3.292   5.697   6.194
  347SOL    HW2 1941   3.295   5.745   6.038
  348SOL     OW 1942   5.512   4.258   1.645
  348SOL    HW1 1943   5.441   4.245   1.714
  348SOL    HW2 1944   5.579   4.325   1.677
  349SOL     OW 1945   6.743   4.242   0.606
  349SOL    HW1 1946   6.744   4.337   0.637
  349SOL    HW2 1947   6.792   4.185   0.672
  350SOL     OW 1948   3.634   3.040   0.860
  350SOL    HW1 1949   3.553   3.000   0.902
  350SOL    HW2 1950   3.697   2.966   0.833
  351SOL     OW 1951   2.040   2.327   0.074
  351SOL    HW1 1952   2.075   2.380   0.152
  351SOL    HW2 1953   2.002   2.390   0.006
  352SOL     OW 1954   3.405   0.911   4.527
  352SOL    HW1 1955   3.387   0.977   4.600
  352SOL    HW2 1956   3.431   0.961   4.444
  353SOL     OW 1957   2.508   6.448   0.853
  353SOL    HW1 1958   2.576   6.408   0.914
  353SOL    HW2 1959   2.419   6.450   0.899
  354SOL     OW 1960   3.440   2.628   0.211
  354SOL    HW1 1961   3.363   2.586   0.259
  354SOL    HW2 1962   3.425   2.727   0.202
  355SOL     OW 1963   0.468   3.086   3.282
  355SOL    HW1 1964   0.477   3.017   3.353
  355SOL    HW2 1965   0.410   3.160   3.315
  356SOL     OW 1966   3.553   6.464   5.143
  356SOL    HW1 1967   3.586   6.470   5.049
  356SOL    HW2 1968   3.619   6.414   5.198
  357SOL     OW 1969   6.316   6.799   5.531
  357SOL    HW1 1970   6.345   6.772   5.623
  357SOL    HW2 1971   6.390   6.782   5.466
  358SOL     OW 1972   5.328   0.085   1.650
  358SOL    HW1 1973   5.246   0.094   1.706
  358SOL    HW2 1974   5.336   7.008   1.617
  359SOL     OW 1975   1.201   2.064   2.234
  359SOL    HW1 1976   1.126   2.130   2.244
  359SOL    HW2 1977   1.287   2.113   2.217
  360SOL     OW 1978   1.179   5.914   6.358
  360SOL    HW1 1979   1.083   5.937   6.371
  360SOL    HW2 1980   1.223   5.984   6.301
  361SOL     OW 1981   5.793   5.631   3.400
  361SOL    HW1 1982   5.788   5.715   3.454
  361SOL    HW2 1983   5.827   5.653   3.308
  362SOL     OW 1984   3.916   4.126   1.389
  362SOL    HW1 1985   3.839   4.188   1.404
  362SOL    HW2 1986   3.882   4.032   1.384
  363SOL     OW 1987   5.006   4.622   3.739
  363SOL    HW1 1988   4.907   4.626   3.730
  363SOL    HW2 1989   5.036   4.693   3.804
  364SOL     OW 1990   6.241   6.038   6.144
  364SOL    HW1 1991   6.256   5.955   6.196
  364SOL    HW2 1992   6.329   6.076   6.115
  365SOL     OW 1993   5.713   5.585   2.164
  365SOL    HW1 1994   5.803   5.555   2.196
  365SOL    HW2 1995   5.656   5.609   2.242
  366SOL     OW 1996   6.269   0.620   6.815
  366SOL    HW1 1997   6.327   0.540   6.828
  366SOL    HW2 1998   6.211   0.606   6.735
  367SOL     OW 1999   4.614   3.062   1.409
  367SOL    HW1 2000   4.604   3.086   1.312
  367SOL    HW2 2001   4.628   2.963   1.417
  368SOL     OW 2002   0.057   3.521   4.902
  368SOL    HW1 2003   0.017   3.612   4.893
  368SOL    HW2 2004   0.043   3.488   4.996
  369SOL     OW 2005   6.383   5.652   1.805
  369SOL    HW1 2006   6.357   5.576   1.745
  369SOL    HW2 2007   6.386   5.736   1.751
  370SOL     OW 2008   2.493   2.117   5.461
  370SOL    HW1 2009   2.574   2.165   5.428
  370SOL    HW2 2010   2.433   2.182   5.509
  371SOL     OW 2011   2.461   3.412   6.875
  371SOL    HW1 2012   2.409   3.492   6.903
  371SOL    HW2 2013   2.558   3.433   6.875
  372SOL     OW 2014   0.628   0.084   5.896
  372SOL    HW1 2015   0.716   0.118   5.929
  372SOL    HW2 2016   0.567   0.066   5.973
  373SOL     OW 2017   6.154   6.142   5.008
  373SOL    HW1 2018   6.162   6.171   5.103
  373SOL    HW2 2019   6.123   6.219   4.952
  374SOL     OW 2020   2.817   1.912   2.708
  374SOL    HW1 2021   2.745   1.979   2.726
  374SOL    HW2 2022   2.834   1.859   2.790
  375SOL     OW 2023   0.857   4.502   3.869
  375SOL    HW1 2024   0.914   4.435   3.916
  375SOL    HW2 2025   0.853   4.481   3.772
  376SOL     OW 2026   2.027   1.798   4.870
  376SOL    HW1 2027   1.975   1.855   4.934
  376SOL    HW2 2028   2.091   1.741   4.920
  377SOL     OW 2029   0.468   2.625   2.014
  377SOL    HW1 2030   0.388   2.618   2.073
  377SOL    HW2 2031   0.449   2.581   1.926
  378SOL     OW 2032   3.159   2.705   5.700
  378SOL    HW1 2033   3.093   2.637   5.670
  378SOL    HW2 2034   3.123   2.797   5.686
  379SOL     OW 2035   5.964   3.891   1.407
  379SOL    HW1 2036   6.038   3.908   1.472
  379SOL    HW2 2037   5.959   3.967   1.341
  380SOL     OW 2038   3.260   1.171   1.484
  380SOL    HW1 2039   3.234   1.242   1.418
  380SOL    HW2 2040   3.216   1.085   1.458
  381SOL     OW 2041   1.453   4.331   2.846
  381SOL    HW1 2042   1.362   4.303   2.816
  381SOL    HW2 2043   1.452   4.428   2.869
  382SOL     OW 2044   5.107   6.444   5.854
  382SOL    HW1 2045   5.172   6.497   5.800
  382SOL    HW2 2046   5.155   6.374   5.906
  383SOL     OW 2047   5.302   3.307   5.879
  383SOL    HW1 2048   5.212   3.277   5.911
  383SOL    HW2 2049   5.314   3.278   5.784
  384SOL     OW 2050   6.367   5.019   4.370
  384SOL    HW1 2051   6.321   4.940   4.330
  384SOL    HW2 2052   6.348   5.101   4.316
  385SOL     OW 2053   4.721   5.808   5.729
  385SOL    HW1 2054   4.668   5.725   5.744
  385SOL    HW2 2055   4.744   5.849   5.818
  386SOL     OW 2056   3.069   5.970   5.116
  386SOL    HW1 2057   3.163   5.944   5.096
  386SOL    HW2 2058   3.066   6.064   5.148
  387SOL     OW 2059   0.789   6.504   2.816
  387SOL    HW1 2060   0.787   6.563   2.897
  387SOL    HW2 2061   0.776   6.560   2.735
  388SOL     OW 2062   1.899   2.108   3.680
  388SOL    HW1 2063   1.829   2.069   3.739
  388SOL    HW2 2064   1.901   2.058   3.593
  389SOL     OW 2065   4.180   4.001   1.781
  389SOL    HW1 2066   4.169   3.929   1.849
  389SOL    HW2 2067   4.270   4.042   1.790
  390SOL     OW 2068   3.818   0.903   6.783
  390SOL    HW1 2069   3.760   0.950   6.716
  390SOL    HW2 2070   3.816   0.954   6.869
  391SOL     OW 2071   2.076   4.144   5.211
  391SOL    HW1 2072   2.162   4.146   5.262
  391SOL    HW2 2073   2.087   4.089   5.128
  392SOL     OW 2074   1.958   3.863   1.382
  392SOL    HW1 2075   1.938   3.928   1.309
  392SOL    HW2 2076   1.996   3.912   1.461
  393SOL     OW 2077   1.051   4.913   6.916
  393SOL    HW1 2078   0.975   4.849   6.902
  393SOL    HW2 2079   1.015   5.002   6.942
  394SOL     OW 2080   0.407   2.736   6.993
  394SOL    HW1 2081   0.485   2.769   6.941
  394SOL    HW2 2082   0.328   2.726   6.932
  395SOL     OW 2083   4.842   4.693   3.341
  395SOL    HW1 2084   4.917   4.753   3.315
  395SOL    HW2 2085   4.875   4.599   3.346
  396SOL     OW 2086   2.796   3.108   1.805
  396SOL    HW1 2087   2.730   3.038   1.776
  396SOL    HW2 2088   2.755   3.199   1.792
  397SOL     OW 2089   5.474   2.110   6.183
  397SOL    HW1 2090   5.477   2.165   6.266
  397SOL    HW2 2091   5.402   2.041   6.192
  398SOL     OW 2092   1.727   6.803   3.443
  398SOL    HW1 2093   1.672   6.794   3.525
  398SOL    HW2 2094   1.759   6.713   3.413
  399SOL     OW 2095   5.677   6.500   4.666
  399SOL    HW1 2096   5.600   6.437   4.664
  399SOL    HW2 2097   5.644   6.592   4.687
  400SOL     OW 2098   5.827   6.302   5.991
  400SOL    HW1 2099   5.784   6.344   5.911
  400SOL    HW2 2100   5.764   6.305   6.068
  401SOL     OW 2101   5.054   6.994   6.052
  401SOL    HW1 2102   4.969   6.950   6.082
  401SOL    HW2 2103   5.126   6.925   6.043
  402SOL     OW 2104   6.493   0.624   2.895
  402SOL    HW1 2105   6.591   0.636   2.878
  402SOL    HW2 2106   6.453   0.712   2.921
  403SOL     OW 2107   3.554   0.764   5.272
  403SOL    HW1 2108   3.569   0.843   5.331
  403SOL    HW2 2109   3.525   0.796   5.181
  404SOL     OW 2110   1.958   4.838   5.163
  404SOL    HW1 2111   1.920   4.922   5.124
  404SOL    HW2 2112   2.025   4.800   5.101
  405SOL     OW 2113   2.033   3.450   2.847
  405SOL    HW1 2114   2.034   3.492   2.937
  405SOL    HW2 2115   1.943   3.463   2.805
  406SOL     OW 2116   0.336   4.754   4.874
  406SOL    HW1 2117   0.324   4.731   4.971
  406SOL    HW2 2118   0.414   4.703   4.838
  407SOL     OW 2119   2.022   2.278   4.937
  407SOL    HW1 2120   1.987   2.267   4.844
  407SOL    HW2 2121   1.945   2.285   5.001
  408SOL     OW 2122   3.307   2.081   3.093
  408SOL    HW1 2123   3.396   2.060   3.052
  408SOL    HW2 2124   3.236   2.078   3.022
  409SOL     OW 2125   6.242   3.050   1.482
  409SOL    HW1 2126   6.248   3.003   1.570
  409SOL    HW2 2127   6.314   3.121   1.478
  410SOL     OW 2128   1.347   1.844   1.323
  410SOL    HW1 2129   1.345   1.895   1.237
  410SOL    HW2 2130   1.376   1.750   1.306
  411SOL     OW 2131   6.117   0.710   1.481
  411SOL    HW1 2132   6.141   0.756   1.566
  411SOL    HW2 2133   6.033   0.750   1.444
  412SOL     OW 2134   3.352   4.923   3.462
  412SOL    HW1 2135   3.421   4.969   3.518
  412SOL    HW2 2136   3.390   4.905   3.371
  413SOL     OW 2137   4.608   4.371   1.686
  413SOL    HW1 2138   4.555   4.304   1.739
  413SOL    HW2 2139   4.573   4.463   1.705
  414SOL     OW 2140   3.130   6.447   3.969
  414SOL    HW1 2141   3.048   6.485   4.012
  414SOL    HW2 2142   3.126   6.347   3.973
  415SOL     OW 2143   0.494   0.453   6.868
  415SOL    HW1 2144   0.529   0.533   6.819
  415SOL    HW2 2145   0.395   0.461   6.879
  416SOL     OW 2146   5.076   4.959   4.968
  416SOL    HW1 2147   5.155   4.907   4.934
  416SOL    HW2 2148   5.064   5.041   4.911
  417SOL     OW 2149   1.884   0.715   6.311
  417SOL    HW1 2150   1.939   0.681   6.387
  417SOL    HW2 2151   1.891   0.651   6.234
  418SOL     OW 2152   2.624   6.893   5.843
  418SOL    HW1 2153   2.602   6.925   5.751
  418SOL    HW2 2154   2.697   6.949   5.882
  419SOL     OW 2155   0.525   0.245   2.905
  419SOL    HW1 2156   0.565   0.253   2.997
  419SOL    HW2 2157   0.429   0.273   2.909
  420SOL     OW 2158   5.756   1.591   6.393
  420SOL    HW1 2159   5.824   1.623   6.327
  420SOL    HW2 2160   5.729   1.667   6.452
  421SOL     OW 2161   5.781   3.626   4.904
  421SOL    HW1 2162   5.804   3.664   4.814
  421SOL    HW2 2163   5.689   3.652   4.929
  422SOL     OW 2164   4.898   2.994   0.789
  422SOL    HW1 2165   4.891   2.931   0.866
  422SOL    HW2 2166   4.824   3.062   0.793
  423SOL     OW 2167   2.528   1.426   6.955
  423SOL    HW1 2168   2.581   1.469   0.011
  423SOL    HW2 2169   2.588   1.366   6.902
  424SOL     OW 2170   1.607   4.901   2.798
  424SOL    HW1 2171   1.530   4.958   2.770
  424SOL    HW2 2172   1.606   4.890   2.897
  425SOL     OW 2173   5.142   1.625   4.617
  425SOL    HW1 2174   5.150   1.526   4.608
  425SOL    HW2 2175   5.047   1.649   4.635
  426SOL     OW 2176   2.449   2.724   4.743
  426SOL    HW1 2177   2.535   2.773   4.725
  426SOL    HW2 2178   2.444   2.701   4.840
  427SOL     OW 2179   6.253   0.279   3.706
  427SOL    HW1 2180   6.248   0.221   3.787
  427SOL    HW2 2181   6.174   0.259   3.647
  428SOL     OW 2182   3.623   0.529   2.727
  428SOL    HW1 2183   3.599   0.495   2.818
  428SOL    HW2 2184   3.539   0.545   2.674
  429SOL     OW 2185   0.886   5.316   3.966
  429SOL    HW1 2186   0.841   5.388   3.914
  429SOL    HW2 2187   0.870   5.331   4.064
  430SOL     OW 2188   1.228   6.960   4.134
  430SOL    HW1 2189   1.301   6.915   4.185
  430SOL    HW2 2190   1.173   6.892   4.086
  431SOL     OW 2191   2.706   2.023   0.916
  431SOL    HW1 2192   2.798   1.989   0.935
  431SOL    HW2 2193   2.649   1.947   0.884
  432SOL     OW 2194   6.117   2.290   0.779
  432SOL    HW1 2195   6.155   2.243   0.699
  432SOL    HW2 2196   6.026   2.325   0.756
  433SOL     OW 2197   2.555   6.174   6.154
  433SOL    HW1 2198   2.470   6.166   6.101
  433SOL    HW2 2199   2.630   6.197   6.092
  434SOL     OW 2200   4.013   5.703   3.602
  434SOL    HW1 2201   3.945   5.687   3.674
  434SOL    HW2 2202   4.031   5.801   3.595
  435SOL     OW 2203   3.870   2.167   5.403
  435SOL    HW1 2204   3.897   2.095   5.338
  435SOL    HW2 2205   3.851   2.252   5.353
  436SOL     OW 2206   3.403   5.971   2.207
  436SOL    HW1 2207   3.340   5.936   2.139
  436SOL    HW2 2208   3.374   5.942   2.298
  437SOL     OW 2209   0.222   1.168   5.344
  437SOL    HW1 2210   0.235   1.135   5.251
  437SOL    HW2 2211   0.126   1.158   5.370
  438SOL     OW 2212   1.628   3.402   4.004
  438SOL    HW1 2213   1.540   3.450   3.997
  438SOL    HW2 2214   1.680   3.417   3.920
  439SOL     OW 2215   5.945   6.309   2.080
  439SOL    HW1 2216   6.028   6.278   2.127
  439SOL    HW2 2217   5.966   6.326   1.984
  440SOL     OW 2218   3.483   1.516   6.517
  440SOL    HW1 2219   3.533   1.460   6.584
  440SOL    HW2 2220   3.535   1.599   6.498
  441SOL     OW 2221   5.894   4.119   3.175
  441SOL    HW1 2222   5.958   4.144   3.247
  441SOL    HW2 2223   5.942   4.110   3.088
  442SOL     OW 2224   4.846   5.230   5.449
  442SOL    HW1 2225   4.869   5.300   5.381
  442SOL    HW2 2226   4.757   5.189   5.426
  443SOL     OW 2227   5.903   4.150   4.287
  443SOL    HW1 2228   5.884   4.224   4.222
  443SOL    HW2 2229   5.928   4.190   4.376
  444SOL     OW 2230   4.500   1.216   6.812
  444SOL    HW1 2231   4.466   1.177   6.727
  444SOL    HW2 2232   4.553   1.298   6.792
  445SOL     OW 2233   2.147   5.927   3.355
  445SOL    HW1 2234   2.232   5.936   3.407
  445SOL    HW2 2235   2.122   6.016   3.316
  446SOL     OW 2236   3.970   5.806   2.796
  446SOL    HW1 2237   3.886   5.839   2.753
  446SOL    HW2 2238   3.988   5.712   2.768
  447SOL     OW 2239   6.542   3.137   4.722
  447SOL    HW1 2240   6.489   3.205   4.670
  447SOL    HW2 2241   6.599   3.184   4.790
  448SOL     OW 2242   2.072   1.000   2.788
  448SOL    HW1 2243   2.155   1.017   2.734
  448SOL    HW2 2244   2.097   0.980   2.882
  449SOL     OW 2245   2.517   1.752   3.370
  449SOL    HW1 2246   2.457   1.688   3.322
  449SOL    HW2 2247   2.496   1.750   3.467
  450SOL     OW 2248   1.974   4.656   3.557
  450SOL    HW1 2249   1.905   4.689   3.621
  450SOL    HW2 2250   2.008   4.732   3.502
  451SOL     OW 2251   1.768   2.436   4.003
  451SOL    HW1 2252   1.801   2.442   3.909
  451SOL    HW2 2253   1.783   2.343   4.038
  452SOL     OW 2254   4.201   0.281   1.459
  452SOL    HW1 2255   4.237   0.270   1.367
  452SOL    HW2 2256   4.108   0.245   1.463
  453SOL     OW 2257   3.348   6.697   6.223
  453SOL    HW1 2258   3.310   6.767   6.284
  453SOL    HW2 2259   3.275   6.654   6.171
  454SOL     OW 2260   6.880   3.946   6.780
  454SOL    HW1 2261   6.801   3.885   6.771
  454SOL    HW2 2262   6.962   3.892   6.801
  455SOL     OW 2263   6.479   3.086   5.298
  455SOL    HW1 2264   6.403   3.084   5.232
  455SOL    HW2 2265   6.539   3.008   5.282
  456SOL     OW 2266   1.908   0.787   4.424
  456SOL    HW1 2267   1.837   0.717   4.431
  456SOL    HW2 2268   1.986   0.750   4.373
  457SOL     OW 2269   1.247   4.708   4.406
  457SOL    HW1 2270   1.245   4.692   4.504
  457SOL    HW2 2271   1.280   4.625   4.360
  458SOL     OW 2272   3.586   0.471   3.243
  458SOL    HW1 2273   3.676   0.455   3.203
  458SOL    HW2 2274   3.546   0.553   3.203
  459SOL     OW 2275   1.852   0.316   5.495
  459SOL    HW1 2276   1.774   0.294   5.554
  459SOL    HW2 2277   1.858   0.415   5.483
  460SOL     OW 2278   1.248   0.852   5.040
  460SOL    HW1 2279   1.313   0.872   4.967
  460SOL    HW2 2280   1.197   0.934   5.063
  461SOL     OW 2281   6.497   5.042   5.663
  461SOL    HW1 2282   6.474   5.032   5.759
  461SOL    HW2 2283   6.590   5.010   5.647
  462SOL     OW 2284   3.963   3.541   5.039
  462SOL    HW1 2285   4.024   3.592   4.978
  462SOL    HW2 2286   3.878   3.593   5.053
  463SOL     OW 2287   6.956   0.351   3.065
  463SOL    HW1 2288   7.011   0.434   3.079
  463SOL    HW2 2289   6.958   0.296   3.149
  464SOL     OW 2290   2.887   0.450   5.661
  464SOL    HW1 2291   2.943   0.389   5.605
  464SOL    HW2 2292   2.816   0.398   5.708
  465SOL     OW 2293   0.721   2.485   6.866
  465SOL    HW1 2294   0.690   2.581   6.868
  465SOL    HW2 2295   0.800   2.477   6.806
  466SOL     OW 2296   2.894   6.308   3.833
  466SOL    HW1 2297   2.880   6.380   3.901
  466SOL    HW2 2298   2.977   6.256   3.857
  467SOL     OW 2299   1.255   1.865   2.674
  467SOL    HW1 2300   1.199   1.914   2.608
  467SOL    HW2 2301   1.198   1.841   2.753
  468SOL     OW 2302   4.266   5.964   5.761
  468SOL    HW1 2303   4.340   5.962   5.828
  468SOL    HW2 2304   4.305   5.964   5.669
  469SOL     OW 2305   3.102   4.524   5.615
  469SOL    HW1 2306   3.008   4.495   5.633
  469SOL    HW2 2307   3.102   4.611   5.566
  470SOL     OW 2308   4.195   5.757   2.539
  470SOL    HW1 2309   4.108   5.788   2.501
  470SOL    HW2 2310   4.268   5.773   2.472
  471SOL     OW 2311   3.020   2.059   4.106
  471SOL    HW1 2312   3.025   1.962   4.129
  471SOL    HW2 2313   2.950   2.073   4.035
  472SOL     OW 2314   5.697   4.955   6.894
  472SOL    HW1 2315   5.668   4.937   6.800
  472SOL    HW2 2316   5.789   4.918   6.909
  473SOL     OW 2317   0.053   2.251   2.510
  473SOL    HW1 2318   7.008   2.278   2.583
  473SOL    HW2 2319   0.147   2.254   2.543
  474SOL     OW 2320   6.178   5.289   5.816
  474SOL    HW1 2321   6.182   5.253   5.909
  474SOL    HW2 2322   6.084   5.318   5.796
  475SOL     OW 2323   6.214   3.587   0.044
  475SOL    HW1 2324   6.220   3.686   0.057
  475SOL    HW2 2325   6.164   3.546   0.120
  476SOL     OW 2326   0.160   3.963   1.839
  476SOL    HW1 2327   0.146   3.869   1.810
  476SOL    HW2 2328   0.128   4.025   1.767
  477SOL     OW 2329   2.109   5.675   3.609
  477SOL    HW1 2330   2.030   5.731   3.582
  477SOL    HW2 2331   2.078   5.599   3.667
  478SOL     OW 2332   3.778   6.199   3.748
  478SOL    HW1 2333   3.824   6.128   3.801
  478SOL    HW2 2334   3.840   6.276   3.734
  479SOL     OW 2335   3.261   3.270   4.799
  479SOL    HW1 2336   3.330   3.216   4.848
  479SOL    HW2 2337   3.182   3.212   4.779
  480SOL     OW 2338   2.130   0.479   2.229
  480SOL    HW1 2339   2.132   0.460   2.327
  480SOL    HW2 2340   2.071   0.412   2.184
  481SOL     OW 2341   0.837   6.937   1.790
  481SOL    HW1 2342   0.899   6.926   1.712
  481SOL    HW2 2343   0.851   0.009   1.831
  482SOL     OW 2344   4.710   4.886   2.875
  482SOL    HW1 2345   4.801   4.887   2.918
  482SOL    HW2 2346   4.718   4.918   2.780
  483SOL     OW 2347   6.579   2.149   2.467
  483SOL    HW1 2348   6.598   2.175   2.562
  483SOL    HW2 2349   6.661   2.161   2.412
  484SOL     OW 2350   1.478   4.383   5.043
  484SOL    HW1 2351   1.398   4.442   5.040
  484SOL    HW2 2352   1.528   4.399   5.128
  485SOL     OW 2353   5.458   3.781   2.347
  485SOL    HW1 2354   5.546   3.739   2.370
  485SOL    HW2 2355   5.396   3.710   2.311
  486SOL     OW 2356   5.702   1.327   6.514
  486SOL    HW1 2357   5.725   1.414   6.471
  486SOL    HW2 2358   5.780   1.264   6.506
  487SOL     OW 2359   0.802   0.322   3.305
  487SOL    HW1 2360   0.893   0.329   3.344
  487SOL    HW2 2361   0.800   0.367   3.216
  488SOL     OW 2362   1.768   6.828   3.157
  488SOL    HW1 2363   1.854   6.827   3.106
  488SOL    HW2 2364   1.760   6.743   3.210
  489SOL     OW 2365   5.845   5.498   5.064
  489SOL    HW1 2366   5.745   5.504   5.069
  489SOL    HW2 2367   5.883   5.591   5.064
  490SOL     OW 2368   1.703   6.046   4.343
  490SOL    HW1 2369   1.631   5.977   4.340
  490SOL    HW2 2370   1.662   6.137   4.354
  491SOL     OW 2371   0.849   3.197   0.177
  491SOL    HW1 2372   0.824   3.254   0.100
  491SOL    HW2 2373   0.902   3.251   0.243
  492SOL     OW 2374   1.729   1.027   5.739
  492SOL    HW1 2375   1.684   1.093   5.680
  492SOL    HW2 2376   1.718   1.054   5.834
  493SOL     OW 2377   2.534   6.943   5.592
  493SOL    HW1 2378   2.451   6.898   5.626
  493SOL    HW2 2379   2.569   6.892   5.512
  494SOL     OW 2380   2.156   1.391   6.278
  494SOL    HW1 2381   2.072   1.365   6.326
  494SOL    HW2 2382   2.234   1.343   6.318
  495SOL     OW 2383   3.702   6.247   5.237
  495SOL    HW1 2384   3.782   6.278   5.185
  495SOL    HW2 2385   3.726   6.241   5.334
  496SOL     OW 2386   6.086   1.510   2.393
  496SOL    HW1 2387   6.081   1.575   2.317
  496SOL    HW2 2388   6.073   1.417   2.358
  497SOL     OW 2389   3.891   0.919   4.560
  497SOL    HW1 2390   3.856   0.885   4.648
  497SOL    HW2 2391   3.823   0.905   4.489
  498SOL     OW 2392   0.642   4.684   2.055
  498SOL    HW1 2393   0.661   4.710   1.960
  498SOL    HW2 2394   0.654   4.763   2.115
  499SOL     OW 2395   2.319   5.923   5.291
  499SOL    HW1 2396   2.265   5.983   5.232
  499SOL    HW2 2397   2.394   5.882   5.237
  500SOL     OW 2398   5.290   3.249   5.625
  500SOL    HW1 2399   5.190   3.249   5.635
  500SOL    HW2 2400   5.314   3.264   5.530
  501SOL     OW 2401   3.104   0.513   1.877
  501SOL    HW1 2402   3.080   0.509   1.974
  501SOL    HW2 2403   3.033   0.467   1.823
  502SOL     OW 2404   1.054   4.693   6.570
  502SOL    HW1 2405   0.958   4.718   6.568
  502SOL    HW2 2406   1.063   4.593   6.575
  503SOL     OW 2407   1.898   5.022   6.200
  503SOL    HW1 2408   1.885   5.092   6.130
  503SOL    HW2 2409   1.995   5.018   6.226
  504SOL     OW 2410   0.571   5.594   1.804
  504SOL    HW1 2411   0.542   5.509   1.760
  504SOL    HW2 2412   0.545   5.592   1.900
  505SOL     OW 2413   4.102   0.382   5.029
  505SOL    HW1 2414   4.072   0.327   5.108
  505SOL    HW2 2415   4.153   0.324   4.966
  506SOL     OW 2416   3.012   5.983   2.446
  506SOL    HW1 2417   3.039   5.999   2.351
  506SOL    HW2 2418   2.937   6.044   2.470
  507SOL     OW 2419   3.938   0.553   2.135
  507SOL    HW1 2420   3.899   0.607   2.210
  507SOL    HW2 2421   3.874   0.481   2.108
  508SOL     OW 2422   6.779   2.278   2.957
  508SOL    HW1 2423   6.757   2.181   2.960
  508SOL    HW2 2424   6.874   2.291   2.984
  509SOL     OW 2425   4.362   1.049   0.349
  509SOL    HW1 2426   4.455   1.015   0.360
  509SOL    HW2 2427   4.330   1.030   0.256
  510SOL     OW 2428   6.876   4.664   5.810
  510SOL    HW1 2429   6.850   4.571   5.835
  510SOL    HW2 2430   6.900   4.715   5.892
  511SOL     OW 2431   1.244   1.917   6.669
  511SOL    HW1 2432   1.282   2.008   6.653
  511SOL    HW2 2433   1.301   1.868   6.736
  512SOL     OW 2434   6.150   2.910   6.960
  512SOL    HW1 2435   6.077   2.872   7.017
  512SOL    HW2 2436   6.237   2.866   6.984
  513SOL     OW 2437   5.311   6.742   2.448
  513SOL    HW1 2438   5.229   6.708   2.402
  513SOL    HW2 2439   5.383   6.672   2.444
  514SOL     OW 2440   0.423   0.264   4.474
  514SOL    HW1 2441   0.491   0.258   4.400
  514SOL    HW2 2442   0.402   0.171   4.506
  515SOL     OW 2443   2.299   0.561   6.517
  515SOL    HW1 2444   2.258   0.518   6.436
  515SOL    HW2 2445   2.243   0.541   6.597
  516SOL     OW 2446   2.495   4.470   2.169
  516SOL    HW1 2447   2.422   4.509   2.225
  516SOL    HW2 2448   2.572   4.445   2.226
  517SOL     OW 2449   3.399   4.880   2.396
  517SOL    HW1 2450   3.318   4.879   2.455
  517SOL    HW2 2451   3.376   4.840   2.307
  518SOL     OW 2452   2.590   2.119   3.841
  518SOL    HW1 2453   2.573   2.217   3.830
  518SOL    HW2 2454   2.514   2.078   3.892
  519SOL     OW 2455   0.656   6.554   3.220
  519SOL    HW1 2456   0.677   6.480   3.157
  519SOL    HW2 2457   0.557   6.564   3.228
  520SOL     OW 2458   0.778   3.944   6.581
  520SOL    HW1 2459   0.756   3.855   6.542
  520SOL    HW2 2460   0.793   4.010   6.507
  521SOL     OW 2461   4.397   5.833   4.741
  521SOL    HW1 2462   4.336   5.890   4.685
  521SOL    HW2 2463   4.395   5.739   4.707
  522SOL     OW 2464   4.105   3.716   2.235
  522SOL    HW1 2465   4.105   3.620   2.260
  522SOL    HW2 2466   4.173   3.765   2.290
  523SOL     OW 2467   6.896   5.816   2.177
  523SOL    HW1 2468   6.896   5.916   2.175
  523SOL    HW2 2469   6.925   5.782   2.087
  524SOL     OW 2470   1.006   3.040   2.379
  524SOL    HW1 2471   0.998   3.078   2.471
  524SOL    HW2 2472   1.064   2.958   2.382
  525SOL     OW 2473   2.093   4.134   6.601
  525SOL    HW1 2474   2.063   4.172   6.514
  525SOL    HW2 2475   2.104   4.035   6.593
  526SOL     OW 2476   2.925   6.738   3.546
  526SOL    HW1 2477   3.003   6.712   3.490
  526SOL    HW2 2478   2.921   6.679   3.627
  527SOL     OW 2479   0.513   2.340   6.984
  527SOL    HW1 2480   0.525   2.273   0.039
  527SOL    HW2 2481   0.603   2.372   6.953
  528SOL     OW 2482   1.336   2.754   3.997
  528SOL    HW1 2483   1.351   2.735   3.900
  528SOL    HW2 2484   1.267   2.825   4.008
  529SOL     OW 2485   1.918   0.104   5.281
  529SOL    HW1 2486   1.934   0.186   5.335
  529SOL    HW2 2487   1.820   0.084   5.278
  530SOL     OW 2488   3.692   2.869   2.335
  530SOL    HW1 2489   3.660   2.895   2.426
  530SOL    HW2 2490   3.619   2.822   2.286
  531SOL     OW 2491   1.181   0.928   2.745
  531SOL    HW1 2492   1.084   0.904   2.745
  531SOL    HW2 2493   1.212   0.942   2.839
  532SOL     OW 2494   1.459   3.540   0.244
  532SOL    HW1 2495   1.515   3.465   0.278
  532SOL    HW2 2496   1.444   3.529   0.146
  533SOL     OW 2497   4.868   6.900   4.031
  533SOL    HW1 2498   4.853   6.881   3.934
  533SOL    HW2 2499   4.916   6.987   4.041
  534SOL     OW 2500   6.602   6.052   2.281
  534SOL    HW1 2501   6.632   5.958   2.265
  534SOL    HW2 2502   6.677   6.115   2.257
  535SOL     OW 2503   0.211   4.416   2.868
  535SOL    HW1 2504   0.267   4.346   2.913
  535SOL    HW2 2505   0.144   4.372   2.808
  536SOL     OW 2506   6.534   5.112   2.892
  536SOL    HW1 2507   6.448   5.071   2.924
  536SOL    HW2 2508   6.551   5.084   2.798
  537SOL     OW 2509   3.650   0.122   4.455
  537SOL    HW1 2510   3.690   0.039   4.495
  537SOL    HW2 2511   3.723   0.183   4.423
  538SOL     OW 2512   1.060   4.540   4.812
  538SOL    HW1 2513   1.151   4.541   4.771
  538SOL    HW2 2514   1.022   4.448   4.807
  539SOL     OW 2515   1.628   5.416   2.023
  539SOL    HW1 2516   1.600   5.457   1.936
  539SOL    HW2 2517   1.697   5.345   2.005
  540SOL     OW 2518   1.625   0.556   3.961
  540SOL    HW1 2519   1.661   0.632   4.015
  540SOL    HW2 2520   1.525   0.557   3.965
  541SOL     OW 2521   4.683   5.616   4.036
  541SOL    HW1 2522   4.697   5.530   4.086
  541SOL    HW2 2523   4.620   5.674   4.087
  542SOL     OW 2524   4.080   6.094   6.371
  542SOL    HW1 2525   4.162   6.062   6.418
  542SOL    HW2 2526   4.023   6.016   6.347
  543SOL     OW 2527   5.821   3.276   3.256
  543SOL    HW1 2528   5.919   3.282   3.269
  543SOL    HW2 2529   5.801   3.253   3.161
  544SOL     OW 2530   0.526   5.141   0.401
  544SOL    HW1 2531   0.427   5.158   0.402
  544SOL    HW2 2532   0.546   5.059   0.454
  545SOL     OW 2533   4.153   1.182   0.806
  545SOL    HW1 2534   4.169   1.099   0.859
  545SOL    HW2 2535   4.126   1.158   0.713
  546SOL     OW 2536   1.416   3.833   2.162
  546SOL    HW1 2537   1.483   3.808   2.093
  546SOL    HW2 2538   1.327   3.848   2.119
  547SOL     OW 2539   3.231   2.924   0.876
  547SOL    HW1 2540   3.323   2.940   0.913
  547SOL    HW2 2541   3.212   2.826   0.875
  548SOL     OW 2542   3.726   3.927   1.294
  548SOL    HW1 2543   3.714   3.856   1.363
  548SOL    HW2 2544   3.801   3.901   1.233
  549SOL     OW 2545   5.307   2.482   1.860
  549SOL    HW1 2546   5.387   2.453   1.807
  549SOL    HW2 2547   5.253   2.547   1.806
  550SOL     OW 2548   1.090   5.205   3.263
  550SOL    HW1 2549   1.026   5.282   3.263
  550SOL    HW2 2550   1.087   5.159   3.175
  551SOL     OW 2551   6.842   0.392   1.608
  551SOL    HW1 2552   6.816   0.462   1.541
  551SOL    HW2 2553   6.937   0.406   1.635
  552SOL     OW 2554   5.684   4.002   5.398
  552SOL    HW1 2555   5.741   3.971   5.322
  552SOL    HW2 2556   5.651   3.923   5.450
  553SOL     OW 2557   3.090   6.680   3.331
  553SOL    HW1 2558   3.135   6.708   3.246
  553SOL    HW2 2559   3.022   6.610   3.311
  554SOL     OW 2560   5.669   6.710   0.070
  554SOL    HW1 2561   5.627   6.620   0.057
  554SOL    HW2 2562   5.651   6.742   0.163
  555SOL     OW 2563   2.697   5.008   4.966
  555SOL    HW1 2564   2.639   5.077   4.923
  555SOL    HW2 2565   2.652   4.972   5.047
  556SOL     OW 2566   4.827   1.474   4.400
  556SOL    HW1 2567   4.906   1.428   4.359
  556SOL    HW2 2568   4.762   1.405   4.433
  557SOL     OW 2569   6.940   5.036   6.346
  557SOL    HW1 2570   6.868   4.990   6.294
  557SOL    HW2 2571   0.006   5.037   6.292
  558SOL     OW 2572   2.999   3.159   3.939
  558SOL    HW1 2573   3.002   3.225   4.013
  558SOL    HW2 2574   3.038   3.072   3.969
  559SOL     OW 2575   6.948   5.456   5.413
  559SOL    HW1 2576   6.956   5.356   5.410
  559SOL    HW2 2577   6.957   5.493   5.320
  560SOL     OW 2578   6.817   4.039   3.049
  560SOL    HW1 2579   6.832   4.134   3.019
  560SOL    HW2 2580   6.729   4.008   3.015
  561SOL     OW 2581   0.401   2.482   0.644
  561SOL    HW1 2582   0.359   2.567   0.612
  561SOL    HW2 2583   0.472   2.504   0.711
  562SOL     OW 2584   4.008   0.977   5.739
  562SOL    HW1 2585   4.049   0.999   5.827
  562SOL    HW2 2586   4.045   1.039   5.669
  563SOL     OW 2587   1.882   1.364   3.298
  563SOL    HW1 2588   1.903   1.405   3.209
  563SOL    HW2 2589   1.819   1.423   3.349
  564SOL     OW 2590   1.319   2.832   0.236
  564SOL    HW1 2591   1.345   2.890   0.313
  564SOL    HW2 2592   1.307   2.738   0.267
  565SOL     OW 2593   3.149   3.401   3.604
  565SOL    HW1 2594   3.208   3.397   3.523
  565SOL    HW2 2595   3.113   3.310   3.623
  566SOL     OW 2596   1.381   3.542   3.929
  566SOL    HW1 2597   1.330   3.557   4.014
  566SOL    HW2 2598   1.349   3.606   3.859
  567SOL     OW 2599   3.141   2.588   1.437
  567SOL    HW1 2600   3.193   2.674   1.432
  567SOL    HW2 2601   3.091   2.584   1.523
  568SOL     OW 2602   4.659   6.741   0.289
  568SOL    HW1 2603   4.593   6.701   0.353
  568SOL    HW2 2604   4.747   6.754   0.336
  569SOL     OW 2605   1.121   3.016   0.567
  569SOL    HW1 2606   1.047   3.036   0.503
  569SOL    HW2 2607   1.125   3.086   0.637
  570SOL     OW 2608   2.854   0.235   6.578
  570SOL    HW1 2609   2.891   0.327   6.590
  570SOL    HW2 2610   2.882   0.177   6.655
  571SOL     OW 2611   2.959   5.300   4.089
  571SOL    HW1 2612   2.927   5.213   4.053
  571SOL    HW2 2613   2.887   5.369   4.079
  572SOL     OW 2614   2.088   4.968   5.380
  572SOL    HW1 2615   2.053   4.945   5.290
  572SOL    HW2 2616   2.175   5.016   5.371
  573SOL     OW 2617   5.935   1.289   6.118
  573SOL    HW1 2618   5.915   1.378   6.077
  573SOL    HW2 2619   6.031   1.265   6.101
  574SOL     OW 2620   3.719   0.379   4.775
  574SOL    HW1 2621   3.686   0.363   4.868
  574SOL    HW2 2622   3.805   0.329   4.761
  575SOL     OW 2623   4.231   2.783   1.693
  575SOL    HW1 2624   4.165   2.834   1.749
  575SOL    HW2 2625   4.199   2.690   1.680
  576SOL     OW 2626   1.179   3.361   3.251
  576SOL    HW1 2627   1.122   3.281   3.273
  576SOL    HW2 2628   1.244   3.376   3.325
  577SOL     OW 2629   1.659   0.968   2.346
  577SOL    HW1 2630   1.618   0.944   2.258
  577SOL    HW2 2631   1.618   0.912   2.418
  578SOL     OW 2632   0.448   5.159   4.872
  578SOL    HW1 2633   0.483   5.107   4.951
  578SOL    HW2 2634   0.380   5.103   4.824
  579SOL     OW 2635   1.862   4.205   3.048
  579SOL    HW1 2636   1.856   4.122   2.992
  579SOL    HW2 2637   1.810   4.192   3.132
  580SOL     OW 2638   4.171   4.990   5.630
  580SOL    HW1 2639   4.144   5.086   5.626
  580SOL    HW2 2640   4.187   4.963   5.725
  581SOL     OW 2641   2.111   3.193   2.137
  581SOL    HW1 2642   2.123   3.200   2.038
  581SOL    HW2 2643   2.103   3.284   2.176
  582SOL     OW 2644   4.272   5.251   2.541
  582SOL    HW1 2645   4.267   5.161   2.584
  582SOL    HW2 2646   4.349   5.302   2.579
  583SOL     OW 2647   2.550   6.395   5.382
  583SOL    HW1 2648   2.548   6.391   5.282
  583SOL    HW2 2649   2.490   6.325   5.420
  584SOL     OW 2650   3.254   6.601   6.535
  584SOL    HW1 2651   3.179   6.620   6.598
  584SOL    HW2 2652   3.291   6.687   6.500
  585SOL     OW 2653   4.139   0.872   6.948
  585SOL    HW1 2654   4.059   0.923   6.977
  585SOL    HW2 2655   4.208   0.874   0.003
  586SOL     OW 2656   3.424   0.440   0.156
  586SOL    HW1 2657   3.479   0.450   0.239
  586SOL    HW2 2658   3.474   0.476   0.078
  587SOL     OW 2659   4.343   2.354   3.168
  587SOL    HW1 2660   4.393   2.268   3.180
  587SOL    HW2 2661   4.304   2.357   3.076
  588SOL     OW 2662   2.084   4.956   1.470
  588SOL    HW1 2663   2.109   4.875   1.416
  588SOL    HW2 2664   1.995   4.943   1.512
  589SOL     OW 2665   3.397   5.610   2.065
  589SOL    HW1 2666   3.390   5.516   2.031
  589SOL    HW2 2667   3.477   5.654   2.023
  590SOL     OW 2668   5.541   1.666   1.068
  590SOL    HW1 2669   5.450   1.703   1.086
  590SOL    HW2 2670   5.587   1.646   1.155
  591SOL     OW 2671   3.645   6.258   3.399
  591SOL    HW1 2672   3.565   6.197   3.394
  591SOL    HW2 2673   3.644   6.308   3.485
  592SOL     OW 2674   4.336   0.651   2.080
  592SOL    HW1 2675   4.290   0.570   2.042
  592SOL    HW2 2676   4.355   0.636   2.177
  593SOL     OW 2677   4.555   2.266   3.791
  593SOL    HW1 2678   4.584   2.228   3.879
  593SOL    HW2 2679   4.632   2.264   3.727
  594SOL     OW 2680   6.012   0.310   0.807
  594SOL    HW1 2681   6.088   0.368   0.777
  594SOL    HW2 2682   5.927   0.344   0.767
  595SOL     OW 2683   5.301   6.719   3.272
  595SOL    HW1 2684   5.312   6.806   3.223
  595SOL    HW2 2685   5.240   6.733   3.351
  596SOL     OW 2686   0.158   5.077   2.941
  596SOL    HW1 2687   0.156   5.022   3.025
  596SOL    HW2 2688   0.252   5.089   2.911
  597SOL     OW 2689   2.817   6.574   6.663
  597SOL    HW1 2690   2.847   6.550   6.756
  597SOL    HW2 2691   2.801   6.490   6.611
  598SOL     OW 2692   3.760   4.043   4.599
  598SOL    HW1 2693   3.825   4.017   4.528
  598SOL    HW2 2694   3.705   4.120   4.568
  599SOL     OW 2695   2.295   5.746   2.709
  599SOL    HW1 2696   2.292   5.683   2.631
  599SOL    HW2 2697   2.251   5.703   2.788
  600SOL     OW 2698   6.214   2.094   6.531
  600SOL    HW1 2699   6.238   2.014   6.585
  600SOL    HW2 2700   6.199   2.067   6.435
  601SOL     OW 2701   1.501   0.801   4.121
  601SOL    HW1 2702   1.476   0.792   4.025
  601SOL    HW2 2703   1.489   0.714   4.167
  602SOL     OW 2704   2.173   0.408   6.292
  602SOL    HW1 2705   2.093   0.382   6.345
  602SOL    HW2 2706   2.194   0.336   6.226
  603SOL     OW 2707   2.974   2.354   5.367
  603SOL    HW1 2708   3.048   2.341   5.302
  603SOL    HW2 2709   2.917   2.431   5.338
  604SOL     OW 2710   1.004   1.558   1.310
  604SOL    HW1 2711   1.017   1.632   1.375
  604SOL    HW2 2712   1.072   1.565   1.237
  605SOL     OW 2713   6.334   4.743   0.850
  605SOL    HW1 2714   6.384   4.661   0.876
  605SOL    HW2 2715   6.292   4.729   0.760
  606SOL     OW 2716   4.863   6.452   5.552
  606SOL    HW1 2717   4.831   6.358   5.563
  606SOL    HW2 2718   4.928   6.456   5.477
  607SOL     OW 2719   6.409   4.672   5.051
  607SOL    HW1 2720   6.472   4.749   5.052
  607SOL    HW2 2721   6.364   4.665   5.140
  608SOL     OW 2722   4.230   6.134   6.901
  608SOL    HW1 2723   4.285   6.169   6.977
  608SOL    HW2 2724   4.282   6.064   6.852
  609SOL     OW 2725   3.432   3.045   2.380
  609SOL    HW1 2726   3.351   3.102   2.393
  609SOL    HW2 2727   3.455   3.001   2.467
  610SOL     OW 2728   5.652   3.185   0.519
  610SOL    HW1 2729   5.718   3.141   0.580
  610SOL    HW2 2730   5.613   3.116   0.458
  611SOL     OW 2731   4.713   0.306   1.844
  611SOL    HW1 2732   4.651   0.229   1.840
  611SOL    HW2 2733   4.689   0.373   1.773
  612SOL     OW 2734   3.357   5.667   4.183
  612SOL    HW1 2735   3.261   5.691   4.197
  612SOL    HW2 2736   3.369   5.568   4.196
  613SOL     OW 2737   4.340   5.095   5.436
  613SOL    HW1 2738   4.266   5.082   5.370
  613SOL    HW2 2739   4.310   5.062   5.526
  614SOL     OW 2740   4.870   5.011   5.762
  614SOL    HW1 2741   4.820   5.095   5.743
  614SOL    HW2 2742   4.838   4.972   5.848
  615SOL     OW 2743   6.598   2.129   1.210
  615SOL    HW1 2744   6.671   2.196   1.229
  615SOL    HW2 2745   6.536   2.166   1.141
  616SOL     OW 2746   6.970   2.184   2.043
  616SOL    HW1 2747   6.969   2.244   2.123
  616SOL    HW2 2748   0.023   2.115   2.054
  617SOL     OW 2749   0.221   4.630   5.793
  617SOL    HW1 2750   0.298   4.622   5.731
  617SOL    HW2 2751   0.151   4.563   5.768
  618SOL     OW 2752   1.131   2.490   0.748
  618SOL    HW1 2753   1.117   2.519   0.842
  618SOL    HW2 2754   1.052   2.517   0.692
  619SOL     OW 2755   3.331   1.665   0.957
  619SOL    HW1 2756   3.392   1.676   1.036
  619SOL    HW2 2757   3.245   1.712   0.975
  620SOL     OW 2758   4.633   1.938   0.887
  620SOL    HW1 2759   4.728   1.965   0.873
  620SOL    HW2 2760   4.591   1.918   0.799
  621SOL     OW 2761   3.216   6.007   6.792
  621SOL    HW1 2762   3.170   6.011   6.703
  621SOL    HW2 2763   3.150   5.983   6.863
  622SOL     OW 2764   0.857   1.039   6.110
  622SOL    HW1 2765   0.868   1.122   6.165
  622SOL    HW2 2766   0.941   1.021   6.059
  623SOL     OW 2767   1.263   5.847   5.656
  623SOL    HW1 2768   1.196   5.777   5.680
  623SOL    HW2 2769   1.355   5.813   5.676
  624SOL     OW 2770   0.136   2.211   1.268
  624SOL    HW1 2771   0.157   2.232   1.173
  624SOL    HW2 2772   0.148   2.293   1.324
  625SOL     OW 2773   2.366   1.851   1.700
  625SOL    HW1 2774   2.273   1.886   1.710
  625SOL    HW2 2775   2.400   1.822   1.789
  626SOL     OW 2776   2.775   5.560   3.809
  626SOL    HW1 2777   2.781   5.521   3.717
  626SOL    HW2 2778   2.700   5.516   3.859
  627SOL     OW 2779   5.090   0.023   0.490
  627SOL    HW1 2780   5.038   6.978   0.548
  627SOL    HW2 2781   5.149   6.989   0.429
  628SOL     OW 2782   5.904   5.391   5.761
  628SOL    HW1 2783   5.914   5.481   5.718
  628SOL    HW2 2784   5.823   5.390   5.819
  629SOL     OW 2785   6.978   6.613   0.494
  629SOL    HW1 2786   6.952   6.701   0.535
  629SOL    HW2 2787   0.045   6.624   0.443
  630SOL     OW 2788   6.515   1.349   2.507
  630SOL    HW1 2789   6.607   1.315   2.525
  630SOL    HW2 2790   6.452   1.314   2.576
  631SOL     OW 2791   3.104   6.802   5.036
  631SOL    HW1 2792   3.127   6.714   4.993
  631SOL    HW2 2793   3.177   6.829   5.099
  632SOL     OW 2794   2.717   1.749   0.496
  632SOL    HW1 2795   2.781   1.706   0.432
  632SOL    HW2 2796   2.767   1.813   0.555
  633SOL     OW 2797   4.573   4.329   0.426
  633SOL    HW1 2798   4.666   4.351   0.454
  633SOL    HW2 2799   4.573   4.301   0.330
  634SOL     OW 2800   4.739   4.425   1.926
  634SOL    HW1 2801   4.660   4.378   1.965
  634SOL    HW2 2802   4.743   4.409   1.828
  635SOL     OW 2803   4.781   5.207   1.417
  635SOL    HW1 2804   4.761   5.112   1.391
  635SOL    HW2 2805   4.694   5.256   1.429
  636SOL     OW 2806   4.718   6.084   6.982
  636SOL    HW1 2807   4.802   6.130   7.010
  636SOL    HW2 2808   4.722   5.988   7.009
  637SOL     OW 2809   6.649   3.548   1.819
  637SOL    HW1 2810   6.671   3.480   1.749
  637SOL    HW2 2811   6.606   3.627   1.776
  638SOL     OW 2812   5.238   2.135   2.222
  638SOL    HW1 2813   5.207   2.089   2.306
  638SOL    HW2 2814   5.205   2.229   2.222
  639SOL     OW 2815   5.513   4.102   2.674
  639SOL    HW1 2816   5.538   4.046   2.595
  639SOL    HW2 2817   5.419   4.136   2.663
  640SOL     OW 2818   0.656   4.988   4.750
  640SOL    HW1 2819   0.633   5.000   4.653
  640SOL    HW2 2820   0.590   5.037   4.806
  641SOL     OW 2821   6.977   5.645   4.422
  641SOL    HW1 2822   6.942   5.707   4.351
  641SOL    HW2 2823   0.059   5.654   4.426
  642SOL     OW 2824   6.759   4.229   4.171
  642SOL    HW1 2825   6.770   4.196   4.077
  642SOL    HW2 2826   6.793   4.160   4.235
  643SOL     OW 2827   5.576   4.633   5.193
  643SOL    HW1 2828   5.586   4.729   5.168
  643SOL    HW2 2829   5.665   4.589   5.194
  644SOL     OW 2830   1.062   6.390   4.033
  644SOL    HW1 2831   1.094   6.297   4.053
  644SOL    HW2 2832   1.121   6.431   3.964
  645SOL     OW 2833   5.433   2.601   4.451
  645SOL    HW1 2834   5.339   2.573   4.473
  645SOL    HW2 2835   5.479   2.527   4.401
  646SOL     OW 2836   2.248   1.468   3.465
  646SOL    HW1 2837   2.197   1.552   3.448
  646SOL    HW2 2838   2.253   1.451   3.563
  647SOL     OW 2839   5.537   2.020   5.663
  647SOL    HW1 2840   5.515   1.923   5.652
  647SOL    HW2 2841   5.544   2.042   5.760
  648SOL     OW 2842   0.073   4.354   3.253
  648SOL    HW1 2843   0.066   4.404   3.166
  648SOL    HW2 2844   6.999   4.338   3.290
  649SOL     OW 2845   4.086   4.269   0.943
  649SOL    HW1 2846   4.095   4.353   0.995
  649SOL    HW2 2847   4.042   4.199   1.000
  650SOL     OW 2848   5.260   4.268   0.863
  650SOL    HW1 2849   5.322   4.196   0.830
  650SOL    HW2 2850   5.165   4.239   0.850
  651SOL     OW 2851   6.756   6.431   6.689
  651SOL    HW1 2852   6.810   6.482   6.754
  651SOL    HW2 2853   6.696   6.367   6.738
  652SOL     OW 2854   5.636   6.085   3.459
  652SOL    HW1 2855   5.616   5.998   3.503
  652SOL    HW2 2856   5.690   6.142   3.521
  653SOL     OW 2857   3.480   6.039   4.857
  653SOL    HW1 2858   3.478   5.970   4.784
  653SOL    HW2 2859   3.390   6.084   4.862
  654SOL     OW 2860   0.225   3.858   5.863
  654SOL    HW1 2861   0.142   3.909   5.888
  654SOL    HW2 2862   0.202   3.762   5.851
  655SOL     OW 2863   0.839   6.774   2.329
  655SOL    HW1 2864   0.915   6.744   2.388
  655SOL    HW2 2865   0.870   6.849   2.270
  656SOL     OW 2866   1.838   5.557   1.654
  656SOL    HW1 2867   1.874   5.523   1.741
  656SOL    HW2 2868   1.888   5.639   1.627
  657SOL     OW 2869   1.772   1.893   1.767
  657SOL    HW1 2870   1.704   1.915   1.837
  657SOL    HW2 2871   1.746   1.807   1.722
  658SOL     OW 2872   2.955   3.929   6.336
  658SOL    HW1 2873   3.024   3.980   6.387
  658SOL    HW2 2874   2.865   3.946   6.376
  659SOL     OW 2875   2.291   6.111   6.036
  659SOL    HW1 2876   2.238   6.058   6.103
  659SOL    HW2 2877   2.261   6.206   6.039
  660SOL     OW 2878   5.497   3.844   1.880
  660SOL    HW1 2879   5.427   3.774   1.891
  660SOL    HW2 2880   5.511   3.862   1.782
  661SOL     OW 2881   4.486   6.730   3.537
  661SOL    HW1 2882   4.561   6.698   3.594
  661SOL    HW2 2883   4.448   6.815   3.575
  662SOL     OW 2884   4.322   1.217   5.219
  662SOL    HW1 2885   4.383   1.203   5.141
  662SOL    HW2 2886   4.301   1.314   5.227
  663SOL     OW 2887   2.613   4.053   6.417
  663SOL    HW1 2888   2.638   4.084   6.325
  663SOL    HW2 2889   2.592   3.956   6.415
  664SOL     OW 2890   6.998   6.050   6.315
  664SOL    HW1 2891   7.013   6.133   6.262
  664SOL    HW2 2892   6.911   6.008   6.288
  665SOL     OW 2893   4.411   5.491   1.865
  665SOL    HW1 2894   4.428   5.416   1.929
  665SOL    HW2 2895   4.470   5.480   1.784
  666SOL     OW 2896   5.182   1.446   1.918
  666SOL    HW1 2897   5.221   1.392   1.843
  666SOL    HW2 2898   5.254   1.470   1.983
  667SOL     OW 2899   1.031   4.929   2.403
  667SOL    HW1 2900   1.035   4.829   2.393
  667SOL    HW2 2901   1.009   4.970   2.315
  668SOL     OW 2902   4.672   6.267   5.975
  668SOL    HW1 2903   4.622   6.214   5.907
  668SOL    HW2 2904   4.633   6.359   5.981
  669SOL     OW 2905   5.365   6.930   3.091
  669SOL    HW1 2906   5.450   6.977   3.065
  669SOL    HW2 2907   5.315   6.986   3.156
  670SOL     OW 2908   3.043   2.464   1.668
  670SOL    HW1 2909   3.110   2.526   1.708
  670SOL    HW2 2910   2.968   2.449   1.733
  671SOL     OW 2911   3.015   6.640   1.002
  671SOL    HW1 2912   3.027   6.729   0.958
  671SOL    HW2 2913   2.917   6.621   1.013
  672SOL     OW 2914   7.006   5.715   1.927
  672SOL    HW1 2915   0.080   5.745   1.904
  672SOL    HW2 2916   6.987   5.627   1.884
  673SOL     OW 2917   6.493   0.379   1.546
  673SOL    HW1 2918   6.509   0.475   1.521
  673SOL    HW2 2919   6.577   0.340   1.584
  674SOL     OW 2920   0.269   1.118   5.004
  674SOL    HW1 2921   0.299   1.043   4.944
  674SOL    HW2 2922   0.272   1.204   4.953
  675SOL     OW 2923   6.826   2.272   1.805
  675SOL    HW1 2924   6.843   2.256   1.902
  675SOL    HW2 2925   6.748   2.334   1.795
  676SOL     OW 2926   3.141   5.360   3.495
  676SOL    HW1 2927   3.170   5.333   3.586
  676SOL    HW2 2928   3.215   5.410   3.450
  677SOL     OW 2929   5.506   1.628   0.268
  677SOL    HW1 2930   5.492   1.632   0.169
  677SOL    HW2 2931   5.555   1.545   0.292
  678SOL     OW 2932   2.559   6.650   4.865
  678SOL    HW1 2933   2.581   6.681   4.773
  678SOL    HW2 2934   2.594   6.715   4.932
  679SOL     OW 2935   4.702   2.235   4.021
  679SOL    HW1 2936   4.779   2.298   4.029
  679SOL    HW2 2937   4.635   2.256   4.092
  680SOL     OW 2938   5.261   5.545   4.845
  680SOL    HW1 2939   5.315   5.461   4.855
  680SOL    HW2 2940   5.302   5.618   4.898
  681SOL     OW 2941   4.476   5.202   1.632
  681SOL    HW1 2942   4.398   5.243   1.585
  681SOL    HW2 2943   4.449   5.178   1.726
  682SOL     OW 2944   6.355   0.685   1.298
  682SOL    HW1 2945   6.327   0.620   1.227
  682SOL    HW2 2946   6.276   0.707   1.355
  683SOL     OW 2947   5.338   2.691   0.831
  683SOL    HW1 2948   5.298   2.655   0.916
  683SOL    HW2 2949   5.435   2.667   0.827
  684SOL     OW 2950   6.307   1.284   0.592
  684SOL    HW1 2951   6.305   1.186   0.612
  684SOL    HW2 2952   6.390   1.324   0.631
  685SOL     OW 2953   3.584   1.703   4.026
  685SOL    HW1 2954   3.549   1.748   4.108
  685SOL    HW2 2955   3.512   1.702   3.956
  686SOL     OW 2956   4.782   2.670   4.052
  686SOL    HW1 2957   4.747   2.707   4.138
  686SOL    HW2 2958   4.731   2.587   4.029
  687SOL     OW 2959   0.815   2.048   4.012
  687SOL    HW1 2960   0.870   1.982   3.961
  687SOL    HW2 2961   0.856   2.139   4.004
  688SOL     OW 2962   0.528   2.093   6.603
  688SOL    HW1 2963   0.449   2.152   6.619
  688SOL    HW2 2964   0.522   2.012   6.661
  689SOL     OW 2965   1.159   4.750   6.336
  689SOL    HW1 2966   1.121   4.724   6.425
  689SOL    HW2 2967   1.086   4.786   6.277
  690SOL     OW 2968   0.202   2.913   3.393
  690SOL    HW1 2969   0.132   2.982   3.415
  690SOL    HW2 2970   0.272   2.913   3.464
  691SOL     OW 2971   2.958   1.088   0.146
  691SOL    HW1 2972   2.861   1.065   0.147
  691SOL    HW2 2973   3.007   1.021   0.090
  692SOL     OW 2974   4.014   1.282   3.597
  692SOL    HW1 2975   3.932   1.315   3.550
  692SOL    HW2 2976   4.093   1.291   3.537
  693SOL     OW 2977   5.572   0.296   3.957
  693SOL    HW1 2978   5.540   0.218   3.904
  693SOL    HW2 2979   5.619   0.263   4.039
  694SOL     OW 2980   4.711   6.995   4.355
  694SOL    HW1 2981   4.727   7.009   4.452
  694SOL    HW2 2982   4.714   6.898   4.333
  695SOL     OW 2983   4.309   0.028   3.976
  695SOL    HW1 2984   4.389   0.001   4.029
  695SOL    HW2 2985   4.301   0.128   3.976
  696SOL     OW 2986   4.591   4.991   3.759
  696SOL    HW1 2987   4.629   4.906   3.796
  696SOL    HW2 2988   4.505   4.971   3.712
  697SOL     OW 2989   1.572   4.073   2.858
  697SOL    HW1 2990   1.603   4.039   2.947
  697SOL    HW2 2991   1.579   4.172   2.856
  698SOL     OW 2992   5.003   6.517   1.075
  698SOL    HW1 2993   5.027   6.612   1.052
  698SOL    HW2 2994   5.062   6.486   1.150
  699SOL     OW 2995   1.952   3.878   6.791
  699SOL    HW1 2996   2.021   3.858   6.721
  699SOL    HW2 2997   1.882   3.806   6.791
  700SOL     OW 2998   3.566   1.321   2.119
  700SOL    HW1 2999   3.635   1.380   2.160
  700SOL    HW2 3000   3.478   1.368   2.117
  701SOL     OW 3001   6.614   3.666   6.885
  701SOL    HW1 3002   6.566   3.591   6.840
  701SOL    HW2 3003   6.590   3.753   6.840
  702SOL     OW 3004   1.614   6.136   4.885
  702SOL    HW1 3005   1.615   6.222   4.835
  702SOL    HW2 3006   1.544   6.140   4.957
  703SOL     OW 3007   3.536   3.117   6.086
  703SOL    HW1 3008   3.569   3.152   6.173
  703SOL    HW2 3009   3.563   3.022   6.075
  704SOL     OW 3010   1.806   2.880   6.455
  704SOL    HW1 3011   1.823   2.967   6.501
  704SOL    HW2 3012   1.767   2.897   6.364
  705SOL     OW 3013   6.052   4.879   2.910
  705SOL    HW1 3014   6.116   4.806   2.937
  705SOL    HW2 3015   5.970   4.838   2.870
  706SOL     OW 3016   4.029   1.577   4.680
  706SOL    HW1 3017   4.053   1.482   4.660
  706SOL    HW2 3018   4.058   1.600   4.773
  707SOL     OW 3019   4.486   5.056   3.421
  707SOL    HW1 3020   4.402   5.095   3.383
  707SOL    HW2 3021   4.522   5.117   3.491
  708SOL     OW 3022   2.878   0.656   2.490
  708SOL    HW1 3023   2.793   0.691   2.530
  708SOL    HW2 3024   2.956   0.689   2.544
  709SOL     OW 3025   0.547   5.859   0.558
  709SOL    HW1 3026   0.592   5.769   0.553
  709SOL    HW2 3027   0.604   5.927   0.511
  710SOL     OW 3028   4.052   2.386   1.384
  710SOL    HW1 3029   4.126   2.453   1.378
  710SOL    HW2 3030   4.023   2.359   1.292
  711SOL     OW 3031   7.005   3.056   6.025
  711SOL    HW1 3032   6.990   3.122   6.098
  711SOL    HW2 3033   0.085   3.050   6.004
  712SOL     OW 3034   4.726   2.206   1.466
  712SOL    HW1 3035   4.749   2.204   1.368
  712SOL    HW2 3036   4.645   2.149   1.482
  713SOL     OW 3037   3.555   3.656   6.148
  713SOL    HW1 3038   3.476   3.713   6.125
  713SOL    HW2 3039   3.531   3.593   6.222
  714SOL     OW 3040   0.183   5.039   3.525
  714SOL    HW1 3041   0.164   4.943   3.544
  714SOL    HW2 3042   0.096   5.089   3.518
  715SOL     OW 3043   5.357   6.065   6.819
  715SOL    HW1 3044   5.407   5.991   6.774
  715SOL    HW2 3045   5.260   6.043   6.821
  716SOL     OW 3046   0.923   1.033   1.781
  716SOL    HW1 3047   0.894   1.114   1.729
  716SOL    HW2 3048   0.905   0.951   1.726
  717SOL     OW 3049   6.870   4.852   3.874
  717SOL    HW1 3050   6.929   4.776   3.846
  717SOL    HW2 3051   6.925   4.935   3.886
  718SOL     OW 3052   4.781   3.639   6.059
  718SOL    HW1 3053   4.819   3.728   6.035
  718SOL    HW2 3054   4.833   3.567   6.012
  719SOL     OW 3055   6.311   6.968   2.797
  719SOL    HW1 3056   6.323   6.945   2.893
  719SOL    HW2 3057   6.326   0.048   2.784
  720SOL     OW 3058   2.284   6.894   6.196
  720SOL    HW1 3059   2.322   6.913   6.105
  720SOL    HW2 3060   2.330   6.950   6.264
  721SOL     OW 3061   2.445   1.877   2.236
  721SOL    HW1 3062   2.522   1.921   2.189
  721SOL    HW2 3063   2.450   1.778   2.222
  722SOL     OW 3064   2.506   0.845   5.784
  722SOL    HW1 3065   2.566   0.860   5.706
  722SOL    HW2 3066   2.485   0.933   5.827
  723SOL     OW 3067   2.162   4.419   3.534
  723SOL    HW1 3068   2.170   4.398   3.631
  723SOL    HW2 3069   2.067   4.445   3.513
  724SOL     OW 3070   0.540   1.362   3.859
  724SOL    HW1 3071   0.583   1.346   3.948
  724SOL    HW2 3072   0.572   1.294   3.793
  725SOL     OW 3073   1.605   5.578   2.530
  725SOL    HW1 3074   1.530   5.524   2.493
  725SOL    HW2 3075   1.588   5.597   2.626
  726SOL     OW 3076   3.126   5.006   1.559
  726SOL    HW1 3077   3.136   4.998   1.659
  726SOL    HW2 3078   3.177   5.086   1.528
  727SOL     OW 3079   6.249   4.514   5.793
  727SOL    HW1 3080   6.251   4.598   5.737
  727SOL    HW2 3081   6.285   4.438   5.739
  728SOL     OW 3082   6.444   3.218   3.714
  728SOL    HW1 3083   6.398   3.133   3.684
  728SOL    HW2 3084   6.528   3.195   3.763
  729SOL     OW 3085   0.395   2.142   0.998
  729SOL    HW1 3086   0.297   2.157   1.004
  729SOL    HW2 3087   0.415   2.045   1.014
  730SOL     OW 3088   6.710   0.211   4.388
  730SOL    HW1 3089   6.774   0.240   4.317
  730SOL    HW2 3090   6.711   0.111   4.394
  731SOL     OW 3091   4.158   5.359   6.320
  731SOL    HW1 3092   4.080   5.307   6.283
  731SOL    HW2 3093   4.171   5.334   6.416
  732SOL     OW 3094   5.922   2.845   1.560
  732SOL    HW1 3095   5.833   2.854   1.605
  732SOL    HW2 3096   5.978   2.780   1.610
  733SOL     OW 3097   5.621   0.054   4.594
  733SOL    HW1 3098   5.673   6.988   4.579
  733SOL    HW2 3099   5.599   0.097   4.507
  734SOL     OW 3100   5.857   4.738   2.783
  734SOL    HW1 3101   5.840   4.807   2.713
  734SOL    HW2 3102   5.780   4.736   2.847
  735SOL     OW 3103   4.152   1.734   0.611
  735SOL    HW1 3104   4.191   1.773   0.527
  735SOL    HW2 3105   4.064   1.777   0.630
  736SOL     OW 3106   0.915   1.304   3.757
  736SOL    HW1 3107   0.937   1.401   3.751
  736SOL    HW2 3108   0.998   1.251   3.775
  737SOL     OW 3109   4.967   1.838   5.759
  737SOL    HW1 3110   5.040   1.859   5.824
  737SOL    HW2 3111   4.930   1.747   5.778
  738SOL     OW 3112   3.165   4.010   1.525
  738SOL    HW1 3113   3.208   3.920   1.531
  738SOL    HW2 3114   3.097   4.010   1.452
  739SOL     OW 3115   5.062   0.869   4.486
  739SOL    HW1 3116   5.039   0.935   4.558
  739SOL    HW2 3117   4.983   0.809   4.470
  740SOL     OW 3118   5.978   1.052   2.654
  740SOL    HW1 3119   5.920   0.976   2.684
  740SOL    HW2 3120   5.964   1.130   2.715
  741SOL     OW 3121   1.628   0.204   3.382
  741SOL    HW1 3122   1.623   0.252   3.295
  741SOL    HW2 3123   1.586   0.113   3.372
  742SOL     OW 3124   2.326   0.048   1.943
  742SOL    HW1 3125   2.321   0.065   2.042
  742SOL    HW2 3126   2.391   0.111   1.901
  743SOL     OW 3127   0.683   5.296   2.956
  743SOL    HW1 3128   0.648   5.274   2.864
  743SOL    HW2 3129   0.661   5.221   3.018
  744SOL     OW 3130   5.894   1.111   0.964
  744SOL    HW1 3131   5.827   1.043   0.992
  744SOL    HW2 3132   5.957   1.128   1.040
  745SOL     OW 3133   1.511   5.570   5.116
  745SOL    HW1 3134   1.541   5.665   5.127
  745SOL    HW2 3135   1.431   5.553   5.172
  746SOL     OW 3136   6.293   3.882   6.029
  746SOL    HW1 3137   6.268   3.977   6.011
  746SOL    HW2 3138   6.389   3.877   6.055
  747SOL     OW 3139   3.771   5.903   4.725
  747SOL    HW1 3140   3.783   6.002   4.726
  747SOL    HW2 3141   3.702   5.877   4.792
  748SOL     OW 3142   4.244   5.018   2.835
  748SOL    HW1 3143   4.339   5.040   2.855
  748SOL    HW2 3144   4.233   4.918   2.830
  749SOL     OW 3145   6.256   3.796   4.670
  749SOL    HW1 3146   6.199   3.855   4.612
  749SOL    HW2 3147   6.338   3.769   4.621
  750SOL     OW 3148   3.078   1.028   1.003
  750SOL    HW1 3149   3.087   0.931   1.025
  750SOL    HW2 3150   2.989   1.061   1.033
  751SOL     OW 3151   4.578   2.029   0.150
  751SOL    HW1 3152   4.660   1.993   0.195
  751SOL    HW2 3153   4.590   2.024   0.051
  752SOL     OW 3154   2.591   2.935   1.015
  752SOL    HW1 3155   2.686   2.930   1.047
  752SOL    HW2 3156   2.589   2.966   0.920
  753SOL     OW 3157   0.667   3.811   5.914
  753SOL    HW1 3158   0.745   3.872   5.929
  753SOL    HW2 3159   0.583   3.864   5.908
  754SOL     OW 3160   4.401   1.209   6.552
  754SOL    HW1 3161   4.461   1.289   6.562
  754SOL    HW2 3162   4.453   1.133   6.514
  755SOL     OW 3163   1.772   4.447   5.196
  755SOL    HW1 3164   1.854   4.457   5.251
  755SOL    HW2 3165   1.793   4.397   5.112
  756SOL     OW 3166   2.419   5.726   0.162
  756SOL    HW1 3167   2.400   5.823   0.177
  756SOL    HW2 3168   2.334   5.677   0.149
  757SOL     OW 3169   0.367   6.479   4.269
  757SOL    HW1 3170   0.451   6.431   4.291
  757SOL    HW2 3171   0.357   6.487   4.170
  758SOL     OW 3172   4.563   0.499   3.432
  758SOL    HW1 3173   4.483   0.440   3.425
  758SOL    HW2 3174   4.633   0.453   3.487
  759SOL     OW 3175   0.395   2.875   2.421
  759SOL    HW1 3176   0.468   2.851   2.357
  759SOL    HW2 3177   0.323   2.926   2.372
  760SOL     OW 3178   6.007   0.055   3.680
  760SOL    HW1 3179   5.979   0.103   3.597
  760SOL    HW2 3180   6.099   0.017   3.668
  761SOL     OW 3181   5.364   4.145   6.432
  761SOL    HW1 3182   5.349   4.220   6.497
  761SOL    HW2 3183   5.387   4.062   6.482
  762SOL     OW 3184   3.083   0.280   5.455
  762SOL    HW1 3185   3.135   0.195   5.467
  762SOL    HW2 3186   3.135   0.356   5.495
  763SOL     OW 3187   3.932   5.897   6.276
  763SOL    HW1 3188   3.994   5.820   6.264
  763SOL    HW2 3189   3.937   5.958   6.196
  764SOL     OW 3190   5.610   1.146   5.795
  764SOL    HW1 3191   5.648   1.074   5.853
  764SOL    HW2 3192   5.603   1.114   5.701
  765SOL     OW 3193   1.666   5.872   0.709
  765SOL    HW1 3194   1.679   5.949   0.771
  765SOL    HW2 3195   1.568   5.849   0.705
  766SOL     OW 3196   2.726   2.238   5.415
  766SOL    HW1 3197   2.772   2.316   5.457
  766SOL    HW2 3198   2.730   2.247   5.315
  767SOL     OW 3199   6.277   6.179   3.804
  767SOL    HW1 3200   6.295   6.099   3.861
  767SOL    HW2 3201   6.348   6.186   3.734
  768SOL     OW 3202   1.687   5.114   3.249
  768SOL    HW1 3203   1.614   5.089   3.312
  768SOL    HW2 3204   1.769   5.060   3.270
  769SOL     OW 3205   2.466   1.011   5.194
  769SOL    HW1 3206   2.509   0.928   5.230
  769SOL    HW2 3207   2.372   1.017   5.228
  770SOL     OW 3208   1.520   5.497   3.969
  770SOL    HW1 3209   1.588   5.431   3.937
  770SOL    HW2 3210   1.445   5.448   4.014
  771SOL     OW 3211   0.905   4.871   3.016
  771SOL    HW1 3212   0.912   4.772   3.017
  771SOL    HW2 3213   0.872   4.904   3.104
  772SOL     OW 3214   5.991   4.599   0.084
  772SOL    HW1 3215   6.086   4.572   0.065
  772SOL    HW2 3216   5.929   4.540   0.033
  773SOL     OW 3217   0.561   4.332   3.339
  773SOL    HW1 3218   0.617   4.269   3.285
  773SOL    HW2 3219   0.619   4.401   3.381
  774SOL     OW 3220   1.661   1.639   1.744
  774SOL    HW1 3221   1.666   1.621   1.842
  774SOL    HW2 3222   1.573   1.607   1.708
  775SOL     OW 3223   2.091   1.798   3.985
  775SOL    HW1 3224   2.111   1.781   3.888
  775SOL    HW2 3225   2.176   1.788   4.038
  776SOL     OW 3226   6.986   0.490   6.226
  776SOL    HW1 3227   6.988   0.427   6.148
  776SOL    HW2 3228   0.000   0.580   6.197
  777SOL     OW 3229   1.796   4.185   1.365
  777SOL    HW1 3230   1.875   4.225   1.318
  777SOL    HW2 3231   1.713   4.202   1.312
  778SOL     OW 3232   2.327   0.443   1.338
  778SOL    HW1 3233   2.265   0.384   1.390
  778SOL    HW2 3234   2.281   0.476   1.256
  779SOL     OW 3235   6.918   2.319   2.288
  779SOL    HW1 3236   7.006   2.306   2.333
  779SOL    HW2 3237   6.900   2.417   2.279
  780SOL     OW 3238   0.545   2.674   4.249
  780SOL    HW1 3239   0.625   2.614   4.257
  780SOL    HW2 3240   0.475   2.644   4.313
  781SOL     OW 3241   5.566   6.415   0.800
  781SOL    HW1 3242   5.536   6.411   0.895
  781SOL    HW2 3243   5.555   6.325   0.757
  782SOL     OW 3244   1.624   3.474   5.752
  782SOL    HW1 3245   1.697   3.518   5.700
  782SOL    HW2 3246   1.659   3.443   5.840
  783SOL     OW 3247   4.899   4.644   1.937
  783SOL    HW1 3248   4.822   4.584   1.959
  783SOL    HW2 3249   4.982   4.589   1.924
  784SOL     OW 3250   3.780   5.167   1.681
  784SOL    HW1 3251   3.792   5.100   1.755
  784SOL    HW2 3252   3.869   5.190   1.642
  785SOL     OW 3253   0.693   1.653   3.348
  785SOL    HW1 3254   0.748   1.623   3.270
  785SOL    HW2 3255   0.644   1.737   3.325
  786SOL     OW 3256   0.136   0.100   2.551
  786SOL    HW1 3257   0.149   0.108   2.650
  786SOL    HW2 3258   0.083   0.018   2.531
  787SOL     OW 3259   1.575   0.748   0.007
  787SOL    HW1 3260   1.560   0.652   7.002
  787SOL    HW2 3261   1.490   0.788   0.040
  788SOL     OW 3262   4.456   1.988   1.145
  788SOL    HW1 3263   4.507   1.961   1.064
  788SOL    HW2 3264   4.506   2.060   1.194
  789SOL     OW 3265   4.151   4.842   2.005
  789SOL    HW1 3266   4.195   4.777   2.067
  789SOL    HW2 3267   4.078   4.890   2.053
  790SOL     OW 3268   2.881   1.752   2.928
  790SOL    HW1 3269   2.888   1.653   2.938
  790SOL    HW2 3270   2.922   1.796   3.008
  791SOL     OW 3271   2.227   6.376   4.787
  791SOL    HW1 3272   2.204   6.280   4.805
  791SOL    HW2 3273   2.180   6.434   4.853
  792SOL     OW 3274   0.970   0.681   1.996
  792SOL    HW1 3275   0.904   0.696   2.070
  792SOL    HW2 3276   1.014   0.767   1.972
  793SOL     OW 3277   4.860   5.519   4.524
  793SOL    HW1 3278   4.890   5.432   4.564
  793SOL    HW2 3279   4.816   5.501   4.436
  794SOL     OW 3280   2.894   4.086   5.822
  794SOL    HW1 3281   2.815   4.034   5.787
  794SOL    HW2 3282   2.921   4.154   5.754
  795SOL     OW 3283   4.004   0.511   5.452
  795SOL    HW1 3284   4.085   0.503   5.394
  795SOL    HW2 3285   3.921   0.510   5.396
  796SOL     OW 3286   0.962   2.893   6.841
  796SOL    HW1 3287   1.043   2.915   6.896
  796SOL    HW2 3288   0.884   2.946   6.875
  797SOL     OW 3289   4.955   0.677   0.719
  797SOL    HW1 3290   5.044   0.669   0.766
  797SOL    HW2 3291   4.885   0.633   0.774
  798SOL     OW 3292   3.510   6.914   2.365
  798SOL    HW1 3293   3.470   6.886   2.453
  798SOL    HW2 3294   3.437   6.941   2.302
  799SOL     OW 3295   0.470   0.299   6.495
  799SOL    HW1 3296   0.373   0.297   6.521
  799SOL    HW2 3297   0.521   0.235   6.552
  800SOL     OW 3298   6.261   0.753   2.298
  800SOL    HW1 3299   6.228   0.750   2.392
  800SOL    HW2 3300   6.319   0.834   2.286
  801SOL     OW 3301   2.349   4.793   5.148
  801SOL    HW1 3302   2.348   4.751   5.239
  801SOL    HW2 3303   2.264   4.771   5.099
  802SOL     OW 3304   3.246   2.531   0.367
  802SOL    HW1 3305   3.243   2.431   0.360
  802SOL    HW2 3306   3.157   2.565   0.398
  803SOL     OW 3307   1.352   0.501   5.871
  803SOL    HW1 3308   1.281   0.539   5.811
  803SOL    HW2 3309   1.390   0.573   5.928
  804SOL     OW 3310   6.261   6.276   1.143
  804SOL    HW1 3311   6.169   6.304   1.116
  804SOL    HW2 3312   6.306   6.232   1.065
  805SOL     OW 3313   2.234   1.228   4.358
  805SOL    HW1 3314   2.295   1.156   4.392
  805SOL    HW2 3315   2.235   1.306   4.420
  806SOL     OW 3316   5.483   0.661   5.796
  806SOL    HW1 3317   5.409   0.650   5.730
  806SOL    HW2 3318   5.493   0.758   5.818
  807SOL     OW 3319   0.584   0.451   4.614
  807SOL    HW1 3320   0.647   0.397   4.671
  807SOL    HW2 3321   0.513   0.391   4.578
  808SOL     OW 3322   4.539   3.278   7.012
  808SOL    HW1 3323   4.589   3.263   0.080
  808SOL    HW2 3324   4.463   3.341   0.011
  809SOL     OW 3325   0.794   4.780   0.943
  809SOL    HW1 3326   0.775   4.711   0.872
  809SOL    HW2 3327   0.813   4.734   1.029
  810SOL     OW 3328   3.371   4.598   0.510
  810SOL    HW1 3329   3.333   4.506   0.508
  810SOL    HW2 3330   3.360   4.640   0.420
  811SOL     OW 3331   5.114   5.773   4.130
  811SOL    HW1 3332   5.155   5.730   4.050
  811SOL    HW2 3333   5.186   5.818   4.184
  812SOL     OW 3334   0.068   1.532   2.391
  812SOL    HW1 3335   0.114   1.494   2.310
  812SOL    HW2 3336   0.050   1.629   2.376
  813SOL     OW 3337   3.697   0.437   4.223
  813SOL    HW1 3338   3.749   0.367   4.273
  813SOL    HW2 3339   3.616   0.395   4.182
  814SOL     OW 3340   6.258   5.369   2.616
  814SOL    HW1 3341   6.348   5.335   2.646
  814SOL    HW2 3342   6.268   5.459   2.574
  815SOL     OW 3343   6.104   3.229   3.499
  815SOL    HW1 3344   6.097   3.238   3.400
  815SOL    HW2 3345   6.026   3.274   3.543
  816SOL     OW 3346   5.573   5.091   0.707
  816SOL    HW1 3347   5.552   5.028   0.783
  816SOL    HW2 3348   5.500   5.087   0.639
  817SOL     OW 3349   1.013   5.431   0.983
  817SOL    HW1 3350   1.037   5.508   1.043
  817SOL    HW2 3351   1.048   5.346   1.022
  818SOL     OW 3352   6.647   3.471   3.492
  818SOL    HW1 3353   6.619   3.433   3.403
  818SOL    HW2 3354   6.587   3.436   3.563
  819SOL     OW 3355   6.181   3.102   1.226
  819SOL    HW1 3356   6.200   3.047   1.307
  819SOL    HW2 3357   6.108   3.059   1.172
  820SOL     OW 3358   2.775   2.115   4.755
  820SOL    HW1 3359   2.820   2.190   4.804
  820SOL    HW2 3360   2.844   2.048   4.727
  821SOL     OW 3361   6.377   4.875   6.320
  821SOL    HW1 3362   6.446   4.804   6.310
  821SOL    HW2 3363   6.397   4.930   6.401
  822SOL     OW 3364   6.817   3.298   3.169
  822SOL    HW1 3365   6.841   3.360   3.095
  822SOL    HW2 3366   6.884   3.306   3.243
  823SOL     OW 3367   6.243   4.423   6.068
  823SOL    HW1 3368   6.198   4.498   6.116
  823SOL    HW2 3369   6.237   4.437   5.970
  824SOL     OW 3370   4.369   0.929   6.247
  824SOL    HW1 3371   4.370   0.930   6.347
  824SOL    HW2 3372   4.280   0.896   6.215
  825SOL     OW 3373   6.229   5.337   1.231
  825SOL    HW1 3374   6.290   5.383   1.296
  825SOL    HW2 3375   6.261   5.354   1.138
  826SOL     OW 3376   3.844   2.602   5.585
  826SOL    HW1 3377   3.865   2.607   5.488
  826SOL    HW2 3378   3.928   2.588   5.637
  827SOL     OW 3379   2.450   4.345   5.266
  827SOL    HW1 3380   2.394   4.274   5.307
  827SOL    HW2 3381   2.482   4.315   5.176
  828SOL     OW 3382   5.855   6.534   6.723
  828SOL    HW1 3383   5.847   6.603   6.651
  828SOL    HW2 3384   5.928   6.470   6.700
  829SOL     OW 3385   4.026   3.267   2.097
  829SOL    HW1 3386   4.007   3.196   2.164
  829SOL    HW2 3387   3.940   3.306   2.063
  830SOL     OW 3388   5.354   4.737   6.531
  830SOL    HW1 3389   5.355   4.728   6.630
  830SOL    HW2 3390   5.409   4.663   6.491
  831SOL     OW 3391   5.785   0.192   0.525
  831SOL    HW1 3392   5.723   0.119   0.552
  831SOL    HW2 3393   5.871   0.185   0.577
  832SOL     OW 3394   4.092   2.254   3.814
  832SOL    HW1 3395   4.073   2.236   3.910
  832SOL    HW2 3396   4.097   2.167   3.764
  833SOL     OW 3397   1.939   3.681   6.376
  833SOL    HW1 3398   1.967   3.733   6.295
  833SOL    HW2 3399   1.842   3.696   6.393
  834SOL     OW 3400   5.271   3.474   1.404
  834SOL    HW1 3401   5.179   3.442   1.424
  834SOL    HW2 3402   5.286   3.563   1.447
  835SOL     OW 3403   2.884   6.969   4.808
  835SOL    HW1 3404   2.980   6.988   4.829
  835SOL    HW2 3405   2.865   6.872   4.824
  836SOL     OW 3406   4.271   7.013   5.117
  836SOL    HW1 3407   4.231   6.963   5.039
  836SOL    HW2 3408   4.227   6.982   5.202
  837SOL     OW 3409   0.113   0.813   1.091
  837SOL    HW1 3410   0.019   0.839   1.115
  837SOL    HW2 3411   0.173   0.892   1.103
  838SOL     OW 3412   2.805   6.602   4.349
  838SOL    HW1 3413   2.712   6.628   4.324
  838SOL    HW2 3414   2.869   6.638   4.281
  839SOL     OW 3415   2.392   1.400   2.041
  839SOL    HW1 3416   2.393   1.301   2.048
  839SOL    HW2 3417   2.299   1.431   2.019
  840SOL     OW 3418   6.347   5.723   0.168
  840SOL    HW1 3419   6.387   5.758   0.252
  840SOL    HW2 3420   6.365   5.786   0.093
  841SOL     OW 3421   3.413   5.712   5.903
  841SOL    HW1 3422   3.386   5.735   5.810
  841SOL    HW2 3423   3.458   5.622   5.904
  842SOL     OW 3424   3.860   0.501   5.802
  842SOL    HW1 3425   3.910   0.580   5.839
  842SOL    HW2 3426   3.825   0.523   5.711
  843SOL     OW 3427   1.078   1.643   1.573
  843SOL    HW1 3428   1.045   1.647   1.668
  843SOL    HW2 3429   1.178   1.642   1.573
  844SOL     OW 3430   6.939   6.926   0.485
  844SOL    HW1 3431   6.937   6.961   0.391
  844SOL    HW2 3432   6.869   6.972   0.539
  845SOL     OW 3433   5.027   4.143   3.329
  845SOL    HW1 3434   4.985   4.075   3.269
  845SOL    HW2 3435   5.012   4.117   3.424
  846SOL     OW 3436   1.992   0.548   6.128
  846SOL    HW1 3437   2.023   0.581   6.038
  846SOL    HW2 3438   2.068   0.503   6.174
  847SOL     OW 3439   1.152   3.284   1.466
  847SOL    HW1 3440   1.174   3.196   1.508
  847SOL    HW2 3441   1.118   3.269   1.374
  848SOL     OW 3442   6.647   6.866   5.915
  848SOL    HW1 3443   6.570   6.910   5.869
  848SOL    HW2 3444   6.731   6.882   5.863
  849SOL     OW 3445   6.095   4.348   6.483
  849SOL    HW1 3446   6.100   4.416   6.410
  849SOL    HW2 3447   6.073   4.259   6.445
  850SOL     OW 3448   5.809   0.283   4.844
  850SOL    HW1 3449   5.849   0.194   4.862
  850SOL    HW2 3450   5.810   0.338   4.928
  851SOL     OW 3451   6.823   2.747   0.460
  851SOL    HW1 3452   6.755   2.692   0.411
  851SOL    HW2 3453   6.907   2.694   0.471
  852SOL     OW 3454   0.996   4.309   0.156
  852SOL    HW1 3455   1.050   4.385   0.193
  852SOL    HW2 3456   1.050   4.260   0.087
  853SOL     OW 3457   0.782   4.731   0.185
  853SOL    HW1 3458   0.714   4.777   0.127
  853SOL    HW2 3459   0.740   4.650   0.226
  854SOL     OW 3460   4.697   5.757   0.535
  854SOL    HW1 3461   4.706   5.832   0.601
  854SOL    HW2 3462   4.756   5.775   0.456
  855SOL     OW 3463   6.397   6.911   1.062
  855SOL    HW1 3464   6.470   6.854   1.099
  855SOL    HW2 3465   6.372   6.981   1.130
  856SOL     OW 3466   1.462   1.416   6.940
  856SOL    HW1 3467   1.547   1.400   6.889
  856SOL    HW2 3468   1.485   1.448   0.015
  857SOL     OW 3469   5.925   5.262   2.163
  857SOL    HW1 3470   6.016   5.229   2.185
  857SOL    HW2 3471   5.875   5.191   2.113
  858SOL     OW 3472   3.193   4.214   1.290
  858SOL    HW1 3473   3.159   4.277   1.360
  858SOL    HW2 3474   3.137   4.131   1.290
  859SOL     OW 3475   5.852   6.492   5.219
  859SOL    HW1 3476   5.861   6.393   5.212
  859SOL    HW2 3477   5.942   6.535   5.206
  860SOL     OW 3478   6.643   2.590   6.896
  860SOL    HW1 3479   6.651   2.571   6.799
  860SOL    HW2 3480   6.580   2.524   6.938
  861SOL     OW 3481   2.069   4.615   3.854
  861SOL    HW1 3482   2.035   4.627   3.761
  861SOL    HW2 3483   2.049   4.522   3.885
  862SOL     OW 3484   1.867   4.003   2.864
  862SOL    HW1 3485   1.850   4.046   2.776
  862SOL    HW2 3486   1.821   3.914   2.868
  863SOL     OW 3487   5.745   1.005   6.341
  863SOL    HW1 3488   5.662   1.060   6.327
  863SOL    HW2 3489   5.762   0.948   6.261
  864SOL     OW 3490   3.900   5.974   3.860
  864SOL    HW1 3491   3.998   5.965   3.882
  864SOL    HW2 3492   3.861   5.884   3.847
  865SOL     OW 3493   1.463   6.860   5.751
  865SOL    HW1 3494   1.549   6.843   5.703
  865SOL    HW2 3495   1.483   6.894   5.844
  866SOL     OW 3496   3.280   0.827   0.600
  866SOL    HW1 3497   3.372   0.858   0.575
  866SOL    HW2 3498   3.231   0.901   0.646
  867SOL     OW 3499   5.063   3.591   0.411
  867SOL    HW1 3500   5.095   3.500   0.385
  867SOL    HW2 3501   5.142   3.648   0.434
  868SOL     OW 3502   6.749   1.010   1.377
  868SOL    HW1 3503   6.666   0.998   1.322
  868SOL    HW2 3504   6.723   1.042   1.468
  869SOL     OW 3505   0.401   4.221   2.991
  869SOL    HW1 3506   0.333   4.189   3.057
  869SOL    HW2 3507   0.435   4.143   2.938
  870SOL     OW 3508   4.154   3.900   0.505
  870SOL    HW1 3509   4.183   3.818   0.456
  870SOL    HW2 3510   4.234   3.957   0.525
  871SOL     OW 3511   5.016   2.291   3.483
  871SOL    HW1 3512   5.114   2.309   3.494
  871SOL    HW2 3513   4.969   2.377   3.463
  872SOL     OW 3514   5.501   3.039   3.674
  872SOL    HW1 3515   5.589   3.083   3.660
  872SOL    HW2 3516   5.437   3.068   3.603
  873SOL     OW 3517   5.190   5.274   5.117
  873SOL    HW1 3518   5.093   5.283   5.092
  873SOL    HW2 3519   5.200   5.278   5.216
  874SOL     OW 3520   6.072   3.582   6.304
  874SOL    HW1 3521   6.056   3.500   6.360
  874SOL    HW2 3522   6.119   3.651   6.360
  875SOL     OW 3523   4.941   5.156   1.103
  875SOL    HW1 3524   4.983   5.234   1.151
  875SOL    HW2 3525   4.854   5.184   1.063
  876SOL     OW 3526   0.163   4.956   2.326
  876SOL    HW1 3527   0.090   4.988   2.265
  876SOL    HW2 3528   0.228   5.030   2.342
  877SOL     OW 3529   3.633   4.820   5.825
  877SOL    HW1 3530   3.656   4.891   5.759
  877SOL    HW2 3531   3.654   4.730   5.786
  878SOL     OW 3532   4.978   6.519   4.361
  878SOL    HW1 3533   5.069   6.555   4.384
  878SOL    HW2 3534   4.940   6.570   4.285
  879SOL     OW 3535   4.218   1.231   1.656
  879SOL    HW1 3536   4.160   1.198   1.731
  879SOL    HW2 3537   4.167   1.224   1.570
  880SOL     OW 3538   3.171   3.700   4.035
  880SOL    HW1 3539   3.267   3.700   4.009
  880SOL    HW2 3540   3.136   3.607   4.032
  881SOL     OW 3541   5.002   4.033   5.806
  881SOL    HW1 3542   4.922   4.026   5.747
  881SOL    HW2 3543   5.085   4.029   5.751
  882SOL     OW 3544   1.350   2.238   3.817
  882SOL    HW1 3545   1.401   2.192   3.890
  882SOL    HW2 3546   1.320   2.328   3.850
  883SOL     OW 3547   3.324   0.272   0.790
  883SOL    HW1 3548   3.304   0.346   0.726
  883SOL    HW2 3549   3.251   0.266   0.859
  884SOL     OW 3550   6.850   4.220   6.871
  884SOL    HW1 3551   6.904   4.268   6.801
  884SOL    HW2 3552   6.849   4.122   6.851
  885SOL     OW 3553   4.554   0.399   4.983
  885SOL    HW1 3554   4.488   0.464   4.947
  885SOL    HW2 3555   4.524   0.367   5.073
  886SOL     OW 3556   3.773   0.303   0.594
  886SOL    HW1 3557   3.761   0.262   0.685
  886SOL    HW2 3558   3.684   0.330   0.557
  887SOL     OW 3559   3.633   6.421   3.681
  887SOL    HW1 3560   3.679   6.345   3.728
  887SOL    HW2 3561   3.696   6.499   3.675
  888SOL     OW 3562   0.662   6.082   3.359
  888SOL    HW1 3563   0.709   6.158   3.404
  888SOL    HW2 3564   0.586   6.053   3.417
  889SOL     OW 3565   0.266   1.625   6.514
  889SOL    HW1 3566   0.360   1.602   6.489
  889SOL    HW2 3567   0.238   1.709   6.467
  890SOL     OW 3568   2.429   4.887   2.983
  890SOL    HW1 3569   2.424   4.896   2.883
  890SOL    HW2 3570   2.355   4.939   3.025
  891SOL     OW 3571   6.830   3.817   0.961
  891SOL    HW1 3572   6.757   3.751   0.978
  891SOL    HW2 3573   6.804   3.906   1.000
  892SOL     OW 3574   3.209   3.652   4.879
  892SOL    HW1 3575   3.196   3.661   4.780
  892SOL    HW2 3576   3.121   3.636   4.923
  893SOL     OW 3577   2.036   6.773   3.989
  893SOL    HW1 3578   1.995   6.706   3.927
  893SOL    HW2 3579   1.978   6.782   4.070
  894SOL     OW 3580   1.172   2.846   2.467
  894SOL    HW1 3581   1.182   2.756   2.424
  894SOL    HW2 3582   1.236   2.854   2.543
  895SOL     OW 3583   1.211   5.243   4.285
  895SOL    HW1 3584   1.253   5.315   4.339
  895SOL    HW2 3585   1.183   5.168   4.345
  896SOL     OW 3586   5.623   4.884   1.751
  896SOL    HW1 3587   5.634   4.975   1.793
  896SOL    HW2 3588   5.670   4.882   1.663
  897SOL     OW 3589   3.964   1.126   6.670
  897SOL    HW1 3590   4.013   1.175   6.742
  897SOL    HW2 3591   3.926   1.042   6.708
  898SOL     OW 3592   3.824   6.521   3.035
  898SOL    HW1 3593   3.777   6.456   2.976
  898SOL    HW2 3594   3.773   6.607   3.039
  899SOL     OW 3595   0.230   6.370   0.069
  899SOL    HW1 3596   0.179   6.296   0.025
  899SOL    HW2 3597   0.310   6.332   0.116
  900SOL     OW 3598   5.474   6.724   6.821
  900SOL    HW1 3599   5.507   6.774   6.901
  900SOL    HW2 3600   5.432   6.789   6.757
  901SOL     OW 3601   1.425   0.798   3.863
  901SOL    HW1 3602   1.439   0.720   3.804
  901SOL    HW2 3603   1.362   0.863   3.820
  902SOL     OW 3604   1.208   3.037   1.561
  902SOL    HW1 3605   1.175   2.956   1.513
  902SOL    HW2 3606   1.240   3.011   1.652
  903SOL     OW 3607   1.140   3.264   6.776
  903SOL    HW1 3608   1.091   3.177   6.787
  903SOL    HW2 3609   1.084   3.328   6.723
  904SOL     OW 3610   1.950   2.425   2.383
  904SOL    HW1 3611   1.911   2.338   2.410
  904SOL    HW2 3612   1.904   2.499   2.431
  905SOL     OW 3613   4.942   3.919   6.769
  905SOL    HW1 3614   4.963   3.871   6.853
  905SOL    HW2 3615   4.964   3.861   6.690
  906SOL     OW 3616   0.708   2.060   6.382
  906SOL    HW1 3617   0.774   2.129   6.354
  906SOL    HW2 3618   0.692   2.068   6.481
  907SOL     OW 3619   4.932   2.559   0.881
  907SOL    HW1 3620   4.876   2.613   0.944
  907SOL    HW2 3621   4.935   2.603   0.792
  908SOL     OW 3622   2.416   4.422   3.206
  908SOL    HW1 3623   2.376   4.357   3.142
  908SOL    HW2 3624   2.464   4.494   3.156
  909SOL     OW 3625   3.882   6.529   1.889
  909SOL    HW1 3626   3.913   6.488   1.803
  909SOL    HW2 3627   3.921   6.621   1.897
  910SOL     OW 3628   3.195   1.817   1.317
  910SOL    HW1 3629   3.131   1.824   1.240
  910SOL    HW2 3630   3.194   1.901   1.370
  911SOL     OW 3631   1.132   6.365   6.766
  911SOL    HW1 3632   1.186   6.353   6.849
  911SOL    HW2 3633   1.113   6.463   6.753
  912SOL     OW 3634   6.157   0.982   2.938
  912SOL    HW1 3635   6.158   0.943   2.846
  912SOL    HW2 3636   6.084   1.050   2.945
  913SOL     OW 3637   3.273   0.708   4.069
  913SOL    HW1 3638   3.270   0.660   3.981
  913SOL    HW2 3639   3.255   0.644   4.143
  914SOL     OW 3640   1.985   6.671   5.365
  914SOL    HW1 3641   2.050   6.742   5.339
  914SOL    HW2 3642   1.998   6.647   5.462
  915SOL     OW 3643   0.021   3.279   0.306
  915SOL    HW1 3644   0.099   3.219   0.321
  915SOL    HW2 3645   0.022   3.354   0.372
  916SOL     OW 3646   1.840   3.207   2.611
  916SOL    HW1 3647   1.840   3.291   2.557
  916SOL    HW2 3648   1.934   3.176   2.626
  917SOL     OW 3649   0.888   6.962   2.116
  917SOL    HW1 3650   0.964   6.931   2.059
  917SOL    HW2 3651   0.895   0.042   2.132
  918SOL     OW 3652   3.783   0.147   0.817
  918SOL    HW1 3653   3.880   0.122   0.808
  918SOL    HW2 3654   3.773   0.213   0.892
  919SOL     OW 3655   6.813   6.600   3.262
  919SOL    HW1 3656   6.913   6.603   3.269
  919SOL    HW2 3657   6.781   6.675   3.204
  920SOL     OW 3658   2.426   4.338   2.585
  920SOL    HW1 3659   2.512   4.372   2.624
  920SOL    HW2 3660   2.400   4.395   2.508
  921SOL     OW 3661   3.958   5.611   4.275
  921SOL    HW1 3662   3.923   5.594   4.183
  921SOL    HW2 3663   3.932   5.534   4.335
  922SOL     OW 3664   2.976   3.799   4.227
  922SOL    HW1 3665   3.046   3.792   4.157
  922SOL    HW2 3666   2.968   3.894   4.257
  923SOL     OW 3667   2.525   3.806   6.473
  923SOL    HW1 3668   2.527   3.707   6.469
  923SOL    HW2 3669   2.536   3.836   6.568
  924SOL     OW 3670   6.292   3.541   1.980
  924SOL    HW1 3671   6.217   3.488   2.020
  924SOL    HW2 3672   6.379   3.507   2.016
  925SOL     OW 3673   6.869   2.385   6.936
  925SOL    HW1 3674   6.803   2.432   6.877
  925SOL    HW2 3675   6.912   2.452   6.996
  926SOL     OW 3676   6.513   0.650   1.502
  926SOL    HW1 3677   6.459   0.659   1.418
  926SOL    HW2 3678   6.504   0.734   1.556
  927SOL     OW 3679   5.660   4.266   3.172
  927SOL    HW1 3680   5.600   4.213   3.232
  927SOL    HW2 3681   5.753   4.230   3.175
  928SOL     OW 3682   1.761   6.299   0.300
  928SOL    HW1 3683   1.844   6.245   0.314
  928SOL    HW2 3684   1.719   6.318   0.389
  929SOL     OW 3685   0.606   0.925   6.665
  929SOL    HW1 3686   0.571   0.905   6.574
  929SOL    HW2 3687   0.552   0.999   6.706
  930SOL     OW 3688   5.297   6.293   5.990
  930SOL    HW1 3689   5.286   6.350   6.071
  930SOL    HW2 3690   5.391   6.259   5.986
  931SOL     OW 3691   6.494   1.357   4.965
  931SOL    HW1 3692   6.499   1.260   4.988
  931SOL    HW2 3693   6.477   1.410   5.049
  932SOL     OW 3694   3.289   0.514   3.309
  932SOL    HW1 3695   3.388   0.500   3.309
  932SOL    HW2 3696   3.250   0.479   3.394
  933SOL     OW 3697   1.635   6.111   3.537
  933SOL    HW1 3698   1.567   6.040   3.551
  933SOL    HW2 3699   1.643   6.167   3.619
  934SOL     OW 3700   2.436   6.164   6.933
  934SOL    HW1 3701   2.387   6.229   6.875
  934SOL    HW2 3702   2.450   6.079   6.883
  935SOL     OW 3703   5.175   4.033   4.379
  935SOL    HW1 3704   5.104   4.095   4.412
  935SOL    HW2 3705   5.171   3.948   4.431
  936SOL     OW 3706   6.942   0.278   6.043
  936SOL    HW1 3707   6.914   0.261   5.948
  936SOL    HW2 3708   6.990   0.197   6.078
  937SOL     OW 3709   5.315   1.884   6.164
  937SOL    HW1 3710   5.410   1.858   6.150
  937SOL    HW2 3711   5.277   1.831   6.240
  938SOL     OW 3712   5.690   4.821   6.625
  938SOL    HW1 3713   5.666   4.782   6.536
  938SOL    HW2 3714   5.746   4.756   6.676
  939SOL     OW 3715   0.108   0.043   4.090
  939SOL    HW1 3716   0.167   0.123   4.077
  939SOL    HW2 3717   0.071   0.043   4.183
  940SOL     OW 3718   0.615   4.156   1.517
  940SOL    HW1 3719   0.611   4.165   1.617
  940SOL    HW2 3720   0.706   4.183   1.486
  941SOL     OW 3721   6.055   1.972   6.849
  941SOL    HW1 3722   6.110   2.056   6.847
  941SOL    HW2 3723   5.976   1.986   6.909
  942SOL     OW 3724   5.866   6.803   2.932
  942SOL    HW1 3725   5.779   6.773   2.972
  942SOL    HW2 3726   5.867   6.780   2.835
  943SOL     OW 3727   1.654   3.929   3.080
  943SOL    HW1 3728   1.565   3.916   3.125
  943SOL    HW2 3729   1.663   3.863   3.005
  944SOL     OW 3730   0.201   5.141   5.864
  944SOL    HW1 3731   0.155   5.189   5.790
  944SOL    HW2 3732   0.274   5.083   5.827
  945SOL     OW 3733   0.133   3.817   6.205
  945SOL    HW1 3734   0.215   3.770   6.173
  945SOL    HW2 3735   0.146   3.846   6.299
  946SOL     OW 3736   5.189   4.165   5.010
  946SOL    HW1 3737   5.278   4.128   4.983
  946SOL    HW2 3738   5.202   4.246   5.067
  947SOL     OW 3739   3.681   3.381   3.459
  947SOL    HW1 3740   3.734   3.365   3.542
  947SOL    HW2 3741   3.689   3.478   3.433
  948SOL     OW 3742   5.016   0.998   2.669
  948SOL    HW1 3743   5.104   0.952   2.665
  948SOL    HW2 3744   4.943   0.933   2.647
  949SOL     OW 3745   1.895   5.989   0.949
  949SOL    HW1 3746   1.837   6.070   0.939
  949SOL    HW2 3747   1.982   6.005   0.902
  950SOL     OW 3748   5.289   5.586   2.429
  950SOL    HW1 3749   5.233   5.515   2.471
  950SOL    HW2 3750   5.291   5.667   2.488
  951SOL     OW 3751   1.440   0.295   4.205
  951SOL    HW1 3752   1.454   0.216   4.145
  951SOL    HW2 3753   1.461   0.269   4.299
  952SOL     OW 3754   4.236   2.292   3.431
  952SOL    HW1 3755   4.295   2.332   3.360
  952SOL    HW2 3756   4.254   2.337   3.518
  953SOL     OW 3757   5.403   5.833   4.510
  953SOL    HW1 3758   5.336   5.767   4.543
  953SOL    HW2 3759   5.429   5.811   4.416
  954SOL     OW 3760   3.887   5.767   2.030
  954SOL    HW1 3761   3.917   5.712   2.107
  954SOL    HW2 3762   3.797   5.735   1.999
  955SOL     OW 3763   0.524   3.649   0.901
  955SOL    HW1 3764   0.464   3.701   0.961
  955SOL    HW2 3765   0.579   3.711   0.845
  956SOL     OW 3766   6.094   0.249   1.441
  956SOL    HW1 3767   6.114   0.339   1.480
  956SOL    HW2 3768   6.151   0.180   1.485
  957SOL     OW 3769   5.689   2.895   3.060
  957SOL    HW1 3770   5.634   2.828   3.010
  957SOL    HW2 3771   5.747   2.849   3.127
  958SOL     OW 3772   4.525   0.966   1.465
  958SOL    HW1 3773   4.484   0.919   1.543
  958SOL    HW2 3774   4.545   1.060   1.490
  959SOL     OW 3775   3.341   6.588   4.281
  959SOL    HW1 3776   3.254   6.603   4.327
  959SOL    HW2 3777   3.386   6.675   4.265
  960SOL     OW 3778   0.612   0.339   2.654
  960SOL    HW1 3779   0.699   0.293   2.638
  960SOL    HW2 3780   0.572   0.305   2.739
  961SOL     OW 3781   4.245   6.528   3.351
  961SOL    HW1 3782   4.177   6.579   3.403
  961SOL    HW2 3783   4.204   6.491   3.268
  962SOL     OW 3784   6.968   1.329   5.035
  962SOL    HW1 3785   0.039   1.305   4.996
  962SOL    HW2 3786   6.933   1.411   4.991
  963SOL     OW 3787   5.063   1.273   6.254
  963SOL    HW1 3788   5.028   1.348   6.198
  963SOL    HW2 3789   5.159   1.289   6.276
  964SOL     OW 3790   5.405   4.855   0.323
  964SOL    HW1 3791   5.311   4.822   0.328
  964SOL    HW2 3792   5.411   4.948   0.359
  965SOL     OW 3793   5.581   1.529   1.933
  965SOL    HW1 3794   5.648   1.587   1.979
  965SOL    HW2 3795   5.589   1.541   1.834
  966SOL     OW 3796   5.694   2.882   2.295
  966SOL    HW1 3797   5.747   2.836   2.224
  966SOL    HW2 3798   5.603   2.904   2.259
  967SOL     OW 3799   3.046   4.346   1.476
  967SOL    HW1 3800   3.088   4.393   1.554
  967SOL    HW2 3801   2.963   4.299   1.505
  968SOL     OW 3802   4.336   0.556   1.706
  968SOL    HW1 3803   4.295   0.639   1.666
  968SOL    HW2 3804   4.410   0.582   1.768
  969SOL     OW 3805   2.831   4.419   5.655
  969SOL    HW1 3806   2.753   4.378   5.702
  969SOL    HW2 3807   2.813   4.424   5.557
  970SOL     OW 3808   5.638   0.939   6.626
  970SOL    HW1 3809   5.541   0.916   6.627
  970SOL    HW2 3810   5.673   0.931   6.533
  971SOL     OW 3811   0.054   2.886   2.262
  971SOL    HW1 3812   0.112   2.805   2.252
  971SOL    HW2 3813   0.045   2.908   2.360
  972SOL     OW 3814   6.036   1.740   1.600
  972SOL    HW1 3815   5.993   1.812   1.546
  972SOL    HW2 3816   6.002   1.651   1.570
  973SOL     OW 3817   0.948   5.742   6.649
  973SOL    HW1 3818   0.945   5.793   6.563
  973SOL    HW2 3819   1.038   5.700   6.660
  974SOL     OW 3820   5.802   5.978   2.360
  974SOL    HW1 3821   5.874   5.974   2.290
  974SOL    HW2 3822   5.713   5.977   2.315
  975SOL     OW 3823   1.856   0.381   0.437
  975SOL    HW1 3824   1.953   0.391   0.462
  975SOL    HW2 3825   1.818   0.300   0.480
  976SOL     OW 3826   0.086   3.773   1.648
  976SOL    HW1 3827   0.077   3.679   1.614
  976SOL    HW2 3828   0.122   3.831   1.575
  977SOL     OW 3829   0.373   0.459   2.125
  977SOL    HW1 3830   0.357   0.551   2.087
  977SOL    HW2 3831   0.466   0.453   2.160
  978SOL     OW 3832   5.662   2.637   6.613
  978SOL    HW1 3833   5.649   2.730   6.647
  978SOL    HW2 3834   5.614   2.573   6.673
  979SOL     OW 3835   0.634   2.768   6.824
  979SOL    HW1 3836   0.704   2.809   6.883
  979SOL    HW2 3837   0.670   2.759   6.731
  980SOL     OW 3838   5.183   2.065   3.869
  980SOL    HW1 3839   5.166   2.051   3.967
  980SOL    HW2 3840   5.096   2.076   3.821
  981SOL     OW 3841   6.928   1.570   4.849
  981SOL    HW1 3842   6.992   1.526   4.786
  981SOL    HW2 3843   6.903   1.660   4.814
  982SOL     OW 3844   0.777   1.109   4.847
  982SOL    HW1 3845   0.758   1.124   4.750
  982SOL    HW2 3846   0.817   1.018   4.859
  983SOL     OW 3847   6.383   2.601   3.347
  983SOL    HW1 3848   6.392   2.674   3.415
  983SOL    HW2 3849   6.462   2.602   3.285
  984SOL     OW 3850   2.574   2.217   4.189
  984SOL    HW1 3851   2.574   2.133   4.135
  984SOL    HW2 3852   2.524   2.201   4.274
  985SOL     OW 3853   6.722   3.251   4.930
  985SOL    HW1 3854   6.725   3.342   4.972
  985SOL    HW2 3855   6.766   3.185   4.990
  986SOL     OW 3856   4.609   4.856   1.074
  986SOL    HW1 3857   4.576   4.940   1.116
  986SOL    HW2 3858   4.709   4.859   1.067
  987SOL     OW 3859   4.801   6.526   2.591
  987SOL    HW1 3860   4.857   6.469   2.531
  987SOL    HW2 3861   4.737   6.580   2.537
  988SOL     OW 3862   3.334   4.574   1.213
  988SOL    HW1 3863   3.380   4.486   1.207
  988SOL    HW2 3864   3.240   4.565   1.180
  989SOL     OW 3865   6.556   2.302   6.522
  989SOL    HW1 3866   6.469   2.342   6.492
  989SOL    HW2 3867   6.542   2.248   6.605
  990SOL     OW 3868   3.621   1.330   1.757
  990SOL    HW1 3869   3.635   1.284   1.844
  990SOL    HW2 3870   3.557   1.406   1.769
  991SOL     OW 3871   0.831   3.435   3.825
  991SOL    HW1 3872   0.836   3.531   3.854
  991SOL    HW2 3873   0.745   3.395   3.857
  992SOL     OW 3874   0.745   3.424   1.867
  992SOL    HW1 3875   0.766   3.392   1.775
  992SOL    HW2 3876   0.671   3.491   1.863
  993SOL     OW 3877   6.912   4.481   0.702
  993SOL    HW1 3878   6.981   4.438   0.644
  993SOL    HW2 3879   6.892   4.573   0.668
  994SOL     OW 3880   3.959   4.983   2.168
  994SOL    HW1 3881   3.962   5.068   2.219
  994SOL    HW2 3882   3.890   4.923   2.208
  995SOL     OW 3883   3.617   3.284   5.776
  995SOL    HW1 3884   3.629   3.336   5.692
  995SOL    HW2 3885   3.669   3.198   5.770
  996SOL     OW 3886   3.431   5.301   4.900
  996SOL    HW1 3887   3.402   5.205   4.892
  996SOL    HW2 3888   3.528   5.305   4.923
  997SOL     OW 3889   1.297   6.914   2.958
  997SOL    HW1 3890   1.307   6.940   3.054
  997SOL    HW2 3891   1.330   6.820   2.945
  998SOL     OW 3892   5.709   0.721   6.108
  998SOL    HW1 3893   5.620   0.678   6.093
  998SOL    HW2 3894   5.780   0.667   6.063
  999SOL     OW 3895   5.608   3.998   2.054
  999SOL    HW1 3896   5.560   3.939   1.988
  999SOL    HW2 3897   5.670   3.942   2.108
 1000SOL     OW 3898   4.176   1.722   1.629
 1000SOL    HW1 3899   4.140   1.775   1.706
 1000SOL    HW2 3900   4.220   1.639   1.663
 1001SOL     OW 3901   4.601   6.150   1.426
 1001SOL    HW1 3902   4.640   6.089   1.495
 1001SOL    HW2 3903   4.532   6.209   1.469
 1002SOL     OW 3904   5.842   2.016   0.762
 1002SOL    HW1 3905   5.917   1.957   0.790
 1002SOL    HW2 3906   5.769   2.013   0.830
 1003SOL     OW 3907   1.929   5.679   3.115
 1003SOL    HW1 3908   1.980   5.640   3.192
 1003SOL    HW2 3909   1.891   5.605   3.059
 1004SOL     OW 3910   0.536   0.864   2.230
 1004SOL    HW1 3911   0.561   0.800   2.157
 1004SOL    HW2 3912   0.488   0.942   2.190
 1005SOL     OW 3913   2.136   2.344   4.479
 1005SOL    HW1 3914   2.065   2.391   4.425
 1005SOL    HW2 3915   2.207   2.410   4.505
 1006SOL     OW 3916   1.198   4.486   0.345
 1006SOL    HW1 3917   1.269   4.417   0.361
 1006SOL    HW2 3918   1.208   4.559   0.413
 1007SOL     OW 3919   4.595   0.947   5.293
 1007SOL    HW1 3920   4.646   1.031   5.311
 1007SOL    HW2 3921   4.502   0.956   5.328
 1008SOL     OW 3922   0.713   2.234   6.000
 1008SOL    HW1 3923   0.783   2.290   6.045
 1008SOL    HW2 3924   0.741   2.213   5.907
 1009SOL     OW 3925   0.273   5.380   5.461
 1009SOL    HW1 3926   0.338   5.339   5.398
 1009SOL    HW2 3927   0.248   5.471   5.428
 1010SOL     OW 3928   2.399   2.123   1.128
 1010SOL    HW1 3929   2.390   2.028   1.096
 1010SOL    HW2 3930   2.473   2.129   1.194
 1011SOL     OW 3931   1.206   5.498   3.331
 1011SOL    HW1 3932   1.229   5.447   3.414
 1011SOL    HW2 3933   1.141   5.445   3.276
 1012SOL     OW 3934   0.547   6.816   2.329
 1012SOL    HW1 3935   0.645   6.802   2.339
 1012SOL    HW2 3936   0.529   6.865   2.243
 1013SOL     OW 3937   0.751   1.162   6.455
 1013SOL    HW1 3938   0.822   1.173   6.524
 1013SOL    HW2 3939   0.766   1.076   6.405
 1014SOL     OW 3940   0.451   4.017   5.310
 1014SOL    HW1 3941   0.361   3.973   5.312
 1014SOL    HW2 3942   0.520   3.953   5.344
 1015SOL     OW 3943   2.352   7.000   5.937
 1015SOL    HW1 3944   2.288   0.034   5.879
 1015SOL    HW2 3945   2.440   6.994   5.890
 1016SOL     OW 3946   4.028   3.613   0.466
 1016SOL    HW1 3947   4.036   3.681   0.539
 1016SOL    HW2 3948   3.956   3.548   0.489
 1017SOL     OW 3949   4.218   2.068   1.235
 1017SOL    HW1 3950   4.206   2.057   1.334
 1017SOL    HW2 3951   4.310   2.039   1.209
 1018SOL     OW 3952   0.926   4.038   4.130
 1018SOL    HW1 3953   0.957   4.101   4.201
 1018SOL    HW2 3954   0.826   4.035   4.129
 1019SOL     OW 3955   0.124   6.080   1.196
 1019SOL    HW1 3956   0.172   5.998   1.226
 1019SOL    HW2 3957   0.029   6.076   1.228
 1020SOL     OW 3958   6.405   0.929   1.585
 1020SOL    HW1 3959   6.491   0.968   1.619
 1020SOL    HW2 3960   6.330   0.961   1.642
 1021SOL     OW 3961   5.756   6.888   1.949
 1021SOL    HW1 3962   5.724   6.816   1.888
 1021SOL    HW2 3963   5.727   6.977   1.915
 1022SOL     OW 3964   2.876   4.726   5.376
 1022SOL    HW1 3965   2.886   4.669   5.294
 1022SOL    HW2 3966   2.782   4.722   5.408
 1023SOL     OW 3967   0.371   0.787   2.625
 1023SOL    HW1 3968   0.301   0.779   2.553
 1023SOL    HW2 3969   0.336   0.843   2.699
 1024SOL     OW 3970   0.190   2.349   4.020
 1024SOL    HW1 3971   0.149   2.434   3.987
 1024SOL    HW2 3972   0.257   2.316   3.954
 1025SOL     OW 3973   3.636   3.426   1.031
 1025SOL    HW1 3974   3.675   3.340   1.064
 1025SOL    HW2 3975   3.591   3.473   1.108
 1026SOL     OW 3976   2.635   2.947   1.616
 1026SOL    HW1 3977   2.569   3.022   1.624
 1026SOL    HW2 3978   2.612   2.890   1.537
 1027SOL     OW 3979   3.137   0.400   2.208
 1027SOL    HW1 3980   3.143   0.389   2.307
 1027SOL    HW2 3981   3.067   0.468   2.185
 1028SOL     OW 3982   1.760   6.755   2.686
 1028SOL    HW1 3983   1.857   6.737   2.671
 1028SOL    HW2 3984   1.738   6.738   2.783
 1029SOL     OW 3985   1.543   1.623   5.890
 1029SOL    HW1 3986   1.594   1.544   5.926
 1029SOL    HW2 3987   1.468   1.645   5.951
 1030SOL     OW 3988   3.436   3.238   2.016
 1030SOL    HW1 3989   3.445   3.238   2.115
 1030SOL    HW2 3990   3.352   3.287   1.990
 1031SOL     OW 3991   4.782   3.549   1.455
 1031SOL    HW1 3992   4.769   3.637   1.410
 1031SOL    HW2 3993   4.731   3.478   1.405
 1032SOL     OW 3994   0.661   1.220   5.067
 1032SOL    HW1 3995   0.706   1.161   5.000
 1032SOL    HW2 3996   0.617   1.296   5.020
 1033SOL     OW 3997   1.376   5.826   1.004
 1033SOL    HW1 3998   1.392   5.878   1.087
 1033SOL    HW2 3999   1.360   5.730   1.027
 1034SOL     OW 4000   1.806   5.273   4.515
 1034SOL    HW1 4001   1.745   5.300   4.590
 1034SOL    HW2 4002   1.898   5.256   4.552
 1035SOL     OW 4003   0.059   1.451   6.208
 1035SOL    HW1 4004   0.115   1.530   6.234
 1035SOL    HW2 4005   0.077   1.426   6.113
 1036SOL     OW 4006   4.139   0.918   2.050
 1036SOL    HW1 4007   4.136   0.968   2.136
 1036SOL    HW2 4008   4.234   0.900   2.024
 1037SOL     OW 4009   1.735   1.377   2.644
 1037SOL    HW1 4010   1.787   1.459   2.669
 1037SOL    HW2 4011   1.796   1.310   2.603
 1038SOL     OW 4012   1.957   1.141   5.263
 1038SOL    HW1 4013   1.862   1.157   5.240
 1038SOL    HW2 4014   1.985   1.205   5.335
 1039SOL     OW 4015   3.758   3.784   4.306
 1039SOL    HW1 4016   3.707   3.699   4.311
 1039SOL    HW2 4017   3.814   3.785   4.222
 1040SOL     OW 4018   4.571   0.807   2.296
 1040SOL    HW1 4019   4.508   0.885   2.292
 1040SOL    HW2 4020   4.522   0.727   2.330
 1041SOL     OW 4021   6.957   6.343   3.082
 1041SOL    HW1 4022   0.024   6.340   3.029
 1041SOL    HW2 4023   6.969   6.406   3.159
 1042SOL     OW 4024   4.069   5.215   2.796
 1042SOL    HW1 4025   4.132   5.137   2.795
 1042SOL    HW2 4026   4.121   5.299   2.809
 1043SOL     OW 4027   3.484   1.819   3.241
 1043SOL    HW1 4028   3.472   1.911   3.203
 1043SOL    HW2 4029   3.561   1.819   3.305
 1044SOL     OW 4030   5.574   4.875   2.679
 1044SOL    HW1 4031   5.619   4.963   2.692
 1044SOL    HW2 4032   5.634   4.813   2.628
 1045SOL     OW 4033   4.228   0.572   2.578
 1045SOL    HW1 4034   4.217   0.662   2.620
 1045SOL    HW2 4035   4.145   0.547   2.530
 1046SOL     OW 4036   1.659   1.311   0.336
 1046SOL    HW1 4037   1.740   1.270   0.294
 1046SOL    HW2 4038   1.684   1.396   0.381
 1047SOL     OW 4039   2.276   6.921   3.936
 1047SOL    HW1 4040   2.205   6.854   3.959
 1047SOL    HW2 4041   2.284   6.987   4.011
 1048SOL     OW 4042   3.511   6.303   2.591
 1048SOL    HW1 4043   3.453   6.376   2.627
 1048SOL    HW2 4044   3.463   6.257   2.516
 1049SOL     OW 4045   6.266   6.853   3.945
 1049SOL    HW1 4046   6.315   6.767   3.935
 1049SOL    HW2 4047   6.236   6.864   4.040
 1050SOL     OW 4048   3.311   4.893   2.814
 1050SOL    HW1 4049   3.402   4.870   2.783
 1050SOL    HW2 4050   3.243   4.844   2.760
 1051SOL     OW 4051   0.275   5.025   0.876
 1051SOL    HW1 4052   0.367   4.989   0.866
 1051SOL    HW2 4053   0.279   5.116   0.919
 1052SOL     OW 4054   4.354   1.007   5.388
 1052SOL    HW1 4055   4.268   0.958   5.399
 1052SOL    HW2 4056   4.340   1.087   5.330
 1053SOL     OW 4057   6.276   3.471   2.757
 1053SOL    HW1 4058   6.213   3.496   2.831
 1053SOL    HW2 4059   6.223   3.442   2.677
 1054SOL     OW 4060   2.980   3.580   0.898
 1054SOL    HW1 4061   3.060   3.638   0.909
 1054SOL    HW2 4062   3.001   3.487   0.929
 1055SOL     OW 4063   4.145   6.763   5.223
 1055SOL    HW1 4064   4.207   6.684   5.220
 1055SOL    HW2 4065   4.163   6.816   5.307
 1056SOL     OW 4066   1.752   3.283   0.069
 1056SOL    HW1 4067   1.736   3.368   0.118
 1056SOL    HW2 4068   1.815   3.226   0.122
 1057SOL     OW 4069   3.661   3.569   1.615
 1057SOL    HW1 4070   3.746   3.524   1.586
 1057SOL    HW2 4071   3.668   3.596   1.711
 1058SOL     OW 4072   5.235   2.430   3.805
 1058SOL    HW1 4073   5.242   2.500   3.734
 1058SOL    HW2 4074   5.140   2.424   3.836
 1059SOL     OW 4075   2.112   0.811   2.206
 1059SOL    HW1 4076   2.130   0.831   2.302
 1059SOL    HW2 4077   2.042   0.873   2.171
 1060SOL     OW 4078   0.269   4.768   3.748
 1060SOL    HW1 4079   0.362   4.764   3.785
 1060SOL    HW2 4080   0.213   4.699   3.794
 1061SOL     OW 4081   6.550   3.718   6.319
 1061SOL    HW1 4082   6.611   3.711   6.398
 1061SOL    HW2 4083   6.464   3.759   6.348
 1062SOL     OW 4084   5.498   5.228   5.703
 1062SOL    HW1 4085   5.519   5.143   5.655
 1062SOL    HW2 4086   5.484   5.208   5.800
 1063SOL     OW 4087   0.889   5.706   0.321
 1063SOL    HW1 4088   0.965   5.682   0.261
 1063SOL    HW2 4089   0.910   5.791   0.369
 1064SOL     OW 4090   1.618   4.545   3.141
 1064SOL    HW1 4091   1.606   4.622   3.203
 1064SOL    HW2 4092   1.562   4.468   3.171
 1065SOL     OW 4093   4.452   0.943   2.828
 1065SOL    HW1 4094   4.354   0.951   2.845
 1065SOL    HW2 4095   4.502   0.986   2.903
 1066SOL     OW 4096   4.841   6.649   2.841
 1066SOL    HW1 4097   4.876   6.583   2.775
 1066SOL    HW2 4098   4.743   6.661   2.827
 1067SOL     OW 4099   1.216   2.928   0.018
 1067SOL    HW1 4100   1.243   2.902   0.111
 1067SOL    HW2 4101   1.172   3.018   0.021
 1068SOL     OW 4102   6.850   4.953   1.934
 1068SOL    HW1 4103   6.890   4.901   2.009
 1068SOL    HW2 4104   6.878   4.912   1.847
 1069SOL     OW 4105   4.831   6.021   0.564
 1069SOL    HW1 4106   4.900   5.970   0.615
 1069SOL    HW2 4107   4.875   6.088   0.505
 1070SOL     OW 4108   1.014   0.311   1.292
 1070SOL    HW1 4109   1.052   0.315   1.384
 1070SOL    HW2 4110   1.087   0.321   1.225
 1071SOL     OW 4111   1.610   1.118   3.547
 1071SOL    HW1 4112   1.623   1.211   3.582
 1071SOL    HW2 4113   1.514   1.104   3.525
 1072SOL     OW 4114   2.503   0.915   1.166
 1072SOL    HW1 4115   2.519   0.917   1.265
 1072SOL    HW2 4116   2.508   1.008   1.130
 1073SOL     OW 4117   4.844   0.698   3.324
 1073SOL    HW1 4118   4.933   0.656   3.305
 1073SOL    HW2 4119   4.845   0.739   3.415
 1074SOL     OW 4120   2.350   5.202   1.671
 1074SOL    HW1 4121   2.438   5.249   1.676
 1074SOL    HW2 4122   2.308   5.198   1.762
 1075SOL     OW 4123   5.599   0.037   3.002
 1075SOL    HW1 4124   5.609   0.129   2.965
 1075SOL    HW2 4125   5.629   6.988   2.934
 1076SOL     OW 4126   0.805   2.481   5.539
 1076SOL    HW1 4127   0.898   2.511   5.516
 1076SOL    HW2 4128   0.741   2.556   5.523
 1077SOL     OW 4129   6.172   0.006   0.730
 1077SOL    HW1 4130   6.144   0.064   0.654
 1077SOL    HW2 4131   6.264   0.031   0.759
 1078SOL     OW 4132   6.762   0.918   2.162
 1078SOL    HW1 4133   6.737   0.836   2.110
 1078SOL    HW2 4134   6.744   0.999   2.107
 1079SOL     OW 4135   1.616   6.134   2.375
 1079SOL    HW1 4136   1.648   6.051   2.422
 1079SOL    HW2 4137   1.694   6.182   2.336
 1080SOL     OW 4138   2.038   5.370   3.409
 1080SOL    HW1 4139   2.002   5.419   3.488
 1080SOL    HW2 4140   1.971   5.373   3.335
 1081SOL     OW 4141   6.727   5.346   5.223
 1081SOL    HW1 4142   6.706   5.254   5.190
 1081SOL    HW2 4143   6.697   5.356   5.318
 1082SOL     OW 4144   5.373   2.262   5.619
 1082SOL    HW1 4145   5.449   2.205   5.650
 1082SOL    HW2 4146   5.322   2.215   5.547
 1083SOL     OW 4147   4.328   4.024   0.122
 1083SOL    HW1 4148   4.352   4.121   0.117
 1083SOL    HW2 4149   4.411   3.970   0.141
 1084SOL     OW 4150   6.384   6.731   6.264
 1084SOL    HW1 4151   6.292   6.748   6.298
 1084SOL    HW2 4152   6.414   6.640   6.293
 1085SOL     OW 4153   1.275   3.938   4.547
 1085SOL    HW1 4154   1.361   3.983   4.524
 1085SOL    HW2 4155   1.289   3.875   4.623
 1086SOL     OW 4156   6.997   4.275   0.058
 1086SOL    HW1 4157   0.079   4.273   0.051
 1086SOL    HW2 4158   6.957   4.277   6.985
 1087SOL     OW 4159   0.309   2.215   4.724
 1087SOL    HW1 4160   0.329   2.311   4.702
 1087SOL    HW2 4161   0.380   2.179   4.784
 1088SOL     OW 4162   0.029   3.088   2.737
 1088SOL    HW1 4163   0.026   3.020   2.664
 1088SOL    HW2 4164   6.964   3.144   2.735
 1089SOL     OW 4165   6.620   5.949   4.383
 1089SOL    HW1 4166   6.528   5.924   4.355
 1089SOL    HW2 4167   6.642   5.905   4.471
 1090SOL     OW 4168   3.248   1.651   3.032
 1090SOL    HW1 4169   3.181   1.692   3.094
 1090SOL    HW2 4170   3.245   1.699   2.944
 1091SOL     OW 4171   2.429   2.176   4.444
 1091SOL    HW1 4172   2.329   2.169   4.449
 1091SOL    HW2 4173   2.470   2.119   4.516
 1092SOL     OW 4174   1.057   4.673   0.125
 1092SOL    HW1 4175   0.964   4.704   0.146
 1092SOL    HW2 4176   1.089   4.613   0.197
 1093SOL     OW 4177   2.331   6.973   1.574
 1093SOL    HW1 4178   2.418   6.951   1.530
 1093SOL    HW2 4179   2.265   7.002   1.506
 1094SOL     OW 4180   1.098   6.524   3.428
 1094SOL    HW1 4181   1.082   6.622   3.413
 1094SOL    HW2 4182   1.024   6.471   3.388
 1095SOL     OW 4183   0.738   2.680   5.858
 1095SOL    HW1 4184   0.658   2.630   5.888
 1095SOL    HW2 4185   0.738   2.772   5.898
 1096SOL     OW 4186   3.398   4.416   1.470
 1096SOL    HW1 4187   3.408   4.372   1.381
 1096SOL    HW2 4188   3.377   4.348   1.539
 1097SOL     OW 4189   2.599   4.755   3.856
 1097SOL    HW1 4190   2.580   4.672   3.908
 1097SOL    HW2 4191   2.513   4.797   3.828
 1098SOL     OW 4192   4.824   3.425   6.693
 1098SOL    HW1 4193   4.854   3.469   6.608
 1098SOL    HW2 4194   4.776   3.492   6.750
 1099SOL     OW 4195   3.598   0.899   5.977
 1099SOL    HW1 4196   3.686   0.893   6.023
 1099SOL    HW2 4197   3.586   0.818   5.919
 1100SOL     OW 4198   4.103   1.750   4.295
 1100SOL    HW1 4199   4.030   1.687   4.321
 1100SOL    HW2 4200   4.143   1.722   4.208
 1101SOL     OW 4201   5.764   3.662   5.868
 1101SOL    HW1 4202   5.818   3.746   5.881
 1101SOL    HW2 4203   5.826   3.583   5.867
 1102SOL     OW 4204   0.886   0.766   4.831
 1102SOL    HW1 4205   0.818   0.755   4.903
 1102SOL    HW2 4206   0.969   0.715   4.856
 1103SOL     OW 4207   3.861   0.894   0.246
 1103SOL    HW1 4208   3.852   0.809   0.195
 1103SOL    HW2 4209   3.849   0.972   0.184
 1104SOL     OW 4210   1.893   3.203   4.828
 1104SOL    HW1 4211   1.825   3.276   4.829
 1104SOL    HW2 4212   1.983   3.241   4.807
 1105SOL     OW 4213   5.880   3.444   5.095
 1105SOL    HW1 4214   5.966   3.404   5.062
 1105SOL    HW2 4215   5.849   3.514   5.030
 1106SOL     OW 4216   0.544   2.589   0.865
 1106SOL    HW1 4217   0.613   2.520   0.846
 1106SOL    HW2 4218   0.577   2.650   0.938
 1107SOL     OW 4219   1.343   0.296   7.006
 1107SOL    HW1 4220   1.357   0.339   0.077
 1107SOL    HW2 4221   1.326   0.198   7.017
 1108SOL     OW 4222   3.672   6.891   5.736
 1108SOL    HW1 4223   3.759   6.842   5.725
 1108SOL    HW2 4224   3.607   6.858   5.668
 1109SOL     OW 4225   5.630   0.973   4.171
 1109SOL    HW1 4226   5.688   0.961   4.252
 1109SOL    HW2 4227   5.537   0.944   4.193
 1110SOL     OW 4228   4.161   2.225   2.988
 1110SOL    HW1 4229   4.155   2.251   2.892
 1110SOL    HW2 4230   4.169   2.126   2.996
 1111SOL     OW 4231   5.673   5.612   6.653
 1111SOL    HW1 4232   5.583   5.627   6.694
 1111SOL    HW2 4233   5.663   5.550   6.575
 1112SOL     OW 4234   5.797   1.268   2.403
 1112SOL    HW1 4235   5.753   1.178   2.395
 1112SOL    HW2 4236   5.893   1.260   2.378
 1113SOL     OW 4237   5.658   4.576   1.378
 1113SOL    HW1 4238   5.606   4.561   1.294
 1113SOL    HW2 4239   5.620   4.655   1.427
 1114SOL     OW 4240   2.668   1.202   6.063
 1114SOL    HW1 4241   2.676   1.105   6.087
 1114SOL    HW2 4242   2.760   1.241   6.056
 1115SOL     OW 4243   3.688   3.673   5.913
 1115SOL    HW1 4244   3.750   3.598   5.888
 1115SOL    HW2 4245   3.627   3.643   5.986
 1116SOL     OW 4246   4.565   6.841   6.286
 1116SOL    HW1 4247   4.571   6.903   6.364
 1116SOL    HW2 4248   4.469   6.833   6.256
 1117SOL     OW 4249   1.291   2.211   1.957
 1117SOL    HW1 4250   1.339   2.246   2.038
 1117SOL    HW2 4251   1.281   2.112   1.964
 1118SOL     OW 4252   2.332   4.704   0.564
 1118SOL    HW1 4253   2.396   4.710   0.641
 1118SOL    HW2 4254   2.379   4.668   0.484
 1119SOL     OW 4255   4.091   4.571   1.796
 1119SOL    HW1 4256   4.027   4.647   1.794
 1119SOL    HW2 4257   4.151   4.579   1.876
 1120SOL     OW 4258   5.899   5.794   0.816
 1120SOL    HW1 4259   5.933   5.886   0.837
 1120SOL    HW2 4260   5.799   5.798   0.804
 1121SOL     OW 4261   0.068   4.678   4.800
 1121SOL    HW1 4262   0.038   4.741   4.728
 1121SOL    HW2 4263   0.154   4.709   4.839
 1122SOL     OW 4264   5.188   2.689   1.697
 1122SOL    HW1 4265   5.280   2.691   1.657
 1122SOL    HW2 4266   5.122   2.724   1.631
 1123SOL     OW 4267   5.174   2.253   3.211
 1123SOL    HW1 4268   5.086   2.293   3.236
 1123SOL    HW2 4269   5.222   2.314   3.147
 1124SOL     OW 4270   0.108   3.517   5.537
 1124SOL    HW1 4271   0.042   3.456   5.492
 1124SOL    HW2 4272   0.059   3.582   5.595
 1125SOL     OW 4273   2.132   1.707   3.427
 1125SOL    HW1 4274   2.167   1.791   3.386
 1125SOL    HW2 4275   2.051   1.728   3.483
 1126SOL     OW 4276   5.634   5.746   6.242
 1126SOL    HW1 4277   5.541   5.776   6.219
 1126SOL    HW2 4278   5.674   5.808   6.309
 1127SOL     OW 4279   5.211   6.385   4.550
 1127SOL    HW1 4280   5.211   6.482   4.574
 1127SOL    HW2 4281   5.117   6.350   4.553
 1128SOL     OW 4282   5.635   1.543   3.952
 1128SOL    HW1 4283   5.568   1.479   3.913
 1128SOL    HW2 4284   5.589   1.602   4.018
 1129SOL     OW 4285   1.753   6.961   0.820
 1129SOL    HW1 4286   1.780   0.034   0.789
 1129SOL    HW2 4287   1.684   6.969   0.893
 1130SOL     OW 4288   2.121   5.388   0.603
 1130SOL    HW1 4289   2.142   5.292   0.582
 1130SOL    HW2 4290   2.118   5.400   0.702
 1131SOL     OW 4291   0.988   6.840   5.839
 1131SOL    HW1 4292   0.903   6.803   5.878
 1131SOL    HW2 4293   0.966   6.916   5.779
 1132SOL     OW 4294   4.831   0.052   2.657
 1132SOL    HW1 4295   4.919   0.061   2.611
 1132SOL    HW2 4296   4.845   0.023   2.751
 1133SOL     OW 4297   1.186   1.254   0.278
 1133SOL    HW1 4298   1.239   1.178   0.241
 1133SOL    HW2 4299   1.100   1.262   0.229
 1134SOL     OW 4300   5.057   0.095   2.499
 1134SOL    HW1 4301   5.144   0.047   2.493
 1134SOL    HW2 4302   5.062   0.179   2.445
 1135SOL     OW 4303   2.540   6.718   4.284
 1135SOL    HW1 4304   2.538   6.658   4.205
 1135SOL    HW2 4305   2.446   6.735   4.315
 1136SOL     OW 4306   4.381   4.595   3.591
 1136SOL    HW1 4307   4.471   4.552   3.601
 1136SOL    HW2 4308   4.317   4.554   3.656
 1137SOL     OW 4309   1.409   6.953   0.468
 1137SOL    HW1 4310   1.470   6.939   0.547
 1137SOL    HW2 4311   1.380   6.865   0.432
 1138SOL     OW 4312   0.322   1.124   5.961
 1138SOL    HW1 4313   0.263   1.137   5.882
 1138SOL    HW2 4314   0.368   1.035   5.954
 1139SOL     OW 4315   2.748   4.778   3.191
 1139SOL    HW1 4316   2.773   4.768   3.095
 1139SOL    HW2 4317   2.826   4.814   3.242
 1140SOL     OW 4318   2.708   1.166   2.298
 1140SOL    HW1 4319   2.798   1.195   2.330
 1140SOL    HW2 4320   2.640   1.236   2.321
 1141SOL     OW 4321   0.380   5.973   0.246
 1141SOL    HW1 4322   0.323   5.921   0.309
 1141SOL    HW2 4323   0.462   5.919   0.223
 1142SOL     OW 4324   3.287   0.112   3.717
 1142SOL    HW1 4325   3.365   0.055   3.742
 1142SOL    HW2 4326   3.233   0.065   3.646
 1143SOL     OW 4327   2.556   2.554   3.330
 1143SOL    HW1 4328   2.644   2.531   3.371
 1143SOL    HW2 4329   2.555   2.527   3.233
 1144SOL     OW 4330   6.383   4.638   3.694
 1144SOL    HW1 4331   6.302   4.662   3.748
 1144SOL    HW2 4332   6.459   4.699   3.718
 1145SOL     OW 4333   6.615   3.071   0.965
 1145SOL    HW1 4334   6.709   3.059   0.999
 1145SOL    HW2 4335   6.564   3.127   1.030
 1146SOL     OW 4336   0.005   0.736   1.911
 1146SOL    HW1 4337   6.962   0.815   1.901
 1146SOL    HW2 4338   0.034   0.705   1.821
 1147SOL     OW 4339   3.060   5.616   1.851
 1147SOL    HW1 4340   3.007   5.681   1.905
 1147SOL    HW2 4341   3.079   5.535   1.906
 1148SOL     OW 4342   4.757   6.369   0.493
 1148SOL    HW1 4343   4.761   6.372   0.593
 1148SOL    HW2 4344   4.796   6.283   0.461
 1149SOL     OW 4345   5.469   2.583   2.596
 1149SOL    HW1 4346   5.505   2.496   2.564
 1149SOL    HW2 4347   5.544   2.641   2.626
 1150SOL     OW 4348   0.836   4.252   6.890
 1150SOL    HW1 4349   0.859   4.349   6.897
 1150SOL    HW2 4350   0.912   4.197   6.923
 1151SOL     OW 4351   5.977   4.825   5.604
 1151SOL    HW1 4352   5.956   4.862   5.695
 1151SOL    HW2 4353   5.970   4.899   5.536
 1152SOL     OW 4354   4.519   5.777   6.333
 1152SOL    HW1 4355   4.468   5.845   6.282
 1152SOL    HW2 4356   4.577   5.725   6.270
 1153SOL     OW 4357   0.161   6.706   2.404
 1153SOL    HW1 4358   0.229   6.777   2.423
 1153SOL    HW2 4359   0.075   6.749   2.376
 1154SOL     OW 4360   0.408   4.286   1.075
 1154SOL    HW1 4361   0.414   4.247   1.167
 1154SOL    HW2 4362   0.389   4.384   1.082
 1155SOL     OW 4363   2.882   4.600   6.074
 1155SOL    HW1 4364   2.980   4.619   6.072
 1155SOL    HW2 4365   2.846   4.621   6.166
 1156SOL     OW 4366   4.380   1.809   5.115
 1156SOL    HW1 4367   4.311   1.881   5.108
 1156SOL    HW2 4368   4.431   1.803   5.029
 1157SOL     OW 4369   5.098   0.996   6.251
 1157SOL    HW1 4370   5.102   1.096   6.253
 1157SOL    HW2 4371   5.188   0.959   6.225
 1158SOL     OW 4372   6.627   5.112   5.114
 1158SOL    HW1 4373   6.570   5.142   5.038
 1158SOL    HW2 4374   6.644   5.014   5.107
 1159SOL     OW 4375   6.631   0.126   4.035
 1159SOL    HW1 4376   6.644   0.053   3.967
 1159SOL    HW2 4377   6.594   0.086   4.119
 1160SOL     OW 4378   4.820   4.640   1.260
 1160SOL    HW1 4379   4.853   4.546   1.245
 1160SOL    HW2 4380   4.868   4.703   1.200
 1161SOL     OW 4381   6.578   5.727   5.811
 1161SOL    HW1 4382   6.605   5.632   5.824
 1161SOL    HW2 4383   6.613   5.760   5.723
 1162SOL     OW 4384   2.325   1.927   6.537
 1162SOL    HW1 4385   2.282   1.922   6.627
 1162SOL    HW2 4386   2.330   1.834   6.498
 1163SOL     OW 4387   6.441   4.243   2.126
 1163SOL    HW1 4388   6.419   4.284   2.037
 1163SOL    HW2 4389   6.487   4.156   2.111
 1164SOL     OW 4390   4.988   2.644   3.743
 1164SOL    HW1 4391   4.902   2.694   3.749
 1164SOL    HW2 4392   4.977   2.552   3.781
 1165SOL     OW 4393   4.255   5.729   3.751
 1165SOL    HW1 4394   4.346   5.703   3.719
 1165SOL    HW2 4395   4.188   5.716   3.678
 1166SOL     OW 4396   2.844   6.502   0.532
 1166SOL    HW1 4397   2.882   6.410   0.527
 1166SOL    HW2 4398   2.880   6.557   0.457
 1167SOL     OW 4399   3.912   6.871   0.706
 1167SOL    HW1 4400   3.855   6.923   0.641
 1167SOL    HW2 4401   3.865   6.786   0.729
 1168SOL     OW 4402   5.477   2.848   1.546
 1168SOL    HW1 4403   5.547   2.885   1.484
 1168SOL    HW2 4404   5.404   2.915   1.556
 1169SOL     OW 4405   4.332   2.052   5.813
 1169SOL    HW1 4406   4.258   2.011   5.761
 1169SOL    HW2 4407   4.361   1.989   5.885
 1170SOL     OW 4408   5.067   6.839   2.771
 1170SOL    HW1 4409   4.978   6.794   2.782
 1170SOL    HW2 4410   5.136   6.790   2.824
 1171SOL     OW 4411   3.235   6.341   6.945
 1171SOL    HW1 4412   3.180   6.302   0.002
 1171SOL    HW2 4413   3.330   6.349   6.976
 1172SOL     OW 4414   3.677   4.043   0.705
 1172SOL    HW1 4415   3.747   4.021   0.636
 1172SOL    HW2 4416   3.716   4.106   0.772
 1173SOL     OW 4417   3.767   1.018   0.839
 1173SOL    HW1 4418   3.792   1.109   0.805
 1173SOL    HW2 4419   3.743   0.959   0.761
 1174SOL     OW 4420   2.650   4.265   1.558
 1174SOL    HW1 4421   2.595   4.341   1.593
 1174SOL    HW2 4422   2.730   4.252   1.618
 1175SOL     OW 4423   4.190   4.191   6.140
 1175SOL    HW1 4424   4.181   4.163   6.044
 1175SOL    HW2 4425   4.171   4.113   6.200
 1176SOL     OW 4426   5.313   3.717   0.482
 1176SOL    HW1 4427   5.399   3.672   0.458
 1176SOL    HW2 4428   5.332   3.808   0.518
 1177SOL     OW 4429   6.575   3.665   4.740
 1177SOL    HW1 4430   6.622   3.751   4.726
 1177SOL    HW2 4431   6.550   3.655   4.837
 1178SOL     OW 4432   3.431   4.312   1.227
 1178SOL    HW1 4433   3.492   4.236   1.206
 1178SOL    HW2 4434   3.336   4.282   1.220
 1179SOL     OW 4435   3.039   6.051   0.997
 1179SOL    HW1 4436   2.996   6.141   1.002
 1179SOL    HW2 4437   3.020   6.010   0.908
 1180SOL     OW 4438   2.309   5.966   3.907
 1180SOL    HW1 4439   2.362   5.942   3.825
 1180SOL    HW2 4440   2.220   5.922   3.903
 1181SOL     OW 4441   0.142   5.212   4.773
 1181SOL    HW1 4442   0.107   5.125   4.808
 1181SOL    HW2 4443   0.117   5.285   4.836
 1182SOL     OW 4444   5.165   5.616   3.921
 1182SOL    HW1 4445   5.121   5.621   3.831
 1182SOL    HW2 4446   5.251   5.566   3.913
 1183SOL     OW 4447   2.703   4.690   0.714
 1183SOL    HW1 4448   2.607   4.680   0.741
 1183SOL    HW2 4449   2.759   4.701   0.796
 1184SOL     OW 4450   6.764   1.593   5.053
 1184SOL    HW1 4451   6.827   1.602   4.976
 1184SOL    HW2 4452   6.816   1.578   5.137
 1185SOL     OW 4453   0.843   0.810   1.036
 1185SOL    HW1 4454   0.831   0.833   0.940
 1185SOL    HW2 4455   0.829   0.711   1.048
 1186SOL     OW 4456   4.821   5.974   5.462
 1186SOL    HW1 4457   4.785   5.928   5.381
 1186SOL    HW2 4458   4.877   5.910   5.515
 1187SOL     OW 4459   4.598   0.313   5.776
 1187SOL    HW1 4460   4.510   0.306   5.730
 1187SOL    HW2 4461   4.617   0.408   5.800
 1188SOL     OW 4462   3.167   6.338   6.287
 1188SOL    HW1 4463   3.174   6.437   6.277
 1188SOL    HW2 4464   3.128   6.298   6.204
 1189SOL     OW 4465   6.333   1.474   1.588
 1189SOL    HW1 4466   6.401   1.418   1.637
 1189SOL    HW2 4467   6.379   1.533   1.523
 1190SOL     OW 4468   3.518   6.115   3.755
 1190SOL    HW1 4469   3.483   6.154   3.840
 1190SOL    HW2 4470   3.611   6.147   3.738
 1191SOL     OW 4471   4.153   5.381   4.721
 1191SOL    HW1 4472   4.208   5.323   4.661
 1191SOL    HW2 4473   4.089   5.434   4.666
 1192SOL     OW 4474   5.151   4.389   2.700
 1192SOL    HW1 4475   5.063   4.355   2.732
 1192SOL    HW2 4476   5.204   4.313   2.663
 1193SOL     OW 4477   0.136   2.181   4.919
 1193SOL    HW1 4478   0.083   2.097   4.908
 1193SOL    HW2 4479   0.197   2.191   4.841
 1194SOL     OW 4480   5.675   0.034   1.561
 1194SOL    HW1 4481   5.719   0.122   1.542
 1194SOL    HW2 4482   5.745   6.982   1.573
 1195SOL     OW 4483   0.108   3.977   1.090
 1195SOL    HW1 4484   0.009   3.971   1.094
 1195SOL    HW2 4485   0.135   4.037   1.014
 1196SOL     OW 4486   6.881   5.426   3.573
 1196SOL    HW1 4487   6.873   5.336   3.615
 1196SOL    HW2 4488   6.949   5.423   3.500
 1197SOL     OW 4489   4.876   6.801   4.833
 1197SOL    HW1 4490   4.919   6.890   4.848
 1197SOL    HW2 4491   4.835   6.769   4.919
 1198SOL     OW 4492   1.526   3.310   3.124
 1198SOL    HW1 4493   1.613   3.308   3.075
 1198SOL    HW2 4494   1.459   3.362   3.071
 1199SOL     OW 4495   3.536   4.068   1.155
 1199SOL    HW1 4496   3.610   4.030   1.209
 1199SOL    HW2 4497   3.465   3.999   1.142
 1200SOL     OW 4498   3.666   4.171   4.339
 1200SOL    HW1 4499   3.633   4.222   4.259
 1200SOL    HW2 4500   3.589   4.131   4.387
 1201SOL     OW 4501   1.003   1.298   4.212
 1201SOL    HW1 4502   0.990   1.248   4.298
 1201SOL    HW2 4503   1.091   1.345   4.213
 1202SOL     OW 4504   0.460   5.653   5.137
 1202SOL    HW1 4505   0.520   5.697   5.071
 1202SOL    HW2 4506   0.465   5.554   5.127
 1203SOL     OW 4507   0.036   5.938   0.188
 1203SOL    HW1 4508   0.015   5.967   0.094
 1203SOL    HW2 4509   0.029   5.839   0.195
 1204SOL     OW 4510   4.802   1.454   1.338
 1204SOL    HW1 4511   4.829   1.416   1.427
 1204SOL    HW2 4512   4.706   1.430   1.320
 1205SOL     OW 4513   3.803   3.188   0.967
 1205SOL    HW1 4514   3.727   3.134   0.933
 1205SOL    HW2 4515   3.862   3.214   0.890
 1206SOL     OW 4516   2.771   2.543   5.322
 1206SOL    HW1 4517   2.773   2.624   5.381
 1206SOL    HW2 4518   2.686   2.542   5.269
 1207SOL     OW 4519   2.248   6.678   1.307
 1207SOL    HW1 4520   2.274   6.584   1.330
 1207SOL    HW2 4521   2.329   6.729   1.279
 1208SOL     OW 4522   3.575   3.508   1.290
 1208SOL    HW1 4523   3.657   3.483   1.342
 1208SOL    HW2 4524   3.540   3.596   1.322
 1209SOL     OW 4525   4.613   0.683   3.643
 1209SOL    HW1 4526   4.649   0.626   3.570
 1209SOL    HW2 4527   4.516   0.666   3.654
 1210SOL     OW 4528   3.570   6.891   3.214
 1210SOL    HW1 4529   3.584   6.808   3.161
 1210SOL    HW2 4530   3.591   6.971   3.158
 1211SOL     OW 4531   0.649   3.655   2.985
 1211SOL    HW1 4532   0.630   3.561   3.013
 1211SOL    HW2 4533   0.585   3.682   2.913
 1212SOL     OW 4534   6.075   0.554   0.060
 1212SOL    HW1 4535   6.089   0.646   0.096
 1212SOL    HW2 4536   6.065   0.558   6.978
 1213SOL     OW 4537   5.906   2.447   0.758
 1213SOL    HW1 4538   5.810   2.448   0.784
 1213SOL    HW2 4539   5.952   2.529   0.793
 1214SOL     OW 4540   1.121   3.163   0.028
 1214SOL    HW1 4541   1.109   3.235   6.978
 1214SOL    HW2 4542   1.045   3.165   0.093
 1215SOL     OW 4543   1.164   4.550   3.656
 1215SOL    HW1 4544   1.242   4.513   3.707
 1215SOL    HW2 4545   1.197   4.610   3.584
 1216SOL     OW 4546   4.889   0.191   0.909
 1216SOL    HW1 4547   4.928   0.207   0.819
 1216SOL    HW2 4548   4.790   0.181   0.901
 1217SOL     OW 4549   2.666   4.557   1.004
 1217SOL    HW1 4550   2.700   4.464   1.015
 1217SOL    HW2 4551   2.619   4.585   1.088
 1218SOL     OW 4552   1.407   3.651   5.002
 1218SOL    HW1 4553   1.402   3.724   5.070
 1218SOL    HW2 4554   1.342   3.579   5.025
 1219SOL     OW 4555   4.999   5.768   2.312
 1219SOL    HW1 4556   5.029   5.753   2.407
 1219SOL    HW2 4557   5.064   5.829   2.267
 1220SOL     OW 4558   0.619   4.555   3.513
 1220SOL    HW1 4559   0.714   4.535   3.533
 1220SOL    HW2 4560   0.563   4.538   3.594
 1221SOL     OW 4561   4.691   4.180   6.133
 1221SOL    HW1 4562   4.763   4.205   6.068
 1221SOL    HW2 4563   4.725   4.110   6.196
 1222SOL     OW 4564   6.783   0.464   0.204
 1222SOL    HW1 4565   6.813   0.512   0.286
 1222SOL    HW2 4566   6.697   0.503   0.172
 1223SOL     OW 4567   4.228   1.957   0.031
 1223SOL    HW1 4568   4.138   1.916   0.047
 1223SOL    HW2 4569   4.256   2.010   0.112
 1224SOL     OW 4570   3.639   5.537   0.932
 1224SOL    HW1 4571   3.667   5.550   1.028
 1224SOL    HW2 4572   3.615   5.442   0.917
 1225SOL     OW 4573   2.962   3.219   6.458
 1225SOL    HW1 4574   3.009   3.295   6.413
 1225SOL    HW2 4575   2.899   3.255   6.527
 1226SOL     OW 4576   2.186   6.012   2.098
 1226SOL    HW1 4577   2.090   5.990   2.087
 1226SOL    HW2 4578   2.222   5.963   2.178
 1227SOL     OW 4579   6.538   4.411   5.722
 1227SOL    HW1 4580   6.563   4.462   5.804
 1227SOL    HW2 4581   6.560   4.464   5.641
 1228SOL     OW 4582   3.119   1.805   6.185
 1228SOL    HW1 4583   3.050   1.870   6.217
 1228SOL    HW2 4584   3.078   1.714   6.179
 1229SOL     OW 4585   3.592   5.049   5.647
 1229SOL    HW1 4586   3.612   5.143   5.672
 1229SOL    HW2 4587   3.512   5.047   5.587
 1230SOL     OW 4588   4.638   6.382   2.760
 1230SOL    HW1 4589   4.608   6.451   2.826
 1230SOL    HW2 4590   4.707   6.421   2.700
 1231SOL     OW 4591   2.090   2.655   4.942
 1231SOL    HW1 4592   2.102   2.737   4.886
 1231SOL    HW2 4593   2.025   2.594   4.897
 1232SOL     OW 4594   0.677   2.076   5.525
 1232SOL    HW1 4595   0.637   2.045   5.439
 1232SOL    HW2 4596   0.663   2.007   5.595
 1233SOL     OW 4597   0.810   4.333   5.110
 1233SOL    HW1 4598   0.819   4.402   5.038
 1233SOL    HW2 4599   0.774   4.376   5.193
 1234SOL     OW 4600   6.655   3.286   5.375
 1234SOL    HW1 4601   6.682   3.310   5.282
 1234SOL    HW2 4602   6.603   3.201   5.374
 1235SOL     OW 4603   6.897   5.708   2.686
 1235SOL    HW1 4604   6.990   5.710   2.649
 1235SOL    HW2 4605   6.889   5.774   2.760
 1236SOL     OW 4606   4.341   1.569   6.946
 1236SOL    HW1 4607   4.367   1.657   6.906
 1236SOL    HW2 4608   4.412   1.540   7.010
 1237SOL     OW 4609   2.424   5.260   5.634
 1237SOL    HW1 4610   2.496   5.311   5.587
 1237SOL    HW2 4611   2.395   5.309   5.715
 1238SOL     OW 4612   2.631   1.142   0.200
 1238SOL    HW1 4613   2.603   1.090   0.281
 1238SOL    HW2 4614   2.631   1.240   0.221
 1239SOL     OW 4615   0.066   0.066   6.150
 1239SOL    HW1 4616   0.135   0.061   6.222
 1239SOL    HW2 4617   7.012   7.015   6.168
 1240SOL     OW 4618   5.244   6.781   1.923
 1240SOL    HW1 4619   5.270   6.859   1.980
 1240SOL    HW2 4620   5.172   6.808   1.860
 1241SOL     OW 4621   5.220   3.618   4.298
 1241SOL    HW1 4622   5.222   3.716   4.280
 1241SOL    HW2 4623   5.167   3.572   4.227
 1242SOL     OW 4624   0.771   3.804   1.691
 1242SOL    HW1 4625   0.828   3.878   1.727
 1242SOL    HW2 4626   0.723   3.759   1.767
 1243SOL     OW 4627   0.027   0.080   4.819
 1243SOL    HW1 4628   0.117   0.105   4.783
 1243SOL    HW2 4629   0.029   0.086   4.919
 1244SOL     OW 4630   6.321   0.070   4.374
 1244SOL    HW1 4631   6.392   0.116   4.427
 1244SOL    HW2 4632   6.269   0.009   4.434
 1245SOL     OW 4633   5.036   5.010   0.533
 1245SOL    HW1 4634   5.029   5.004   0.433
 1245SOL    HW2 4635   4.949   4.983   0.574
 1246SOL     OW 4636   2.355   6.411   1.794
 1246SOL    HW1 4637   2.319   6.341   1.856
 1246SOL    HW2 4638   2.359   6.499   1.841
 1247SOL     OW 4639   1.896   0.213   6.671
 1247SOL    HW1 4640   1.862   0.281   6.736
 1247SOL    HW2 4641   1.911   0.256   6.582
 1248SOL     OW 4642   2.352   0.032   5.252
 1248SOL    HW1 4643   2.264   7.009   5.279
 1248SOL    HW2 4644   2.381   0.098   5.322
 1249SOL     OW 4645   6.019   2.194   2.924
 1249SOL    HW1 4646   6.079   2.238   2.990
 1249SOL    HW2 4647   6.065   2.189   2.835
 1250SOL     OW 4648   5.978   5.023   4.519
 1250SOL    HW1 4649   6.030   4.972   4.450
 1250SOL    HW2 4650   5.986   4.976   4.607
 1251SOL     OW 4651   3.687   0.877   4.369
 1251SOL    HW1 4652   3.649   0.789   4.396
 1251SOL    HW2 4653   3.613   0.942   4.352
 1252SOL     OW 4654   3.686   3.898   5.305
 1252SOL    HW1 4655   3.733   3.821   5.349
 1252SOL    HW2 4656   3.732   3.983   5.331
 1253SOL     OW 4657   3.190   5.734   2.229
 1253SOL    HW1 4658   3.131   5.809   2.262
 1253SOL    HW2 4659   3.215   5.751   2.134
 1254SOL     OW 4660   1.399   2.353   2.624
 1254SOL    HW1 4661   1.314   2.336   2.674
 1254SOL    HW2 4662   1.382   2.419   2.551
 1255SOL     OW 4663   6.341   2.458   4.835
 1255SOL    HW1 4664   6.290   2.506   4.764
 1255SOL    HW2 4665   6.431   2.431   4.799
 1256SOL     OW 4666   6.685   6.359   3.237
 1256SOL    HW1 4667   6.729   6.448   3.223
 1256SOL    HW2 4668   6.755   6.291   3.259
 1257SOL     OW 4669   0.175   6.766   4.953
 1257SOL    HW1 4670   0.115   6.836   4.993
 1257SOL    HW2 4671   0.136   6.675   4.971
 1258SOL     OW 4672   1.701   5.342   3.629
 1258SOL    HW1 4673   1.673   5.358   3.534
 1258SOL    HW2 4674   1.628   5.295   3.678
 1259SOL     OW 4675   3.919   1.205   4.308
 1259SOL    HW1 4676   3.986   1.163   4.370
 1259SOL    HW2 4677   3.937   1.175   4.214
 1260SOL     OW 4678   1.530   1.860   0.078
 1260SOL    HW1 4679   1.605   1.924   0.091
 1260SOL    HW2 4680   1.464   1.870   0.153
 1261SOL     OW 4681   0.483   5.460   6.479
 1261SOL    HW1 4682   0.568   5.496   6.440
 1261SOL    HW2 4683   0.418   5.534   6.494
 1262SOL     OW 4684   4.804   4.378   1.453
 1262SOL    HW1 4685   4.859   4.302   1.487
 1262SOL    HW2 4686   4.738   4.405   1.523
 1263SOL     OW 4687   0.349   1.891   2.382
 1263SOL    HW1 4688   0.409   1.812   2.397
 1263SOL    HW2 4689   0.266   1.880   2.436
 1264SOL     OW 4690   6.554   4.590   0.092
 1264SOL    HW1 4691   6.506   4.593   0.179
 1264SOL    HW2 4692   6.578   4.495   0.070
 1265SOL     OW 4693   5.836   4.776   4.806
 1265SOL    HW1 4694   5.929   4.784   4.770
 1265SOL    HW2 4695   5.801   4.684   4.789
 1266SOL     OW 4696   0.368   1.064   4.221
 1266SOL    HW1 4697   0.441   1.106   4.168
 1266SOL    HW2 4698   0.343   0.976   4.179
 1267SOL     OW 4699   5.539   1.256   1.010
 1267SOL    HW1 4700   5.536   1.182   0.943
 1267SOL    HW2 4701   5.622   1.310   0.997
 1268SOL     OW 4702   2.841   2.613   6.641
 1268SOL    HW1 4703   2.787   2.591   6.722
 1268SOL    HW2 4704   2.865   2.529   6.592
 1269SOL     OW 4705   5.979   3.395   4.212
 1269SOL    HW1 4706   5.990   3.296   4.201
 1269SOL    HW2 4707   5.902   3.413   4.274
 1270SOL     OW 4708   1.398   3.850   2.827
 1270SOL    HW1 4709   1.336   3.838   2.749
 1270SOL    HW2 4710   1.440   3.941   2.822
 1271SOL     OW 4711   3.845   1.770   2.390
 1271SOL    HW1 4712   3.898   1.798   2.310
 1271SOL    HW2 4713   3.828   1.850   2.448
 1272SOL     OW 4714   5.785   4.582   6.748
 1272SOL    HW1 4715   5.706   4.551   6.696
 1272SOL    HW2 4716   5.855   4.510   6.749
 1273SOL     OW 4717   0.895   3.603   6.379
 1273SOL    HW1 4718   0.821   3.665   6.407
 1273SOL    HW2 4719   0.885   3.582   6.282
 1274SOL     OW 4720   6.772   4.521   1.539
 1274SOL    HW1 4721   6.836   4.554   1.470
 1274SOL    HW2 4722   6.687   4.575   1.534
 1275SOL     OW 4723   3.980   1.592   3.555
 1275SOL    HW1 4724   3.893   1.610   3.510
 1275SOL    HW2 4725   3.968   1.594   3.654
 1276SOL     OW 4726   6.092   5.105   5.047
 1276SOL    HW1 4727   6.142   5.124   5.132
 1276SOL    HW2 4728   6.158   5.096   4.972
 1277SOL     OW 4729   1.863   5.602   6.159
 1277SOL    HW1 4730   1.835   5.669   6.229
 1277SOL    HW2 4731   1.959   5.577   6.174
 1278SOL     OW 4732   0.943   7.015   5.075
 1278SOL    HW1 4733   0.961   0.050   4.992
 1278SOL    HW2 4734   1.026   7.009   5.130
 1279SOL     OW 4735   1.704   5.228   6.852
 1279SOL    HW1 4736   1.800   5.224   6.881
 1279SOL    HW2 4737   1.697   5.203   6.756
 1280SOL     OW 4738   4.562   0.213   4.330
 1280SOL    HW1 4739   4.605   0.122   4.330
 1280SOL    HW2 4740   4.583   0.259   4.244
 1281SOL     OW 4741   2.411   5.956   3.072
 1281SOL    HW1 4742   2.338   5.961   3.004
 1281SOL    HW2 4743   2.411   5.866   3.115
 1282SOL     OW 4744   6.464   2.200   6.184
 1282SOL    HW1 4745   6.513   2.164   6.104
 1282SOL    HW2 4746   6.471   2.134   6.259
 1283SOL     OW 4747   6.384   3.053   5.014
 1283SOL    HW1 4748   6.386   3.145   4.975
 1283SOL    HW2 4749   6.445   2.993   4.962
 1284SOL     OW 4750   4.780   1.707   1.933
 1284SOL    HW1 4751   4.837   1.672   1.858
 1284SOL    HW2 4752   4.752   1.800   1.913
 1285SOL     OW 4753   4.581   1.454   5.771
 1285SOL    HW1 4754   4.651   1.398   5.816
 1285SOL    HW2 4755   4.586   1.439   5.672
 1286SOL     OW 4756   4.138   3.525   0.947
 1286SOL    HW1 4757   4.055   3.545   0.999
 1286SOL    HW2 4758   4.179   3.441   0.982
 1287SOL     OW 4759   5.267   4.193   5.343
 1287SOL    HW1 4760   5.357   4.212   5.382
 1287SOL    HW2 4761   5.243   4.265   5.278
 1288SOL     OW 4762   3.461   3.824   6.405
 1288SOL    HW1 4763   3.543   3.831   6.348
 1288SOL    HW2 4764   3.416   3.913   6.409
 1289SOL     OW 4765   0.672   6.991   1.395
 1289SOL    HW1 4766   0.732   0.007   1.468
 1289SOL    HW2 4767   0.711   7.016   1.306
 1290SOL     OW 4768   1.022   6.771   0.591
 1290SOL    HW1 4769   1.108   6.810   0.626
 1290SOL    HW2 4770   0.959   6.845   0.568
 1291SOL     OW 4771   0.483   4.400   3.968
 1291SOL    HW1 4772   0.565   4.346   3.984
 1291SOL    HW2 4773   0.410   4.340   3.933
 1292SOL     OW 4774   0.738   5.664   2.396
 1292SOL    HW1 4775   0.687   5.620   2.470
 1292SOL    HW2 4776   0.674   5.708   2.333
 1293SOL     OW 4777   2.244   2.167   0.183
 1293SOL    HW1 4778   2.192   2.110   0.247
 1293SOL    HW2 4779   2.182   2.232   0.139
 1294SOL     OW 4780   0.392   3.169   5.859
 1294SOL    HW1 4781   0.298   3.148   5.833
 1294SOL    HW2 4782   0.454   3.136   5.788
 1295SOL     OW 4783   0.123   3.704   1.023
 1295SOL    HW1 4784   0.038   3.678   1.070
 1295SOL    HW2 4785   0.152   3.794   1.055
 1296SOL     OW 4786   4.100   6.325   5.265
 1296SOL    HW1 4787   4.120   6.318   5.363
 1296SOL    HW2 4788   4.042   6.404   5.249
 1297SOL     OW 4789   0.932   0.050   1.253
 1297SOL    HW1 4790   0.990   0.001   1.319
 1297SOL    HW2 4791   0.956   0.147   1.255
 1298SOL     OW 4792   5.020   5.685   3.310
 1298SOL    HW1 4793   5.000   5.782   3.323
 1298SOL    HW2 4794   4.972   5.652   3.228
 1299SOL     OW 4795   2.583   2.409   3.880
 1299SOL    HW1 4796   2.568   2.437   3.975
 1299SOL    HW2 4797   2.544   2.478   3.819
 1300SOL     OW 4798   1.791   2.852   0.677
 1300SOL    HW1 4799   1.732   2.772   0.661
 1300SOL    HW2 4800   1.875   2.842   0.625
 1301SOL     OW 4801   0.678   6.191   1.679
 1301SOL    HW1 4802   0.581   6.209   1.660
 1301SOL    HW2 4803   0.724   6.277   1.702
 1302SOL     OW 4804   4.822   6.727   5.129
 1302SOL    HW1 4805   4.725   6.749   5.139
 1302SOL    HW2 4806   4.873   6.769   5.204
 1303SOL     OW 4807   4.440   1.464   1.263
 1303SOL    HW1 4808   4.433   1.365   1.247
 1303SOL    HW2 4809   4.353   1.508   1.242
 1304SOL     OW 4810   1.674   0.181   0.550
 1304SOL    HW1 4811   1.642   0.112   0.485
 1304SOL    HW2 4812   1.612   0.184   0.629
 1305SOL     OW 4813   5.596   3.648   0.472
 1305SOL    HW1 4814   5.641   3.641   0.383
 1305SOL    HW2 4815   5.610   3.564   0.523
 1306SOL     OW 4816   1.509   5.869   4.292
 1306SOL    HW1 4817   1.494   5.775   4.262
 1306SOL    HW2 4818   1.465   5.933   4.229
 1307SOL     OW 4819   2.313   4.360   4.040
 1307SOL    HW1 4820   2.248   4.310   4.097
 1307SOL    HW2 4821   2.327   4.310   3.955
 1308SOL     OW 4822   6.488   0.115   6.044
 1308SOL    HW1 4823   6.546   0.191   6.073
 1308SOL    HW2 4824   6.505   0.096   5.947
 1309SOL     OW 4825   5.853   4.952   5.830
 1309SOL    HW1 4826   5.830   5.021   5.762
 1309SOL    HW2 4827   5.769   4.910   5.864
 1310SOL     OW 4828   0.071   3.775   3.430
 1310SOL    HW1 4829   0.007   3.704   3.462
 1310SOL    HW2 4830   0.161   3.735   3.417
 1311SOL     OW 4831   6.713   5.765   6.046
 1311SOL    HW1 4832   6.710   5.673   6.084
 1311SOL    HW2 4833   6.627   5.785   5.998
 1312SOL     OW 4834   1.349   6.697   0.390
 1312SOL    HW1 4835   1.416   6.638   0.345
 1312SOL    HW2 4836   1.279   6.724   0.324
 1313SOL     OW 4837   0.184   4.916   2.697
 1313SOL    HW1 4838   0.137   4.831   2.673
 1313SOL    HW2 4839   0.179   4.931   2.795
 1314SOL     OW 4840   3.984   1.478   4.409
 1314SOL    HW1 4841   3.975   1.554   4.473
 1314SOL    HW2 4842   3.944   1.396   4.449
 1315SOL     OW 4843   0.140   1.981   2.537
 1315SOL    HW1 4844   0.068   2.050   2.537
 1315SOL    HW2 4845   0.197   1.992   2.618
 1316SOL     OW 4846   3.526   0.130   5.746
 1316SOL    HW1 4847   3.584   0.051   5.728
 1316SOL    HW2 4848   3.517   0.144   5.844
 1317SOL     OW 4849   2.483   3.950   5.969
 1317SOL    HW1 4850   2.524   4.033   5.931
 1317SOL    HW2 4851   2.383   3.961   5.970
 1318SOL     OW 4852   1.078   2.514   1.020
 1318SOL    HW1 4853   1.125   2.434   1.058
 1318SOL    HW2 4854   1.033   2.565   1.093
 1319SOL     OW 4855   6.889   6.380   1.045
 1319SOL    HW1 4856   6.885   6.368   1.145
 1319SOL    HW2 4857   6.984   6.390   1.017
 1320SOL     OW 4858   3.800   4.586   6.756
 1320SOL    HW1 4859   3.788   4.680   6.787
 1320SOL    HW2 4860   3.755   4.524   6.821
 1321SOL     OW 4861   4.988   2.910   6.376
 1321SOL    HW1 4862   5.068   2.854   6.351
 1321SOL    HW2 4863   4.944   2.944   6.294
 1322SOL     OW 4864   3.804   1.869   3.978
 1322SOL    HW1 4865   3.769   1.962   3.987
 1322SOL    HW2 4866   3.730   1.804   3.998
 1323SOL     OW 4867   3.997   6.603   6.355
 1323SOL    HW1 4868   3.973   6.511   6.324
 1323SOL    HW2 4869   3.935   6.670   6.315
 1324SOL     OW 4870   0.699   3.164   6.754
 1324SOL    HW1 4871   0.653   3.106   6.687
 1324SOL    HW2 4872   0.648   3.249   6.764
 1325SOL     OW 4873   3.633   6.517   4.883
 1325SOL    HW1 4874   3.601   6.606   4.850
 1325SOL    HW2 4875   3.610   6.446   4.816
 1326SOL     OW 4876   4.953   3.452   5.158
 1326SOL    HW1 4877   4.870   3.502   5.130
 1326SOL    HW2 4878   5.025   3.467   5.090
 1327SOL     OW 4879   1.102   6.466   1.018
 1327SOL    HW1 4880   1.142   6.506   1.100
 1327SOL    HW2 4881   1.174   6.453   0.949
 1328SOL     OW 4882   2.504   3.488   0.273
 1328SOL    HW1 4883   2.600   3.493   0.245
 1328SOL    HW2 4884   2.496   3.508   0.370
 1329SOL     OW 4885   0.966   2.283   2.632
 1329SOL    HW1 4886   0.893   2.215   2.641
 1329SOL    HW2 4887   0.927   2.375   2.641
 1330SOL     OW 4888   1.685   1.246   1.216
 1330SOL    HW1 4889   1.686   1.346   1.221
 1330SOL    HW2 4890   1.593   1.215   1.191
 1331SOL     OW 4891   4.805   2.970   3.123
 1331SOL    HW1 4892   4.786   2.875   3.099
 1331SOL    HW2 4893   4.846   3.017   3.045
 1332SOL     OW 4894   2.075   0.090   0.682
 1332SOL    HW1 4895   2.089   0.047   0.772
 1332SOL    HW2 4896   2.159   0.082   0.629
 1333SOL     OW 4897   2.895   3.425   3.294
 1333SOL    HW1 4898   2.867   3.500   3.235
 1333SOL    HW2 4899   2.900   3.458   3.389
 1334SOL     OW 4900   6.357   1.615   3.484
 1334SOL    HW1 4901   6.294   1.600   3.561
 1334SOL    HW2 4902   6.438   1.662   3.517
 1335SOL     OW 4903   2.670   2.002   2.121
 1335SOL    HW1 4904   2.724   1.944   2.060
 1335SOL    HW2 4905   2.623   2.072   2.068
 1336SOL     OW 4906   2.498   1.783   4.784
 1336SOL    HW1 4907   2.453   1.695   4.776
 1336SOL    HW2 4908   2.597   1.771   4.778
 1337SOL     OW 4909   1.106   1.832   2.886
 1337SOL    HW1 4910   1.166   1.800   2.959
 1337SOL    HW2 4911   1.079   1.926   2.904
 1338SOL     OW 4912   6.887   2.886   4.314
 1338SOL    HW1 4913   6.911   2.928   4.226
 1338SOL    HW2 4914   6.947   2.924   4.385
 1339SOL     OW 4915   6.706   1.922   6.869
 1339SOL    HW1 4916   6.754   1.895   6.786
 1339SOL    HW2 4917   6.759   1.992   6.917
 1340SOL     OW 4918   5.460   1.545   2.790
 1340SOL    HW1 4919   5.387   1.549   2.722
 1340SOL    HW2 4920   5.479   1.637   2.826
 1341SOL     OW 4921   4.195   6.358   6.409
 1341SOL    HW1 4922   4.115   6.380   6.465
 1341SOL    HW2 4923   4.194   6.261   6.384
 1342SOL     OW 4924   3.342   5.478   6.442
 1342SOL    HW1 4925   3.271   5.427   6.393
 1342SOL    HW2 4926   3.378   5.550   6.383
 1343SOL     OW 4927   5.166   5.520   2.992
 1343SOL    HW1 4928   5.077   5.556   3.020
 1343SOL    HW2 4929   5.192   5.444   3.052
 1344SOL     OW 4930   7.011   6.112   4.592
 1344SOL    HW1 4931   0.066   6.119   4.524
 1344SOL    HW2 4932   6.977   6.018   4.595
 1345SOL     OW 4933   0.920   5.575   2.982
 1345SOL    HW1 4934   0.841   5.601   2.925
 1345SOL    HW2 4935   0.976   5.656   2.999
 1346SOL     OW 4936   1.988   5.927   4.735
 1346SOL    HW1 4937   1.889   5.936   4.736
 1346SOL    HW2 4938   2.014   5.845   4.682
 1347SOL     OW 4939   6.871   6.876   5.768
 1347SOL    HW1 4940   6.906   6.966   5.743
 1347SOL    HW2 4941   6.947   6.815   5.789
 1348SOL     OW 4942   6.102   6.575   4.384
 1348SOL    HW1 4943   6.081   6.614   4.473
 1348SOL    HW2 4944   6.026   6.591   4.322
 1349SOL     OW 4945   5.233   3.103   5.019
 1349SOL    HW1 4946   5.218   3.136   5.112
 1349SOL    HW2 4947   5.265   3.178   4.962
 1350SOL     OW 4948   5.160   4.980   5.300
 1350SOL    HW1 4949   5.090   5.026   5.244
 1350SOL    HW2 4950   5.126   4.968   5.393
 1351SOL     OW 4951   5.886   1.961   2.926
 1351SOL    HW1 4952   5.811   1.978   2.990
 1351SOL    HW2 4953   5.944   2.042   2.921
 1352SOL     OW 4954   6.590   5.629   4.141
 1352SOL    HW1 4955   6.602   5.536   4.105
 1352SOL    HW2 4956   6.493   5.645   4.160
 1353SOL     OW 4957   0.782   2.404   0.294
 1353SOL    HW1 4958   0.783   2.483   0.233
 1353SOL    HW2 4959   0.852   2.339   0.266
 1354SOL     OW 4960   0.458   4.601   1.482
 1354SOL    HW1 4961   0.483   4.692   1.514
 1354SOL    HW2 4962   0.387   4.608   1.413
 1355SOL     OW 4963   5.977   3.764   4.363
 1355SOL    HW1 4964   6.042   3.696   4.328
 1355SOL    HW2 4965   5.909   3.784   4.292
 1356SOL     OW 4966   2.966   3.164   2.023
 1356SOL    HW1 4967   2.915   3.124   1.947
 1356SOL    HW2 4968   2.991   3.093   2.088
 1357SOL     OW 4969   0.003   4.489   6.362
 1357SOL    HW1 4970   0.024   4.391   6.363
 1357SOL    HW2 4971   6.941   4.506   6.419
 1358SOL     OW 4972   5.194   6.348   6.514
 1358SOL    HW1 4973   5.274   6.342   6.574
 1358SOL    HW2 4974   5.111   6.340   6.569
 1359SOL     OW 4975   5.614   4.911   3.145
 1359SOL    HW1 4976   5.625   5.004   3.109
 1359SOL    HW2 4977   5.591   4.849   3.071
 1360SOL     OW 4978   2.845   3.902   0.482
 1360SOL    HW1 4979   2.838   3.998   0.459
 1360SOL    HW2 4980   2.813   3.846   0.406
 1361SOL     OW 4981   6.339   4.980   5.212
 1361SOL    HW1 4982   6.422   4.975   5.156
 1361SOL    HW2 4983   6.339   5.065   5.265
 1362SOL     OW 4984   3.744   3.922   3.527
 1362SOL    HW1 4985   3.743   3.985   3.449
 1362SOL    HW2 4986   3.658   3.930   3.577
 1363SOL     OW 4987   6.888   5.153   4.005
 1363SOL    HW1 4988   6.944   5.088   4.056
 1363SOL    HW2 4989   6.934   5.242   4.002
 1364SOL     OW 4990   5.191   4.545   0.930
 1364SOL    HW1 4991   5.231   4.455   0.914
 1364SOL    HW2 4992   5.212   4.575   1.024
 1365SOL     OW 4993   0.021   4.219   6.314
 1365SOL    HW1 4994   6.969   4.165   6.266
 1365SOL    HW2 4995   0.028   4.187   6.409
 1366SOL     OW 4996   1.795   5.885   0.288
 1366SOL    HW1 4997   1.792   5.811   0.355
 1366SOL    HW2 4998   1.858   5.861   0.215
 1367SOL     OW 4999   2.256   0.420   3.331
 1367SOL    HW1 5000   2.289   0.359   3.259
 1367SOL    HW2 5001   2.307   0.402   3.415
 1368SOL     OW 5002   5.551   0.060   3.827
 1368SOL    HW1 5003   5.617   0.012   3.770
 1368SOL    HW2 5004   5.491   7.011   3.872
 1369SOL     OW 5005   1.920   6.474   2.504
 1369SOL    HW1 5006   1.895   6.538   2.576
 1369SOL    HW2 5007   1.934   6.383   2.544
 1370SOL     OW 5008   3.471   1.238   0.972
 1370SOL    HW1 5009   3.509   1.159   0.923
 1370SOL    HW2 5010   3.503   1.322   0.930
 1371SOL     OW 5011   5.255   1.470   4.235
 1371SOL    HW1 5012   5.265   1.569   4.238
 1371SOL    HW2 5013   5.294   1.435   4.149
 1372SOL     OW 5014   1.002   2.893   0.993
 1372SOL    HW1 5015   0.941   2.947   0.935
 1372SOL    HW2 5016   0.995   2.796   0.967
 1373SOL     OW 5017   6.219   4.015   6.654
 1373SOL    HW1 5018   6.251   3.938   6.709
 1373SOL    HW2 5019   6.294   4.080   6.641
 1374SOL     OW 5020   4.069   2.369   0.496
 1374SOL    HW1 5021   4.017   2.431   0.438
 1374SOL    HW2 5022   4.039   2.275   0.479
 1375SOL     OW 5023   0.215   4.661   6.416
 1375SOL    HW1 5024   0.131   4.608   6.408
 1375SOL    HW2 5025   0.260   4.666   6.327
 1376SOL     OW 5026   4.996   3.382   3.822
 1376SOL    HW1 5027   5.044   3.329   3.891
 1376SOL    HW2 5028   4.964   3.322   3.750
 1377SOL     OW 5029   6.702   3.910   5.140
 1377SOL    HW1 5030   6.767   3.862   5.199
 1377SOL    HW2 5031   6.638   3.845   5.100
 1378SOL     OW 5032   6.380   1.813   4.770
 1378SOL    HW1 5033   6.406   1.891   4.713
 1378SOL    HW2 5034   6.462   1.762   4.795
 1379SOL     OW 5035   3.257   0.243   2.008
 1379SOL    HW1 5036   3.193   0.199   1.945
 1379SOL    HW2 5037   3.206   0.286   2.083
 1380SOL     OW 5038   0.330   6.895   2.482
 1380SOL    HW1 5039   0.342   6.988   2.518
 1380SOL    HW2 5040   0.412   6.869   2.430
 1381SOL     OW 5041   5.283   2.743   6.935
 1381SOL    HW1 5042   5.357   2.782   6.990
 1381SOL    HW2 5043   5.227   2.816   6.897
 1382SOL     OW 5044   5.345   4.390   0.249
 1382SOL    HW1 5045   5.395   4.340   0.320
 1382SOL    HW2 5046   5.249   4.364   0.251
 1383SOL     OW 5047   0.480   1.002   0.502
 1383SOL    HW1 5048   0.415   0.943   0.549
 1383SOL    HW2 5049   0.506   0.961   0.415
 1384SOL     OW 5050   3.908   0.950   2.743
 1384SOL    HW1 5051   3.908   0.851   2.755
 1384SOL    HW2 5052   3.871   0.994   2.825
 1385SOL     OW 5053   0.673   2.839   2.864
 1385SOL    HW1 5054   0.587   2.842   2.916
 1385SOL    HW2 5055   0.661   2.885   2.777
 1386SOL     OW 5056   2.687   1.827   4.330
 1386SOL    HW1 5057   2.671   1.904   4.268
 1386SOL    HW2 5058   2.786   1.815   4.343
 1387SOL     OW 5059   3.747   0.389   3.507
 1387SOL    HW1 5060   3.680   0.455   3.474
 1387SOL    HW2 5061   3.710   0.339   3.584
 1388SOL     OW 5062   6.996   6.712   3.969
 1388SOL    HW1 5063   6.909   6.669   3.947
 1388SOL    HW2 5064   6.989   6.758   4.058
 1389SOL     OW 5065   0.615   0.947   3.442
 1389SOL    HW1 5066   0.576   0.917   3.529
 1389SOL    HW2 5067   0.572   1.033   3.414
 1390SOL     OW 5068   4.811   1.252   6.706
 1390SOL    HW1 5069   4.775   1.230   6.616
 1390SOL    HW2 5070   4.904   1.216   6.715
 1391SOL     OW 5071   6.118   1.369   5.441
 1391SOL    HW1 5072   6.022   1.341   5.431
 1391SOL    HW2 5073   6.129   1.461   5.401
 1392SOL     OW 5074   5.611   5.226   5.209
 1392SOL    HW1 5075   5.524   5.224   5.259
 1392SOL    HW2 5076   5.686   5.241   5.273
 1393SOL     OW 5077   5.831   3.045   6.871
 1393SOL    HW1 5078   5.804   3.062   6.777
 1393SOL    HW2 5079   5.869   2.952   6.878
 1394SOL     OW 5080   3.978   6.795   3.756
 1394SOL    HW1 5081   4.037   6.774   3.678
 1394SOL    HW2 5082   3.882   6.789   3.728
 1395SOL     OW 5083   0.576   4.048   2.840
 1395SOL    HW1 5084   0.669   4.065   2.805
 1395SOL    HW2 5085   0.529   3.985   2.778
 1396SOL     OW 5086   1.971   0.287   4.116
 1396SOL    HW1 5087   2.067   0.286   4.088
 1396SOL    HW2 5088   1.914   0.316   4.039
 1397SOL     OW 5089   0.369   6.438   5.091
 1397SOL    HW1 5090   0.353   6.535   5.109
 1397SOL    HW2 5091   0.315   6.384   5.155
 1398SOL     OW 5092   1.624   1.092   0.915
 1398SOL    HW1 5093   1.679   1.154   0.858
 1398SOL    HW2 5094   1.633   0.999   0.880
 1399SOL     OW 5095   4.184   0.577   0.645
 1399SOL    HW1 5096   4.136   0.497   0.608
 1399SOL    HW2 5097   4.119   0.634   0.695
 1400SOL     OW 5098   6.293   0.944   4.129
 1400SOL    HW1 5099   6.310   0.853   4.093
 1400SOL    HW2 5100   6.343   1.012   4.075
 1401SOL     OW 5101   5.932   0.027   4.361
 1401SOL    HW1 5102   5.947   0.118   4.399
 1401SOL    HW2 5103   5.897   0.035   4.268
 1402SOL     OW 5104   6.138   4.219   0.113
 1402SOL    HW1 5105   6.208   4.166   0.160
 1402SOL    HW2 5106   6.181   4.286   0.052
 1403SOL     OW 5107   2.356   3.045   0.330
 1403SOL    HW1 5108   2.413   3.076   0.407
 1403SOL    HW2 5109   2.378   3.100   0.249
 1404SOL     OW 5110   4.545   0.462   1.006
 1404SOL    HW1 5111   4.494   0.406   0.941
 1404SOL    HW2 5112   4.507   0.448   1.098
 1405SOL     OW 5113   1.763   3.608   0.868
 1405SOL    HW1 5114   1.668   3.611   0.836
 1405SOL    HW2 5115   1.784   3.515   0.898
 1406SOL     OW 5116   2.007   3.926   1.691
 1406SOL    HW1 5117   2.002   3.857   1.762
 1406SOL    HW2 5118   1.917   3.970   1.681
 1407SOL     OW 5119   1.262   3.240   2.603
 1407SOL    HW1 5120   1.216   3.153   2.580
 1407SOL    HW2 5121   1.356   3.237   2.570
 1408SOL     OW 5122   6.179   6.654   6.969
 1408SOL    HW1 5123   6.138   6.725   6.912
 1408SOL    HW2 5124   6.120   6.636   0.030
 1409SOL     OW 5125   0.060   0.811   5.894
 1409SOL    HW1 5126   0.081   0.907   5.874
 1409SOL    HW2 5127   0.134   0.753   5.860
 1410SOL     OW 5128   2.517   3.310   6.390
 1410SOL    HW1 5129   2.605   3.264   6.400
 1410SOL    HW2 5130   2.448   3.263   6.445
 1411SOL     OW 5131   3.452   6.100   6.685
 1411SOL    HW1 5132   3.384   6.071   6.752
 1411SOL    HW2 5133   3.414   6.173   6.628
 1412SOL     OW 5134   0.802   3.421   0.852
 1412SOL    HW1 5135   0.714   3.407   0.806
 1412SOL    HW2 5136   0.865   3.467   0.789
 1413SOL     OW 5137   1.692   1.665   4.481
 1413SOL    HW1 5138   1.667   1.689   4.387
 1413SOL    HW2 5139   1.768   1.723   4.510
 1414SOL     OW 5140   1.355   3.039   1.802
 1414SOL    HW1 5141   1.346   3.137   1.790
 1414SOL    HW2 5142   1.445   3.009   1.771
 1415SOL     OW 5143   2.544   1.952   4.519
 1415SOL    HW1 5144   2.597   1.960   4.603
 1415SOL    HW2 5145   2.600   1.911   4.447
 1416SOL     OW 5146   4.545   1.026   4.792
 1416SOL    HW1 5147   4.601   0.950   4.758
 1416SOL    HW2 5148   4.593   1.070   4.869
 1417SOL     OW 5149   3.374   3.190   5.844
 1417SOL    HW1 5150   3.471   3.209   5.831
 1417SOL    HW2 5151   3.352   3.200   5.941
 1418SOL     OW 5152   3.412   4.133   0.890
 1418SOL    HW1 5153   3.430   4.036   0.871
 1418SOL    HW2 5154   3.469   4.162   0.967
 1419SOL     OW 5155   1.802   4.991   4.238
 1419SOL    HW1 5156   1.857   4.931   4.297
 1419SOL    HW2 5157   1.757   4.935   4.168
 1420SOL     OW 5158   4.071   5.054   3.081
 1420SOL    HW1 5159   4.097   4.970   3.129
 1420SOL    HW2 5160   4.107   5.052   2.988
 1421SOL     OW 5161   0.910   4.336   4.268
 1421SOL    HW1 5162   0.897   4.375   4.359
 1421SOL    HW2 5163   0.975   4.392   4.217
 1422SOL     OW 5164   2.497   4.907   6.012
 1422SOL    HW1 5165   2.407   4.946   5.994
 1422SOL    HW2 5166   2.537   4.952   6.092
 1423SOL     OW 5167   4.030   1.996   4.428
 1423SOL    HW1 5168   3.979   2.047   4.359
 1423SOL    HW2 5169   4.058   1.907   4.390
 1424SOL     OW 5170   6.562   3.867   6.706
 1424SOL    HW1 5171   6.601   3.829   6.623
 1424SOL    HW2 5172   6.550   3.966   6.695
 1425SOL     OW 5173   2.788   6.288   5.049
 1425SOL    HW1 5174   2.758   6.198   5.017
 1425SOL    HW2 5175   2.879   6.280   5.088
 1426SOL     OW 5176   1.736   1.211   6.492
 1426SOL    HW1 5177   1.827   1.211   6.534
 1426SOL    HW2 5178   1.735   1.273   6.414
 1427SOL     OW 5179   1.081   0.365   3.397
 1427SOL    HW1 5180   1.052   0.374   3.492
 1427SOL    HW2 5181   1.159   0.304   3.391
 1428SOL     OW 5182   0.247   2.474   1.324
 1428SOL    HW1 5183   0.332   2.431   1.354
 1428SOL    HW2 5184   0.253   2.495   1.226
 1429SOL     OW 5185   6.494   1.380   6.713
 1429SOL    HW1 5186   6.492   1.281   6.727
 1429SOL    HW2 5187   6.468   1.427   6.797
 1430SOL     OW 5188   2.557   4.499   4.446
 1430SOL    HW1 5189   2.461   4.471   4.445
 1430SOL    HW2 5190   2.588   4.519   4.353
 1431SOL     OW 5191   2.523   2.514   5.509
 1431SOL    HW1 5192   2.589   2.481   5.576
 1431SOL    HW2 5193   2.503   2.441   5.444
 1432SOL     OW 5194   2.305   1.410   0.496
 1432SOL    HW1 5195   2.283   1.500   0.534
 1432SOL    HW2 5196   2.386   1.373   0.541
 1433SOL     OW 5197   3.974   0.173   3.803
 1433SOL    HW1 5198   3.894   0.228   3.828
 1433SOL    HW2 5199   4.056   0.230   3.806
 1434SOL     OW 5200   0.195   2.127   6.353
 1434SOL    HW1 5201   0.117   2.135   6.414
 1434SOL    HW2 5202   0.256   2.205   6.366
 1435SOL     OW 5203   0.157   0.559   3.922
 1435SOL    HW1 5204   0.212   0.599   3.849
 1435SOL    HW2 5205   0.089   0.625   3.954
 1436SOL     OW 5206   6.186   3.423   0.541
 1436SOL    HW1 5207   6.206   3.361   0.618
 1436SOL    HW2 5208   6.096   3.464   0.554
 1437SOL     OW 5209   3.158   1.554   5.626
 1437SOL    HW1 5210   3.116   1.598   5.705
 1437SOL    HW2 5211   3.137   1.456   5.626
 1438SOL     OW 5212   3.427   1.135   1.233
 1438SOL    HW1 5213   3.428   1.220   1.286
 1438SOL    HW2 5214   3.461   1.153   1.140
 1439SOL     OW 5215   0.644   5.900   0.165
 1439SOL    HW1 5216   0.689   5.926   0.251
 1439SOL    HW2 5217   0.648   5.801   0.154
 1440SOL     OW 5218   3.649   3.419   4.562
 1440SOL    HW1 5219   3.556   3.410   4.597
 1440SOL    HW2 5220   3.703   3.475   4.626
 1441SOL     OW 5221   6.868   4.043   3.339
 1441SOL    HW1 5222   6.902   4.000   3.256
 1441SOL    HW2 5223   6.856   4.141   3.323
 1442SOL     OW 5224   5.364   5.190   1.079
 1442SOL    HW1 5225   5.452   5.199   1.032
 1442SOL    HW2 5226   5.344   5.275   1.128
 1443SOL     OW 5227   0.538   0.401   3.869
 1443SOL    HW1 5228   0.466   0.344   3.907
 1443SOL    HW2 5229   0.579   0.456   3.941
 1444SOL     OW 5230   3.940   5.903   3.076
 1444SOL    HW1 5231   3.945   5.876   2.980
 1444SOL    HW2 5232   4.032   5.926   3.109
 1445SOL     OW 5233   0.205   2.951   1.880
 1445SOL    HW1 5234   0.172   2.903   1.799
 1445SOL    HW2 5235   0.291   2.909   1.911
 1446SOL     OW 5236   5.032   2.822   0.104
 1446SOL    HW1 5237   5.112   2.803   0.161
 1446SOL    HW2 5238   4.960   2.755   0.123
 1447SOL     OW 5239   6.805   0.169   5.197
 1447SOL    HW1 5240   6.771   0.087   5.242
 1447SOL    HW2 5241   6.783   0.165   5.100
 1448SOL     OW 5242   6.010   1.637   0.112
 1448SOL    HW1 5243   6.110   1.631   0.111
 1448SOL    HW2 5244   5.981   1.712   0.172
 1449SOL     OW 5245   6.093   6.630   0.201
 1449SOL    HW1 5246   6.063   6.565   0.271
 1449SOL    HW2 5247   6.063   6.722   0.225
 1450SOL     OW 5248   6.866   2.579   1.938
 1450SOL    HW1 5249   6.953   2.530   1.929
 1450SOL    HW2 5250   6.799   2.539   1.876
 1451SOL     OW 5251   2.919   0.674   2.824
 1451SOL    HW1 5252   2.969   0.693   2.739
 1451SOL    HW2 5253   2.872   0.587   2.816
 1452SOL     OW 5254   4.758   1.576   4.808
 1452SOL    HW1 5255   4.790   1.630   4.730
 1452SOL    HW2 5256   4.787   1.619   4.893
 1453SOL     OW 5257   5.787   3.694   4.620
 1453SOL    HW1 5258   5.754   3.600   4.630
 1453SOL    HW2 5259   5.769   3.725   4.526
 1454SOL     OW 5260   5.665   2.748   2.680
 1454SOL    HW1 5261   5.621   2.706   2.759
 1454SOL    HW2 5262   5.761   2.766   2.701
 1455SOL     OW 5263   1.010   0.515   1.763
 1455SOL    HW1 5264   0.997   0.574   1.843
 1455SOL    HW2 5265   0.928   0.517   1.706
 1456SOL     OW 5266   6.519   6.710   5.375
 1456SOL    HW1 5267   6.550   6.763   5.296
 1456SOL    HW2 5268   6.526   6.612   5.354
 1457SOL     OW 5269   1.375   0.060   2.746
 1457SOL    HW1 5270   1.357   6.991   2.698
 1457SOL    HW2 5271   1.340   0.054   2.840
 1458SOL     OW 5272   5.382   6.940   4.963
 1458SOL    HW1 5273   5.337   0.008   4.937
 1458SOL    HW2 5274   5.481   6.949   4.948
 1459SOL     OW 5275   2.689   4.836   0.218
 1459SOL    HW1 5276   2.688   4.882   0.307
 1459SOL    HW2 5277   2.770   4.778   0.210
 1460SOL     OW 5278   0.086   5.668   6.525
 1460SOL    HW1 5279   0.060   5.584   6.479
 1460SOL    HW2 5280   0.184   5.669   6.540
 1461SOL     OW 5281   6.603   5.069   3.590
 1461SOL    HW1 5282   6.533   5.046   3.522
 1461SOL    HW2 5283   6.612   4.994   3.655
 1462SOL     OW 5284   6.832   1.847   0.117
 1462SOL    HW1 5285   6.920   1.799   0.113
 1462SOL    HW2 5286   6.834   1.926   0.055
 1463SOL     OW 5287   0.309   6.872   6.213
 1463SOL    HW1 5288   0.362   6.943   6.166
 1463SOL    HW2 5289   0.319   6.785   6.166
 1464SOL     OW 5290   0.400   6.796   0.618
 1464SOL    HW1 5291   0.403   6.891   0.651
 1464SOL    HW2 5292   0.305   6.765   0.616
 1465SOL     OW 5293   1.236   1.338   2.920
 1465SOL    HW1 5294   1.323   1.298   2.890
 1465SOL    HW2 5295   1.252   1.433   2.947
 1466SOL     OW 5296   0.382   6.839   3.235
 1466SOL    HW1 5297   0.314   6.872   3.300
 1466SOL    HW2 5298   0.378   6.739   3.230
 1467SOL     OW 5299   1.699   0.283   2.394
 1467SOL    HW1 5300   1.653   0.248   2.313
 1467SOL    HW2 5301   1.724   0.378   2.380
 1468SOL     OW 5302   5.398   5.997   2.882
 1468SOL    HW1 5303   5.451   5.997   2.966
 1468SOL    HW2 5304   5.459   5.992   2.803
 1469SOL     OW 5305   0.722   0.883   3.181
 1469SOL    HW1 5306   0.817   0.885   3.150
 1469SOL    HW2 5307   0.702   0.968   3.231
 1470SOL     OW 5308   0.785   0.998   2.252
 1470SOL    HW1 5309   0.704   0.940   2.259
 1470SOL    HW2 5310   0.858   0.960   2.308
 1471SOL     OW 5311   0.981   0.581   6.717
 1471SOL    HW1 5312   1.068   0.598   6.763
 1471SOL    HW2 5313   0.953   0.662   6.667
 1472SOL     OW 5314   4.518   5.967   4.410
 1472SOL    HW1 5315   4.519   5.875   4.449
 1472SOL    HW2 5316   4.601   5.982   4.357
 1473SOL     OW 5317   5.948   5.791   3.800
 1473SOL    HW1 5318   5.952   5.692   3.807
 1473SOL    HW2 5319   6.040   5.829   3.806
 1474SOL     OW 5320   6.491   5.978   3.581
 1474SOL    HW1 5321   6.452   6.062   3.543
 1474SOL    HW2 5322   6.487   5.906   3.512
 1475SOL     OW 5323   0.395   0.406   1.629
 1475SOL    HW1 5324   0.342   0.377   1.550
 1475SOL    HW2 5325   0.492   0.393   1.611
 1476SOL     OW 5326   1.391   0.861   1.066
 1476SOL    HW1 5327   1.320   0.908   1.014
 1476SOL    HW2 5328   1.388   0.763   1.046
 1477SOL     OW 5329   2.685   0.196   6.352
 1477SOL    HW1 5330   2.745   0.224   6.427
 1477SOL    HW2 5331   2.591   0.222   6.373
 1478SOL     OW 5332   5.786   4.532   0.762
 1478SOL    HW1 5333   5.821   4.498   0.849
 1478SOL    HW2 5334   5.833   4.618   0.738
 1479SOL     OW 5335   1.371   4.584   0.117
 1479SOL    HW1 5336   1.465   4.556   0.099
 1479SOL    HW2 5337   1.328   4.517   0.177
 1480SOL     OW 5338   2.834   0.816   0.157
 1480SOL    HW1 5339   2.835   0.792   0.060
 1480SOL    HW2 5340   2.907   0.767   0.204
 1481SOL     OW 5341   5.720   2.028   4.991
 1481SOL    HW1 5342   5.688   1.942   4.953
 1481SOL    HW2 5343   5.795   2.011   5.055
 1482SOL     OW 5344   5.706   1.775   0.848
 1482SOL    HW1 5345   5.680   1.716   0.925
 1482SOL    HW2 5346   5.758   1.722   0.781
 1483SOL     OW 5347   0.117   3.241   6.507
 1483SOL    HW1 5348   0.084   3.166   6.564
 1483SOL    HW2 5349   0.079   3.327   6.539
 1484SOL     OW 5350   6.580   4.460   3.587
 1484SOL    HW1 5351   6.551   4.367   3.564
 1484SOL    HW2 5352   6.500   4.513   3.617
 1485SOL     OW 5353   4.579   2.465   2.444
 1485SOL    HW1 5354   4.529   2.469   2.357
 1485SOL    HW2 5355   4.666   2.419   2.429
 1486SOL     OW 5356   4.585   2.592   3.413
 1486SOL    HW1 5357   4.586   2.581   3.513
 1486SOL    HW2 5358   4.607   2.505   3.370
 1487SOL     OW 5359   6.677   1.884   6.147
 1487SOL    HW1 5360   6.593   1.905   6.196
 1487SOL    HW2 5361   6.675   1.788   6.118
 1488SOL     OW 5362   5.802   2.391   2.910
 1488SOL    HW1 5363   5.854   2.311   2.878
 1488SOL    HW2 5364   5.857   2.474   2.896
 1489SOL     OW 5365   3.763   4.926   4.547
 1489SOL    HW1 5366   3.845   4.886   4.587
 1489SOL    HW2 5367   3.728   4.998   4.606
 1490SOL     OW 5368   1.307   2.298   1.027
 1490SOL    HW1 5369   1.336   2.219   0.972
 1490SOL    HW2 5370   1.355   2.380   0.997
 1491SOL     OW 5371   6.860   3.426   2.934
 1491SOL    HW1 5372   6.804   3.503   2.904
 1491SOL    HW2 5373   6.955   3.455   2.941
 1492SOL     OW 5374   6.009   1.772   1.936
 1492SOL    HW1 5375   5.959   1.837   1.879
 1492SOL    HW2 5376   6.035   1.692   1.881
 1493SOL     OW 5377   5.015   0.794   4.855
 1493SOL    HW1 5378   5.082   0.721   4.870
 1493SOL    HW2 5379   4.935   0.778   4.913
 1494SOL     OW 5380   4.335   2.765   5.661
 1494SOL    HW1 5381   4.236   2.779   5.663
 1494SOL    HW2 5382   4.381   2.852   5.676
 1495SOL     OW 5383   0.641   3.383   3.475
 1495SOL    HW1 5384   0.641   3.344   3.567
 1495SOL    HW2 5385   0.718   3.447   3.467
 1496SOL     OW 5386   0.640   0.701   2.025
 1496SOL    HW1 5387   0.630   0.608   1.991
 1496SOL    HW2 5388   0.666   0.762   1.950
 1497SOL     OW 5389   0.222   4.123   3.185
 1497SOL    HW1 5390   0.158   4.198   3.203
 1497SOL    HW2 5391   0.177   4.036   3.199
 1498SOL     OW 5392   1.736   5.153   6.595
 1498SOL    HW1 5393   1.833   5.163   6.572
 1498SOL    HW2 5394   1.688   5.108   6.519
 1499SOL     OW 5395   1.157   3.880   5.215
 1499SOL    HW1 5396   1.187   3.801   5.269
 1499SOL    HW2 5397   1.058   3.891   5.224
 1500SOL     OW 5398   6.006   6.936   0.273
 1500SOL    HW1 5399   5.974   7.007   0.209
 1500SOL    HW2 5400   5.927   6.892   0.315
 1501SOL     OW 5401   4.520   0.816   6.049
 1501SOL    HW1 5402   4.509   0.902   5.998
 1501SOL    HW2 5403   4.515   0.835   6.147
 1502SOL     OW 5404   6.261   6.751   0.537
 1502SOL    HW1 5405   6.341   6.696   0.517
 1502SOL    HW2 5406   6.278   6.846   0.508
 1503SOL     OW 5407   2.451   2.578   1.074
 1503SOL    HW1 5408   2.444   2.567   1.173
 1503SOL    HW2 5409   2.534   2.629   1.052
 1504SOL     OW 5410   2.704   0.417   4.957
 1504SOL    HW1 5411   2.660   0.504   4.977
 1504SOL    HW2 5412   2.661   0.344   5.011
 1505SOL     OW 5413   4.975   0.454   6.777
 1505SOL    HW1 5414   5.039   0.401   6.833
 1505SOL    HW2 5415   4.979   0.422   6.682
 1506SOL     OW 5416   1.010   5.006   3.416
 1506SOL    HW1 5417   0.998   5.036   3.511
 1506SOL    HW2 5418   1.055   5.079   3.365
 1507SOL     OW 5419   1.705   1.770   4.863
 1507SOL    HW1 5420   1.780   1.743   4.804
 1507SOL    HW2 5421   1.737   1.839   4.928
 1508SOL     OW 5422   4.560   0.145   1.257
 1508SOL    HW1 5423   4.596   0.127   1.165
 1508SOL    HW2 5424   4.465   0.176   1.250
 1509SOL     OW 5425   4.168   2.859   5.968
 1509SOL    HW1 5426   4.167   2.769   6.011
 1509SOL    HW2 5427   4.103   2.861   5.892
 1510SOL     OW 5428   5.464   2.019   3.903
 1510SOL    HW1 5429   5.515   1.944   3.861
 1510SOL    HW2 5430   5.382   2.038   3.849
 1511SOL     OW 5431   2.242   1.801   0.101
 1511SOL    HW1 5432   2.341   1.791   0.111
 1511SOL    HW2 5433   2.220   1.840   0.012
 1512SOL     OW 5434   6.871   6.470   1.625
 1512SOL    HW1 5435   6.960   6.481   1.579
 1512SOL    HW2 5436   6.886   6.449   1.722
 1513SOL     OW 5437   4.511   1.147   3.926
 1513SOL    HW1 5438   4.600   1.153   3.972
 1513SOL    HW2 5439   4.455   1.077   3.971
 1514SOL     OW 5440   5.498   1.946   4.687
 1514SOL    HW1 5441   5.582   1.994   4.660
 1514SOL    HW2 5442   5.521   1.870   4.747
 1515SOL     OW 5443   6.958   2.388   5.921
 1515SOL    HW1 5444   6.983   2.393   5.824
 1515SOL    HW2 5445   6.926   2.296   5.943
 1516SOL     OW 5446   0.530   0.745   0.978
 1516SOL    HW1 5447   0.568   0.791   1.059
 1516SOL    HW2 5448   0.479   0.811   0.923
 1517SOL     OW 5449   4.755   5.374   4.104
 1517SOL    HW1 5450   4.831   5.335   4.157
 1517SOL    HW2 5451   4.741   5.320   4.021
 1518SOL     OW 5452   0.325   2.918   6.567
 1518SOL    HW1 5453   0.240   2.963   6.595
 1518SOL    HW2 5454   0.308   2.864   6.485
 1519SOL     OW 5455   0.099   4.263   2.057
 1519SOL    HW1 5456   0.137   4.296   1.970
 1519SOL    HW2 5457   7.017   4.261   2.051
 1520SOL     OW 5458   1.736   3.332   2.309
 1520SOL    HW1 5459   1.782   3.351   2.222
 1520SOL    HW2 5460   1.704   3.417   2.349
 1521SOL     OW 5461   2.087   3.571   6.731
 1521SOL    HW1 5462   2.116   3.574   6.636
 1521SOL    HW2 5463   1.988   3.558   6.736
 1522SOL     OW 5464   6.894   1.590   5.283
 1522SOL    HW1 5465   6.905   1.518   5.351
 1522SOL    HW2 5466   6.841   1.665   5.322
 1523SOL     OW 5467   5.204   4.065   6.795
 1523SOL    HW1 5468   5.217   4.088   6.892
 1523SOL    HW2 5469   5.114   4.023   6.783
 1524SOL     OW 5470   0.725   2.260   1.871
 1524SOL    HW1 5471   0.819   2.239   1.898
 1524SOL    HW2 5472   0.725   2.310   1.784
 1525SOL     OW 5473   4.949   2.289   5.739
 1525SOL    HW1 5474   4.875   2.269   5.804
 1525SOL    HW2 5475   4.935   2.380   5.700
 1526SOL     OW 5476   0.705   1.304   1.285
 1526SOL    HW1 5477   0.724   1.389   1.237
 1526SOL    HW2 5478   0.766   1.232   1.252
 1527SOL     OW 5479   3.878   1.161   4.829
 1527SOL    HW1 5480   3.906   1.256   4.815
 1527SOL    HW2 5481   3.876   1.114   4.741
 1528SOL     OW 5482   4.777   5.873   3.013
 1528SOL    HW1 5483   4.799   5.966   2.981
 1528SOL    HW2 5484   4.691   5.843   2.971
 1529SOL     OW 5485   4.308   1.441   5.785
 1529SOL    HW1 5486   4.404   1.413   5.787
 1529SOL    HW2 5487   4.258   1.385   5.719
 1530SOL     OW 5488   3.010   0.471   1.112
 1530SOL    HW1 5489   2.921   0.476   1.067
 1530SOL    HW2 5490   2.997   0.461   1.211
 1531SOL     OW 5491   6.006   0.990   4.979
 1531SOL    HW1 5492   6.094   0.945   4.961
 1531SOL    HW2 5493   5.948   0.984   4.897
 1532SOL     OW 5494   2.568   2.405   4.547
 1532SOL    HW1 5495   2.529   2.347   4.475
 1532SOL    HW2 5496   2.648   2.452   4.510
 1533SOL     OW 5497   0.047   3.476   6.668
 1533SOL    HW1 5498   0.124   3.540   6.660
 1533SOL    HW2 5499   0.029   3.457   6.764
 1534SOL     OW 5500   1.502   5.115   0.164
 1534SOL    HW1 5501   1.586   5.062   0.153
 1534SOL    HW2 5502   1.463   5.134   0.074
 1535SOL     OW 5503   6.072   5.786   4.339
 1535SOL    HW1 5504   6.116   5.865   4.382
 1535SOL    HW2 5505   6.014   5.816   4.264
 1536SOL     OW 5506   3.254   5.212   4.656
 1536SOL    HW1 5507   3.208   5.181   4.739
 1536SOL    HW2 5508   3.215   5.165   4.576
 1537SOL     OW 5509   3.840   5.589   3.304
 1537SOL    HW1 5510   3.930   5.630   3.317
 1537SOL    HW2 5511   3.832   5.556   3.210
 1538SOL     OW 5512   3.361   4.897   5.779
 1538SOL    HW1 5513   3.319   4.974   5.826
 1538SOL    HW2 5514   3.457   4.888   5.807
 1539SOL     OW 5515   4.279   4.338   1.684
 1539SOL    HW1 5516   4.257   4.269   1.614
 1539SOL    HW2 5517   4.357   4.306   1.737
 1540SOL     OW 5518   0.550   6.939   5.119
 1540SOL    HW1 5519   0.472   6.995   5.146
 1540SOL    HW2 5520   0.629   6.962   5.176
 1541SOL     OW 5521   4.017   2.849   1.065
 1541SOL    HW1 5522   3.984   2.885   1.152
 1541SOL    HW2 5523   4.034   2.751   1.073
 1542SOL     OW 5524   6.943   6.220   1.838
 1542SOL    HW1 5525   6.922   6.235   1.741
 1542SOL    HW2 5526   6.911   6.299   1.891
 1543SOL     OW 5527   2.968   3.830   3.425
 1543SOL    HW1 5528   3.007   3.738   3.413
 1543SOL    HW2 5529   2.883   3.823   3.477
 1544SOL     OW 5530   3.125   4.004   2.315
 1544SOL    HW1 5531   3.076   3.918   2.298
 1544SOL    HW2 5532   3.060   4.080   2.317
 1545SOL     OW 5533   5.455   1.008   5.583
 1545SOL    HW1 5534   5.384   1.019   5.652
 1545SOL    HW2 5535   5.435   0.928   5.526
 1546SOL     OW 5536   5.041   0.221   5.901
 1546SOL    HW1 5537   4.997   0.277   5.972
 1546SOL    HW2 5538   5.076   0.137   5.942
 1547SOL     OW 5539   1.992   4.207   2.216
 1547SOL    HW1 5540   2.006   4.166   2.126
 1547SOL    HW2 5541   2.038   4.151   2.285
 1548SOL     OW 5542   4.410   4.096   5.345
 1548SOL    HW1 5543   4.458   4.008   5.339
 1548SOL    HW2 5544   4.314   4.084   5.320
 1549SOL     OW 5545   6.063   1.212   2.337
 1549SOL    HW1 5546   6.148   1.174   2.374
 1549SOL    HW2 5547   6.024   1.147   2.271
 1550SOL     OW 5548   2.914   6.603   5.886
 1550SOL    HW1 5549   2.895   6.657   5.968
 1550SOL    HW2 5550   2.871   6.647   5.807
 1551SOL     OW 5551   1.621   3.490   1.233
 1551SOL    HW1 5552   1.571   3.562   1.185
 1551SOL    HW2 5553   1.717   3.516   1.242
 1552SOL     OW 5554   0.872   6.650   1.810
 1552SOL    HW1 5555   0.826   6.738   1.824
 1552SOL    HW2 5556   0.931   6.630   1.888
 1553SOL     OW 5557   6.198   2.018   6.269
 1553SOL    HW1 5558   6.265   1.969   6.213
 1553SOL    HW2 5559   6.108   2.015   6.225
 1554SOL     OW 5560   3.579   2.047   3.022
 1554SOL    HW1 5561   3.589   2.038   2.923
 1554SOL    HW2 5562   3.669   2.055   3.065
 1555SOL     OW 5563   4.772   2.332   5.296
 1555SOL    HW1 5564   4.680   2.294   5.293
 1555SOL    HW2 5565   4.816   2.323   5.207
 1556SOL     OW 5566   4.031   0.335   0.557
 1556SOL    HW1 5567   3.931   0.332   0.559
 1556SOL    HW2 5568   4.063   0.318   0.464
 1557SOL     OW 5569   2.712   2.633   0.988
 1557SOL    HW1 5570   2.742   2.622   1.083
 1557SOL    HW2 5571   2.762   2.567   0.930
 1558SOL     OW 5572   5.793   2.418   4.677
 1558SOL    HW1 5573   5.865   2.445   4.741
 1558SOL    HW2 5574   5.722   2.367   4.726
 1559SOL     OW 5575   0.374   3.360   1.598
 1559SOL    HW1 5576   0.348   3.304   1.676
 1559SOL    HW2 5577   0.383   3.455   1.627
 1560SOL     OW 5578   3.168   1.395   6.783
 1560SOL    HW1 5579   3.194   1.474   6.727
 1560SOL    HW2 5580   3.159   1.423   6.878
 1561SOL     OW 5581   4.667   5.381   3.390
 1561SOL    HW1 5582   4.662   5.410   3.486
 1561SOL    HW2 5583   4.608   5.439   3.335
 1562SOL     OW 5584   3.478   6.272   2.307
 1562SOL    HW1 5585   3.567   6.319   2.308
 1562SOL    HW2 5586   3.493   6.173   2.313
 1563SOL     OW 5587   2.767   1.784   4.753
 1563SOL    HW1 5588   2.850   1.828   4.787
 1563SOL    HW2 5589   2.788   1.689   4.728
 1564SOL     OW 5590   1.489   1.309   2.277
 1564SOL    HW1 5591   1.518   1.394   2.321
 1564SOL    HW2 5592   1.491   1.235   2.344
 1565SOL     OW 5593   4.352   5.579   4.696
 1565SOL    HW1 5594   4.432   5.525   4.670
 1565SOL    HW2 5595   4.271   5.521   4.697
 1566SOL     OW 5596   6.200   4.829   4.243
 1566SOL    HW1 5597   6.236   4.764   4.177
 1566SOL    HW2 5598   6.178   4.915   4.197
 1567SOL     OW 5599   5.760   5.381   0.116
 1567SOL    HW1 5600   5.755   5.285   0.089
 1567SOL    HW2 5601   5.704   5.396   0.198
 1568SOL     OW 5602   2.960   5.871   3.393
 1568SOL    HW1 5603   2.976   5.884   3.491
 1568SOL    HW2 5604   2.862   5.880   3.374
 1569SOL     OW 5605   3.597   0.186   3.197
 1569SOL    HW1 5606   3.595   0.286   3.205
 1569SOL    HW2 5607   3.530   0.147   3.260
 1570SOL     OW 5608   2.473   6.512   6.449
 1570SOL    HW1 5609   2.440   6.584   6.388
 1570SOL    HW2 5610   2.567   6.488   6.423
 1571SOL     OW 5611   1.093   3.001   3.502
 1571SOL    HW1 5612   1.081   2.904   3.479
 1571SOL    HW2 5613   1.042   3.057   3.437
 1572SOL     OW 5614   1.875   5.124   2.165
 1572SOL    HW1 5615   1.870   5.087   2.072
 1572SOL    HW2 5616   1.954   5.185   2.172
 1573SOL     OW 5617   5.580   5.136   2.427
 1573SOL    HW1 5618   5.541   5.137   2.335
 1573SOL    HW2 5619   5.576   5.043   2.465
 1574SOL     OW 5620   6.080   2.842   1.982
 1574SOL    HW1 5621   6.131   2.760   1.955
 1574SOL    HW2 5622   6.138   2.900   2.040
 1575SOL     OW 5623   2.214   0.683   1.647
 1575SOL    HW1 5624   2.237   0.586   1.658
 1575SOL    HW2 5625   2.126   0.691   1.600
 1576SOL     OW 5626   1.160   6.174   2.959
 1576SOL    HW1 5627   1.241   6.136   2.914
 1576SOL    HW2 5628   1.122   6.247   2.903
 1577SOL     OW 5629   2.451   0.332   6.373
 1577SOL    HW1 5630   2.415   0.389   6.299
 1577SOL    HW2 5631   2.434   0.376   6.461
 1578SOL     OW 5632   4.616   1.020   6.492
 1578SOL    HW1 5633   4.641   0.960   6.568
 1578SOL    HW2 5634   4.696   1.071   6.461
 1579SOL     OW 5635   0.063   2.596   1.467
 1579SOL    HW1 5636   0.125   2.551   1.402
 1579SOL    HW2 5637   0.006   2.662   1.418
 1580SOL     OW 5638   3.026   3.961   2.935
 1580SOL    HW1 5639   3.077   4.037   2.894
 1580SOL    HW2 5640   3.006   3.982   3.030
 1581SOL     OW 5641   6.896   4.267   5.532
 1581SOL    HW1 5642   6.852   4.192   5.482
 1581SOL    HW2 5643   6.879   4.353   5.484
 1582SOL     OW 5644   3.413   5.854   4.648
 1582SOL    HW1 5645   3.463   5.830   4.565
 1582SOL    HW2 5646   3.392   5.770   4.699
 1583SOL     OW 5647   0.523   5.639   4.705
 1583SOL    HW1 5648   0.520   5.603   4.611
 1583SOL    HW2 5649   0.548   5.566   4.768
 1584SOL     OW 5650   2.116   4.969   6.743
 1584SOL    HW1 5651   2.079   4.888   6.788
 1584SOL    HW2 5652   2.215   4.974   6.758
 1585SOL     OW 5653   4.180   1.289   3.020
 1585SOL    HW1 5654   4.251   1.225   3.049
 1585SOL    HW2 5655   4.126   1.318   3.099
 1586SOL     OW 5656   2.977   4.847   3.334
 1586SOL    HW1 5657   3.050   4.855   3.267
 1586SOL    HW2 5658   2.999   4.901   3.415
 1587SOL     OW 5659   1.903   5.141   5.528
 1587SOL    HW1 5660   1.865   5.074   5.591
 1587SOL    HW2 5661   1.962   5.095   5.462
 1588SOL     OW 5662   4.413   0.612   2.348
 1588SOL    HW1 5663   4.359   0.644   2.426
 1588SOL    HW2 5664   4.436   0.516   2.361
 1589SOL     OW 5665   6.751   3.212   2.805
 1589SOL    HW1 5666   6.760   3.128   2.859
 1589SOL    HW2 5667   6.795   3.288   2.853
 1590SOL     OW 5668   5.340   1.142   3.456
 1590SOL    HW1 5669   5.279   1.220   3.441
 1590SOL    HW2 5670   5.337   1.115   3.552
 1591SOL     OW 5671   6.840   6.098   1.315
 1591SOL    HW1 5672   6.829   6.051   1.227
 1591SOL    HW2 5673   6.750   6.124   1.350
 1592SOL     OW 5674   1.819   4.132   6.976
 1592SOL    HW1 5675   1.866   4.068   6.916
 1592SOL    HW2 5676   1.776   4.082   0.033
 1593SOL     OW 5677   0.815   0.197   6.198
 1593SOL    HW1 5678   0.828   0.252   6.116
 1593SOL    HW2 5679   0.739   0.234   6.251
 1594SOL     OW 5680   0.404   6.257   1.655
 1594SOL    HW1 5681   0.422   6.343   1.703
 1594SOL    HW2 5682   0.349   6.197   1.713
 1595SOL     OW 5683   0.729   4.230   0.704
 1595SOL    HW1 5684   0.642   4.248   0.750
 1595SOL    HW2 5685   0.780   4.315   0.695
 1596SOL     OW 5686   6.191   2.761   2.249
 1596SOL    HW1 5687   6.113   2.760   2.312
 1596SOL    HW2 5688   6.269   2.802   2.294
 1597SOL     OW 5689   2.707   5.953   1.184
 1597SOL    HW1 5690   2.781   5.892   1.157
 1597SOL    HW2 5691   2.619   5.905   1.176
 1598SOL     OW 5692   1.234   5.414   6.439
 1598SOL    HW1 5693   1.320   5.371   6.467
 1598SOL    HW2 5694   1.158   5.371   6.487
 1599SOL     OW 5695   4.817   4.889   5.380
 1599SOL    HW1 5696   4.817   4.924   5.287
 1599SOL    HW2 5697   4.911   4.890   5.416
 1600SOL     OW 5698   2.947   1.234   2.046
 1600SOL    HW1 5699   2.930   1.300   2.119
 1600SOL    HW2 5700   3.045   1.215   2.041
 1601SOL     OW 5701   0.271   6.735   4.318
 1601SOL    HW1 5702   0.317   6.646   4.316
 1601SOL    HW2 5703   0.208   6.739   4.396
 1602SOL     OW 5704   4.581   5.444   4.600
 1602SOL    HW1 5705   4.607   5.423   4.506
 1602SOL    HW2 5706   4.660   5.435   4.660
 1603SOL     OW 5707   2.585   5.110   3.804
 1603SOL    HW1 5708   2.659   5.091   3.869
 1603SOL    HW2 5709   2.612   5.076   3.713
 1604SOL     OW 5710   3.667   5.419   1.709
 1604SOL    HW1 5711   3.568   5.429   1.702
 1604SOL    HW2 5712   3.691   5.323   1.721
 1605SOL     OW 5713   6.378   5.421   1.471
 1605SOL    HW1 5714   6.386   5.520   1.456
 1605SOL    HW2 5715   6.363   5.403   1.568
 1606SOL     OW 5716   4.078   5.409   5.289
 1606SOL    HW1 5717   4.019   5.475   5.335
 1606SOL    HW2 5718   4.064   5.318   5.328
 1607SOL     OW 5719   4.419   0.280   0.836
 1607SOL    HW1 5720   4.339   0.222   0.819
 1607SOL    HW2 5721   4.443   0.329   0.752
 1608SOL     OW 5722   7.000   0.914   2.657
 1608SOL    HW1 5723   0.024   1.005   2.665
 1608SOL    HW2 5724   6.965   0.902   2.564
 1609SOL     OW 5725   3.488   0.071   0.807
 1609SOL    HW1 5726   3.425   0.146   0.787
 1609SOL    HW2 5727   3.576   0.110   0.836
 1610SOL     OW 5728   5.022   6.225   0.923
 1610SOL    HW1 5729   5.068   6.293   0.981
 1610SOL    HW2 5730   5.068   6.137   0.933
 1611SOL     OW 5731   1.868   3.431   0.599
 1611SOL    HW1 5732   1.819   3.517   0.588
 1611SOL    HW2 5733   1.966   3.448   0.603
 1612SOL     OW 5734   3.094   6.700   1.616
 1612SOL    HW1 5735   3.050   6.612   1.634
 1612SOL    HW2 5736   3.043   6.748   1.545
 1613SOL     OW 5737   0.545   5.579   2.069
 1613SOL    HW1 5738   0.568   5.638   2.146
 1613SOL    HW2 5739   0.519   5.488   2.104
 1614SOL     OW 5740   5.701   1.998   6.095
 1614SOL    HW1 5741   5.729   2.012   6.000
 1614SOL    HW2 5742   5.624   2.058   6.117
 1615SOL     OW 5743   6.568   5.399   6.327
 1615SOL    HW1 5744   6.483   5.443   6.356
 1615SOL    HW2 5745   6.610   5.451   6.253
 1616SOL     OW 5746   4.449   0.206   3.591
 1616SOL    HW1 5747   4.438   0.158   3.504
 1616SOL    HW2 5748   4.360   0.217   3.634
 1617SOL     OW 5749   4.672   6.199   3.224
 1617SOL    HW1 5750   4.635   6.291   3.212
 1617SOL    HW2 5751   4.665   6.149   3.138
 1618SOL     OW 5752   1.410   5.835   2.344
 1618SOL    HW1 5753   1.377   5.782   2.266
 1618SOL    HW2 5754   1.510   5.831   2.347
 1619SOL     OW 5755   0.322   5.465   0.094
 1619SOL    HW1 5756   0.248   5.476   0.027
 1619SOL    HW2 5757   0.410   5.476   0.048
 1620SOL     OW 5758   3.246   4.656   1.477
 1620SOL    HW1 5759   3.283   4.620   1.391
 1620SOL    HW2 5760   3.253   4.586   1.547
 1621SOL     OW 5761   5.800   0.461   0.728
 1621SOL    HW1 5762   5.794   0.443   0.630
 1621SOL    HW2 5763   5.709   0.454   0.769
 1622SOL     OW 5764   0.934   3.462   5.299
 1622SOL    HW1 5765   0.931   3.379   5.244
 1622SOL    HW2 5766   0.842   3.502   5.305
 1623SOL     OW 5767   0.606   2.150   4.632
 1623SOL    HW1 5768   0.539   2.110   4.569
 1623SOL    HW2 5769   0.655   2.076   4.679
 1624SOL     OW 5770   4.277   1.412   6.186
 1624SOL    HW1 5771   4.192   1.449   6.149
 1624SOL    HW2 5772   4.262   1.384   6.281
 1625SOL     OW 5773   1.443   5.177   6.939
 1625SOL    HW1 5774   1.525   5.205   6.889
 1625SOL    HW2 5775   1.362   5.198   6.884
 1626SOL     OW 5776   3.429   1.658   1.400
 1626SOL    HW1 5777   3.329   1.653   1.399
 1626SOL    HW2 5778   3.457   1.752   1.422
 1627SOL     OW 5779   5.362   3.094   3.468
 1627SOL    HW1 5780   5.340   3.189   3.492
 1627SOL    HW2 5781   5.443   3.092   3.410
 1628SOL     OW 5782   4.819   5.306   0.065
 1628SOL    HW1 5783   4.808   5.327   0.162
 1628SOL    HW2 5784   4.901   5.352   0.030
 1629SOL     OW 5785   2.542   1.306   3.879
 1629SOL    HW1 5786   2.547   1.210   3.906
 1629SOL    HW2 5787   2.503   1.360   3.954
 1630SOL     OW 5788   6.906   4.388   5.197
 1630SOL    HW1 5789   6.865   4.297   5.181
 1630SOL    HW2 5790   6.836   4.450   5.231
 1631SOL     OW 5791   0.586   3.025   0.732
 1631SOL    HW1 5792   0.623   2.939   0.696
 1631SOL    HW2 5793   0.487   3.017   0.741
 1632SOL     OW 5794   5.034   3.664   2.996
 1632SOL    HW1 5795   5.021   3.565   2.997
 1632SOL    HW2 5796   5.075   3.693   3.083
 1633SOL     OW 5797   5.297   4.291   4.638
 1633SOL    HW1 5798   5.377   4.234   4.620
 1633SOL    HW2 5799   5.222   4.234   4.672
 1634SOL     OW 5800   4.629   1.028   4.246
 1634SOL    HW1 5801   4.542   1.007   4.201
 1634SOL    HW2 5802   4.694   1.063   4.179
 1635SOL     OW 5803   0.928   5.049   6.434
 1635SOL    HW1 5804   0.955   4.984   6.363
 1635SOL    HW2 5805   0.925   5.142   6.395
 1636SOL     OW 5806   3.083   5.622   1.398
 1636SOL    HW1 5807   3.000   5.677   1.394
 1636SOL    HW2 5808   3.146   5.662   1.465
 1637SOL     OW 5809   6.652   7.015   3.746
 1637SOL    HW1 5810   6.747   7.005   3.716
 1637SOL    HW2 5811   6.623   6.931   3.793
 1638SOL     OW 5812   0.981   3.366   2.032
 1638SOL    HW1 5813   0.885   3.377   2.055
 1638SOL    HW2 5814   1.010   3.273   2.054
 1639SOL     OW 5815   5.872   5.044   2.029
 1639SOL    HW1 5816   5.812   4.991   2.089
 1639SOL    HW2 5817   5.931   4.982   1.979
 1640SOL     OW 5818   6.388   0.203   0.029
 1640SOL    HW1 5819   6.305   0.148   0.018
 1640SOL    HW2 5820   6.455   0.152   0.084
 1641SOL     OW 5821   6.999   2.724   3.345
 1641SOL    HW1 5822   6.986   2.640   3.398
 1641SOL    HW2 5823   0.075   2.757   3.357
 1642SOL     OW 5824   6.735   3.218   6.388
 1642SOL    HW1 5825   6.639   3.206   6.363
 1642SOL    HW2 5826   6.745   3.301   6.443
 1643SOL     OW 5827   2.528   4.644   3.108
 1643SOL    HW1 5828   2.491   4.697   3.032
 1643SOL    HW2 5829   2.612   4.687   3.141
 1644SOL     OW 5830   5.479   3.107   6.652
 1644SOL    HW1 5831   5.484   3.205   6.631
 1644SOL    HW2 5832   5.441   3.058   6.574
 1645SOL     OW 5833   3.149   6.566   6.125
 1645SOL    HW1 5834   3.077   6.632   6.146
 1645SOL    HW2 5835   3.120   6.507   6.049
 1646SOL     OW 5836   1.975   6.472   0.151
 1646SOL    HW1 5837   2.049   6.484   0.218
 1646SOL    HW2 5838   1.890   6.451   0.199
 1647SOL     OW 5839   6.159   2.244   4.119
 1647SOL    HW1 5840   6.129   2.314   4.183
 1647SOL    HW2 5841   6.080   2.211   4.067
 1648SOL     OW 5842   5.589   6.625   0.419
 1648SOL    HW1 5843   5.608   6.635   0.517
 1648SOL    HW2 5844   5.620   6.535   0.389
 1649SOL     OW 5845   3.801   1.346   4.574
 1649SOL    HW1 5846   3.777   1.320   4.668
 1649SOL    HW2 5847   3.718   1.352   4.519
 1650SOL     OW 5848   1.098   5.712   5.124
 1650SOL    HW1 5849   1.118   5.801   5.084
 1650SOL    HW2 5850   1.135   5.640   5.065
 1651SOL     OW 5851   0.364   2.041   2.743
 1651SOL    HW1 5852   0.441   2.009   2.799
 1651SOL    HW2 5853   0.396   2.109   2.678
 1652SOL     OW 5854   1.517   3.762   2.421
 1652SOL    HW1 5855   1.514   3.800   2.328
 1652SOL    HW2 5856   1.492   3.832   2.487
 1653SOL     OW 5857   0.254   5.988   1.484
 1653SOL    HW1 5858   0.260   6.017   1.579
 1653SOL    HW2 5859   0.345   5.993   1.441
 1654SOL     OW 5860   0.015   3.271   1.270
 1654SOL    HW1 5861   6.942   3.313   1.270
 1654SOL    HW2 5862   0.073   3.317   1.338
 1655SOL     OW 5863   6.619   1.504   3.818
 1655SOL    HW1 5864   6.566   1.421   3.803
 1655SOL    HW2 5865   6.659   1.502   3.909
 1656SOL     OW 5866   2.062   5.326   3.057
 1656SOL    HW1 5867   1.999   5.311   3.133
 1656SOL    HW2 5868   2.150   5.355   3.093
 1657SOL     OW 5869   6.026   0.298   4.457
 1657SOL    HW1 5870   6.032   0.389   4.416
 1657SOL    HW2 5871   6.110   0.277   4.506
 1658SOL     OW 5872   6.521   0.509   0.962
 1658SOL    HW1 5873   6.586   0.575   0.924
 1658SOL    HW2 5874   6.561   0.464   1.042
 1659SOL     OW 5875   3.538   6.936   0.004
 1659SOL    HW1 5876   3.444   6.965   0.021
 1659SOL    HW2 5877   3.547   6.906   6.927
 1660SOL     OW 5878   1.952   6.526   2.822
 1660SOL    HW1 5879   1.876   6.481   2.869
 1660SOL    HW2 5880   2.030   6.464   2.817
 1661SOL     OW 5881   2.533   5.798   1.687
 1661SOL    HW1 5882   2.537   5.795   1.787
 1661SOL    HW2 5883   2.487   5.716   1.653
 1662SOL     OW 5884   6.798   0.546   4.409
 1662SOL    HW1 5885   6.852   0.475   4.364
 1662SOL    HW2 5886   6.723   0.574   4.350
 1663SOL     OW 5887   4.625   5.416   3.057
 1663SOL    HW1 5888   4.574   5.335   3.089
 1663SOL    HW2 5889   4.613   5.491   3.122
 1664SOL     OW 5890   2.000   5.876   5.734
 1664SOL    HW1 5891   2.049   5.884   5.647
 1664SOL    HW2 5892   2.067   5.865   5.808
 1665SOL     OW 5893   6.913   3.538   1.563
 1665SOL    HW1 5894   6.945   3.489   1.644
 1665SOL    HW2 5895   6.990   3.551   1.500
 1666SOL     OW 5896   5.601   0.015   0.237
 1666SOL    HW1 5897   5.602   6.986   0.326
 1666SOL    HW2 5898   5.552   0.102   0.246
 1667SOL     OW 5899   6.863   5.941   1.845
 1667SOL    HW1 5900   6.928   6.016   1.843
 1667SOL    HW2 5901   6.911   5.854   1.833
 1668SOL     OW 5902   4.784   4.936   3.547
 1668SOL    HW1 5903   4.703   4.955   3.602
 1668SOL    HW2 5904   4.831   4.854   3.581
 1669SOL     OW 5905   6.807   4.396   5.929
 1669SOL    HW1 5906   6.895   4.397   5.977
 1669SOL    HW2 5907   6.795   4.307   5.886
 1670SOL     OW 5908   0.482   4.479   5.069
 1670SOL    HW1 5909   0.556   4.413   5.059
 1670SOL    HW2 5910   0.438   4.495   4.981
 1671SOL     OW 5911   5.723   1.032   3.072
 1671SOL    HW1 5912   5.813   1.077   3.071
 1671SOL    HW2 5913   5.665   1.077   3.140
 1672SOL     OW 5914   2.298   4.326   6.596
 1672SOL    HW1 5915   2.349   4.299   6.514
 1672SOL    HW2 5916   2.225   4.260   6.613
 1673SOL     OW 5917   1.069   1.496   4.706
 1673SOL    HW1 5918   1.149   1.469   4.653
 1673SOL    HW2 5919   1.080   1.465   4.800
 1674SOL     OW 5920   0.407   3.524   2.324
 1674SOL    HW1 5921   0.382   3.439   2.277
 1674SOL    HW2 5922   0.324   3.575   2.346
 1675SOL     OW 5923   5.037   0.122   0.237
 1675SOL    HW1 5924   5.030   0.078   0.327
 1675SOL    HW2 5925   5.017   0.219   0.246
 1676SOL     OW 5926   2.086   2.479   1.882
 1676SOL    HW1 5927   2.093   2.412   1.955
 1676SOL    HW2 5928   2.174   2.523   1.868
 1677SOL     OW 5929   4.101   3.825   3.398
 1677SOL    HW1 5930   4.069   3.831   3.493
 1677SOL    HW2 5931   4.197   3.798   3.397
 1678SOL     OW 5932   7.001   5.354   2.019
 1678SOL    HW1 5933   6.967   5.378   1.929
 1678SOL    HW2 5934   0.051   5.422   2.049
 1679SOL     OW 5935   1.690   1.196   4.872
 1679SOL    HW1 5936   1.726   1.134   4.941
 1679SOL    HW2 5937   1.763   1.259   4.843
 1680SOL     OW 5938   6.590   3.951   5.589
 1680SOL    HW1 5939   6.523   3.911   5.526
 1680SOL    HW2 5940   6.546   4.023   5.642
 1681SOL     OW 5941   1.615   6.093   5.559
 1681SOL    HW1 5942   1.687   6.159   5.580
 1681SOL    HW2 5943   1.577   6.056   5.644
 1682SOL     OW 5944   2.068   0.687   5.467
 1682SOL    HW1 5945   2.076   0.726   5.558
 1682SOL    HW2 5946   2.152   0.637   5.445
 1683SOL     OW 5947   6.107   5.329   2.865
 1683SOL    HW1 5948   6.140   5.372   2.950
 1683SOL    HW2 5949   6.172   5.347   2.791
 1684SOL     OW 5950   0.199   5.523   2.119
 1684SOL    HW1 5951   0.207   5.527   2.218
 1684SOL    HW2 5952   0.242   5.603   2.078
 1685SOL     OW 5953   2.341   1.377   5.788
 1685SOL    HW1 5954   2.358   1.471   5.815
 1685SOL    HW2 5955   2.428   1.327   5.785
 1686SOL     OW 5956   3.233   6.049   4.231
 1686SOL    HW1 5957   3.174   5.996   4.171
 1686SOL    HW2 5958   3.220   6.018   4.326
 1687SOL     OW 5959   0.476   2.918   1.986
 1687SOL    HW1 5960   0.471   2.818   1.990
 1687SOL    HW2 5961   0.493   2.947   1.892
 1688SOL     OW 5962   1.625   1.414   3.929
 1688SOL    HW1 5963   1.590   1.492   3.877
 1688SOL    HW2 5964   1.723   1.426   3.945
 1689SOL     OW 5965   6.490   0.617   2.188
 1689SOL    HW1 5966   6.533   0.594   2.275
 1689SOL    HW2 5967   6.400   0.656   2.205
 1690SOL     OW 5968   1.379   3.314   4.840
 1690SOL    HW1 5969   1.454   3.251   4.820
 1690SOL    HW2 5970   1.370   3.324   4.939
 1691SOL     OW 5971   5.596   3.268   4.039
 1691SOL    HW1 5972   5.514   3.268   3.981
 1691SOL    HW2 5973   5.620   3.174   4.062
 1692SOL     OW 5974   4.808   6.354   1.645
 1692SOL    HW1 5975   4.854   6.274   1.605
 1692SOL    HW2 5976   4.818   6.431   1.583
 1693SOL     OW 5977   6.894   2.445   3.463
 1693SOL    HW1 5978   6.826   2.485   3.525
 1693SOL    HW2 5979   6.854   2.367   3.415
 1694SOL     OW 5980   6.215   1.573   3.707
 1694SOL    HW1 5981   6.134   1.627   3.683
 1694SOL    HW2 5982   6.213   1.551   3.804
 1695SOL     OW 5983   3.278   0.609   6.546
 1695SOL    HW1 5984   3.185   0.627   6.514
 1695SOL    HW2 5985   3.300   0.670   6.622
 1696SOL     OW 5986   3.641   6.117   0.886
 1696SOL    HW1 5987   3.673   6.112   0.792
 1696SOL    HW2 5988   3.541   6.116   0.888
 1697SOL     OW 5989   6.256   1.579   0.971
 1697SOL    HW1 5990   6.336   1.623   1.011
 1697SOL    HW2 5991   6.226   1.631   0.890
 1698SOL     OW 5992   4.214   0.877   1.327
 1698SOL    HW1 5993   4.158   0.865   1.409
 1698SOL    HW2 5994   4.176   0.951   1.271
 1699SOL     OW 5995   1.941   1.767   5.918
 1699SOL    HW1 5996   1.980   1.677   5.938
 1699SOL    HW2 5997   1.953   1.787   5.820
 1700SOL     OW 5998   6.613   3.885   2.967
 1700SOL    HW1 5999   6.555   3.849   2.893
 1700SOL    HW2 6000   6.603   3.827   3.048
 1701SOL     OW 6001   6.124   5.822   5.312
 1701SOL    HW1 6002   6.099   5.741   5.365
 1701SOL    HW2 6003   6.121   5.902   5.371
 1702SOL     OW 6004   0.095   1.106   1.254
 1702SOL    HW1 6005   0.014   1.058   1.223
 1702SOL    HW2 6006   0.170   1.092   1.188
 1703SOL     OW 6007   3.564   1.308   6.681
 1703SOL    HW1 6008   3.473   1.268   6.684
 1703SOL    HW2 6009   3.632   1.240   6.709
 1704SOL     OW 6010   1.397   2.544   0.311
 1704SOL    HW1 6011   1.493   2.539   0.338
 1704SOL    HW2 6012   1.360   2.451   0.303
 1705SOL     OW 6013   3.470   2.465   1.726
 1705SOL    HW1 6014   3.527   2.525   1.671
 1705SOL    HW2 6015   3.529   2.408   1.784
 1706SOL     OW 6016   4.421   1.983   1.657
 1706SOL    HW1 6017   4.389   1.891   1.679
 1706SOL    HW2 6018   4.345   2.037   1.622
 1707SOL     OW 6019   4.758   2.698   2.777
 1707SOL    HW1 6020   4.762   2.737   2.685
 1707SOL    HW2 6021   4.678   2.639   2.785
 1708SOL     OW 6022   4.246   5.635   1.690
 1708SOL    HW1 6023   4.278   5.595   1.775
 1708SOL    HW2 6024   4.149   5.658   1.698
 1709SOL     OW 6025   3.177   6.803   1.848
 1709SOL    HW1 6026   3.168   6.749   1.932
 1709SOL    HW2 6027   3.130   6.755   1.774
 1710SOL     OW 6028   3.959   5.374   3.700
 1710SOL    HW1 6029   3.912   5.415   3.622
 1710SOL    HW2 6030   4.045   5.423   3.716
 1711SOL     OW 6031   2.380   5.153   4.902
 1711SOL    HW1 6032   2.387   5.058   4.873
 1711SOL    HW2 6033   2.446   5.209   4.853
 1712SOL     OW 6034   6.848   1.799   4.734
 1712SOL    HW1 6035   6.774   1.836   4.790
 1712SOL    HW2 6036   6.880   1.869   4.671
 1713SOL     OW 6037   4.251   1.407   2.608
 1713SOL    HW1 6038   4.191   1.458   2.669
 1713SOL    HW2 6039   4.329   1.371   2.659
 1714SOL     OW 6040   4.026   1.782   5.884
 1714SOL    HW1 6041   4.109   1.734   5.914
 1714SOL    HW2 6042   3.993   1.840   5.959
 1715SOL     OW 6043   2.145   5.648   3.302
 1715SOL    HW1 6044   2.115   5.620   3.394
 1715SOL    HW2 6045   2.157   5.747   3.299
 1716SOL     OW 6046   4.213   0.302   3.891
 1716SOL    HW1 6047   4.210   0.368   3.966
 1716SOL    HW2 6048   4.206   0.349   3.804
 1717SOL     OW 6049   3.243   5.552   4.447
 1717SOL    HW1 6050   3.178   5.622   4.417
 1717SOL    HW2 6051   3.248   5.551   4.547
 1718SOL     OW 6052   2.606   1.573   2.369
 1718SOL    HW1 6053   2.543   1.587   2.446
 1718SOL    HW2 6054   2.686   1.632   2.381
 1719SOL     OW 6055   2.249   3.432   1.012
 1719SOL    HW1 6056   2.231   3.488   1.093
 1719SOL    HW2 6057   2.163   3.397   0.976
 1720SOL     OW 6058   0.254   2.972   6.007
 1720SOL    HW1 6059   0.294   2.974   6.099
 1720SOL    HW2 6060   0.309   2.912   5.948
 1721SOL     OW 6061   1.580   6.898   1.205
 1721SOL    HW1 6062   1.506   6.880   1.269
 1721SOL    HW2 6063   1.594   6.819   1.146
 1722SOL     OW 6064   4.492   1.216   3.301
 1722SOL    HW1 6065   4.538   1.155   3.365
 1722SOL    HW2 6066   4.420   1.167   3.253
 1723SOL     OW 6067   4.652   2.807   0.031
 1723SOL    HW1 6068   4.687   2.833   0.121
 1723SOL    HW2 6069   4.719   2.830   6.978
 1724SOL     OW 6070   6.359   2.426   1.799
 1724SOL    HW1 6071   6.339   2.381   1.886
 1724SOL    HW2 6072   6.371   2.356   1.728
 1725SOL     OW 6073   1.967   5.134   6.887
 1725SOL    HW1 6074   1.979   5.101   6.980
 1725SOL    HW2 6075   2.021   5.078   6.824
 1726SOL     OW 6076   5.115   3.795   4.512
 1726SOL    HW1 6077   5.137   3.792   4.610
 1726SOL    HW2 6078   5.135   3.705   4.471
 1727SOL     OW 6079   3.816   3.652   3.368
 1727SOL    HW1 6080   3.845   3.723   3.433
 1727SOL    HW2 6081   3.894   3.595   3.345
 1728SOL     OW 6082   5.149   4.647   5.189
 1728SOL    HW1 6083   5.225   4.708   5.167
 1728SOL    HW2 6084   5.068   4.675   5.137
 1729SOL     OW 6085   1.465   3.666   3.037
 1729SOL    HW1 6086   1.443   3.573   3.008
 1729SOL    HW2 6087   1.434   3.732   2.969
 1730SOL     OW 6088   2.818   0.064   5.242
 1730SOL    HW1 6089   2.848   6.991   5.212
 1730SOL    HW2 6090   2.855   0.134   5.181
 1731SOL     OW 6091   6.581   4.716   3.417
 1731SOL    HW1 6092   6.528   4.801   3.422
 1731SOL    HW2 6093   6.519   4.640   3.397
 1732SOL     OW 6094   2.027   4.273   6.347
 1732SOL    HW1 6095   2.121   4.305   6.329
 1732SOL    HW2 6096   1.965   4.317   6.283
 1733SOL     OW 6097   2.226   3.968   2.060
 1733SOL    HW1 6098   2.243   3.975   2.159
 1733SOL    HW2 6099   2.293   4.022   2.010
 1734SOL     OW 6100   5.673   2.887   1.727
 1734SOL    HW1 6101   5.603   2.878   1.657
 1734SOL    HW2 6102   5.651   2.828   1.805
 1735SOL     OW 6103   4.321   5.549   6.100
 1735SOL    HW1 6104   4.389   5.617   6.071
 1735SOL    HW2 6105   4.365   5.479   6.156
 1736SOL     OW 6106   3.705   3.807   0.419
 1736SOL    HW1 6107   3.607   3.826   0.410
 1736SOL    HW2 6108   3.742   3.784   0.329
 1737SOL     OW 6109   5.149   6.980   4.511
 1737SOL    HW1 6110   5.075   6.913   4.511
 1737SOL    HW2 6111   5.188   6.986   4.419
 1738SOL     OW 6112   1.812   3.387   4.387
 1738SOL    HW1 6113   1.912   3.379   4.392
 1738SOL    HW2 6114   1.787   3.435   4.303
 1739SOL     OW 6115   6.382   0.957   4.410
 1739SOL    HW1 6116   6.341   0.939   4.321
 1739SOL    HW2 6117   6.435   1.042   4.407
 1740SOL     OW 6118   6.432   1.782   5.292
 1740SOL    HW1 6119   6.463   1.834   5.372
 1740SOL    HW2 6120   6.356   1.830   5.248
 1741SOL     OW 6121   3.044   0.889   4.091
 1741SOL    HW1 6122   3.047   0.931   4.181
 1741SOL    HW2 6123   3.131   0.841   4.074
 1742SOL     OW 6124   5.648   0.967   5.997
 1742SOL    HW1 6125   5.668   0.880   6.041
 1742SOL    HW2 6126   5.593   1.024   6.058
 1743SOL     OW 6127   0.722   1.219   2.448
 1743SOL    HW1 6128   0.778   1.155   2.395
 1743SOL    HW2 6129   0.656   1.169   2.503
 1744SOL     OW 6130   6.038   3.130   2.811
 1744SOL    HW1 6131   6.027   3.213   2.756
 1744SOL    HW2 6132   5.998   3.052   2.763
 1745SOL     OW 6133   6.029   5.977   2.143
 1745SOL    HW1 6134   6.097   5.972   2.216
 1745SOL    HW2 6135   6.073   6.008   2.058
 1746SOL     OW 6136   1.627   4.136   3.837
 1746SOL    HW1 6137   1.660   4.042   3.834
 1746SOL    HW2 6138   1.597   4.158   3.930
 1747SOL     OW 6139   3.155   1.634   2.428
 1747SOL    HW1 6140   3.095   1.688   2.486
 1747SOL    HW2 6141   3.120   1.636   2.334
 1748SOL     OW 6142   6.209   1.561   3.979
 1748SOL    HW1 6143   6.145   1.560   4.056
 1748SOL    HW2 6144   6.283   1.625   3.999
 1749SOL     OW 6145   2.520   0.048   6.858
 1749SOL    HW1 6146   2.451   0.113   6.824
 1749SOL    HW2 6147   2.480   7.008   6.929
 1750SOL     OW 6148   5.420   0.394   3.765
 1750SOL    HW1 6149   5.459   0.378   3.675
 1750SOL    HW2 6150   5.482   0.359   3.836
 1751SOL     OW 6151   5.682   1.574   4.956
 1751SOL    HW1 6152   5.774   1.533   4.958
 1751SOL    HW2 6153   5.639   1.560   5.045
 1752SOL     OW 6154   5.802   0.243   1.444
 1752SOL    HW1 6155   5.899   0.228   1.425
 1752SOL    HW2 6156   5.780   0.340   1.432
 1753SOL     OW 6157   6.767   0.751   1.702
 1753SOL    HW1 6158   6.748   0.683   1.773
 1753SOL    HW2 6159   6.768   0.706   1.613
 1754SOL     OW 6160   1.723   5.423   6.349
 1754SOL    HW1 6161   1.793   5.421   6.421
 1754SOL    HW2 6162   1.757   5.477   6.272
 1755SOL     OW 6163   6.951   5.914   6.559
 1755SOL    HW1 6164   7.016   5.838   6.558
 1755SOL    HW2 6165   6.960   5.966   6.474
 1756SOL     OW 6166   4.409   6.202   6.266
 1756SOL    HW1 6167   4.370   6.289   6.234
 1756SOL    HW2 6168   4.423   6.206   6.365
 1757SOL     OW 6169   3.631   5.475   5.265
 1757SOL    HW1 6170   3.679   5.415   5.201
 1757SOL    HW2 6171   3.584   5.547   5.215
 1758SOL     OW 6172   1.676   0.473   4.715
 1758SOL    HW1 6173   1.688   0.541   4.643
 1758SOL    HW2 6174   1.738   0.493   4.791
 1759SOL     OW 6175   1.349   6.602   5.486
 1759SOL    HW1 6176   1.434   6.585   5.436
 1759SOL    HW2 6177   1.365   6.588   5.584
 1760SOL     OW 6178   6.014   0.657   4.097
 1760SOL    HW1 6179   5.991   0.570   4.140
 1760SOL    HW2 6180   5.931   0.700   4.061
 1761SOL     OW 6181   6.797   0.588   1.432
 1761SOL    HW1 6182   6.844   0.549   1.352
 1761SOL    HW2 6183   6.706   0.619   1.405
 1762SOL     OW 6184   6.646   1.720   4.200
 1762SOL    HW1 6185   6.697   1.780   4.138
 1762SOL    HW2 6186   6.674   1.737   4.295
 1763SOL     OW 6187   1.318   4.607   4.672
 1763SOL    HW1 6188   1.398   4.560   4.634
 1763SOL    HW2 6189   1.349   4.684   4.728
 1764SOL     OW 6190   0.807   3.499   2.423
 1764SOL    HW1 6191   0.764   3.414   2.393
 1764SOL    HW2 6192   0.906   3.486   2.431
 1765SOL     OW 6193   3.542   1.705   1.137
 1765SOL    HW1 6194   3.540   1.689   1.235
 1765SOL    HW2 6195   3.635   1.731   1.110
 1766SOL     OW 6196   5.253   4.528   3.935
 1766SOL    HW1 6197   5.317   4.481   3.997
 1766SOL    HW2 6198   5.293   4.614   3.905
 1767SOL     OW 6199   1.157   4.559   3.262
 1767SOL    HW1 6200   1.250   4.521   3.263
 1767SOL    HW2 6201   1.095   4.498   3.310
 1768SOL     OW 6202   3.822   0.611   6.665
 1768SOL    HW1 6203   3.860   0.537   6.720
 1768SOL    HW2 6204   3.776   0.677   6.725
 1769SOL     OW 6205   5.647   0.736   0.213
 1769SOL    HW1 6206   5.590   0.662   0.177
 1769SOL    HW2 6207   5.649   0.731   0.313
 1770SOL     OW 6208   0.580   4.125   5.085
 1770SOL    HW1 6209   0.518   4.120   5.164
 1770SOL    HW2 6210   0.671   4.152   5.116
 1771SOL     OW 6211   1.733   4.978   0.098
 1771SOL    HW1 6212   1.791   5.059   0.105
 1771SOL    HW2 6213   1.723   4.953   0.001
 1772SOL     OW 6214   3.894   5.226   4.241
 1772SOL    HW1 6215   3.939   5.256   4.157
 1772SOL    HW2 6216   3.920   5.131   4.261
 1773SOL     OW 6217   1.121   2.225   5.580
 1773SOL    HW1 6218   1.058   2.168   5.528
 1773SOL    HW2 6219   1.207   2.235   5.530
 1774SOL     OW 6220   5.436   6.423   2.061
 1774SOL    HW1 6221   5.478   6.496   2.116
 1774SOL    HW2 6222   5.363   6.379   2.114
 1775SOL     OW 6223   1.963   5.757   6.618
 1775SOL    HW1 6224   2.004   5.802   6.697
 1775SOL    HW2 6225   1.988   5.660   6.619
 1776SOL     OW 6226   5.102   0.811   5.799
 1776SOL    HW1 6227   5.151   0.888   5.757
 1776SOL    HW2 6228   5.004   0.822   5.786
 1777SOL     OW 6229   3.577   6.907   6.511
 1777SOL    HW1 6230   3.618   6.818   6.491
 1777SOL    HW2 6231   3.647   6.978   6.503
 1778SOL     OW 6232   4.605   1.374   4.686
 1778SOL    HW1 6233   4.617   1.301   4.753
 1778SOL    HW2 6234   4.673   1.445   4.700
 1779SOL     OW 6235   4.895   0.074   5.711
 1779SOL    HW1 6236   4.803   0.037   5.724
 1779SOL    HW2 6237   4.915   0.138   5.785
 1780SOL     OW 6238   1.558   3.890   4.676
 1780SOL    HW1 6239   1.557   3.988   4.659
 1780SOL    HW2 6240   1.554   3.872   4.774
 1781SOL     OW 6241   5.221   0.008   5.251
 1781SOL    HW1 6242   5.289   0.077   5.277
 1781SOL    HW2 6243   5.176   0.036   5.167
 1782SOL     OW 6244   2.262   1.498   2.788
 1782SOL    HW1 6245   2.299   1.549   2.866
 1782SOL    HW2 6246   2.219   1.414   2.821
 1783SOL     OW 6247   2.211   3.649   6.095
 1783SOL    HW1 6248   2.290   3.697   6.133
 1783SOL    HW2 6249   2.212   3.554   6.125
 1784SOL     OW 6250   2.774   1.341   1.873
 1784SOL    HW1 6251   2.825   1.307   1.952
 1784SOL    HW2 6252   2.826   1.323   1.790
 1785SOL     OW 6253   6.976   6.825   4.261
 1785SOL    HW1 6254   0.046   6.833   4.310
 1785SOL    HW2 6255   6.927   6.745   4.295
 1786SOL     OW 6256   1.887   5.459   0.480
 1786SOL    HW1 6257   1.952   5.446   0.555
 1786SOL    HW2 6258   1.855   5.553   0.480
 1787SOL     OW 6259   2.039   2.036   5.872
 1787SOL    HW1 6260   2.032   1.944   5.910
 1787SOL    HW2 6261   2.100   2.035   5.793
 1788SOL     OW 6262   4.692   3.427   0.329
 1788SOL    HW1 6263   4.630   3.432   0.408
 1788SOL    HW2 6264   4.758   3.502   0.334
 1789SOL     OW 6265   6.281   2.958   1.723
 1789SOL    HW1 6266   6.352   2.908   1.774
 1789SOL    HW2 6267   6.214   2.995   1.787
 1790SOL     OW 6268   3.071   1.171   4.270
 1790SOL    HW1 6269   3.103   1.185   4.177
 1790SOL    HW2 6270   3.139   1.207   4.334
 1791SOL     OW 6271   6.132   0.992   3.402
 1791SOL    HW1 6272   6.178   0.978   3.489
 1791SOL    HW2 6273   6.061   1.062   3.411
 1792SOL     OW 6274   6.922   2.004   4.578
 1792SOL    HW1 6275   6.909   2.014   4.480
 1792SOL    HW2 6276   6.889   2.086   4.625
 1793SOL     OW 6277   6.164   1.408   4.426
 1793SOL    HW1 6278   6.085   1.383   4.369
 1793SOL    HW2 6279   6.221   1.473   4.376
 1794SOL     OW 6280   5.732   0.012   6.133
 1794SOL    HW1 6281   5.796   0.088   6.120
 1794SOL    HW2 6282   5.670   0.007   6.056
 1795SOL     OW 6283   6.037   5.160   1.349
 1795SOL    HW1 6284   6.108   5.212   1.302
 1795SOL    HW2 6285   6.052   5.165   1.447
 1796SOL     OW 6286   1.942   1.248   5.507
 1796SOL    HW1 6287   1.981   1.252   5.599
 1796SOL    HW2 6288   1.842   1.251   5.513
 1797SOL     OW 6289   1.237   0.191   5.360
 1797SOL    HW1 6290   1.212   0.117   5.298
 1797SOL    HW2 6291   1.229   0.279   5.312
 1798SOL     OW 6292   3.371   2.999   4.503
 1798SOL    HW1 6293   3.294   3.003   4.567
 1798SOL    HW2 6294   3.443   2.942   4.541
 1799SOL     OW 6295   4.645   2.534   6.647
 1799SOL    HW1 6296   4.572   2.475   6.613
 1799SOL    HW2 6297   4.610   2.626   6.663
 1800SOL     OW 6298   5.243   4.459   3.556
 1800SOL    HW1 6299   5.281   4.551   3.545
 1800SOL    HW2 6300   5.265   4.404   3.476
 1801SOL     OW 6301   0.755   2.038   2.123
 1801SOL    HW1 6302   0.754   2.138   2.121
 1801SOL    HW2 6303   0.820   2.003   2.056
 1802SOL     OW 6304   6.451   5.771   3.427
 1802SOL    HW1 6305   6.365   5.724   3.449
 1802SOL    HW2 6306   6.468   5.766   3.329
 1803SOL     OW 6307   0.321   6.580   2.930
 1803SOL    HW1 6308   0.253   6.652   2.925
 1803SOL    HW2 6309   0.412   6.617   2.910
 1804SOL     OW 6310   3.182   3.262   5.636
 1804SOL    HW1 6311   3.091   3.297   5.658
 1804SOL    HW2 6312   3.230   3.239   5.721
 1805SOL     OW 6313   1.118   5.430   6.206
 1805SOL    HW1 6314   1.119   5.519   6.160
 1805SOL    HW2 6315   1.176   5.434   6.287
 1806SOL     OW 6316   0.024   2.574   2.396
 1806SOL    HW1 6317   0.117   2.574   2.434
 1806SOL    HW2 6318   6.981   2.626   2.456
 1807SOL     OW 6319   6.145   3.840   0.111
 1807SOL    HW1 6320   6.090   3.880   0.038
 1807SOL    HW2 6321   6.085   3.807   0.184
 1808SOL     OW 6322   5.737   3.464   4.330
 1808SOL    HW1 6323   5.648   3.464   4.284
 1808SOL    HW2 6324   5.724   3.451   4.428
 1809SOL     OW 6325   2.906   1.472   5.298
 1809SOL    HW1 6326   2.852   1.486   5.381
 1809SOL    HW2 6327   2.889   1.379   5.264
 1810SOL     OW 6328   6.990   1.067   4.795
 1810SOL    HW1 6329   6.983   1.112   4.884
 1810SOL    HW2 6330   6.906   1.015   4.777
 1811SOL     OW 6331   4.837   4.743   1.709
 1811SOL    HW1 6332   4.860   4.709   1.800
 1811SOL    HW2 6333   4.749   4.706   1.680
 1812SOL     OW 6334   4.339   0.022   6.083
 1812SOL    HW1 6335   4.430   0.061   6.070
 1812SOL    HW2 6336   4.273   0.069   6.025
 1813SOL     OW 6337   4.650   4.334   2.254
 1813SOL    HW1 6338   4.595   4.326   2.171
 1813SOL    HW2 6339   4.605   4.396   2.318
 1814SOL     OW 6340   6.388   6.848   0.264
 1814SOL    HW1 6341   6.361   6.752   0.268
 1814SOL    HW2 6342   6.485   6.857   0.289
 1815SOL     OW 6343   5.629   5.963   2.710
 1815SOL    HW1 6344   5.662   6.043   2.660
 1815SOL    HW2 6345   5.705   5.918   2.756
 1816SOL     OW 6346   3.852   5.794   5.905
 1816SOL    HW1 6347   3.777   5.803   5.971
 1816SOL    HW2 6348   3.881   5.885   5.874
 1817SOL     OW 6349   3.247   1.413   2.894
 1817SOL    HW1 6350   3.255   1.411   2.795
 1817SOL    HW2 6351   3.248   1.508   2.926
 1818SOL     OW 6352   2.017   6.511   0.523
 1818SOL    HW1 6353   1.930   6.558   0.514
 1818SOL    HW2 6354   2.041   6.468   0.436
 1819SOL     OW 6355   1.810   5.115   1.899
 1819SOL    HW1 6356   1.716   5.081   1.903
 1819SOL    HW2 6357   1.861   5.061   1.832
 1820SOL     OW 6358   3.960   0.715   3.094
 1820SOL    HW1 6359   4.034   0.716   3.026
 1820SOL    HW2 6360   3.909   0.630   3.087
 1821SOL     OW 6361   3.794   1.352   1.554
 1821SOL    HW1 6362   3.788   1.273   1.493
 1821SOL    HW2 6363   3.724   1.345   1.625
 1822SOL     OW 6364   1.372   3.473   1.919
 1822SOL    HW1 6365   1.420   3.543   1.971
 1822SOL    HW2 6366   1.345   3.510   1.830
 1823SOL     OW 6367   3.220   6.261   3.015
 1823SOL    HW1 6368   3.223   6.322   3.094
 1823SOL    HW2 6369   3.287   6.188   3.026
 1824SOL     OW 6370   3.414   3.979   0.595
 1824SOL    HW1 6371   3.491   3.988   0.659
 1824SOL    HW2 6372   3.351   4.056   0.607
 1825SOL     OW 6373   6.983   3.372   5.125
 1825SOL    HW1 6374   6.980   3.281   5.085
 1825SOL    HW2 6375   6.970   3.365   5.224
 1826SOL     OW 6376   3.823   1.288   0.749
 1826SOL    HW1 6377   3.754   1.354   0.781
 1826SOL    HW2 6378   3.914   1.328   0.758
 1827SOL     OW 6379   4.826   5.526   0.870
 1827SOL    HW1 6380   4.839   5.558   0.964
 1827SOL    HW2 6381   4.900   5.561   0.813
 1828SOL     OW 6382   1.792   3.653   6.761
 1828SOL    HW1 6383   1.752   3.644   6.670
 1828SOL    HW2 6384   1.726   3.623   6.830
 1829SOL     OW 6385   3.699   0.678   3.413
 1829SOL    HW1 6386   3.780   0.735   3.404
 1829SOL    HW2 6387   3.654   0.669   3.325
 1830SOL     OW 6388   5.773   6.688   4.946
 1830SOL    HW1 6389   5.723   6.695   4.860
 1830SOL    HW2 6390   5.728   6.621   5.005
 1831SOL     OW 6391   4.854   6.012   2.750
 1831SOL    HW1 6392   4.847   5.921   2.791
 1831SOL    HW2 6393   4.950   6.030   2.725
 1832SOL     OW 6394   3.070   3.873   0.097
 1832SOL    HW1 6395   3.157   3.919   0.078
 1832SOL    HW2 6396   2.995   3.936   0.077
 1833SOL     OW 6397   5.053   0.074   1.128
 1833SOL    HW1 6398   5.002   0.095   1.044
 1833SOL    HW2 6399   5.048   0.151   1.191
 1834SOL     OW 6400   3.137   3.237   1.397
 1834SOL    HW1 6401   3.057   3.242   1.339
 1834SOL    HW2 6402   3.189   3.154   1.376
 1835SOL     OW 6403   0.510   4.883   0.934
 1835SOL    HW1 6404   0.515   4.964   0.992
 1835SOL    HW2 6405   0.601   4.842   0.925
 1836SOL     OW 6406   5.292   1.767   2.159
 1836SOL    HW1 6407   5.320   1.839   2.095
 1836SOL    HW2 6408   5.307   1.678   2.118
 1837SOL     OW 6409   1.811   0.580   5.484
 1837SOL    HW1 6410   1.884   0.646   5.465
 1837SOL    HW2 6411   1.728   0.606   5.435
 1838SOL     OW 6412   6.577   0.548   6.600
 1838SOL    HW1 6413   6.497   0.585   6.553
 1838SOL    HW2 6414   6.657   0.557   6.541
 1839SOL     OW 6415   6.433   1.720   6.400
 1839SOL    HW1 6416   6.374   1.698   6.322
 1839SOL    HW2 6417   6.479   1.637   6.432
 1840SOL     OW 6418   3.745   0.095   2.906
 1840SOL    HW1 6419   3.675   0.135   2.966
 1840SOL    HW2 6420   3.814   0.049   2.962
 1841SOL     OW 6421   2.402   0.817   2.529
 1841SOL    HW1 6422   2.436   0.832   2.436
 1841SOL    HW2 6423   2.352   0.898   2.559
 1842SOL     OW 6424   2.011   5.102   0.148
 1842SOL    HW1 6425   1.977   5.190   0.181
 1842SOL    HW2 6426   2.070   5.061   0.218
 1843SOL     OW 6427   4.114   1.299   4.675
 1843SOL    HW1 6428   4.192   1.284   4.736
 1843SOL    HW2 6429   4.116   1.231   4.602
 1844SOL     OW 6430   4.665   1.746   5.528
 1844SOL    HW1 6431   4.734   1.728   5.599
 1844SOL    HW2 6432   4.616   1.830   5.549
 1845SOL     OW 6433   2.831   0.966   3.454
 1845SOL    HW1 6434   2.877   0.880   3.477
 1845SOL    HW2 6435   2.733   0.948   3.440
 1846SOL     OW 6436   5.251   0.833   2.932
 1846SOL    HW1 6437   5.321   0.784   2.985
 1846SOL    HW2 6438   5.256   0.804   2.836
 1847SOL     OW 6439   1.359   0.627   5.192
 1847SOL    HW1 6440   1.303   0.556   5.150
 1847SOL    HW2 6441   1.322   0.717   5.169
 1848SOL     OW 6442   1.975   6.039   4.346
 1848SOL    HW1 6443   2.014   6.011   4.258
 1848SOL    HW2 6444   1.877   6.056   4.335
 1849SOL     OW 6445   4.935   3.096   2.099
 1849SOL    HW1 6446   4.934   3.040   2.182
 1849SOL    HW2 6447   4.854   3.076   2.044
 1850SOL     OW 6448   5.405   1.468   2.386
 1850SOL    HW1 6449   5.490   1.460   2.439
 1850SOL    HW2 6450   5.385   1.565   2.370
 1851SOL     OW 6451   0.590   3.026   6.500
 1851SOL    HW1 6452   0.495   3.013   6.529
 1851SOL    HW2 6453   0.608   2.969   6.421
 1852SOL     OW 6454   6.890   4.874   1.646
 1852SOL    HW1 6455   6.900   4.906   1.552
 1852SOL    HW2 6456   6.793   4.858   1.666
 1853SOL     OW 6457   6.872   2.537   3.880
 1853SOL    HW1 6458   6.838   2.448   3.849
 1853SOL    HW2 6459   6.823   2.610   3.833
 1854SOL     OW 6460   1.338   5.401   3.551
 1854SOL    HW1 6461   1.359   5.317   3.502
 1854SOL    HW2 6462   1.292   5.379   3.637
 1855SOL     OW 6463   5.670   3.387   4.585
 1855SOL    HW1 6464   5.702   3.355   4.674
 1855SOL    HW2 6465   5.651   3.308   4.527
 1856SOL     OW 6466   4.275   3.095   6.670
 1856SOL    HW1 6467   4.234   3.178   6.634
 1856SOL    HW2 6468   4.279   3.101   6.770
 1857SOL     OW 6469   5.669   1.229   0.080
 1857SOL    HW1 6470   5.743   1.214   0.015
 1857SOL    HW2 6471   5.622   1.143   0.099
 1858SOL     OW 6472   4.957   2.412   3.878
 1858SOL    HW1 6473   4.924   2.334   3.825
 1858SOL    HW2 6474   4.948   2.391   3.976
 1859SOL     OW 6475   5.340   1.795   4.493
 1859SOL    HW1 6476   5.256   1.778   4.544
 1859SOL    HW2 6477   5.393   1.867   4.538
 1860SOL     OW 6478   0.768   1.916   5.000
 1860SOL    HW1 6479   0.719   1.913   4.913
 1860SOL    HW2 6480   0.827   1.835   5.008
 1861SOL     OW 6481   5.735   0.295   2.897
 1861SOL    HW1 6482   5.799   0.268   2.968
 1861SOL    HW2 6483   5.645   0.313   2.938
 1862SOL     OW 6484   1.419   6.868   0.137
 1862SOL    HW1 6485   1.335   6.814   0.143
 1862SOL    HW2 6486   1.406   6.956   0.184
 1863SOL     OW 6487   0.127   2.679   1.119
 1863SOL    HW1 6488   0.030   2.686   1.143
 1863SOL    HW2 6489   0.183   2.721   1.191
 1864SOL     OW 6490   2.898   5.678   4.070
 1864SOL    HW1 6491   2.824   5.742   4.050
 1864SOL    HW2 6492   2.861   5.585   4.075
 1865SOL     OW 6493   3.895   1.158   1.079
 1865SOL    HW1 6494   3.909   1.251   1.044
 1865SOL    HW2 6495   3.846   1.104   1.010
 1866SOL     OW 6496   6.366   4.210   4.250
 1866SOL    HW1 6497   6.279   4.162   4.258
 1866SOL    HW2 6498   6.367   4.264   4.166
 1867SOL     OW 6499   2.585   2.749   1.396
 1867SOL    HW1 6500   2.569   2.813   1.321
 1867SOL    HW2 6501   2.530   2.667   1.382
 1868SOL     OW 6502   4.702   4.209   5.226
 1868SOL    HW1 6503   4.754   4.135   5.267
 1868SOL    HW2 6504   4.605   4.200   5.250
 1869SOL     OW 6505   5.246   2.863   4.044
 1869SOL    HW1 6506   5.165   2.805   4.044
 1869SOL    HW2 6507   5.311   2.829   3.976
 1870SOL     OW 6508   0.443   3.110   4.789
 1870SOL    HW1 6509   0.482   3.183   4.845
 1870SOL    HW2 6510   0.345   3.103   4.807
 1871SOL     OW 6511   6.671   6.358   0.275
 1871SOL    HW1 6512   6.688   6.454   0.294
 1871SOL    HW2 6513   6.577   6.335   0.299
 1872SOL     OW 6514   3.183   2.680   0.719
 1872SOL    HW1 6515   3.276   2.678   0.681
 1872SOL    HW2 6516   3.120   2.639   0.653
 1873SOL     OW 6517   6.442   1.095   6.735
 1873SOL    HW1 6518   6.392   1.027   6.789
 1873SOL    HW2 6519   6.533   1.060   6.714
 1874SOL     OW 6520   0.918   0.831   6.575
 1874SOL    HW1 6521   0.829   0.874   6.586
 1874SOL    HW2 6522   0.986   0.901   6.554
 1875SOL     OW 6523   6.468   6.090   0.590
 1875SOL    HW1 6524   6.452   6.188   0.583
 1875SOL    HW2 6525   6.565   6.072   0.601
 1876SOL     OW 6526   5.323   6.442   6.200
 1876SOL    HW1 6527   5.259   6.492   6.258
 1876SOL    HW2 6528   5.404   6.498   6.183
 1877SOL     OW 6529   6.892   1.329   2.322
 1877SOL    HW1 6530   6.955   1.397   2.359
 1877SOL    HW2 6531   6.814   1.375   2.279
 1878SOL     OW 6532   6.821   4.321   3.341
 1878SOL    HW1 6533   6.815   4.358   3.434
 1878SOL    HW2 6534   6.763   4.375   3.280
 1879SOL     OW 6535   2.808   5.076   4.031
 1879SOL    HW1 6536   2.726   5.113   4.074
 1879SOL    HW2 6537   2.801   4.976   4.026
 1880SOL     OW 6538   0.409   2.309   3.089
 1880SOL    HW1 6539   0.507   2.320   3.107
 1880SOL    HW2 6540   0.369   2.398   3.067
 1881SOL     OW 6541   0.751   2.388   3.620
 1881SOL    HW1 6542   0.744   2.481   3.656
 1881SOL    HW2 6543   0.715   2.387   3.526
 1882SOL     OW 6544   1.157   5.911   7.009
 1882SOL    HW1 6545   1.122   5.932   6.918
 1882SOL    HW2 6546   1.149   5.992   0.050
 1883SOL     OW 6547   1.357   3.597   2.690
 1883SOL    HW1 6548   1.270   3.643   2.677
 1883SOL    HW2 6549   1.425   3.662   2.723
 1884SOL     OW 6550   5.231   0.898   1.293
 1884SOL    HW1 6551   5.316   0.933   1.331
 1884SOL    HW2 6552   5.205   0.814   1.339
 1885SOL     OW 6553   6.476   2.227   0.805
 1885SOL    HW1 6554   6.452   2.272   0.891
 1885SOL    HW2 6555   6.399   2.172   0.774
 1886SOL     OW 6556   1.573   2.197   0.194
 1886SOL    HW1 6557   1.654   2.204   0.252
 1886SOL    HW2 6558   1.508   2.133   0.235
 1887SOL     OW 6559   0.231   4.099   6.150
 1887SOL    HW1 6560   0.196   4.005   6.155
 1887SOL    HW2 6561   0.167   4.160   6.195
 1888SOL     OW 6562   2.056   1.316   5.777
 1888SOL    HW1 6563   2.058   1.226   5.822
 1888SOL    HW2 6564   2.148   1.340   5.747
 1889SOL     OW 6565   4.343   3.536   0.087
 1889SOL    HW1 6566   4.333   3.599   0.009
 1889SOL    HW2 6567   4.253   3.512   0.123
 1890SOL     OW 6568   1.504   5.854   6.416
 1890SOL    HW1 6569   1.446   5.778   6.388
 1890SOL    HW2 6570   1.502   5.926   6.346
 1891SOL     OW 6571   5.310   2.771   5.401
 1891SOL    HW1 6572   5.319   2.718   5.485
 1891SOL    HW2 6573   5.237   2.732   5.345
 1892SOL     OW 6574   4.126   6.346   1.521
 1892SOL    HW1 6575   4.130   6.396   1.607
 1892SOL    HW2 6576   4.059   6.388   1.460
 1893SOL     OW 6577   3.641   2.129   4.484
 1893SOL    HW1 6578   3.728   2.101   4.524
 1893SOL    HW2 6579   3.574   2.143   4.556
 1894SOL     OW 6580   4.407   3.696   1.657
 1894SOL    HW1 6581   4.495   3.705   1.703
 1894SOL    HW2 6582   4.415   3.732   1.563
 1895SOL     OW 6583   6.137   0.587   2.124
 1895SOL    HW1 6584   6.189   0.503   2.110
 1895SOL    HW2 6585   6.185   0.645   2.190
 1896SOL     OW 6586   6.481   1.281   3.734
 1896SOL    HW1 6587   6.408   1.236   3.786
 1896SOL    HW2 6588   6.536   1.212   3.688
 1897SOL     OW 6589   6.904   5.151   3.648
 1897SOL    HW1 6590   6.963   5.155   3.730
 1897SOL    HW2 6591   6.835   5.081   3.661
 1898SOL     OW 6592   3.862   6.239   1.251
 1898SOL    HW1 6593   3.918   6.310   1.293
 1898SOL    HW2 6594   3.822   6.273   1.167
 1899SOL     OW 6595   0.504   3.903   2.612
 1899SOL    HW1 6596   0.421   3.914   2.556
 1899SOL    HW2 6597   0.538   3.809   2.602
 1900SOL     OW 6598   1.056   0.250   6.322
 1900SOL    HW1 6599   0.977   0.198   6.289
 1900SOL    HW2 6600   1.085   0.314   6.251
 1901SOL     OW 6601   2.242   1.474   0.247
 1901SOL    HW1 6602   2.270   1.435   0.334
 1901SOL    HW2 6603   2.210   1.401   0.187
 1902SOL     OW 6604   1.233   2.706   4.575
 1902SOL    HW1 6605   1.288   2.645   4.519
 1902SOL    HW2 6606   1.143   2.718   4.533
 1903SOL     OW 6607   0.093   3.898   3.187
 1903SOL    HW1 6608   0.034   3.858   3.116
 1903SOL    HW2 6609   0.092   3.839   3.268
 1904SOL     OW 6610   6.818   6.984   4.730
 1904SOL    HW1 6611   6.911   7.011   4.754
 1904SOL    HW2 6612   6.799   7.009   4.635
 1905SOL     OW 6613   0.118   2.523   3.543
 1905SOL    HW1 6614   0.189   2.466   3.500
 1905SOL    HW2 6615   0.028   2.494   3.510
 1906SOL     OW 6616   2.737   0.109   5.503
 1906SOL    HW1 6617   2.772   0.116   5.409
 1906SOL    HW2 6618   2.661   0.044   5.505
 1907SOL     OW 6619   2.913   7.010   3.500
 1907SOL    HW1 6620   2.890   6.926   3.549
 1907SOL    HW2 6621   2.829   0.043   3.481
 1908SOL     OW 6622   4.464   1.102   5.631
 1908SOL    HW1 6623   4.430   1.061   5.546
 1908SOL    HW2 6624   4.564   1.110   5.626
 1909SOL     OW 6625   2.316   4.377   4.407
 1909SOL    HW1 6626   2.282   4.283   4.395
 1909SOL    HW2 6627   2.293   4.430   4.326
 1910SOL     OW 6628   5.648   2.960   6.280
 1910SOL    HW1 6629   5.596   3.044   6.263
 1910SOL    HW2 6630   5.586   2.882   6.276
 1911SOL     OW 6631   6.513   1.974   5.477
 1911SOL    HW1 6632   6.482   1.946   5.568
 1911SOL    HW2 6633   6.539   2.071   5.480
 1912SOL     OW 6634   3.887   6.026   2.187
 1912SOL    HW1 6635   3.814   6.025   2.254
 1912SOL    HW2 6636   3.848   6.027   2.095
 1913SOL     OW 6637   1.838   6.470   5.208
 1913SOL    HW1 6638   1.892   6.540   5.255
 1913SOL    HW2 6639   1.779   6.514   5.140
 1914SOL     OW 6640   2.347   2.100   6.287
 1914SOL    HW1 6641   2.330   2.188   6.331
 1914SOL    HW2 6642   2.338   2.027   6.354
 1915SOL     OW 6643   3.632   1.429   5.772
 1915SOL    HW1 6644   3.613   1.416   5.869
 1915SOL    HW2 6645   3.718   1.481   5.761
 1916SOL     OW 6646   4.034   5.841   0.960
 1916SOL    HW1 6647   3.971   5.865   1.034
 1916SOL    HW2 6648   3.984   5.795   0.887
 1917SOL     OW 6649   3.575   3.166   4.750
 1917SOL    HW1 6650   3.524   3.181   4.666
 1917SOL    HW2 6651   3.599   3.069   4.758
 1918SOL     OW 6652   5.808   6.705   5.908
 1918SOL    HW1 6653   5.841   6.799   5.908
 1918SOL    HW2 6654   5.714   6.702   5.943
 1919SOL     OW 6655   1.582   6.437   1.792
 1919SOL    HW1 6656   1.682   6.429   1.790
 1919SOL    HW2 6657   1.554   6.481   1.877
 1920SOL     OW 6658   0.230   4.460   3.628
 1920SOL    HW1 6659   0.311   4.494   3.675
 1920SOL    HW2 6660   0.247   4.455   3.530
 1921SOL     OW 6661   0.008   5.206   6.864
 1921SOL    HW1 6662   6.980   5.295   6.867
 1921SOL    HW2 6663   6.987   5.152   6.789
 1922SOL     OW 6664   4.067   3.270   1.344
 1922SOL    HW1 6665   4.083   3.223   1.431
 1922SOL    HW2 6666   4.118   3.356   1.343
 1923SOL     OW 6667   3.454   1.096   0.296
 1923SOL    HW1 6668   3.362   1.115   0.263
 1923SOL    HW2 6669   3.477   1.000   0.277
 1924SOL     OW 6670   5.667   4.882   2.181
 1924SOL    HW1 6671   5.569   4.888   2.164
 1924SOL    HW2 6672   5.686   4.807   2.243
 1925SOL     OW 6673   2.864   3.789   1.787
 1925SOL    HW1 6674   2.771   3.795   1.751
 1925SOL    HW2 6675   2.914   3.873   1.766
 1926SOL     OW 6676   1.565   7.013   4.795
 1926SOL    HW1 6677   1.531   6.960   4.718
 1926SOL    HW2 6678   1.644   6.967   4.835
 1927SOL     OW 6679   3.685   4.852   6.211
 1927SOL    HW1 6680   3.608   4.877   6.269
 1927SOL    HW2 6681   3.678   4.900   6.123
 1928SOL     OW 6682   6.305   3.273   5.912
 1928SOL    HW1 6683   6.276   3.183   5.946
 1928SOL    HW2 6684   6.229   3.338   5.920
 1929SOL     OW 6685   0.554   5.401   1.595
 1929SOL    HW1 6686   0.646   5.436   1.613
 1929SOL    HW2 6687   0.522   5.434   1.506
 1930SOL     OW 6688   5.515   4.394   0.027
 1930SOL    HW1 6689   5.443   4.372   0.094
 1930SOL    HW2 6690   5.486   4.365   6.954
 1931SOL     OW 6691   0.103   3.522   2.909
 1931SOL    HW1 6692   0.164   3.505   2.831
 1931SOL    HW2 6693   0.089   3.621   2.918
 1932SOL     OW 6694   5.493   3.718   2.693
 1932SOL    HW1 6695   5.555   3.718   2.615
 1932SOL    HW2 6696   5.412   3.663   2.672
 1933SOL     OW 6697   2.403   4.626   1.502
 1933SOL    HW1 6698   2.438   4.715   1.532
 1933SOL    HW2 6699   2.438   4.554   1.563
 1934SOL     OW 6700   0.622   0.083   5.537
 1934SOL    HW1 6701   0.551   0.153   5.531
 1934SOL    HW2 6702   0.656   0.078   5.631
 1935SOL     OW 6703   3.327   0.201   4.890
 1935SOL    HW1 6704   3.363   0.269   4.953
 1935SOL    HW2 6705   3.403   0.147   4.853
 1936SOL     OW 6706   5.786   5.087   4.122
 1936SOL    HW1 6707   5.781   5.050   4.215
 1936SOL    HW2 6708   5.753   5.018   4.058
 1937SOL     OW 6709   3.819   0.018   1.890
 1937SOL    HW1 6710   3.842   0.105   1.932
 1937SOL    HW2 6711   3.788   6.972   1.961
 1938SOL     OW 6712   4.472   1.332   2.743
 1938SOL    HW1 6713   4.539   1.263   2.719
 1938SOL    HW2 6714   4.500   1.378   2.828
 1939SOL     OW 6715   0.590   6.808   4.179
 1939SOL    HW1 6716   0.607   6.792   4.276
 1939SOL    HW2 6717   0.492   6.823   4.165
 1940SOL     OW 6718   5.134   5.481   6.068
 1940SOL    HW1 6719   5.120   5.580   6.074
 1940SOL    HW2 6720   5.108   5.450   5.976
 1941SOL     OW 6721   6.889   3.783   3.008
 1941SOL    HW1 6722   6.862   3.879   3.015
 1941SOL    HW2 6723   6.829   3.735   2.944
 1942SOL     OW 6724   6.510   6.885   2.476
 1942SOL    HW1 6725   6.489   6.983   2.474
 1942SOL    HW2 6726   6.521   6.855   2.570
 1943SOL     OW 6727   3.002   6.056   2.175
 1943SOL    HW1 6728   2.907   6.036   2.149
 1943SOL    HW2 6729   3.009   6.152   2.203
 1944SOL     OW 6730   4.879   2.259   6.173
 1944SOL    HW1 6731   4.889   2.339   6.114
 1944SOL    HW2 6732   4.871   2.289   6.268
 1945SOL     OW 6733   4.219   5.455   2.825
 1945SOL    HW1 6734   4.251   5.468   2.918
 1945SOL    HW2 6735   4.297   5.459   2.762
 1946SOL     OW 6736   0.405   0.749   0.105
 1946SOL    HW1 6737   0.320   0.701   0.126
 1946SOL    HW2 6738   0.390   0.812   0.029
 1947SOL     OW 6739   5.471   6.525   4.018
 1947SOL    HW1 6740   5.501   6.612   3.979
 1947SOL    HW2 6741   5.435   6.467   3.945
 1948SOL     OW 6742   6.748   5.625   3.714
 1948SOL    HW1 6743   6.783   5.574   3.636
 1948SOL    HW2 6744   6.790   5.591   3.798
 1949SOL     OW 6745   4.383   4.381   5.754
 1949SOL    HW1 6746   4.433   4.459   5.718
 1949SOL    HW2 6747   4.418   4.297   5.712
 1950SOL     OW 6748   3.887   3.862   1.022
 1950SOL    HW1 6749   3.866   3.960   1.022
 1950SOL    HW2 6750   3.958   3.843   0.955
 1951SOL     OW 6751   6.528   3.082   0.351
 1951SOL    HW1 6752   6.605   3.136   0.317
 1951SOL    HW2 6753   6.536   2.988   0.317
 1952SOL     OW 6754   3.556   2.145   6.845
 1952SOL    HW1 6755   3.587   2.148   6.750
 1952SOL    HW2 6756   3.537   2.238   6.877
 1953SOL     OW 6757   6.304   2.355   6.440
 1953SOL    HW1 6758   6.278   2.262   6.466
 1953SOL    HW2 6759   6.285   2.368   6.342
 1954SOL     OW 6760   5.656   1.350   4.409
 1954SOL    HW1 6761   5.660   1.449   4.415
 1954SOL    HW2 6762   5.734   1.316   4.357
 1955SOL     OW 6763   1.260   0.142   2.187
 1955SOL    HW1 6764   1.241   0.045   2.200
 1955SOL    HW2 6765   1.204   0.195   2.251
 1956SOL     OW 6766   5.940   6.403   2.540
 1956SOL    HW1 6767   5.903   6.457   2.465
 1956SOL    HW2 6768   6.015   6.453   2.584
 1957SOL     OW 6769   6.460   4.592   4.775
 1957SOL    HW1 6770   6.442   4.624   4.867
 1957SOL    HW2 6771   6.406   4.510   4.757
 1958SOL     OW 6772   6.267   2.660   3.962
 1958SOL    HW1 6773   6.317   2.600   3.899
 1958SOL    HW2 6774   6.170   2.641   3.957
 1959SOL     OW 6775   0.036   2.074   6.154
 1959SOL    HW1 6776   6.972   2.110   6.199
 1959SOL    HW2 6777   0.116   2.090   6.212
 1960SOL     OW 6778   6.168   4.791   1.077
 1960SOL    HW1 6779   6.158   4.887   1.102
 1960SOL    HW2 6780   6.222   4.784   0.993
 1961SOL     OW 6781   5.431   4.400   4.128
 1961SOL    HW1 6782   5.386   4.352   4.204
 1961SOL    HW2 6783   5.522   4.429   4.156
 1962SOL     OW 6784   2.392   6.235   2.572
 1962SOL    HW1 6785   2.307   6.287   2.560
 1962SOL    HW2 6786   2.393   6.195   2.664
 1963SOL     OW 6787   0.818   0.997   1.445
 1963SOL    HW1 6788   0.836   0.916   1.500
 1963SOL    HW2 6789   0.823   1.079   1.502
 1964SOL     OW 6790   4.803   2.607   1.627
 1964SOL    HW1 6791   4.823   2.511   1.646
 1964SOL    HW2 6792   4.767   2.651   1.709
 1965SOL     OW 6793   0.918   3.136   3.018
 1965SOL    HW1 6794   0.830   3.181   3.001
 1965SOL    HW2 6795   0.989   3.178   2.961
 1966SOL     OW 6796   6.807   5.344   4.920
 1966SOL    HW1 6797   6.784   5.424   4.865
 1966SOL    HW2 6798   6.739   5.332   4.993
 1967SOL     OW 6799   4.475   1.948   5.527
 1967SOL    HW1 6800   4.443   2.010   5.599
 1967SOL    HW2 6801   4.397   1.914   5.475
 1968SOL     OW 6802   2.973   6.074   0.701
 1968SOL    HW1 6803   3.007   6.163   0.670
 1968SOL    HW2 6804   2.880   6.084   0.737
 1969SOL     OW 6805   0.485   1.752   1.342
 1969SOL    HW1 6806   0.454   1.658   1.356
 1969SOL    HW2 6807   0.503   1.795   1.430
 1970SOL     OW 6808   2.422   0.992   6.387
 1970SOL    HW1 6809   2.343   0.985   6.326
 1970SOL    HW2 6810   2.494   1.045   6.342
 1971SOL     OW 6811   5.913   6.606   6.238
 1971SOL    HW1 6812   5.980   6.575   6.171
 1971SOL    HW2 6813   5.823   6.569   6.215
 1972SOL     OW 6814   6.588   2.536   3.165
 1972SOL    HW1 6815   6.571   2.439   3.181
 1972SOL    HW2 6816   6.627   2.548   3.073
 1973SOL     OW 6817   2.720   3.383   0.990
 1973SOL    HW1 6818   2.637   3.357   1.041
 1973SOL    HW2 6819   2.718   3.481   0.971
 1974SOL     OW 6820   6.327   5.637   4.232
 1974SOL    HW1 6821   6.297   5.580   4.307
 1974SOL    HW2 6822   6.296   5.731   4.246
 1975SOL     OW 6823   2.338   1.170   3.369
 1975SOL    HW1 6824   2.249   1.205   3.339
 1975SOL    HW2 6825   2.380   1.235   3.432
 1976SOL     OW 6826   0.573   5.806   6.875
 1976SOL    HW1 6827   0.478   5.782   6.893
 1976SOL    HW2 6828   0.626   5.798   6.959
 1977SOL     OW 6829   1.686   2.692   3.337
 1977SOL    HW1 6830   1.628   2.701   3.256
 1977SOL    HW2 6831   1.777   2.729   3.318
 1978SOL     OW 6832   0.844   0.426   3.884
 1978SOL    HW1 6833   0.857   0.521   3.913
 1978SOL    HW2 6834   0.791   0.424   3.799
 1979SOL     OW 6835   6.706   3.904   4.722
 1979SOL    HW1 6836   6.696   4.003   4.725
 1979SOL    HW2 6837   6.800   3.880   4.699
 1980SOL     OW 6838   3.181   1.099   6.335
 1980SOL    HW1 6839   3.252   1.122   6.268
 1980SOL    HW2 6840   3.099   1.152   6.316
 1981SOL     OW 6841   5.855   2.235   2.598
 1981SOL    HW1 6842   5.903   2.311   2.554
 1981SOL    HW2 6843   5.922   2.166   2.626
 1982SOL     OW 6844   6.789   4.180   5.768
 1982SOL    HW1 6845   6.690   4.187   5.762
 1982SOL    HW2 6846   6.829   4.198   5.678
 1983SOL     OW 6847   1.169   2.360   2.796
 1983SOL    HW1 6848   1.168   2.283   2.860
 1983SOL    HW2 6849   1.106   2.341   2.720
 1984SOL     OW 6850   5.401   0.242   5.238
 1984SOL    HW1 6851   5.481   0.189   5.212
 1984SOL    HW2 6852   5.402   0.259   5.336
 1985SOL     OW 6853   1.012   0.905   2.372
 1985SOL    HW1 6854   1.062   0.824   2.343
 1985SOL    HW2 6855   1.066   0.987   2.353
 1986SOL     OW 6856   1.145   0.507   0.404
 1986SOL    HW1 6857   1.067   0.456   0.440
 1986SOL    HW2 6858   1.177   0.572   0.473
 1987SOL     OW 6859   1.820   3.358   2.033
 1987SOL    HW1 6860   1.765   3.379   1.952
 1987SOL    HW2 6861   1.910   3.323   2.005
 1988SOL     OW 6862   4.289   4.503   0.998
 1988SOL    HW1 6863   4.371   4.530   1.048
 1988SOL    HW2 6864   4.312   4.482   0.903
 1989SOL     OW 6865   2.657   6.622   5.459
 1989SOL    HW1 6866   2.622   6.696   5.401
 1989SOL    HW2 6867   2.610   6.537   5.435
 1990SOL     OW 6868   3.410   6.902   1.261
 1990SOL    HW1 6869   3.485   6.969   1.262
 1990SOL    HW2 6870   3.393   6.870   1.354
 1991SOL     OW 6871   4.137   4.954   6.355
 1991SOL    HW1 6872   4.133   4.875   6.416
 1991SOL    HW2 6873   4.075   4.940   6.278
 1992SOL     OW 6874   1.302   0.024   6.974
 1992SOL    HW1 6875   1.368   6.975   7.010
 1992SOL    HW2 6876   1.215   0.014   0.003
 1993SOL     OW 6877   4.166   3.537   5.222
 1993SOL    HW1 6878   4.119   3.592   5.291
 1993SOL    HW2 6879   4.099   3.501   5.157
 1994SOL     OW 6880   1.665   1.853   1.063
 1994SOL    HW1 6881   1.661   1.764   1.108
 1994SOL    HW2 6882   1.760   1.882   1.055
 1995SOL     OW 6883   5.886   2.560   1.429
 1995SOL    HW1 6884   5.898   2.505   1.512
 1995SOL    HW2 6885   5.917   2.508   1.350
 1996SOL     OW 6886   3.128   3.526   0.583
 1996SOL    HW1 6887   3.110   3.624   0.574
 1996SOL    HW2 6888   3.212   3.503   0.533
 1997SOL     OW 6889   5.257   0.399   5.833
 1997SOL    HW1 6890   5.172   0.352   5.856
 1997SOL    HW2 6891   5.330   0.367   5.894
 1998SOL     OW 6892   3.082   3.710   5.879
 1998SOL    HW1 6893   3.061   3.776   5.951
 1998SOL    HW2 6894   3.128   3.757   5.803
 1999SOL     OW 6895   2.622   0.166   1.864
 1999SOL    HW1 6896   2.570   0.226   1.926
 1999SOL    HW2 6897   2.663   0.092   1.917
 2000SOL     OW 6898   3.701   1.980   5.564
 2000SOL    HW1 6899   3.711   2.015   5.656
 2000SOL    HW2 6900   3.764   2.027   5.502
 2001SOL     OW 6901   3.525   2.188   1.673
 2001SOL    HW1 6902   3.551   2.180   1.770
 2001SOL    HW2 6903   3.511   2.285   1.650
 2002SOL     OW 6904   1.080   5.709   6.094
 2002SOL    HW1 6905   1.139   5.790   6.089
 2002SOL    HW2 6906   0.997   5.732   6.144
 2003SOL     OW 6907   5.707   0.006   3.258
 2003SOL    HW1 6908   5.770   6.946   3.255
 2003SOL    HW2 6909   5.663   0.017   3.169
 2004SOL     OW 6910   5.182   1.396   5.213
 2004SOL    HW1 6911   5.268   1.362   5.175
 2004SOL    HW2 6912   5.198   1.485   5.256
 2005SOL     OW 6913   1.119   5.435   6.901
 2005SOL    HW1 6914   1.172   5.448   6.985
 2005SOL    HW2 6915   1.120   5.520   6.848
 2006SOL     OW 6916   4.939   4.362   3.885
 2006SOL    HW1 6917   4.915   4.423   3.960
 2006SOL    HW2 6918   4.880   4.281   3.887
 2007SOL     OW 6919   4.408   6.019   0.674
 2007SOL    HW1 6920   4.406   6.088   0.602
 2007SOL    HW2 6921   4.316   5.981   0.687
 2008SOL     OW 6922   1.035   5.820   2.966
 2008SOL    HW1 6923   1.021   5.839   2.869
 2008SOL    HW2 6924   1.129   5.845   2.992
 2009SOL     OW 6925   6.703   6.783   1.098
 2009SOL    HW1 6926   6.708   6.856   1.166
 2009SOL    HW2 6927   6.791   6.737   1.092
 2010SOL     OW 6928   1.200   1.042   1.010
 2010SOL    HW1 6929   1.201   1.120   0.948
 2010SOL    HW2 6930   1.125   1.052   1.075
 2011SOL     OW 6931   0.049   1.892   4.877
 2011SOL    HW1 6932   6.977   1.855   4.852
 2011SOL    HW2 6933   0.115   1.871   4.805
 2012SOL     OW 6934   0.847   3.281   1.513
 2012SOL    HW1 6935   0.943   3.292   1.485
 2012SOL    HW2 6936   0.813   3.367   1.549
 2013SOL     OW 6937   5.602   0.569   3.423
 2013SOL    HW1 6938   5.531   0.637   3.404
 2013SOL    HW2 6939   5.674   0.576   3.355
 2014SOL     OW 6940   1.657   5.202   2.991
 2014SOL    HW1 6941   1.656   5.141   3.071
 2014SOL    HW2 6942   1.573   5.258   2.992
 2015SOL     OW 6943   2.534   1.375   6.576
 2015SOL    HW1 6944   2.530   1.359   6.674
 2015SOL    HW2 6945   2.547   1.473   6.558
 2016SOL     OW 6946   1.079   5.417   5.275
 2016SOL    HW1 6947   1.071   5.363   5.191
 2016SOL    HW2 6948   1.173   5.411   5.309
 2017SOL     OW 6949   2.816   6.368   4.485
 2017SOL    HW1 6950   2.783   6.381   4.579
 2017SOL    HW2 6951   2.805   6.453   4.434
 2018SOL     OW 6952   5.679   6.421   6.208
 2018SOL    HW1 6953   5.630   6.498   6.167
 2018SOL    HW2 6954   5.621   6.378   6.278
 2019SOL     OW 6955   4.428   2.425   2.229
 2019SOL    HW1 6956   4.469   2.355   2.171
 2019SOL    HW2 6957   4.330   2.431   2.208
 2020SOL     OW 6958   1.449   5.665   5.460
 2020SOL    HW1 6959   1.479   5.744   5.406
 2020SOL    HW2 6960   1.454   5.687   5.557
 2021SOL     OW 6961   2.201   6.427   3.758
 2021SOL    HW1 6962   2.278   6.437   3.821
 2021SOL    HW2 6963   2.196   6.332   3.728
 2022SOL     OW 6964   2.065   3.660   2.393
 2022SOL    HW1 6965   2.111   3.740   2.353
 2022SOL    HW2 6966   2.068   3.666   2.492
 2023SOL     OW 6967   6.884   1.537   6.987
 2023SOL    HW1 6968   6.919   1.444   6.992
 2023SOL    HW2 6969   6.854   1.557   6.894
 2024SOL     OW 6970   6.908   0.931   2.402
 2024SOL    HW1 6971   6.959   1.013   2.377
 2024SOL    HW2 6972   6.830   0.919   2.341
 2025SOL     OW 6973   2.075   2.843   2.212
 2025SOL    HW1 6974   2.010   2.843   2.135
 2025SOL    HW2 6975   2.059   2.924   2.268
 2026SOL     OW 6976   1.731   2.288   5.860
 2026SOL    HW1 6977   1.715   2.229   5.940
 2026SOL    HW2 6978   1.817   2.263   5.817
 2027SOL     OW 6979   0.997   1.250   1.135
 2027SOL    HW1 6980   0.914   1.198   1.152
 2027SOL    HW2 6981   1.034   1.283   1.222
 2028SOL     OW 6982   3.278   1.484   6.302
 2028SOL    HW1 6983   3.358   1.531   6.341
 2028SOL    HW2 6984   3.307   1.398   6.261
 2029SOL     OW 6985   6.843   0.567   0.436
 2029SOL    HW1 6986   6.767   0.522   0.483
 2029SOL    HW2 6987   6.850   0.662   0.468
 2030SOL     OW 6988   2.868   0.551   3.693
 2030SOL    HW1 6989   2.769   0.546   3.703
 2030SOL    HW2 6990   2.896   0.497   3.614
 2031SOL     OW 6991   5.123   6.347   2.450
 2031SOL    HW1 6992   5.037   6.308   2.418
 2031SOL    HW2 6993   5.127   6.342   2.550
 2032SOL     OW 6994   3.893   6.559   1.606
 2032SOL    HW1 6995   3.813   6.592   1.556
 2032SOL    HW2 6996   3.968   6.623   1.595
 2033SOL     OW 6997   3.811   4.990   6.712
 2033SOL    HW1 6998   3.795   4.993   6.613
 2033SOL    HW2 6999   3.803   5.083   6.750
 2034SOL     OW 7000   3.393   0.040   4.370
 2034SOL    HW1 7001   3.471   0.096   4.400
 2034SOL    HW2 7002   3.326   0.034   4.444
 2035SOL     OW 7003   0.500   0.670   2.427
 2035SOL    HW1 7004   0.512   0.737   2.354
 2035SOL    HW2 7005   0.462   0.716   2.508
 2036SOL     OW 7006   0.603   6.046   3.070
 2036SOL    HW1 7007   0.699   6.039   3.042
 2036SOL    HW2 7008   0.597   6.063   3.168
 2037SOL     OW 7009   0.475   2.263   6.133
 2037SOL    HW1 7010   0.570   2.243   6.109
 2037SOL    HW2 7011   0.421   2.273   6.050
 2038SOL     OW 7012   1.376   1.646   6.581
 2038SOL    HW1 7013   1.367   1.666   6.484
 2038SOL    HW2 7014   1.359   1.729   6.635
 2039SOL     OW 7015   0.031   4.753   2.454
 2039SOL    HW1 7016   0.081   4.828   2.410
 2039SOL    HW2 7017   6.955   4.783   2.474
 2040SOL     OW 7018   3.214   2.894   5.212
 2040SOL    HW1 7019   3.211   2.795   5.221
 2040SOL    HW2 7020   3.248   2.934   5.297
 2041SOL     OW 7021   6.620   6.132   5.640
 2041SOL    HW1 7022   6.614   6.034   5.624
 2041SOL    HW2 7023   6.690   6.151   5.709
 2042SOL     OW 7024   5.439   5.377   6.910
 2042SOL    HW1 7025   5.483   5.380   6.821
 2042SOL    HW2 7026   5.402   5.285   6.926
 2043SOL     OW 7027   6.619   3.967   2.340
 2043SOL    HW1 7028   6.661   4.032   2.404
 2043SOL    HW2 7029   6.627   4.002   2.247
 2044SOL     OW 7030   4.576   0.422   2.068
 2044SOL    HW1 7031   4.620   0.355   2.008
 2044SOL    HW2 7032   4.532   0.375   2.144
 2045SOL     OW 7033   1.759   4.695   5.308
 2045SOL    HW1 7034   1.828   4.742   5.253
 2045SOL    HW2 7035   1.738   4.607   5.266
 2046SOL     OW 7036   6.393   1.142   4.008
 2046SOL    HW1 7037   6.301   1.167   3.978
 2046SOL    HW2 7038   6.432   1.215   4.064
 2047SOL     OW 7039   4.346   2.405   0.494
 2047SOL    HW1 7040   4.383   2.312   0.489
 2047SOL    HW2 7041   4.249   2.403   0.472
 2048SOL     OW 7042   1.919   5.683   0.887
 2048SOL    HW1 7043   1.826   5.646   0.879
 2048SOL    HW2 7044   1.915   5.777   0.920
 2049SOL     OW 7045   4.556   1.445   6.591
 2049SOL    HW1 7046   4.485   1.514   6.578
 2049SOL    HW2 7047   4.636   1.468   6.536
 2050SOL     OW 7048   6.090   2.329   3.142
 2050SOL    HW1 7049   6.009   2.376   3.107
 2050SOL    HW2 7050   6.071   2.293   3.234
 2051SOL     OW 7051   6.969   5.590   0.608
 2051SOL    HW1 7052   0.037   5.544   0.633
 2051SOL    HW2 7053   6.918   5.613   0.691
 2052SOL     OW 7054   6.945   4.143   0.769
 2052SOL    HW1 7055   7.000   4.198   0.832
 2052SOL    HW2 7056   6.987   4.053   0.759
 2053SOL     OW 7057   6.319   0.670   6.206
 2053SOL    HW1 7058   6.222   0.690   6.189
 2053SOL    HW2 7059   6.330   0.572   6.226
 2054SOL     OW 7060   4.616   2.793   1.467
 2054SOL    HW1 7061   4.673   2.727   1.516
 2054SOL    HW2 7062   4.549   2.833   1.530
 2055SOL     OW 7063   6.319   2.974   2.389
 2055SOL    HW1 7064   6.378   2.980   2.308
 2055SOL    HW2 7065   6.333   3.055   2.446
 2056SOL     OW 7066   2.347   1.046   3.035
 2056SOL    HW1 7067   2.422   1.076   3.094
 2056SOL    HW2 7068   2.356   0.949   3.016
 2057SOL     OW 7069   5.635   2.742   3.455
 2057SOL    HW1 7070   5.622   2.656   3.505
 2057SOL    HW2 7071   5.547   2.787   3.442
 2058SOL     OW 7072   1.224   1.773   3.142
 2058SOL    HW1 7073   1.181   1.715   3.211
 2058SOL    HW2 7074   1.222   1.868   3.172
 2059SOL     OW 7075   2.701   6.197   6.760
 2059SOL    HW1 7076   2.758   6.218   6.680
 2059SOL    HW2 7077   2.624   6.140   6.732
 2060SOL     OW 7078   6.330   4.320   0.503
 2060SOL    HW1 7079   6.336   4.390   0.574
 2060SOL    HW2 7080   6.251   4.262   0.520
 2061SOL     OW 7081   0.902   1.635   2.739
 2061SOL    HW1 7082   0.965   1.687   2.798
 2061SOL    HW2 7083   0.955   1.574   2.680
 2062SOL     OW 7084   5.902   0.462   3.639
 2062SOL    HW1 7085   5.970   0.488   3.708
 2062SOL    HW2 7086   5.929   0.497   3.550
 2063SOL     OW 7087   1.927   0.134   6.187
 2063SOL    HW1 7088   1.899   0.091   6.273
 2063SOL    HW2 7089   1.871   0.215   6.171
 2064SOL     OW 7090   1.156   1.804   5.876
 2064SOL    HW1 7091   1.171   1.746   5.796
 2064SOL    HW2 7092   1.236   1.862   5.889
 2065SOL     OW 7093   6.834   3.599   3.222
 2065SOL    HW1 7094   6.905   3.641   3.165
 2065SOL    HW2 7095   6.750   3.655   3.217
 2066SOL     OW 7096   0.435   5.760   3.501
 2066SOL    HW1 7097   0.384   5.810   3.572
 2066SOL    HW2 7098   0.533   5.772   3.516
 2067SOL     OW 7099   6.655   5.669   0.659
 2067SOL    HW1 7100   6.574   5.723   0.683
 2067SOL    HW2 7101   6.727   5.730   0.625
 2068SOL     OW 7102   1.482   1.869   5.181
 2068SOL    HW1 7103   1.491   1.820   5.267
 2068SOL    HW2 7104   1.403   1.930   5.185
 2069SOL     OW 7105   0.789   3.080   3.477
 2069SOL    HW1 7106   0.713   3.141   3.498
 2069SOL    HW2 7107   0.789   3.004   3.542
 2070SOL     OW 7108   1.300   0.629   2.633
 2070SOL    HW1 7109   1.261   0.715   2.668
 2070SOL    HW2 7110   1.260   0.609   2.543
 2071SOL     OW 7111   6.755   6.022   5.208
 2071SOL    HW1 7112   6.709   5.933   5.205
 2071SOL    HW2 7113   6.709   6.085   5.145
 2072SOL     OW 7114   4.111   6.633   2.221
 2072SOL    HW1 7115   4.202   6.667   2.247
 2072SOL    HW2 7116   4.071   6.583   2.297
 2073SOL     OW 7117   3.861   0.238   4.340
 2073SOL    HW1 7118   3.924   0.295   4.393
 2073SOL    HW2 7119   3.906   0.205   4.258
 2074SOL     OW 7120   1.340   3.376   0.757
 2074SOL    HW1 7121   1.268   3.369   0.826
 2074SOL    HW2 7122   1.301   3.363   0.666
 2075SOL     OW 7123   5.020   3.059   1.419
 2075SOL    HW1 7124   4.998   2.961   1.423
 2075SOL    HW2 7125   5.045   3.083   1.325
 2076SOL     OW 7126   4.708   0.076   6.840
 2076SOL    HW1 7127   4.691   7.014   6.781
 2076SOL    HW2 7128   4.621   0.109   6.878
 2077SOL     OW 7129   5.182   2.145   2.832
 2077SOL    HW1 7130   5.112   2.216   2.824
 2077SOL    HW2 7131   5.269   2.180   2.799
 2078SOL     OW 7132   1.473   6.340   6.389
 2078SOL    HW1 7133   1.528   6.258   6.373
 2078SOL    HW2 7134   1.399   6.319   6.453
 2079SOL     OW 7135   5.876   1.691   3.258
 2079SOL    HW1 7136   5.776   1.683   3.268
 2079SOL    HW2 7137   5.921   1.649   3.336
 2080SOL     OW 7138   1.267   0.651   4.489
 2080SOL    HW1 7139   1.266   0.577   4.556
 2080SOL    HW2 7140   1.356   0.696   4.489
 2081SOL     OW 7141   2.286   5.473   4.595
 2081SOL    HW1 7142   2.256   5.380   4.617
 2081SOL    HW2 7143   2.360   5.500   4.658
 2082SOL     OW 7144   6.858   6.949   3.398
 2082SOL    HW1 7145   6.879   0.023   3.364
 2082SOL    HW2 7146   6.783   6.910   3.346
 2083SOL     OW 7147   5.071   4.791   6.675
 2083SOL    HW1 7148   5.094   4.878   6.718
 2083SOL    HW2 7149   5.079   4.799   6.575
 2084SOL     OW 7150   0.247   4.183   4.640
 2084SOL    HW1 7151   0.304   4.173   4.721
 2084SOL    HW2 7152   0.192   4.266   4.649
 2085SOL     OW 7153   4.702   0.883   6.720
 2085SOL    HW1 7154   4.762   0.807   6.746
 2085SOL    HW2 7155   4.729   0.965   6.769
 2086SOL     OW 7156   3.497   6.882   5.523
 2086SOL    HW1 7157   3.398   6.868   5.527
 2086SOL    HW2 7158   3.542   6.799   5.490
 2087SOL     OW 7159   5.078   6.874   1.720
 2087SOL    HW1 7160   5.123   6.889   1.632
 2087SOL    HW2 7161   5.054   6.963   1.760
 2088SOL     OW 7162   2.688   6.339   1.039
 2088SOL    HW1 7163   2.649   6.313   1.127
 2088SOL    HW2 7164   2.785   6.363   1.051
 2089SOL     OW 7165   5.411   2.263   6.400
 2089SOL    HW1 7166   5.335   2.223   6.452
 2089SOL    HW2 7167   5.378   2.344   6.351
 2090SOL     OW 7168   3.412   3.331   5.505
 2090SOL    HW1 7169   3.325   3.293   5.534
 2090SOL    HW2 7170   3.401   3.428   5.483
 2091SOL     OW 7171   6.832   5.141   0.223
 2091SOL    HW1 7172   6.855   5.055   0.176
 2091SOL    HW2 7173   6.735   5.161   0.209
 2092SOL     OW 7174   4.582   4.281   0.117
 2092SOL    HW1 7175   4.662   4.331   0.086
 2092SOL    HW2 7176   4.500   4.322   0.079
 2093SOL     OW 7177   2.738   2.462   1.703
 2093SOL    HW1 7178   2.795   2.444   1.783
 2093SOL    HW2 7179   2.775   2.540   1.653
 2094SOL     OW 7180   5.842   1.605   0.705
 2094SOL    HW1 7181   5.840   1.639   0.611
 2094SOL    HW2 7182   5.916   1.539   0.715
 2095SOL     OW 7183   5.174   0.346   5.134
 2095SOL    HW1 7184   5.255   0.327   5.191
 2095SOL    HW2 7185   5.156   0.268   5.075
 2096SOL     OW 7186   4.650   4.194   2.888
 2096SOL    HW1 7187   4.622   4.279   2.934
 2096SOL    HW2 7188   4.598   4.182   2.804
 2097SOL     OW 7189   2.047   3.216   6.733
 2097SOL    HW1 7190   2.065   3.314   6.726
 2097SOL    HW2 7191   2.098   3.178   6.811
 2098SOL     OW 7192   4.220   5.453   3.414
 2098SOL    HW1 7193   4.243   5.422   3.506
 2098SOL    HW2 7194   4.172   5.541   3.420
 2099SOL     OW 7195   2.681   3.087   5.379
 2099SOL    HW1 7196   2.769   3.049   5.349
 2099SOL    HW2 7197   2.613   3.073   5.307
 2100SOL     OW 7198   4.167   3.178   5.744
 2100SOL    HW1 7199   4.087   3.175   5.684
 2100SOL    HW2 7200   4.182   3.272   5.775
 2101SOL     OW 7201   1.787   6.108   2.876
 2101SOL    HW1 7202   1.828   6.085   2.964
 2101SOL    HW2 7203   1.771   6.024   2.824
 2102SOL     OW 7204   6.245   5.025   1.964
 2102SOL    HW1 7205   6.324   4.971   1.992
 2102SOL    HW2 7206   6.162   4.970   1.972
 2103SOL     OW 7207   3.288   3.672   6.186
 2103SOL    HW1 7208   3.223   3.659   6.111
 2103SOL    HW2 7209   3.237   3.690   6.271
 2104SOL     OW 7210   1.557   3.218   0.786
 2104SOL    HW1 7211   1.478   3.279   0.787
 2104SOL    HW2 7212   1.628   3.254   0.846
 2105SOL     OW 7213   4.811   5.846   4.786
 2105SOL    HW1 7214   4.809   5.898   4.700
 2105SOL    HW2 7215   4.905   5.829   4.813
 2106SOL     OW 7216   4.422   4.148   0.629
 2106SOL    HW1 7217   4.517   4.180   0.620
 2106SOL    HW2 7218   4.378   4.151   0.539
 2107SOL     OW 7219   5.593   2.901   5.508
 2107SOL    HW1 7220   5.572   2.804   5.502
 2107SOL    HW2 7221   5.538   2.952   5.442
 2108SOL     OW 7222   6.850   6.323   5.269
 2108SOL    HW1 7223   6.875   6.374   5.187
 2108SOL    HW2 7224   6.888   6.230   5.264
 2109SOL     OW 7225   4.095   6.512   3.088
 2109SOL    HW1 7226   4.119   6.428   3.040
 2109SOL    HW2 7227   3.996   6.526   3.084
 2110SOL     OW 7228   2.895   2.002   6.529
 2110SOL    HW1 7229   2.992   2.023   6.536
 2110SOL    HW2 7230   2.862   1.968   6.618
 2111SOL     OW 7231   1.318   2.590   0.050
 2111SOL    HW1 7232   1.401   2.621   0.005
 2111SOL    HW2 7233   1.337   2.573   0.147
 2112SOL     OW 7234   5.338   2.754   0.412
 2112SOL    HW1 7235   5.341   2.802   0.499
 2112SOL    HW2 7236   5.428   2.755   0.370
 2113SOL     OW 7237   0.822   1.297   5.312
 2113SOL    HW1 7238   0.864   1.271   5.399
 2113SOL    HW2 7239   0.761   1.224   5.282
 2114SOL     OW 7240   1.653   2.638   0.994
 2114SOL    HW1 7241   1.732   2.678   1.040
 2114SOL    HW2 7242   1.651   2.669   0.899
 2115SOL     OW 7243   2.069   3.377   2.419
 2115SOL    HW1 7244   2.059   3.355   2.322
 2115SOL    HW2 7245   2.063   3.476   2.432
 2116SOL     OW 7246   0.426   5.107   2.873
 2116SOL    HW1 7247   0.490   5.066   2.938
 2116SOL    HW2 7248   0.439   5.066   2.782
 2117SOL     OW 7249   6.465   4.810   2.005
 2117SOL    HW1 7250   6.443   4.781   2.098
 2117SOL    HW2 7251   6.449   4.734   1.942
 2118SOL     OW 7252   6.450   3.175   1.170
 2118SOL    HW1 7253   6.489   3.206   1.257
 2118SOL    HW2 7254   6.355   3.149   1.183
 2119SOL     OW 7255   2.429   5.851   1.165
 2119SOL    HW1 7256   2.357   5.906   1.207
 2119SOL    HW2 7257   2.389   5.771   1.121
 2120SOL     OW 7258   0.285   5.113   4.066
 2120SOL    HW1 7259   0.335   5.193   4.032
 2120SOL    HW2 7260   0.350   5.044   4.096
 2121SOL     OW 7261   0.963   3.914   5.763
 2121SOL    HW1 7262   0.930   3.949   5.851
 2121SOL    HW2 7263   0.962   3.814   5.764
 2122SOL     OW 7264   5.760   4.143   5.628
 2122SOL    HW1 7265   5.780   4.237   5.600
 2122SOL    HW2 7266   5.726   4.092   5.550
 2123SOL     OW 7267   6.622   5.653   2.009
 2123SOL    HW1 7268   6.533   5.638   1.966
 2123SOL    HW2 7269   6.693   5.606   1.956
 2124SOL     OW 7270   3.054   1.593   1.629
 2124SOL    HW1 7271   3.120   1.518   1.639
 2124SOL    HW2 7272   3.007   1.584   1.541
 2125SOL     OW 7273   1.956   0.699   1.556
 2125SOL    HW1 7274   1.898   0.726   1.633
 2125SOL    HW2 7275   1.931   0.753   1.475
 2126SOL     OW 7276   3.665   1.015   6.594
 2126SOL    HW1 7277   3.729   1.028   6.517
 2126SOL    HW2 7278   3.574   0.996   6.558
 2127SOL     OW 7279   6.467   3.231   4.056
 2127SOL    HW1 7280   6.415   3.168   3.998
 2127SOL    HW2 7281   6.561   3.197   4.065
 2128SOL     OW 7282   6.540   3.713   3.586
 2128SOL    HW1 7283   6.451   3.686   3.621
 2128SOL    HW2 7284   6.604   3.636   3.595
 2129SOL     OW 7285   4.235   3.523   5.605
 2129SOL    HW1 7286   4.325   3.486   5.627
 2129SOL    HW2 7287   4.230   3.542   5.507
 2130SOL     OW 7288   3.456   1.029   1.854
 2130SOL    HW1 7289   3.540   1.059   1.899
 2130SOL    HW2 7290   3.478   0.984   1.768
 2131SOL     OW 7291   6.668   0.137   0.376
 2131SOL    HW1 7292   6.673   0.076   0.456
 2131SOL    HW2 7293   6.596   0.205   0.392
 2132SOL     OW 7294   3.864   1.619   1.542
 2132SOL    HW1 7295   3.841   1.528   1.575
 2132SOL    HW2 7296   3.847   1.687   1.614
 2133SOL     OW 7297   2.751   3.402   6.935
 2133SOL    HW1 7298   2.680   3.422   7.002
 2133SOL    HW2 7299   2.814   3.480   6.928
 2134SOL     OW 7300   0.222   2.696   6.748
 2134SOL    HW1 7301   0.233   2.750   6.665
 2134SOL    HW2 7302   0.172   2.750   6.817
 2135SOL     OW 7303   0.049   4.178   4.021
 2135SOL    HW1 7304   0.078   4.100   4.077
 2135SOL    HW2 7305   6.968   4.172   4.005
 2136SOL     OW 7306   1.607   4.213   2.383
 2136SOL    HW1 7307   1.540   4.256   2.444
 2136SOL    HW2 7308   1.691   4.268   2.382
 2137SOL     OW 7309   2.615   5.813   5.650
 2137SOL    HW1 7310   2.701   5.791   5.605
 2137SOL    HW2 7311   2.597   5.747   5.723
 2138SOL     OW 7312   6.749   6.366   2.901
 2138SOL    HW1 7313   6.672   6.304   2.918
 2138SOL    HW2 7314   6.819   6.351   2.970
 2139SOL     OW 7315   4.841   0.824   3.636
 2139SOL    HW1 7316   4.856   0.906   3.581
 2139SOL    HW2 7317   4.743   0.803   3.640
 2140SOL     OW 7318   3.486   0.264   4.106
 2140SOL    HW1 7319   3.441   0.238   4.191
 2140SOL    HW2 7320   3.564   0.204   4.089
 2141SOL     OW 7321   6.299   3.038   2.040
 2141SOL    HW1 7322   6.232   3.055   1.968
 2141SOL    HW2 7323   6.380   3.095   2.026
 2142SOL     OW 7324   1.341   1.444   3.236
 2142SOL    HW1 7325   1.394   1.360   3.242
 2142SOL    HW2 7326   1.351   1.484   3.145
 2143SOL     OW 7327   3.146   4.851   1.271
 2143SOL    HW1 7328   3.212   4.923   1.292
 2143SOL    HW2 7329   3.190   4.779   1.217
 2144SOL     OW 7330   0.521   5.513   4.454
 2144SOL    HW1 7331   0.620   5.501   4.452
 2144SOL    HW2 7332   0.494   5.583   4.388
 2145SOL     OW 7333   4.133   6.642   4.112
 2145SOL    HW1 7334   4.083   6.691   4.041
 2145SOL    HW2 7335   4.106   6.676   4.202
 2146SOL     OW 7336   2.361   3.405   0.752
 2146SOL    HW1 7337   2.326   3.427   0.843
 2146SOL    HW2 7338   2.362   3.306   0.740
 2147SOL     OW 7339   6.351   1.632   5.789
 2147SOL    HW1 7340   6.388   1.551   5.745
 2147SOL    HW2 7341   6.345   1.617   5.888
 2148SOL     OW 7342   6.066   3.497   5.875
 2148SOL    HW1 7343   6.124   3.527   5.949
 2148SOL    HW2 7344   6.076   3.558   5.796
 2149SOL     OW 7345   2.706   1.550   0.896
 2149SOL    HW1 7346   2.749   1.521   0.810
 2149SOL    HW2 7347   2.746   1.499   0.972
 2150SOL     OW 7348   2.415   2.536   2.227
 2150SOL    HW1 7349   2.491   2.484   2.188
 2150SOL    HW2 7350   2.407   2.624   2.180
 2151SOL     OW 7351   1.806   6.777   6.048
 2151SOL    HW1 7352   1.847   6.761   6.138
 2151SOL    HW2 7353   1.760   6.694   6.018
 2152SOL     OW 7354   3.343   5.188   2.486
 2152SOL    HW1 7355   3.425   5.245   2.492
 2152SOL    HW2 7356   3.315   5.180   2.390
 2153SOL     OW 7357   4.932   1.464   2.930
 2153SOL    HW1 7358   4.962   1.436   2.839
 2153SOL    HW2 7359   5.006   1.449   2.995
 2154SOL     OW 7360   5.315   0.730   4.579
 2154SOL    HW1 7361   5.242   0.771   4.524
 2154SOL    HW2 7362   5.349   0.647   4.535
 2155SOL     OW 7363   3.808   6.689   1.269
 2155SOL    HW1 7364   3.837   6.785   1.259
 2155SOL    HW2 7365   3.755   6.680   1.354
 2156SOL     OW 7366   0.558   1.419   4.908
 2156SOL    HW1 7367   0.519   1.377   4.826
 2156SOL    HW2 7368   0.641   1.470   4.884
 2157SOL     OW 7369   6.021   0.019   2.927
 2157SOL    HW1 7370   5.990   6.942   2.938
 2157SOL    HW2 7371   6.031   0.040   2.830
 2158SOL     OW 7372   3.510   6.093   1.118
 2158SOL    HW1 7373   3.576   6.059   1.052
 2158SOL    HW2 7374   3.545   6.081   1.211
 2159SOL     OW 7375   1.352   0.531   4.840
 2159SOL    HW1 7376   1.341   0.481   4.754
 2159SOL    HW2 7377   1.383   0.624   4.821
 2160SOL     OW 7378   4.867   4.122   6.939
 2160SOL    HW1 7379   4.881   4.063   6.860
 2160SOL    HW2 7380   4.839   4.213   6.908
 2161SOL     OW 7381   5.685   4.690   2.351
 2161SOL    HW1 7382   5.755   4.719   2.416
 2161SOL    HW2 7383   5.626   4.622   2.395
 2162SOL     OW 7384   3.574   0.665   2.228
 2162SOL    HW1 7385   3.574   0.565   2.232
 2162SOL    HW2 7386   3.483   0.699   2.249
 2163SOL     OW 7387   1.928   4.216   0.394
 2163SOL    HW1 7388   2.002   4.256   0.449
 2163SOL    HW2 7389   1.841   4.255   0.423
 2164SOL     OW 7390   2.035   1.938   6.444
 2164SOL    HW1 7391   2.124   1.910   6.481
 2164SOL    HW2 7392   2.019   1.894   6.356
 2165SOL     OW 7393   0.152   2.123   3.262
 2165SOL    HW1 7394   0.139   2.130   3.361
 2165SOL    HW2 7395   0.136   2.029   3.232
 2166SOL     OW 7396   1.484   2.534   4.794
 2166SOL    HW1 7397   1.461   2.557   4.699
 2166SOL    HW2 7398   1.444   2.446   4.818
 2167SOL     OW 7399   1.753   1.995   3.464
 2167SOL    HW1 7400   1.661   1.972   3.494
 2167SOL    HW2 7401   1.760   2.094   3.452
 2168SOL     OW 7402   0.727   1.761   3.708
 2168SOL    HW1 7403   0.648   1.703   3.727
 2168SOL    HW2 7404   0.772   1.730   3.625
 2169SOL     OW 7405   5.677   2.188   6.849
 2169SOL    HW1 7406   5.759   2.183   6.792
 2169SOL    HW2 7407   5.620   2.264   6.818
 2170SOL     OW 7408   6.947   3.773   4.931
 2170SOL    HW1 7409   6.950   3.800   4.834
 2170SOL    HW2 7410   0.011   3.808   4.977
 2171SOL     OW 7411   0.229   5.217   1.447
 2171SOL    HW1 7412   0.241   5.129   1.400
 2171SOL    HW2 7413   0.171   5.276   1.391
 2172SOL     OW 7414   1.912   1.500   6.459
 2172SOL    HW1 7415   2.004   1.506   6.497
 2172SOL    HW2 7416   1.846   1.533   6.527
 2173SOL     OW 7417   4.276   0.648   5.354
 2173SOL    HW1 7418   4.249   0.672   5.261
 2173SOL    HW2 7419   4.351   0.581   5.351
 2174SOL     OW 7420   6.706   5.540   4.761
 2174SOL    HW1 7421   6.614   5.578   4.771
 2174SOL    HW2 7422   6.730   5.537   4.664
 2175SOL     OW 7423   1.802   2.100   4.493
 2175SOL    HW1 7424   1.763   2.070   4.580
 2175SOL    HW2 7425   1.894   2.137   4.509
 2176SOL     OW 7426   5.491   2.374   0.355
 2176SOL    HW1 7427   5.442   2.344   0.273
 2176SOL    HW2 7428   5.569   2.315   0.371
 2177SOL     OW 7429   6.905   1.418   3.013
 2177SOL    HW1 7430   6.970   1.453   3.080
 2177SOL    HW2 7431   6.935   1.444   2.921
 2178SOL     OW 7432   2.015   1.749   2.081
 2178SOL    HW1 7433   1.927   1.756   2.129
 2178SOL    HW2 7434   2.032   1.833   2.029
 2179SOL     OW 7435   2.095   5.163   5.756
 2179SOL    HW1 7436   2.007   5.145   5.714
 2179SOL    HW2 7437   2.132   5.249   5.721
 2180SOL     OW 7438   1.826   2.495   2.013
 2180SOL    HW1 7439   1.908   2.501   1.956
 2180SOL    HW2 7440   1.815   2.580   2.066
 2181SOL     OW 7441   4.673   4.945   4.565
 2181SOL    HW1 7442   4.705   4.856   4.532
 2181SOL    HW2 7443   4.752   4.999   4.596
 2182SOL     OW 7444   1.528   3.961   3.419
 2182SOL    HW1 7445   1.622   3.928   3.406
 2182SOL    HW2 7446   1.528   4.031   3.491
 2183SOL     OW 7447   2.086   4.841   6.498
 2183SOL    HW1 7448   2.059   4.909   6.429
 2183SOL    HW2 7449   2.068   4.877   6.589
 2184SOL     OW 7450   4.438   1.013   5.878
 2184SOL    HW1 7451   4.479   1.088   5.930
 2184SOL    HW2 7452   4.441   1.034   5.780
 2185SOL     OW 7453   0.422   0.280   0.933
 2185SOL    HW1 7454   0.464   0.283   0.843
 2185SOL    HW2 7455   0.420   0.185   0.965
 2186SOL     OW 7456   6.762   5.362   0.479
 2186SOL    HW1 7457   6.847   5.339   0.526
 2186SOL    HW2 7458   6.763   5.459   0.453
 2187SOL     OW 7459   6.706   6.065   2.542
 2187SOL    HW1 7460   6.654   6.070   2.456
 2187SOL    HW2 7461   6.672   5.989   2.597
 2188SOL     OW 7462   0.065   5.416   4.944
 2188SOL    HW1 7463   6.989   5.398   4.914
 2188SOL    HW2 7464   0.108   5.482   4.883
 2189SOL     OW 7465   2.115   0.284   1.376
 2189SOL    HW1 7466   2.061   0.323   1.302
 2189SOL    HW2 7467   2.073   0.307   1.464
 2190SOL     OW 7468   0.286   3.323   2.073
 2190SOL    HW1 7469   0.287   3.418   2.044
 2190SOL    HW2 7470   0.192   3.292   2.083
 2191SOL     OW 7471   2.582   1.708   6.617
 2191SOL    HW1 7472   2.670   1.719   6.570
 2191SOL    HW2 7473   2.550   1.798   6.648
 2192SOL     OW 7474   4.969   1.159   2.341
 2192SOL    HW1 7475   5.017   1.189   2.423
 2192SOL    HW2 7476   4.885   1.213   2.330
 2193SOL     OW 7477   5.611   6.468   6.787
 2193SOL    HW1 7478   5.706   6.476   6.758
 2193SOL    HW2 7479   5.569   6.559   6.794
 2194SOL     OW 7480   2.052   4.413   5.995
 2194SOL    HW1 7481   2.053   4.448   6.089
 2194SOL    HW2 7482   2.023   4.485   5.933
 2195SOL     OW 7483   6.882   6.895   5.240
 2195SOL    HW1 7484   6.805   6.869   5.181
 2195SOL    HW2 7485   6.881   6.838   5.322
 2196SOL     OW 7486   4.143   0.543   4.671
 2196SOL    HW1 7487   4.084   0.544   4.751
 2196SOL    HW2 7488   4.239   0.540   4.699
 2197SOL     OW 7489   2.982   3.235   6.972
 2197SOL    HW1 7490   3.037   3.311   6.937
 2197SOL    HW2 7491   2.885   3.260   6.969
 2198SOL     OW 7492   5.362   0.265   0.888
 2198SOL    HW1 7493   5.360   0.285   0.986
 2198SOL    HW2 7494   5.386   0.168   0.874
 2199SOL     OW 7495   5.476   6.579   3.566
 2199SOL    HW1 7496   5.398   6.519   3.586
 2199SOL    HW2 7497   5.460   6.669   3.606
 2200SOL     OW 7498   2.377   2.036   3.992
 2200SOL    HW1 7499   2.381   1.941   4.023
 2200SOL    HW2 7500   2.295   2.080   4.029
 2201SOL     OW 7501   6.363   2.811   3.548
 2201SOL    HW1 7502   6.273   2.853   3.539
 2201SOL    HW2 7503   6.427   2.856   3.485
 2202SOL     OW 7504   3.509   5.630   2.372
 2202SOL    HW1 7505   3.466   5.596   2.289
 2202SOL    HW2 7506   3.521   5.555   2.437
 2203SOL     OW 7507   2.005   3.068   0.713
 2203SOL    HW1 7508   2.068   2.995   0.687
 2203SOL    HW2 7509   1.949   3.093   0.634
 2204SOL     OW 7510   4.798   1.873   1.153
 2204SOL    HW1 7511   4.778   1.894   1.249
 2204SOL    HW2 7512   4.743   1.794   1.125
 2205SOL     OW 7513   0.505   6.387   6.486
 2205SOL    HW1 7514   0.440   6.461   6.505
 2205SOL    HW2 7515   0.549   6.403   6.398
 2206SOL     OW 7516   3.225   5.400   5.875
 2206SOL    HW1 7517   3.181   5.413   5.786
 2206SOL    HW2 7518   3.156   5.410   5.947
 2207SOL     OW 7519   3.009   5.331   6.690
 2207SOL    HW1 7520   3.023   5.409   6.629
 2207SOL    HW2 7521   3.091   5.276   6.693
 2208SOL     OW 7522   1.433   5.374   3.016
 2208SOL    HW1 7523   1.397   5.422   2.936
 2208SOL    HW2 7524   1.461   5.441   3.085
 2209SOL     OW 7525   1.307   0.200   5.656
 2209SOL    HW1 7526   1.294   0.105   5.685
 2209SOL    HW2 7527   1.288   0.207   5.558
 2210SOL     OW 7528   0.022   4.538   4.198
 2210SOL    HW1 7529   0.101   4.557   4.139
 2210SOL    HW2 7530   6.960   4.518   4.142
 2211SOL     OW 7531   6.625   0.441   0.547
 2211SOL    HW1 7532   6.553   0.413   0.484
 2211SOL    HW2 7533   6.597   0.522   0.598
 2212SOL     OW 7534   2.663   5.797   0.801
 2212SOL    HW1 7535   2.592   5.829   0.738
 2212SOL    HW2 7536   2.677   5.699   0.788
 2213SOL     OW 7537   3.195   1.490   5.155
 2213SOL    HW1 7538   3.113   1.466   5.207
 2213SOL    HW2 7539   3.228   1.580   5.184
 2214SOL     OW 7540   3.333   3.912   4.923
 2214SOL    HW1 7541   3.310   3.822   4.885
 2214SOL    HW2 7542   3.249   3.958   4.951
 2215SOL     OW 7543   5.832   1.483   7.001
 2215SOL    HW1 7544   5.859   1.386   7.000
 2215SOL    HW2 7545   5.893   1.534   0.044
 2216SOL     OW 7546   1.350   0.904   6.750
 2216SOL    HW1 7547   1.269   0.962   6.748
 2216SOL    HW2 7548   1.420   0.944   6.690
 2217SOL     OW 7549   4.067   6.880   2.529
 2217SOL    HW1 7550   4.006   6.886   2.450
 2217SOL    HW2 7551   4.121   6.963   2.537
 2218SOL     OW 7552   6.568   5.328   6.852
 2218SOL    HW1 7553   6.529   5.416   6.881
 2218SOL    HW2 7554   6.518   5.294   6.773
 2219SOL     OW 7555   5.454   1.584   0.778
 2219SOL    HW1 7556   5.479   1.583   0.874
 2219SOL    HW2 7557   5.395   1.663   0.760
 2220SOL     OW 7558   2.103   6.724   4.740
 2220SOL    HW1 7559   2.018   6.713   4.791
 2220SOL    HW2 7560   2.131   6.637   4.701
 2221SOL     OW 7561   6.157   1.409   5.115
 2221SOL    HW1 7562   6.188   1.317   5.139
 2221SOL    HW2 7563   6.230   1.457   5.066
 2222SOL     OW 7564   5.332   0.393   0.452
 2222SOL    HW1 7565   5.241   0.427   0.429
 2222SOL    HW2 7566   5.364   0.436   0.536
 2223SOL     OW 7567   5.896   1.205   5.364
 2223SOL    HW1 7568   5.867   1.239   5.275
 2223SOL    HW2 7569   5.820   1.155   5.406
 2224SOL     OW 7570   6.988   3.277   0.953
 2224SOL    HW1 7571   0.021   3.337   1.016
 2224SOL    HW2 7572   0.021   3.191   0.942
 2225SOL     OW 7573   6.247   6.966   3.649
 2225SOL    HW1 7574   6.268   6.904   3.725
 2225SOL    HW2 7575   6.333   6.997   3.607
 2226SOL     OW 7576   4.041   5.384   0.679
 2226SOL    HW1 7577   4.057   5.400   0.777
 2226SOL    HW2 7578   3.954   5.336   0.667
 2227SOL     OW 7579   5.362   3.126   0.070
 2227SOL    HW1 7580   5.396   3.220   0.066
 2227SOL    HW2 7581   5.270   3.121   0.030
 2228SOL     OW 7582   3.990   5.438   1.074
 2228SOL    HW1 7583   4.058   5.401   1.011
 2228SOL    HW2 7584   4.033   5.505   1.134
 2229SOL     OW 7585   4.424   2.551   5.484
 2229SOL    HW1 7586   4.484   2.611   5.431
 2229SOL    HW2 7587   4.371   2.606   5.549
 2230SOL     OW 7588   5.964   6.394   0.440
 2230SOL    HW1 7589   6.047   6.340   0.430
 2230SOL    HW2 7590   5.974   6.458   0.516
 2231SOL     OW 7591   0.511   0.970   1.500
 2231SOL    HW1 7592   0.421   0.938   1.472
 2231SOL    HW2 7593   0.515   0.974   1.600
 2232SOL     OW 7594   1.090   2.505   4.714
 2232SOL    HW1 7595   1.020   2.437   4.691
 2232SOL    HW2 7596   1.049   2.576   4.771
 2233SOL     OW 7597   1.965   2.876   0.330
 2233SOL    HW1 7598   2.033   2.895   0.259
 2233SOL    HW2 7599   1.892   2.820   0.292
 2234SOL     OW 7600   4.415   1.619   1.465
 2234SOL    HW1 7601   4.424   1.572   1.377
 2234SOL    HW2 7602   4.506   1.643   1.499
 2235SOL     OW 7603   3.030   0.439   1.378
 2235SOL    HW1 7604   3.070   0.348   1.368
 2235SOL    HW2 7605   3.091   0.497   1.431
 2236SOL     OW 7606   2.523   4.054   6.798
 2236SOL    HW1 7607   2.479   3.964   6.789
 2236SOL    HW2 7608   2.600   4.059   6.734
 2237SOL     OW 7609   6.102   4.772   3.805
 2237SOL    HW1 7610   6.032   4.725   3.750
 2237SOL    HW2 7611   6.132   4.854   3.756
 2238SOL     OW 7612   4.552   4.653   2.070
 2238SOL    HW1 7613   4.469   4.708   2.075
 2238SOL    HW2 7614   4.537   4.574   2.010
 2239SOL     OW 7615   3.636   4.947   4.052
 2239SOL    HW1 7616   3.615   5.043   4.036
 2239SOL    HW2 7617   3.572   4.910   4.120
 2240SOL     OW 7618   3.580   5.628   3.365
 2240SOL    HW1 7619   3.672   5.610   3.330
 2240SOL    HW2 7620   3.575   5.597   3.461
 2241SOL     OW 7621   0.897   5.590   3.576
 2241SOL    HW1 7622   0.992   5.620   3.588
 2241SOL    HW2 7623   0.869   5.605   3.481
 2242SOL     OW 7624   5.757   3.255   2.552
 2242SOL    HW1 7625   5.712   3.168   2.574
 2242SOL    HW2 7626   5.720   3.291   2.467
 2243SOL     OW 7627   1.436   6.370   6.042
 2243SOL    HW1 7628   1.456   6.430   6.119
 2243SOL    HW2 7629   1.342   6.386   6.011
 2244SOL     OW 7630   2.087   6.265   1.550
 2244SOL    HW1 7631   2.141   6.192   1.592
 2244SOL    HW2 7632   2.070   6.337   1.617
 2245SOL     OW 7633   0.496   1.899   1.062
 2245SOL    HW1 7634   0.474   1.861   1.151
 2245SOL    HW2 7635   0.592   1.928   1.061
 2246SOL     OW 7636   1.680   0.890   4.343
 2246SOL    HW1 7637   1.775   0.863   4.329
 2246SOL    HW2 7638   1.635   0.901   4.255
 2247SOL     OW 7639   3.529   2.877   3.740
 2247SOL    HW1 7640   3.629   2.883   3.745
 2247SOL    HW2 7641   3.490   2.895   3.830
 2248SOL     OW 7642   6.655   3.653   5.432
 2248SOL    HW1 7643   6.739   3.664   5.379
 2248SOL    HW2 7644   6.678   3.632   5.527
 2249SOL     OW 7645   5.613   6.698   3.893
 2249SOL    HW1 7646   5.585   6.745   3.809
 2249SOL    HW2 7647   5.710   6.677   3.889
 2250SOL     OW 7648   3.341   3.596   5.367
 2250SOL    HW1 7649   3.336   3.684   5.414
 2250SOL    HW2 7650   3.344   3.611   5.268
 2251SOL     OW 7651   4.978   0.393   6.522
 2251SOL    HW1 7652   4.991   0.448   6.440
 2251SOL    HW2 7653   5.040   0.314   6.520
 2252SOL     OW 7654   4.859   2.385   2.363
 2252SOL    HW1 7655   4.895   2.398   2.271
 2252SOL    HW2 7656   4.907   2.446   2.426
 2253SOL     OW 7657   0.124   3.864   6.877
 2253SOL    HW1 7658   0.218   3.830   6.876
 2253SOL    HW2 7659   0.066   3.799   6.927
 2254SOL     OW 7660   3.471   2.936   4.862
 2254SOL    HW1 7661   3.456   3.009   4.928
 2254SOL    HW2 7662   3.389   2.879   4.856
 2255SOL     OW 7663   3.909   3.198   6.049
 2255SOL    HW1 7664   3.817   3.235   6.062
 2255SOL    HW2 7665   3.972   3.242   6.113
 2256SOL     OW 7666   4.669   6.089   2.039
 2256SOL    HW1 7667   4.672   6.174   2.092
 2256SOL    HW2 7668   4.585   6.040   2.062
 2257SOL     OW 7669   0.180   2.695   4.406
 2257SOL    HW1 7670   0.264   2.647   4.431
 2257SOL    HW2 7671   0.158   2.762   4.477
 2258SOL     OW 7672   1.658   5.350   4.759
 2258SOL    HW1 7673   1.596   5.332   4.835
 2258SOL    HW2 7674   1.634   5.437   4.716
 2259SOL     OW 7675   5.231   3.545   6.185
 2259SOL    HW1 7676   5.216   3.569   6.281
 2259SOL    HW2 7677   5.241   3.446   6.176
 2260SOL     OW 7678   0.380   4.186   1.336
 2260SOL    HW1 7679   0.453   4.194   1.404
 2260SOL    HW2 7680   0.310   4.123   1.371
 2261SOL     OW 7681   5.965   5.077   0.184
 2261SOL    HW1 7682   5.981   5.020   0.103
 2261SOL    HW2 7683   5.929   5.020   0.258
 2262SOL     OW 7684   5.588   0.915   3.697
 2262SOL    HW1 7685   5.667   0.975   3.692
 2262SOL    HW2 7686   5.618   0.822   3.718
 2263SOL     OW 7687   3.114   6.083   6.559
 2263SOL    HW1 7688   3.171   6.146   6.611
 2263SOL    HW2 7689   3.146   6.082   6.464
 2264SOL     OW 7690   2.751   4.999   0.466
 2264SOL    HW1 7691   2.785   5.078   0.415
 2264SOL    HW2 7692   2.818   4.973   0.536
 2265SOL     OW 7693   1.424   0.561   4.260
 2265SOL    HW1 7694   1.340   0.578   4.312
 2265SOL    HW2 7695   1.429   0.464   4.237
 2266SOL     OW 7696   5.227   1.849   0.006
 2266SOL    HW1 7697   5.192   1.827   0.097
 2266SOL    HW2 7698   5.162   1.907   6.976
 2267SOL     OW 7699   4.897   2.221   4.792
 2267SOL    HW1 7700   4.830   2.255   4.727
 2267SOL    HW2 7701   4.881   2.262   4.882
 2268SOL     OW 7702   6.365   4.137   0.269
 2268SOL    HW1 7703   6.348   4.181   0.357
 2268SOL    HW2 7704   6.457   4.099   0.267
 2269SOL     OW 7705   6.509   4.617   5.491
 2269SOL    HW1 7706   6.564   4.696   5.519
 2269SOL    HW2 7707   6.431   4.648   5.436
 2270SOL     OW 7708   3.052   3.082   5.962
 2270SOL    HW1 7709   3.112   3.121   6.032
 2270SOL    HW2 7710   2.957   3.090   5.991
 2271SOL     OW 7711   5.322   3.969   0.565
 2271SOL    HW1 7712   5.232   4.006   0.542
 2271SOL    HW2 7713   5.378   4.041   0.607
 2272SOL     OW 7714   6.491   2.876   6.450
 2272SOL    HW1 7715   6.588   2.862   6.468
 2272SOL    HW2 7716   6.441   2.791   6.470
 2273SOL     OW 7717   1.756   1.954   2.254
 2273SOL    HW1 7718   1.814   1.972   2.334
 2273SOL    HW2 7719   1.734   1.857   2.250
 2274SOL     OW 7720   0.563   2.593   6.214
 2274SOL    HW1 7721   0.550   2.586   6.313
 2274SOL    HW2 7722   0.614   2.677   6.193
 2275SOL     OW 7723   6.498   6.987   4.225
 2275SOL    HW1 7724   6.416   7.009   4.277
 2275SOL    HW2 7725   6.522   6.891   4.240
 2276SOL     OW 7726   2.041   5.641   1.213
 2276SOL    HW1 7727   1.982   5.720   1.230
 2276SOL    HW2 7728   1.985   5.558   1.212
 2277SOL     OW 7729   3.689   3.524   4.319
 2277SOL    HW1 7730   3.679   3.482   4.409
 2277SOL    HW2 7731   3.621   3.485   4.256
 2278SOL     OW 7732   6.428   4.414   4.412
 2278SOL    HW1 7733   6.370   4.488   4.378
 2278SOL    HW2 7734   6.404   4.329   4.365
 2279SOL     OW 7735   5.858   6.695   5.593
 2279SOL    HW1 7736   5.919   6.648   5.657
 2279SOL    HW2 7737   5.807   6.627   5.541
 2280SOL     OW 7738   6.758   6.967   4.431
 2280SOL    HW1 7739   6.841   6.929   4.391
 2280SOL    HW2 7740   6.678   6.931   4.383
 2281SOL     OW 7741   3.366   1.546   2.120
 2281SOL    HW1 7742   3.266   1.534   2.119
 2281SOL    HW2 7743   3.398   1.556   2.214
 2282SOL     OW 7744   5.498   0.558   5.400
 2282SOL    HW1 7745   5.500   0.549   5.300
 2282SOL    HW2 7746   5.422   0.618   5.426
 2283SOL     OW 7747   0.759   5.008   1.434
 2283SOL    HW1 7748   0.764   5.059   1.348
 2283SOL    HW2 7749   0.681   5.040   1.488
 2284SOL     OW 7750   1.270   2.778   6.765
 2284SOL    HW1 7751   1.261   2.804   6.861
 2284SOL    HW2 7752   1.316   2.851   6.714
 2285SOL     OW 7753   2.068   2.223   1.078
 2285SOL    HW1 7754   2.108   2.178   1.158
 2285SOL    HW2 7755   2.130   2.293   1.044
 2286SOL     OW 7756   6.533   0.303   3.722
 2286SOL    HW1 7757   6.562   0.216   3.762
 2286SOL    HW2 7758   6.435   0.299   3.701
 2287SOL     OW 7759   2.219   0.407   3.018
 2287SOL    HW1 7760   2.261   0.323   3.053
 2287SOL    HW2 7761   2.119   0.400   3.026
 2288SOL     OW 7762   6.226   4.619   4.396
 2288SOL    HW1 7763   6.249   4.641   4.490
 2288SOL    HW2 7764   6.215   4.704   4.344
 2289SOL     OW 7765   0.916   4.886   1.642
 2289SOL    HW1 7766   0.871   4.935   1.569
 2289SOL    HW2 7767   0.960   4.803   1.606
 2290SOL     OW 7768   0.646   4.223   0.426
 2290SOL    HW1 7769   0.736   4.205   0.465
 2290SOL    HW2 7770   0.575   4.200   0.493
 2291SOL     OW 7771   2.788   2.671   5.993
 2291SOL    HW1 7772   2.839   2.739   6.045
 2291SOL    HW2 7773   2.724   2.717   5.932
 2292SOL     OW 7774   0.072   2.587   4.725
 2292SOL    HW1 7775   0.017   2.650   4.671
 2292SOL    HW2 7776   0.026   2.569   4.812
 2293SOL     OW 7777   4.425   6.375   1.572
 2293SOL    HW1 7778   4.471   6.352   1.658
 2293SOL    HW2 7779   4.330   6.344   1.576
 2294SOL     OW 7780   3.355   0.211   6.908
 2294SOL    HW1 7781   3.255   0.221   6.909
 2294SOL    HW2 7782   3.396   0.295   6.873
 2295SOL     OW 7783   0.657   2.215   2.814
 2295SOL    HW1 7784   0.647   2.148   2.740
 2295SOL    HW2 7785   0.593   2.290   2.801
 2296SOL     OW 7786   4.315   5.176   1.223
 2296SOL    HW1 7787   4.306   5.082   1.256
 2296SOL    HW2 7788   4.408   5.190   1.190
 2297SOL     OW 7789   4.141   3.958   5.284
 2297SOL    HW1 7790   4.075   4.025   5.248
 2297SOL    HW2 7791   4.146   3.967   5.383
 2298SOL     OW 7792   3.944   3.200   1.666
 2298SOL    HW1 7793   3.952   3.299   1.654
 2298SOL    HW2 7794   4.030   3.156   1.639
 2299SOL     OW 7795   4.445   5.978   5.317
 2299SOL    HW1 7796   4.383   5.985   5.239
 2299SOL    HW2 7797   4.509   6.055   5.316
 2300SOL     OW 7798   2.517   5.692   2.040
 2300SOL    HW1 7799   2.467   5.639   1.971
 2300SOL    HW2 7800   2.613   5.664   2.041
 2301SOL     OW 7801   3.140   2.979   3.027
 2301SOL    HW1 7802   3.155   2.990   2.928
 2301SOL    HW2 7803   3.054   3.023   3.052
 2302SOL     OW 7804   3.633   0.040   1.296
 2302SOL    HW1 7805   3.692   7.008   1.232
 2302SOL    HW2 7806   3.637   0.138   1.277
 2303SOL     OW 7807   2.556   2.942   6.344
 2303SOL    HW1 7808   2.523   2.941   6.438
 2303SOL    HW2 7809   2.531   2.857   6.299
 2304SOL     OW 7810   4.916   0.106   3.752
 2304SOL    HW1 7811   4.833   0.161   3.743
 2304SOL    HW2 7812   4.988   0.161   3.795
 2305SOL     OW 7813   2.443   6.596   3.346
 2305SOL    HW1 7814   2.434   6.509   3.393
 2305SOL    HW2 7815   2.358   6.647   3.354
 2306SOL     OW 7816   3.228   5.444   2.582
 2306SOL    HW1 7817   3.250   5.350   2.609
 2306SOL    HW2 7818   3.231   5.452   2.482
 2307SOL     OW 7819   6.751   3.802   2.507
 2307SOL    HW1 7820   6.683   3.732   2.532
 2307SOL    HW2 7821   6.714   3.859   2.434
 2308SOL     OW 7822   1.171   5.815   0.721
 2308SOL    HW1 7823   1.087   5.787   0.768
 2308SOL    HW2 7824   1.220   5.880   0.778
 2309SOL     OW 7825   1.217   0.469   6.481
 2309SOL    HW1 7826   1.302   0.440   6.436
 2309SOL    HW2 7827   1.143   0.405   6.457
 2310SOL     OW 7828   4.860   6.490   1.405
 2310SOL    HW1 7829   4.804   6.570   1.427
 2310SOL    HW2 7830   4.820   6.441   1.327
 2311SOL     OW 7831   2.134   5.588   1.889
 2311SOL    HW1 7832   2.189   5.524   1.836
 2311SOL    HW2 7833   2.175   5.602   1.979
 2312SOL     OW 7834   3.702   7.003   4.182
 2312SOL    HW1 7835   3.646   0.029   4.252
 2312SOL    HW2 7836   3.733   0.054   4.116
 2313SOL     OW 7837   5.185   5.415   1.502
 2313SOL    HW1 7838   5.161   5.460   1.588
 2313SOL    HW2 7839   5.278   5.379   1.508
 2314SOL     OW 7840   5.892   0.012   4.892
 2314SOL    HW1 7841   5.949   0.014   4.810
 2314SOL    HW2 7842   5.937   0.062   4.966
 2315SOL     OW 7843   4.707   3.185   5.360
 2315SOL    HW1 7844   4.775   3.141   5.301
 2315SOL    HW2 7845   4.695   3.131   5.443
 2316SOL     OW 7846   3.255   0.666   4.475
 2316SOL    HW1 7847   3.316   0.744   4.463
 2316SOL    HW2 7848   3.265   0.604   4.397
 2317SOL     OW 7849   0.452   6.179   3.814
 2317SOL    HW1 7850   0.364   6.213   3.782
 2317SOL    HW2 7851   0.520   6.186   3.740
 2318SOL     OW 7852   1.793   2.927   4.832
 2318SOL    HW1 7853   1.824   3.020   4.812
 2318SOL    HW2 7854   1.815   2.904   4.926
 2319SOL     OW 7855   1.942   4.831   4.396
 2319SOL    HW1 7856   2.002   4.781   4.335
 2319SOL    HW2 7857   1.910   4.770   4.469
 2320SOL     OW 7858   0.567   2.881   4.839
 2320SOL    HW1 7859   0.539   2.967   4.797
 2320SOL    HW2 7860   0.666   2.875   4.843
 2321SOL     OW 7861   2.077   6.539   6.924
 2321SOL    HW1 7862   2.046   6.519   7.016
 2321SOL    HW2 7863   2.117   6.630   6.921
 2322SOL     OW 7864   2.017   2.544   3.778
 2322SOL    HW1 7865   1.943   2.504   3.724
 2322SOL    HW2 7866   2.103   2.534   3.729
 2323SOL     OW 7867   3.129   5.023   1.827
 2323SOL    HW1 7868   3.227   5.038   1.838
 2323SOL    HW2 7869   3.105   4.932   1.860
 2324SOL     OW 7870   6.546   6.602   0.882
 2324SOL    HW1 7871   6.472   6.545   0.847
 2324SOL    HW2 7872   6.515   6.651   0.964
 2325SOL     OW 7873   0.874   4.390   1.085
 2325SOL    HW1 7874   0.821   4.333   1.022
 2325SOL    HW2 7875   0.971   4.383   1.062
 2326SOL     OW 7876   3.934   5.187   6.235
 2326SOL    HW1 7877   3.977   5.110   6.187
 2326SOL    HW2 7878   3.920   5.262   6.170
 2327SOL     OW 7879   6.806   2.229   3.736
 2327SOL    HW1 7880   6.718   2.272   3.757
 2327SOL    HW2 7881   6.792   2.133   3.711
 2328SOL     OW 7882   2.341   1.856   2.942
 2328SOL    HW1 7883   2.331   1.855   2.843
 2328SOL    HW2 7884   2.423   1.804   2.968
 2329SOL     OW 7885   1.968   4.599   4.586
 2329SOL    HW1 7886   1.983   4.563   4.494
 2329SOL    HW2 7887   2.015   4.541   4.653
 2330SOL     OW 7888   1.151   3.807   1.107
 2330SOL    HW1 7889   1.170   3.898   1.070
 2330SOL    HW2 7890   1.207   3.792   1.188
 2331SOL     OW 7891   4.117   5.635   6.665
 2331SOL    HW1 7892   4.185   5.625   6.592
 2331SOL    HW2 7893   4.126   5.558   6.729
 2332SOL     OW 7894   4.970   1.682   5.285
 2332SOL    HW1 7895   4.946   1.766   5.334
 2332SOL    HW2 7896   5.043   1.701   5.219
 2333SOL     OW 7897   0.495   4.843   2.691
 2333SOL    HW1 7898   0.399   4.818   2.702
 2333SOL    HW2 7899   0.552   4.778   2.740
 2334SOL     OW 7900   2.306   0.588   0.460
 2334SOL    HW1 7901   2.406   0.595   0.460
 2334SOL    HW2 7902   2.267   0.658   0.519
 2335SOL     OW 7903   6.929   0.530   2.365
 2335SOL    HW1 7904   6.966   0.560   2.277
 2335SOL    HW2 7905   6.939   0.431   2.373
 2336SOL     OW 7906   4.697   2.539   4.844
 2336SOL    HW1 7907   4.608   2.494   4.854
 2336SOL    HW2 7908   4.752   2.521   4.925
 2337SOL     OW 7909   4.678   1.326   2.000
 2337SOL    HW1 7910   4.740   1.358   1.929
 2337SOL    HW2 7911   4.610   1.265   1.960
 2338SOL     OW 7912   1.406   2.158   5.375
 2338SOL    HW1 7913   1.412   2.226   5.303
 2338SOL    HW2 7914   1.494   2.151   5.422
 2339SOL     OW 7915   3.554   3.840   4.588
 2339SOL    HW1 7916   3.537   3.766   4.653
 2339SOL    HW2 7917   3.649   3.871   4.598
 2340SOL     OW 7918   5.622   4.495   0.270
 2340SOL    HW1 7919   5.620   4.401   0.304
 2340SOL    HW2 7920   5.581   4.498   0.179
 2341SOL     OW 7921   4.491   4.955   1.506
 2341SOL    HW1 7922   4.420   4.924   1.443
 2341SOL    HW2 7923   4.466   5.044   1.544
 2342SOL     OW 7924   6.897   6.766   5.506
 2342SOL    HW1 7925   6.879   6.668   5.499
 2342SOL    HW2 7926   6.867   6.799   5.596
 2343SOL     OW 7927   2.572   5.435   2.645
 2343SOL    HW1 7928   2.482   5.444   2.601
 2343SOL    HW2 7929   2.584   5.508   2.712
 2344SOL     OW 7930   1.802   6.729   0.244
 2344SOL    HW1 7931   1.745   6.693   0.170
 2344SOL    HW2 7932   1.883   6.671   0.253
 2345SOL     OW 7933   2.825   5.366   4.537
 2345SOL    HW1 7934   2.852   5.309   4.459
 2345SOL    HW2 7935   2.853   5.322   4.622
 2346SOL     OW 7936   4.553   2.842   5.141
 2346SOL    HW1 7937   4.630   2.897   5.174
 2346SOL    HW2 7938   4.546   2.850   5.042
 2347SOL     OW 7939   2.689   3.385   1.826
 2347SOL    HW1 7940   2.743   3.443   1.764
 2347SOL    HW2 7941   2.596   3.420   1.833
 2348SOL     OW 7942   3.078   6.600   3.749
 2348SOL    HW1 7943   3.072   6.516   3.696
 2348SOL    HW2 7944   3.126   6.581   3.835
 2349SOL     OW 7945   0.792   4.355   6.145
 2349SOL    HW1 7946   0.854   4.309   6.081
 2349SOL    HW2 7947   0.846   4.401   6.216
 2350SOL     OW 7948   4.676   6.101   6.387
 2350SOL    HW1 7949   4.582   6.093   6.419
 2350SOL    HW2 7950   4.693   6.195   6.356
 2351SOL     OW 7951   3.121   4.932   3.591
 2351SOL    HW1 7952   3.076   4.891   3.670
 2351SOL    HW2 7953   3.215   4.898   3.584
 2352SOL     OW 7954   0.680   4.778   1.749
 2352SOL    HW1 7955   0.640   4.860   1.790
 2352SOL    HW2 7956   0.768   4.800   1.708
 2353SOL     OW 7957   3.308   4.570   5.347
 2353SOL    HW1 7958   3.276   4.483   5.309
 2353SOL    HW2 7959   3.238   4.641   5.333
 2354SOL     OW 7960   2.571   1.239   5.669
 2354SOL    HW1 7961   2.540   1.172   5.736
 2354SOL    HW2 7962   2.504   1.247   5.595
 2355SOL     OW 7963   2.041   5.835   0.459
 2355SOL    HW1 7964   2.100   5.771   0.411
 2355SOL    HW2 7965   1.978   5.785   0.518
 2356SOL     OW 7966   1.719   3.953   0.111
 2356SOL    HW1 7967   1.760   3.877   0.061
 2356SOL    HW2 7968   1.628   3.927   0.143
 2357SOL     OW 7969   4.538   6.328   3.802
 2357SOL    HW1 7970   4.463   6.284   3.851
 2357SOL    HW2 7971   4.502   6.385   3.729
 2358SOL     OW 7972   4.007   5.170   5.423
 2358SOL    HW1 7973   4.042   5.114   5.348
 2358SOL    HW2 7974   3.908   5.156   5.432
 2359SOL     OW 7975   0.392   0.738   6.172
 2359SOL    HW1 7976   0.415   0.763   6.266
 2359SOL    HW2 7977   0.307   0.784   6.145
 2360SOL     OW 7978   5.658   5.114   6.561
 2360SOL    HW1 7979   5.723   5.074   6.496
 2360SOL    HW2 7980   5.603   5.041   6.601
 2361SOL     OW 7981   2.566   0.669   4.978
 2361SOL    HW1 7982   2.498   0.680   4.905
 2361SOL    HW2 7983   2.649   0.719   4.954
 2362SOL     OW 7984   2.453   0.613   5.486
 2362SOL    HW1 7985   2.452   0.641   5.390
 2362SOL    HW2 7986   2.460   0.513   5.492
 2363SOL     OW 7987   4.154   2.380   5.485
 2363SOL    HW1 7988   4.086   2.338   5.424
 2363SOL    HW2 7989   4.113   2.460   5.529
 2364SOL     OW 7990   0.842   2.021   2.625
 2364SOL    HW1 7991   0.921   1.965   2.601
 2364SOL    HW2 7992   0.814   2.074   2.545
 2365SOL     OW 7993   5.998   2.826   6.721
 2365SOL    HW1 7994   5.961   2.811   6.630
 2365SOL    HW2 7995   6.094   2.800   6.723
 2366SOL     OW 7996   1.697   4.902   6.421
 2366SOL    HW1 7997   1.624   4.873   6.360
 2366SOL    HW2 7998   1.768   4.950   6.369
 2367SOL     OW 7999   3.148   4.538   0.993
 2367SOL    HW1 8000   3.144   4.438   0.993
 2367SOL    HW2 8001   3.065   4.574   0.951
 2368SOL     OW 8002   4.534   6.960   2.782
 2368SOL    HW1 8003   4.456   6.939   2.840
 2368SOL    HW2 8004   4.608   6.998   2.838
 2369SOL     OW 8005   1.017   2.940   5.751
 2369SOL    HW1 8006   1.026   2.845   5.782
 2369SOL    HW2 8007   0.925   2.954   5.714
 2370SOL     OW 8008   4.781   4.210   6.653
 2370SOL    HW1 8009   4.710   4.140   6.649
 2370SOL    HW2 8010   4.744   4.297   6.622
 2371SOL     OW 8011   0.704   6.569   2.106
 2371SOL    HW1 8012   0.750   6.632   2.169
 2371SOL    HW2 8013   0.622   6.613   2.069
 2372SOL     OW 8014   6.547   2.502   1.414
 2372SOL    HW1 8015   6.647   2.496   1.422
 2372SOL    HW2 8016   6.524   2.564   1.339
 2373SOL     OW 8017   0.390   1.186   0.204
 2373SOL    HW1 8018   0.362   1.092   0.183
 2373SOL    HW2 8019   0.459   1.186   0.276
 2374SOL     OW 8020   6.275   1.010   3.678
 2374SOL    HW1 8021   6.224   1.096   3.673
 2374SOL    HW2 8022   6.363   1.027   3.724
 2375SOL     OW 8023   2.373   0.025   4.158
 2375SOL    HW1 8024   2.346   6.968   4.219
 2375SOL    HW2 8025   2.451   0.073   4.198
 2376SOL     OW 8026   6.353   2.467   4.530
 2376SOL    HW1 8027   6.289   2.510   4.467
 2376SOL    HW2 8028   6.375   2.375   4.499
 2377SOL     OW 8029   3.290   3.827   3.079
 2377SOL    HW1 8030   3.256   3.746   3.126
 2377SOL    HW2 8031   3.301   3.807   2.982
 2378SOL     OW 8032   4.964   3.039   0.366
 2378SOL    HW1 8033   4.898   2.965   0.348
 2378SOL    HW2 8034   4.953   3.070   0.460
 2379SOL     OW 8035   5.802   2.522   6.365
 2379SOL    HW1 8036   5.730   2.587   6.388
 2379SOL    HW2 8037   5.804   2.448   6.433
 2380SOL     OW 8038   0.275   6.928   5.677
 2380SOL    HW1 8039   0.355   6.914   5.736
 2380SOL    HW2 8040   0.201   6.867   5.706
 2381SOL     OW 8041   1.916   3.705   4.402
 2381SOL    HW1 8042   1.817   3.698   4.414
 2381SOL    HW2 8043   1.942   3.672   4.312
 2382SOL     OW 8044   2.279   4.244   3.800
 2382SOL    HW1 8045   2.357   4.305   3.784
 2382SOL    HW2 8046   2.279   4.172   3.730
 2383SOL     OW 8047   5.787   6.536   0.961
 2383SOL    HW1 8048   5.741   6.612   1.008
 2383SOL    HW2 8049   5.731   6.507   0.883
 2384SOL     OW 8050   6.569   6.652   1.966
 2384SOL    HW1 8051   6.492   6.609   2.011
 2384SOL    HW2 8052   6.564   6.636   1.868
 2385SOL     OW 8053   0.126   6.482   1.044
 2385SOL    HW1 8054   0.186   6.505   0.967
 2385SOL    HW2 8055   0.177   6.427   1.110
 2386SOL     OW 8056   5.216   5.271   4.234
 2386SOL    HW1 8057   5.244   5.215   4.311
 2386SOL    HW2 8058   5.194   5.212   4.156
 2387SOL     OW 8059   0.807   1.312   4.019
 2387SOL    HW1 8060   0.865   1.307   3.937
 2387SOL    HW2 8061   0.864   1.324   4.100
 2388SOL     OW 8062   1.915   1.915   3.252
 2388SOL    HW1 8063   1.856   1.951   3.325
 2388SOL    HW2 8064   2.011   1.924   3.279
 2389SOL     OW 8065   5.357   3.676   3.203
 2389SOL    HW1 8066   5.385   3.590   3.245
 2389SOL    HW2 8067   5.375   3.672   3.104
 2390SOL     OW 8068   3.617   3.732   3.153
 2390SOL    HW1 8069   3.544   3.787   3.193
 2390SOL    HW2 8070   3.686   3.712   3.223
 2391SOL     OW 8071   5.199   5.116   5.768
 2391SOL    HW1 8072   5.204   5.017   5.763
 2391SOL    HW2 8073   5.168   5.153   5.681
 2392SOL     OW 8074   3.428   0.335   5.313
 2392SOL    HW1 8075   3.380   0.251   5.290
 2392SOL    HW2 8076   3.472   0.325   5.402
 2393SOL     OW 8077   4.567   4.532   6.043
 2393SOL    HW1 8078   4.582   4.515   6.140
 2393SOL    HW2 8079   4.615   4.462   5.989
 2394SOL     OW 8080   2.008   3.644   4.644
 2394SOL    HW1 8081   1.983   3.677   4.553
 2394SOL    HW2 8082   1.968   3.704   4.713
 2395SOL     OW 8083   6.346   2.640   6.413
 2395SOL    HW1 8084   6.275   2.681   6.356
 2395SOL    HW2 8085   6.351   2.541   6.395
 2396SOL     OW 8086   3.932   5.474   1.723
 2396SOL    HW1 8087   3.962   5.557   1.678
 2396SOL    HW2 8088   3.832   5.471   1.725
 2397SOL     OW 8089   0.239   4.116   6.825
 2397SOL    HW1 8090   0.175   4.043   6.849
 2397SOL    HW2 8091   0.333   4.085   6.843
 2398SOL     OW 8092   3.257   3.974   6.660
 2398SOL    HW1 8093   3.252   3.889   6.607
 2398SOL    HW2 8094   3.351   4.007   6.662
 2399SOL     OW 8095   4.726   1.265   2.263
 2399SOL    HW1 8096   4.717   1.364   2.277
 2399SOL    HW2 8097   4.710   1.244   2.167
 2400SOL     OW 8098   3.751   5.231   0.361
 2400SOL    HW1 8099   3.747   5.295   0.284
 2400SOL    HW2 8100   3.695   5.151   0.340
 2401SOL     OW 8101   4.144   6.875   6.407
 2401SOL    HW1 8102   4.162   6.803   6.474
 2401SOL    HW2 8103   4.047   6.900   6.411
 2402SOL     OW 8104   0.697   0.649   4.026
 2402SOL    HW1 8105   0.712   0.747   4.040
 2402SOL    HW2 8106   0.678   0.606   4.114
 2403SOL     OW 8107   2.333   2.313   0.962
 2403SOL    HW1 8108   2.362   2.250   1.034
 2403SOL    HW2 8109   2.391   2.395   0.965
 2404SOL     OW 8110   5.498   0.741   1.298
 2404SOL    HW1 8111   5.540   0.727   1.208
 2404SOL    HW2 8112   5.478   0.653   1.339
 2405SOL     OW 8113   3.597   3.523   2.950
 2405SOL    HW1 8114   3.694   3.508   2.931
 2405SOL    HW2 8115   3.586   3.600   3.012
 2406SOL     OW 8116   2.373   0.202   3.099
 2406SOL    HW1 8117   2.454   0.247   3.136
 2406SOL    HW2 8118   2.387   0.183   3.002
 2407SOL     OW 8119   5.512   2.705   2.922
 2407SOL    HW1 8120   5.547   2.632   2.981
 2407SOL    HW2 8121   5.414   2.692   2.907
 2408SOL     OW 8122   4.324   4.853   3.701
 2408SOL    HW1 8123   4.247   4.828   3.760
 2408SOL    HW2 8124   4.332   4.787   3.627
 2409SOL     OW 8125   1.343   3.292   1.715
 2409SOL    HW1 8126   1.349   3.359   1.788
 2409SOL    HW2 8127   1.391   3.326   1.634
 2410SOL     OW 8128   4.850   2.633   6.450
 2410SOL    HW1 8129   4.763   2.657   6.407
 2410SOL    HW2 8130   4.865   2.692   6.530
 2411SOL     OW 8131   4.507   5.482   5.695
 2411SOL    HW1 8132   4.458   5.431   5.624
 2411SOL    HW2 8133   4.571   5.422   5.742
 2412SOL     OW 8134   4.271   4.935   1.323
 2412SOL    HW1 8135   4.254   4.883   1.240
 2412SOL    HW2 8136   4.191   4.932   1.383
 2413SOL     OW 8137   6.400   1.976   0.401
 2413SOL    HW1 8138   6.490   1.952   0.438
 2413SOL    HW2 8139   6.411   2.007   0.306
 2414SOL     OW 8140   5.058   3.919   2.206
 2414SOL    HW1 8141   5.058   3.822   2.231
 2414SOL    HW2 8142   5.056   3.927   2.106
 2415SOL     OW 8143   0.552   0.186   1.984
 2415SOL    HW1 8144   0.598   0.102   2.013
 2415SOL    HW2 8145   0.472   0.163   1.929
 2416SOL     OW 8146   3.471   2.116   4.689
 2416SOL    HW1 8147   3.517   2.070   4.765
 2416SOL    HW2 8148   3.379   2.143   4.716
 2417SOL     OW 8149   3.966   3.179   5.553
 2417SOL    HW1 8150   3.952   3.277   5.540
 2417SOL    HW2 8151   3.896   3.128   5.502
 2418SOL     OW 8152   3.584   4.192   4.054
 2418SOL    HW1 8153   3.487   4.210   4.041
 2418SOL    HW2 8154   3.609   4.108   4.005
 2419SOL     OW 8155   1.037   6.025   4.313
 2419SOL    HW1 8156   1.053   5.945   4.371
 2419SOL    HW2 8157   1.002   6.100   4.369
 2420SOL     OW 8158   3.791   1.848   1.111
 2420SOL    HW1 8159   3.880   1.864   1.069
 2420SOL    HW2 8160   3.754   1.934   1.146
 2421SOL     OW 8161   2.537   1.651   5.210
 2421SOL    HW1 8162   2.477   1.612   5.140
 2421SOL    HW2 8163   2.589   1.727   5.171
 2422SOL     OW 8164   5.884   6.895   1.625
 2422SOL    HW1 8165   5.884   6.801   1.660
 2422SOL    HW2 8166   5.912   6.895   1.529
 2423SOL     OW 8167   1.524   6.485   3.610
 2423SOL    HW1 8168   1.525   6.422   3.688
 2423SOL    HW2 8169   1.470   6.446   3.536
 2424SOL     OW 8170   6.254   6.363   6.137
 2424SOL    HW1 8171   6.287   6.378   6.231
 2424SOL    HW2 8172   6.188   6.434   6.114
 2425SOL     OW 8173   6.603   0.398   4.127
 2425SOL    HW1 8174   6.633   0.331   4.060
 2425SOL    HW2 8175   6.602   0.356   4.218
 2426SOL     OW 8176   1.268   5.290   4.805
 2426SOL    HW1 8177   1.303   5.288   4.712
 2426SOL    HW2 8178   1.243   5.197   4.833
 2427SOL     OW 8179   5.293   5.607   6.334
 2427SOL    HW1 8180   5.270   5.705   6.333
 2427SOL    HW2 8181   5.309   5.575   6.241
 2428SOL     OW 8182   6.244   0.564   3.354
 2428SOL    HW1 8183   6.300   0.539   3.276
 2428SOL    HW2 8184   6.300   0.613   3.421
 2429SOL     OW 8185   6.285   5.439   4.462
 2429SOL    HW1 8186   6.188   5.415   4.459
 2429SOL    HW2 8187   6.337   5.375   4.405
 2430SOL     OW 8188   6.057   1.406   0.644
 2430SOL    HW1 8189   6.143   1.361   0.619
 2430SOL    HW2 8190   5.981   1.353   0.608
 2431SOL     OW 8191   4.042   0.248   1.904
 2431SOL    HW1 8192   4.107   0.314   1.942
 2431SOL    HW2 8193   4.021   0.273   1.809
 2432SOL     OW 8194   3.408   6.895   2.947
 2432SOL    HW1 8195   3.467   6.853   2.877
 2432SOL    HW2 8196   3.394   6.991   2.925
 2433SOL     OW 8197   3.177   6.989   1.172
 2433SOL    HW1 8198   3.172   6.991   1.072
 2433SOL    HW2 8199   3.264   6.947   1.200
 2434SOL     OW 8200   4.302   1.451   4.342
 2434SOL    HW1 8201   4.245   1.475   4.264
 2434SOL    HW2 8202   4.245   1.438   4.423
 2435SOL     OW 8203   4.276   5.265   5.752
 2435SOL    HW1 8204   4.302   5.307   5.665
 2435SOL    HW2 8205   4.214   5.327   5.801
 2436SOL     OW 8206   1.737   6.736   2.104
 2436SOL    HW1 8207   1.776   6.777   2.187
 2436SOL    HW2 8208   1.777   6.645   2.090
 2437SOL     OW 8209   4.129   6.000   0.751
 2437SOL    HW1 8210   4.137   5.942   0.670
 2437SOL    HW2 8211   4.074   5.954   0.820
 2438SOL     OW 8212   3.318   1.823   5.981
 2438SOL    HW1 8213   3.407   1.837   6.023
 2438SOL    HW2 8214   3.249   1.809   6.052
 2439SOL     OW 8215   0.768   4.288   6.625
 2439SOL    HW1 8216   0.669   4.295   6.631
 2439SOL    HW2 8217   0.804   4.256   6.713
 2440SOL     OW 8218   5.158   6.158   5.283
 2440SOL    HW1 8219   5.180   6.254   5.300
 2440SOL    HW2 8220   5.108   6.121   5.362
 2441SOL     OW 8221   6.653   6.896   0.292
 2441SOL    HW1 8222   6.719   6.888   0.217
 2441SOL    HW2 8223   6.642   6.993   0.316
 2442SOL     OW 8224   6.723   5.062   4.675
 2442SOL    HW1 8225   6.724   4.970   4.715
 2442SOL    HW2 8226   6.815   5.086   4.646
 2443SOL     OW 8227   3.882   6.543   5.185
 2443SOL    HW1 8228   3.906   6.537   5.088
 2443SOL    HW2 8229   3.907   6.633   5.220
 2444SOL     OW 8230   3.153   4.396   5.902
 2444SOL    HW1 8231   3.145   4.456   5.823
 2444SOL    HW2 8232   3.230   4.333   5.888
 2445SOL     OW 8233   0.420   0.973   1.840
 2445SOL    HW1 8234   0.390   0.922   1.920
 2445SOL    HW2 8235   0.342   1.024   1.802
 2446SOL     OW 8236   0.520   3.844   3.452
 2446SOL    HW1 8237   0.423   3.834   3.473
 2446SOL    HW2 8238   0.570   3.764   3.485
 2447SOL     OW 8239   2.957   1.856   0.782
 2447SOL    HW1 8240   3.003   1.776   0.742
 2447SOL    HW2 8241   2.918   1.912   0.709
 2448SOL     OW 8242   0.265   0.930   5.639
 2448SOL    HW1 8243   0.202   0.858   5.610
 2448SOL    HW2 8244   0.354   0.916   5.595
 2449SOL     OW 8245   0.273   4.910   1.392
 2449SOL    HW1 8246   0.371   4.899   1.406
 2449SOL    HW2 8247   0.225   4.886   1.477
 2450SOL     OW 8248   2.678   4.713   4.559
 2450SOL    HW1 8249   2.634   4.630   4.526
 2450SOL    HW2 8250   2.698   4.704   4.657
 2451SOL     OW 8251   0.561   0.434   3.363
 2451SOL    HW1 8252   0.523   0.354   3.315
 2451SOL    HW2 8253   0.660   0.434   3.354
 2452SOL     OW 8254   2.031   2.709   3.006
 2452SOL    HW1 8255   2.123   2.723   3.042
 2452SOL    HW2 8256   2.034   2.708   2.906
 2453SOL     OW 8257   6.438   3.635   0.828
 2453SOL    HW1 8258   6.347   3.672   0.848
 2453SOL    HW2 8259   6.430   3.538   0.804
 2454SOL     OW 8260   3.743   1.404   0.490
 2454SOL    HW1 8261   3.756   1.355   0.576
 2454SOL    HW2 8262   3.815   1.379   0.426
 2455SOL     OW 8263   5.637   6.739   0.679
 2455SOL    HW1 8264   5.668   6.778   0.766
 2455SOL    HW2 8265   5.555   6.787   0.649
 2456SOL     OW 8266   6.078   0.182   0.526
 2456SOL    HW1 8267   6.158   0.153   0.473
 2456SOL    HW2 8268   6.048   0.271   0.493
 2457SOL     OW 8269   6.748   6.182   0.665
 2457SOL    HW1 8270   6.771   6.084   0.663
 2457SOL    HW2 8271   6.831   6.236   0.651
 2458SOL     OW 8272   3.020   5.861   3.657
 2458SOL    HW1 8273   2.922   5.844   3.671
 2458SOL    HW2 8274   3.069   5.845   3.742
 2459SOL     OW 8275   2.513   6.668   0.658
 2459SOL    HW1 8276   2.483   6.595   0.719
 2459SOL    HW2 8277   2.434   6.722   0.630
 2460SOL     OW 8278   2.045   0.638   1.163
 2460SOL    HW1 8279   1.993   0.715   1.201
 2460SOL    HW2 8280   2.122   0.674   1.111
 2461SOL     OW 8281   4.842   0.768   2.634
 2461SOL    HW1 8282   4.869   0.687   2.582
 2461SOL    HW2 8283   4.751   0.753   2.674
 2462SOL     OW 8284   2.162   5.582   0.138
 2462SOL    HW1 8285   2.159   5.487   0.108
 2462SOL    HW2 8286   2.154   5.587   0.238
 2463SOL     OW 8287   5.804   2.431   3.880
 2463SOL    HW1 8288   5.762   2.373   3.811
 2463SOL    HW2 8289   5.745   2.511   3.897
 2464SOL     OW 8290   1.465   4.843   1.621
 2464SOL    HW1 8291   1.392   4.907   1.596
 2464SOL    HW2 8292   1.512   4.811   1.539
 2465SOL     OW 8293   6.430   5.913   1.113
 2465SOL    HW1 8294   6.338   5.895   1.079
 2465SOL    HW2 8295   6.425   5.944   1.208
 2466SOL     OW 8296   3.223   0.905   1.305
 2466SOL    HW1 8297   3.281   0.840   1.355
 2466SOL    HW2 8298   3.281   0.975   1.263
 2467SOL     OW 8299   5.192   1.647   5.736
 2467SOL    HW1 8300   5.259   1.676   5.804
 2467SOL    HW2 8301   5.186   1.715   5.664
 2468SOL     OW 8302   6.355   6.031   2.089
 2468SOL    HW1 8303   6.335   5.944   2.044
 2468SOL    HW2 8304   6.450   6.031   2.121
 2469SOL     OW 8305   3.742   5.117   5.407
 2469SOL    HW1 8306   3.720   5.027   5.369
 2469SOL    HW2 8307   3.658   5.161   5.438
 2470SOL     OW 8308   3.417   4.241   6.140
 2470SOL    HW1 8309   3.411   4.152   6.095
 2470SOL    HW2 8310   3.333   4.259   6.191
 2471SOL     OW 8311   2.118   6.520   1.694
 2471SOL    HW1 8312   2.108   6.596   1.629
 2471SOL    HW2 8313   2.207   6.477   1.682
 2472SOL     OW 8314   5.922   1.173   4.536
 2472SOL    HW1 8315   5.974   1.088   4.533
 2472SOL    HW2 8316   5.940   1.227   4.453
 2473SOL     OW 8317   1.807   3.982   4.827
 2473SOL    HW1 8318   1.806   3.883   4.843
 2473SOL    HW2 8319   1.901   4.013   4.814
 2474SOL     OW 8320   0.451   5.468   0.585
 2474SOL    HW1 8321   0.515   5.538   0.615
 2474SOL    HW2 8322   0.500   5.383   0.566
 2475SOL     OW 8323   4.619   1.643   1.100
 2475SOL    HW1 8324   4.593   1.608   1.191
 2475SOL    HW2 8325   4.541   1.691   1.060
 2476SOL     OW 8326   0.675   2.662   3.436
 2476SOL    HW1 8327   0.767   2.691   3.408
 2476SOL    HW2 8328   0.625   2.628   3.357
 2477SOL     OW 8329   6.282   0.528   1.851
 2477SOL    HW1 8330   6.277   0.464   1.928
 2477SOL    HW2 8331   6.377   0.551   1.833
 2478SOL     OW 8332   5.607   6.575   2.217
 2478SOL    HW1 8333   5.691   6.525   2.240
 2478SOL    HW2 8334   5.540   6.561   2.290
 2479SOL     OW 8335   0.934   3.684   1.480
 2479SOL    HW1 8336   0.852   3.717   1.527
 2479SOL    HW2 8337   0.911   3.662   1.385
 2480SOL     OW 8338   5.969   3.307   0.994
 2480SOL    HW1 8339   5.942   3.387   0.940
 2480SOL    HW2 8340   5.900   3.291   1.065
 2481SOL     OW 8341   3.465   6.616   0.124
 2481SOL    HW1 8342   3.429   6.626   0.031
 2481SOL    HW2 8343   3.390   6.608   0.189
 2482SOL     OW 8344   4.742   3.056   5.597
 2482SOL    HW1 8345   4.829   3.051   5.646
 2482SOL    HW2 8346   4.668   3.027   5.658
 2483SOL     OW 8347   2.254   1.645   0.595
 2483SOL    HW1 8348   2.203   1.731   0.593
 2483SOL    HW2 8349   2.351   1.664   0.584
 2484SOL     OW 8350   2.109   0.369   0.582
 2484SOL    HW1 8351   2.105   0.437   0.655
 2484SOL    HW2 8352   2.179   0.395   0.516
 2485SOL     OW 8353   4.406   5.181   2.305
 2485SOL    HW1 8354   4.469   5.235   2.361
 2485SOL    HW2 8355   4.312   5.209   2.323
 2486SOL     OW 8356   2.598   6.181   2.862
 2486SOL    HW1 8357   2.591   6.093   2.911
 2486SOL    HW2 8358   2.667   6.172   2.790
 2487SOL     OW 8359   3.765   6.110   0.217
 2487SOL    HW1 8360   3.710   6.152   0.290
 2487SOL    HW2 8361   3.788   6.016   0.243
 2488SOL     OW 8362   2.499   4.430   1.698
 2488SOL    HW1 8363   2.433   4.374   1.747
 2488SOL    HW2 8364   2.512   4.516   1.747
 2489SOL     OW 8365   2.306   4.748   4.400
 2489SOL    HW1 8366   2.286   4.748   4.498
 2489SOL    HW2 8367   2.353   4.833   4.376
 2490SOL     OW 8368   6.579   5.407   1.037
 2490SOL    HW1 8369   6.605   5.319   1.077
 2490SOL    HW2 8370   6.568   5.475   1.110
 2491SOL     OW 8371   2.276   5.475   3.141
 2491SOL    HW1 8372   2.234   5.537   3.208
 2491SOL    HW2 8373   2.375   5.479   3.149
 2492SOL     OW 8374   3.840   2.994   6.491
 2492SOL    HW1 8375   3.860   3.003   6.393
 2492SOL    HW2 8376   3.869   2.904   6.522
 2493SOL     OW 8377   5.901   0.185   3.102
 2493SOL    HW1 8378   5.951   0.116   3.050
 2493SOL    HW2 8379   5.844   0.140   3.171
 2494SOL     OW 8380   5.370   2.872   2.693
 2494SOL    HW1 8381   5.452   2.852   2.747
 2494SOL    HW2 8382   5.396   2.920   2.609
 2495SOL     OW 8383   5.132   0.405   5.473
 2495SOL    HW1 8384   5.183   0.487   5.497
 2495SOL    HW2 8385   5.046   0.431   5.429
 2496SOL     OW 8386   0.646   5.161   0.066
 2496SOL    HW1 8387   0.637   5.238   0.129
 2496SOL    HW2 8388   0.632   5.193   6.990
 2497SOL     OW 8389   0.252   2.216   6.626
 2497SOL    HW1 8390   0.291   2.296   6.674
 2497SOL    HW2 8391   0.153   2.221   6.628
 2498SOL     OW 8392   2.236   2.529   3.638
 2498SOL    HW1 8393   2.204   2.598   3.573
 2498SOL    HW2 8394   2.305   2.471   3.595
 2499SOL     OW 8395   5.789   0.679   4.653
 2499SOL    HW1 8396   5.715   0.719   4.599
 2499SOL    HW2 8397   5.782   0.580   4.651
 2500SOL     OW 8398   4.494   3.823   5.366
 2500SOL    HW1 8399   4.589   3.791   5.368
 2500SOL    HW2 8400   4.433   3.744   5.355
 2501SOL     OW 8401   6.198   4.734   6.884
 2501SOL    HW1 8402   6.209   4.828   6.915
 2501SOL    HW2 8403   6.184   4.734   6.785
 2502SOL     OW 8404   2.816   6.435   3.498
 2502SOL    HW1 8405   2.830   6.471   3.405
 2502SOL    HW2 8406   2.902   6.396   3.531
 2503SOL     OW 8407   4.023   6.014   5.482
 2503SOL    HW1 8408   3.943   6.011   5.422
 2503SOL    HW2 8409   4.099   5.965   5.439
 2504SOL     OW 8410   2.517   5.495   5.039
 2504SOL    HW1 8411   2.575   5.552   5.097
 2504SOL    HW2 8412   2.485   5.416   5.092
 2505SOL     OW 8413   3.291   6.322   4.555
 2505SOL    HW1 8414   3.305   6.223   4.555
 2505SOL    HW2 8415   3.219   6.346   4.490
 2506SOL     OW 8416   0.231   3.526   6.092
 2506SOL    HW1 8417   0.319   3.486   6.066
 2506SOL    HW2 8418   0.212   3.504   6.188
 2507SOL     OW 8419   6.225   4.997   6.907
 2507SOL    HW1 8420   6.205   5.088   6.869
 2507SOL    HW2 8421   6.303   5.004   6.969
 2508SOL     OW 8422   2.838   1.859   1.982
 2508SOL    HW1 8423   2.840   1.768   1.941
 2508SOL    HW2 8424   2.917   1.912   1.950
 2509SOL     OW 8425   5.269   2.032   2.506
 2509SOL    HW1 8426   5.306   2.100   2.569
 2509SOL    HW2 8427   5.179   2.003   2.538
 2510SOL     OW 8428   2.480   4.141   0.753
 2510SOL    HW1 8429   2.455   4.154   0.657
 2510SOL    HW2 8430   2.408   4.088   0.798
 2511SOL     OW 8431   1.425   1.434   4.820
 2511SOL    HW1 8432   1.413   1.531   4.802
 2511SOL    HW2 8433   1.489   1.396   4.754
 2512SOL     OW 8434   5.932   4.362   5.012
 2512SOL    HW1 8435   5.963   4.378   4.918
 2512SOL    HW2 8436   5.990   4.293   5.055
 2513SOL     OW 8437   1.374   2.370   6.119
 2513SOL    HW1 8438   1.343   2.454   6.074
 2513SOL    HW2 8439   1.473   2.374   6.130
 2514SOL     OW 8440   0.191   2.736   3.738
 2514SOL    HW1 8441   0.120   2.804   3.756
 2514SOL    HW2 8442   0.156   2.667   3.675
 2515SOL     OW 8443   1.293   6.592   1.266
 2515SOL    HW1 8444   1.216   6.530   1.284
 2515SOL    HW2 8445   1.275   6.680   1.309
 2516SOL     OW 8446   6.050   5.485   3.289
 2516SOL    HW1 8447   5.997   5.556   3.243
 2516SOL    HW2 8448   5.992   5.437   3.355
 2517SOL     OW 8449   2.389   5.217   6.302
 2517SOL    HW1 8450   2.307   5.199   6.248
 2517SOL    HW2 8451   2.450   5.138   6.298
 2518SOL     OW 8452   2.020   3.160   0.083
 2518SOL    HW1 8453   2.042   3.161   0.180
 2518SOL    HW2 8454   2.100   3.189   0.030
 2519SOL     OW 8455   4.703   5.005   4.123
 2519SOL    HW1 8456   4.741   5.019   4.031
 2519SOL    HW2 8457   4.777   4.981   4.186
 2520SOL     OW 8458   1.548   2.483   1.192
 2520SOL    HW1 8459   1.603   2.403   1.168
 2520SOL    HW2 8460   1.544   2.545   1.114
 2521SOL     OW 8461   0.877   0.069   5.715
 2521SOL    HW1 8462   0.940   0.120   5.773
 2521SOL    HW2 8463   0.878   0.107   5.623
 2522SOL     OW 8464   0.946   3.227   4.600
 2522SOL    HW1 8465   1.010   3.268   4.665
 2522SOL    HW2 8466   0.941   3.129   4.617
 2523SOL     OW 8467   6.686   2.822   0.673
 2523SOL    HW1 8468   6.717   2.803   0.580
 2523SOL    HW2 8469   6.762   2.813   0.736
 2524SOL     OW 8470   0.083   6.463   4.582
 2524SOL    HW1 8471   0.171   6.417   4.582
 2524SOL    HW2 8472   0.033   6.441   4.665
 2525SOL     OW 8473   1.787   3.059   4.352
 2525SOL    HW1 8474   1.810   3.035   4.257
 2525SOL    HW2 8475   1.809   3.155   4.367
 2526SOL     OW 8476   0.501   2.915   5.383
 2526SOL    HW1 8477   0.525   2.876   5.295
 2526SOL    HW2 8478   0.535   3.009   5.388
 2527SOL     OW 8479   6.251   0.041   5.477
 2527SOL    HW1 8480   6.270   6.962   5.495
 2527SOL    HW2 8481   6.186   0.076   5.544
 2528SOL     OW 8482   5.732   4.895   1.508
 2528SOL    HW1 8483   5.652   4.874   1.452
 2528SOL    HW2 8484   5.814   4.895   1.450
 2529SOL     OW 8485   5.633   4.873   5.963
 2529SOL    HW1 8486   5.577   4.791   5.961
 2529SOL    HW2 8487   5.574   4.954   5.963
 2530SOL     OW 8488   0.885   6.208   4.458
 2530SOL    HW1 8489   0.851   6.301   4.443
 2530SOL    HW2 8490   0.808   6.147   4.475
 2531SOL     OW 8491   5.534   6.736   4.723
 2531SOL    HW1 8492   5.456   6.706   4.778
 2531SOL    HW2 8493   5.537   6.836   4.721
 2532SOL     OW 8494   0.654   5.350   0.280
 2532SOL    HW1 8495   0.614   5.267   0.316
 2532SOL    HW2 8496   0.747   5.361   0.317
 2533SOL     OW 8497   5.336   6.468   5.202
 2533SOL    HW1 8498   5.320   6.442   5.107
 2533SOL    HW2 8499   5.297   6.559   5.219
 2534SOL     OW 8500   2.320   0.662   3.111
 2534SOL    HW1 8501   2.267   0.578   3.126
 2534SOL    HW2 8502   2.265   0.727   3.058
 2535SOL     OW 8503   2.025   1.862   6.174
 2535SOL    HW1 8504   1.987   1.818   6.093
 2535SOL    HW2 8505   2.125   1.863   6.167
 2536SOL     OW 8506   0.298   1.642   3.218
 2536SOL    HW1 8507   0.210   1.609   3.183
 2536SOL    HW2 8508   0.304   1.740   3.203
 2537SOL     OW 8509   5.151   6.316   0.702
 2537SOL    HW1 8510   5.084   6.282   0.768
 2537SOL    HW2 8511   5.207   6.387   0.745
 2538SOL     OW 8512   1.860   4.306   4.974
 2538SOL    HW1 8513   1.929   4.237   4.953
 2538SOL    HW2 8514   1.821   4.341   4.889
 2539SOL     OW 8515   4.177   6.887   5.444
 2539SOL    HW1 8516   4.247   6.842   5.500
 2539SOL    HW2 8517   4.148   6.972   5.488
 2540SOL     OW 8518   5.567   1.204   1.287
 2540SOL    HW1 8519   5.515   1.234   1.207
 2540SOL    HW2 8520   5.526   1.119   1.322
 2541SOL     OW 8521   1.466   0.419   5.510
 2541SOL    HW1 8522   1.508   0.494   5.459
 2541SOL    HW2 8523   1.366   0.427   5.503
 2542SOL     OW 8524   4.066   2.190   4.095
 2542SOL    HW1 8525   4.131   2.196   4.170
 2542SOL    HW2 8526   3.973   2.206   4.129
 2543SOL     OW 8527   1.897   0.655   2.854
 2543SOL    HW1 8528   1.861   0.740   2.815
 2543SOL    HW2 8529   1.821   0.595   2.878
 2544SOL     OW 8530   0.701   4.965   2.140
 2544SOL    HW1 8531   0.771   5.023   2.181
 2544SOL    HW2 8532   0.620   4.964   2.198
 2545SOL     OW 8533   1.293   1.394   1.151
 2545SOL    HW1 8534   1.359   1.327   1.116
 2545SOL    HW2 8535   1.201   1.369   1.121
 2546SOL     OW 8536   6.698   3.358   0.955
 2546SOL    HW1 8537   6.792   3.325   0.946
 2546SOL    HW2 8538   6.641   3.317   0.883
 2547SOL     OW 8539   5.617   5.242   0.991
 2547SOL    HW1 8540   5.687   5.195   0.937
 2547SOL    HW2 8541   5.637   5.340   0.995
 2548SOL     OW 8542   2.112   0.635   4.736
 2548SOL    HW1 8543   2.152   0.559   4.684
 2548SOL    HW2 8544   2.084   0.604   4.826
 2549SOL     OW 8545   2.169   2.580   1.443
 2549SOL    HW1 8546   2.223   2.591   1.526
 2549SOL    HW2 8547   2.098   2.650   1.440
 2550SOL     OW 8548   5.259   0.278   6.788
 2550SOL    HW1 8549   5.320   0.338   6.838
 2550SOL    HW2 8550   5.271   0.293   6.690
 2551SOL     OW 8551   3.885   5.479   6.939
 2551SOL    HW1 8552   3.879   5.568   6.894
 2551SOL    HW2 8553   3.829   5.480   0.004
 2552SOL     OW 8554   2.339   5.252   6.831
 2552SOL    HW1 8555   2.354   5.153   6.836
 2552SOL    HW2 8556   2.354   5.283   6.737
 2553SOL     OW 8557   3.558   2.849   6.056
 2553SOL    HW1 8558   3.612   2.776   6.013
 2553SOL    HW2 8559   3.462   2.837   6.034
 2554SOL     OW 8560   1.487   5.858   6.707
 2554SOL    HW1 8561   1.521   5.870   6.614
 2554SOL    HW2 8562   1.563   5.865   6.771
 2555SOL     OW 8563   6.070   6.057   6.761
 2555SOL    HW1 8564   6.001   6.043   6.691
 2555SOL    HW2 8565   6.061   6.149   6.800
 2556SOL     OW 8566   4.257   0.295   1.199
 2556SOL    HW1 8567   4.193   0.357   1.155
 2556SOL    HW2 8568   4.263   0.210   1.147
 2557SOL     OW 8569   2.787   0.743   6.920
 2557SOL    HW1 8570   2.781   0.732   6.821
 2557SOL    HW2 8571   2.707   0.701   6.963
 2558SOL     OW 8572   4.613   4.008   5.921
 2558SOL    HW1 8573   4.640   4.083   5.982
 2558SOL    HW2 8574   4.520   3.978   5.944
 2559SOL     OW 8575   6.747   3.149   3.586
 2559SOL    HW1 8576   6.847   3.139   3.584
 2559SOL    HW2 8577   6.714   3.128   3.678
 2560SOL     OW 8578   5.121   3.579   3.559
 2560SOL    HW1 8579   5.073   3.521   3.494
 2560SOL    HW2 8580   5.073   3.667   3.567
 2561SOL     OW 8581   3.761   1.423   3.019
 2561SOL    HW1 8582   3.817   1.491   2.971
 2561SOL    HW2 8583   3.664   1.448   3.010
 2562SOL     OW 8584   3.193   5.729   3.333
 2562SOL    HW1 8585   3.180   5.683   3.245
 2562SOL    HW2 8586   3.106   5.767   3.364
 2563SOL     OW 8587   3.080   1.599   6.489
 2563SOL    HW1 8588   3.142   1.608   6.567
 2563SOL    HW2 8589   3.131   1.566   6.409
 2564SOL     OW 8590   1.734   6.984   0.353
 2564SOL    HW1 8591   1.825   7.016   0.381
 2564SOL    HW2 8592   1.743   6.902   0.297
 2565SOL     OW 8593   0.483   1.365   0.013
 2565SOL    HW1 8594   0.445   1.310   0.087
 2565SOL    HW2 8595   0.570   1.326   7.001
 2566SOL     OW 8596   2.614   6.718   1.932
 2566SOL    HW1 8597   2.536   6.747   1.878
 2566SOL    HW2 8598   2.590   6.636   1.985
 2567SOL     OW 8599   1.455   1.198   1.076
 2567SOL    HW1 8600   1.391   1.128   1.109
 2567SOL    HW2 8601   1.525   1.154   1.019
 2568SOL     OW 8602   2.764   6.893   0.586
 2568SOL    HW1 8603   2.687   6.939   0.631
 2568SOL    HW2 8604   2.784   6.807   0.634
 2569SOL     OW 8605   2.698   2.234   1.929
 2569SOL    HW1 8606   2.722   2.237   1.832
 2569SOL    HW2 8607   2.778   2.260   1.984
 2570SOL     OW 8608   4.869   5.901   6.375
 2570SOL    HW1 8609   4.881   5.840   6.296
 2570SOL    HW2 8610   4.805   5.974   6.352
 2571SOL     OW 8611   3.651   2.890   4.530
 2571SOL    HW1 8612   3.702   2.895   4.443
 2571SOL    HW2 8613   3.716   2.877   4.605
 2572SOL     OW 8614   2.498   6.251   1.272
 2572SOL    HW1 8615   2.475   6.195   1.192
 2572SOL    HW2 8616   2.504   6.192   1.353
 2573SOL     OW 8617   6.312   1.871   3.075
 2573SOL    HW1 8618   6.266   1.797   3.124
 2573SOL    HW2 8619   6.290   1.866   2.978
 2574SOL     OW 8620   6.204   3.304   0.779
 2574SOL    HW1 8621   6.173   3.213   0.805
 2574SOL    HW2 8622   6.208   3.363   0.860
 2575SOL     OW 8623   5.041   3.812   1.532
 2575SOL    HW1 8624   5.029   3.742   1.603
 2575SOL    HW2 8625   4.960   3.870   1.528
 2576SOL     OW 8626   3.710   0.160   3.970
 2576SOL    HW1 8627   3.705   0.093   3.896
 2576SOL    HW2 8628   3.754   0.243   3.936
 2577SOL     OW 8629   4.767   0.397   3.589
 2577SOL    HW1 8630   4.743   0.356   3.676
 2577SOL    HW2 8631   4.865   0.418   3.588
 2578SOL     OW 8632   5.090   2.710   5.259
 2578SOL    HW1 8633   5.050   2.646   5.193
 2578SOL    HW2 8634   5.017   2.759   5.306
 2579SOL     OW 8635   1.213   1.690   5.331
 2579SOL    HW1 8636   1.203   1.645   5.242
 2579SOL    HW2 8637   1.220   1.788   5.318
 2580SOL     OW 8638   1.930   2.786   5.750
 2580SOL    HW1 8639   1.863   2.726   5.794
 2580SOL    HW2 8640   1.996   2.730   5.700
 2581SOL     OW 8641   5.604   4.648   1.974
 2581SOL    HW1 8642   5.612   4.740   1.936
 2581SOL    HW2 8643   5.524   4.603   1.936
 2582SOL     OW 8644   2.181   4.874   3.166
 2582SOL    HW1 8645   2.241   4.840   3.238
 2582SOL    HW2 8646   2.172   4.805   3.094
 2583SOL     OW 8647   1.190   0.681   0.618
 2583SOL    HW1 8648   1.156   0.775   0.625
 2583SOL    HW2 8649   1.289   0.680   0.634
 2584SOL     OW 8650   4.459   6.475   0.859
 2584SOL    HW1 8651   4.438   6.377   0.868
 2584SOL    HW2 8652   4.552   6.486   0.824
 2585SOL     OW 8653   3.047   0.344   0.432
 2585SOL    HW1 8654   3.017   0.256   0.471
 2585SOL    HW2 8655   3.025   0.418   0.496
 2586SOL     OW 8656   5.182   1.565   4.947
 2586SOL    HW1 8657   5.193   1.523   5.038
 2586SOL    HW2 8658   5.136   1.500   4.886
 2587SOL     OW 8659   6.709   0.348   4.700
 2587SOL    HW1 8660   6.657   0.408   4.761
 2587SOL    HW2 8661   6.664   0.346   4.610
 2588SOL     OW 8662   4.673   6.988   0.581
 2588SOL    HW1 8663   4.705   6.930   0.656
 2588SOL    HW2 8664   4.574   6.978   0.571
 2589SOL     OW 8665   0.512   6.835   5.529
 2589SOL    HW1 8666   0.538   6.931   5.540
 2589SOL    HW2 8667   0.515   6.790   5.618
 2590SOL     OW 8668   3.606   0.016   2.683
 2590SOL    HW1 8669   3.686   0.037   2.739
 2590SOL    HW2 8670   3.567   6.946   2.713
 2591SOL     OW 8671   5.083   5.725   2.576
 2591SOL    HW1 8672   5.056   5.635   2.611
 2591SOL    HW2 8673   5.022   5.795   2.614
 2592SOL     OW 8674   2.785   6.338   1.465
 2592SOL    HW1 8675   2.765   6.248   1.427
 2592SOL    HW2 8676   2.711   6.366   1.527
 2593SOL     OW 8677   3.593   6.620   2.101
 2593SOL    HW1 8678   3.563   6.701   2.050
 2593SOL    HW2 8679   3.516   6.557   2.111
 2594SOL     OW 8680   0.307   6.380   6.210
 2594SOL    HW1 8681   0.253   6.420   6.284
 2594SOL    HW2 8682   0.390   6.434   6.196
 2595SOL     OW 8683   6.938   2.047   5.705
 2595SOL    HW1 8684   6.973   1.961   5.668
 2595SOL    HW2 8685   6.994   2.075   5.783
 2596SOL     OW 8686   3.839   2.400   1.663
 2596SOL    HW1 8687   3.763   2.390   1.727
 2596SOL    HW2 8688   3.821   2.347   1.580
 2597SOL     OW 8689   1.940   3.985   0.605
 2597SOL    HW1 8690   2.015   4.035   0.648
 2597SOL    HW2 8691   1.936   4.008   0.507
 2598SOL     OW 8692   5.771   2.869   4.632
 2598SOL    HW1 8693   5.737   2.785   4.590
 2598SOL    HW2 8694   5.787   2.938   4.561
 2599SOL     OW 8695   3.665   5.822   6.749
 2599SOL    HW1 8696   3.668   5.883   6.828
 2599SOL    HW2 8697   3.758   5.807   6.716
 2600SOL     OW 8698   4.986   3.621   4.117
 2600SOL    HW1 8699   4.924   3.542   4.123
 2600SOL    HW2 8700   4.978   3.676   4.200
 2601SOL     OW 8701   3.655   2.178   6.595
 2601SOL    HW1 8702   3.588   2.165   6.521
 2601SOL    HW2 8703   3.671   2.276   6.607
 2602SOL     OW 8704   6.856   4.790   3.357
 2602SOL    HW1 8705   6.931   4.761   3.417
 2602SOL    HW2 8706   6.769   4.782   3.405
 2603SOL     OW 8707   2.754   2.014   1.579
 2603SOL    HW1 8708   2.839   1.996   1.627
 2603SOL    HW2 8709   2.750   2.110   1.553
 2604SOL     OW 8710   4.902   1.341   1.572
 2604SOL    HW1 8711   4.890   1.332   1.671
 2604SOL    HW2 8712   5.000   1.345   1.551
 2605SOL     OW 8713   4.018   5.043   3.428
 2605SOL    HW1 8714   3.986   5.106   3.357
 2605SOL    HW2 8715   4.019   5.089   3.516
 2606SOL     OW 8716   6.588   4.604   0.647
 2606SOL    HW1 8717   6.608   4.586   0.743
 2606SOL    HW2 8718   6.488   4.604   0.633
 2607SOL     OW 8719   0.377   1.992   5.812
 2607SOL    HW1 8720   0.312   1.972   5.738
 2607SOL    HW2 8721   0.367   2.087   5.840
 2608SOL     OW 8722   4.370   6.080   2.950
 2608SOL    HW1 8723   4.470   6.079   2.952
 2608SOL    HW2 8724   4.337   6.043   2.863
 2609SOL     OW 8725   0.898   2.628   1.180
 2609SOL    HW1 8726   0.836   2.705   1.165
 2609SOL    HW2 8727   0.939   2.636   1.271
 2610SOL     OW 8728   6.679   5.394   4.025
 2610SOL    HW1 8729   6.776   5.414   4.017
 2610SOL    HW2 8730   6.646   5.355   3.939
 2611SOL     OW 8731   6.259   6.770   0.871
 2611SOL    HW1 8732   6.212   6.833   0.810
 2611SOL    HW2 8733   6.312   6.821   0.939
 2612SOL     OW 8734   6.563   6.458   5.226
 2612SOL    HW1 8735   6.622   6.422   5.298
 2612SOL    HW2 8736   6.524   6.383   5.174
 2613SOL     OW 8737   2.793   6.311   2.039
 2613SOL    HW1 8738   2.867   6.277   2.097
 2613SOL    HW2 8739   2.821   6.398   1.998
 2614SOL     OW 8740   6.342   6.659   5.765
 2614SOL    HW1 8741   6.320   6.563   5.750
 2614SOL    HW2 8742   6.301   6.690   5.851
 2615SOL     OW 8743   5.704   5.003   3.385
 2615SOL    HW1 8744   5.689   4.940   3.309
 2615SOL    HW2 8745   5.803   5.013   3.401
 2616SOL     OW 8746   3.746   3.658   3.976
 2616SOL    HW1 8747   3.744   3.687   3.881
 2616SOL    HW2 8748   3.841   3.647   4.006
 2617SOL     OW 8749   3.242   6.508   1.412
 2617SOL    HW1 8750   3.175   6.467   1.474
 2617SOL    HW2 8751   3.198   6.582   1.361
 2618SOL     OW 8752   0.342   6.441   3.994
 2618SOL    HW1 8753   0.269   6.463   3.928
 2618SOL    HW2 8754   0.428   6.479   3.962
 2619SOL     OW 8755   3.176   0.839   2.969
 2619SOL    HW1 8756   3.220   0.906   3.030
 2619SOL    HW2 8757   3.077   0.851   2.973
 2620SOL     OW 8758   1.123   5.785   3.787
 2620SOL    HW1 8759   1.123   5.764   3.689
 2620SOL    HW2 8760   1.147   5.703   3.839
 2621SOL     OW 8761   1.832   5.760   3.783
 2621SOL    HW1 8762   1.738   5.770   3.817
 2621SOL    HW2 8763   1.850   5.664   3.762
 2622SOL     OW 8764   2.316   2.353   6.471
 2622SOL    HW1 8765   2.254   2.387   6.400
 2622SOL    HW2 8766   2.321   2.419   6.546
 2623SOL     OW 8767   3.607   1.757   4.847
 2623SOL    HW1 8768   3.600   1.831   4.914
 2623SOL    HW2 8769   3.656   1.680   4.887
 2624SOL     OW 8770   6.653   3.080   3.844
 2624SOL    HW1 8771   6.674   3.102   3.939
 2624SOL    HW2 8772   6.571   3.022   3.841
 2625SOL     OW 8773   2.456   2.790   5.316
 2625SOL    HW1 8774   2.479   2.878   5.274
 2625SOL    HW2 8775   2.497   2.716   5.263
 2626SOL     OW 8776   0.338   6.924   4.137
 2626SOL    HW1 8777   0.319   6.853   4.205
 2626SOL    HW2 8778   0.253   6.972   4.115
 2627SOL     OW 8779   0.373   0.817   4.095
 2627SOL    HW1 8780   0.455   0.773   4.059
 2627SOL    HW2 8781   0.337   0.763   4.172
 2628SOL     OW 8782   3.769   5.513   6.479
 2628SOL    HW1 8783   3.854   5.559   6.453
 2628SOL    HW2 8784   3.762   5.511   6.579
 2629SOL     OW 8785   3.609   3.850   2.276
 2629SOL    HW1 8786   3.655   3.936   2.299
 2629SOL    HW2 8787   3.539   3.830   2.345
 2630SOL     OW 8788   3.621   1.709   2.563
 2630SOL    HW1 8789   3.633   1.774   2.638
 2630SOL    HW2 8790   3.683   1.733   2.488
 2631SOL     OW 8791   4.880   6.859   3.739
 2631SOL    HW1 8792   4.880   6.831   3.643
 2631SOL    HW2 8793   4.880   6.958   3.745
 2632SOL     OW 8794   2.662   2.204   5.883
 2632SOL    HW1 8795   2.652   2.195   5.982
 2632SOL    HW2 8796   2.715   2.127   5.848
 2633SOL     OW 8797   6.251   2.375   6.190
 2633SOL    HW1 8798   6.253   2.431   6.107
 2633SOL    HW2 8799   6.325   2.308   6.187
 2634SOL     OW 8800   2.132   4.003   3.175
 2634SOL    HW1 8801   2.033   3.992   3.179
 2634SOL    HW2 8802   2.167   4.025   3.267
 2635SOL     OW 8803   5.753   6.083   4.623
 2635SOL    HW1 8804   5.689   6.022   4.670
 2635SOL    HW2 8805   5.710   6.118   4.540
 2636SOL     OW 8806   5.245   0.651   5.985
 2636SOL    HW1 8807   5.173   0.704   5.940
 2636SOL    HW2 8808   5.220   0.554   5.986
 2637SOL     OW 8809   5.941   1.223   3.692
 2637SOL    HW1 8810   6.032   1.263   3.678
 2637SOL    HW2 8811   5.938   1.177   3.780
 2638SOL     OW 8812   0.055   6.569   3.193
 2638SOL    HW1 8813   0.102   6.634   3.133
 2638SOL    HW2 8814   0.114   6.547   3.271
 2639SOL     OW 8815   6.977   6.845   1.964
 2639SOL    HW1 8816   6.938   6.856   2.055
 2639SOL    HW2 8817   6.997   6.748   1.948
 2640SOL     OW 8818   6.842   6.166   5.784
 2640SOL    HW1 8819   6.921   6.153   5.723
 2640SOL    HW2 8820   6.847   6.257   5.825
 2641SOL     OW 8821   5.161   2.941   1.820
 2641SOL    HW1 8822   5.079   2.989   1.787
 2641SOL    HW2 8823   5.144   2.843   1.820
 2642SOL     OW 8824   5.490   0.490   4.849
 2642SOL    HW1 8825   5.424   0.473   4.776
 2642SOL    HW2 8826   5.564   0.423   4.845
 2643SOL     OW 8827   1.163   4.788   3.458
 2643SOL    HW1 8828   1.104   4.868   3.445
 2643SOL    HW2 8829   1.143   4.721   3.388
 2644SOL     OW 8830   0.158   4.337   5.241
 2644SOL    HW1 8831   0.205   4.285   5.170
 2644SOL    HW2 8832   0.060   4.339   5.222
 2645SOL     OW 8833   4.977   6.490   5.082
 2645SOL    HW1 8834   4.938   6.418   5.025
 2645SOL    HW2 8835   4.907   6.559   5.101
 2646SOL     OW 8836   6.160   6.826   6.417
 2646SOL    HW1 8837   6.078   6.819   6.359
 2646SOL    HW2 8838   6.162   6.915   6.461
 2647SOL     OW 8839   5.461   0.779   0.679
 2647SOL    HW1 8840   5.440   0.681   0.671
 2647SOL    HW2 8841   5.458   0.805   0.776
 2648SOL     OW 8842   6.901   0.217   4.029
 2648SOL    HW1 8843   6.984   0.165   4.009
 2648SOL    HW2 8844   6.821   0.166   3.997
 2649SOL     OW 8845   4.500   2.297   6.324
 2649SOL    HW1 8846   4.596   2.317   6.346
 2649SOL    HW2 8847   4.482   2.200   6.340
 2650SOL     OW 8848   0.519   4.070   3.857
 2650SOL    HW1 8849   0.435   4.081   3.804
 2650SOL    HW2 8850   0.596   4.060   3.795
 2651SOL     OW 8851   1.326   1.535   0.627
 2651SOL    HW1 8852   1.401   1.566   0.568
 2651SOL    HW2 8853   1.307   1.438   0.609
 2652SOL     OW 8854   3.281   4.138   3.681
 2652SOL    HW1 8855   3.286   4.153   3.780
 2652SOL    HW2 8856   3.194   4.096   3.658
 2653SOL     OW 8857   5.221   0.055   4.747
 2653SOL    HW1 8858   5.207   0.012   4.658
 2653SOL    HW2 8859   5.233   0.154   4.735
 2654SOL     OW 8860   4.480   3.413   0.506
 2654SOL    HW1 8861   4.382   3.397   0.496
 2654SOL    HW2 8862   4.496   3.510   0.529
 2655SOL     OW 8863   4.703   4.724   4.402
 2655SOL    HW1 8864   4.736   4.675   4.322
 2655SOL    HW2 8865   4.628   4.673   4.444
 2656SOL     OW 8866   3.976   4.973   4.333
 2656SOL    HW1 8867   3.933   4.935   4.415
 2656SOL    HW2 8868   4.052   5.032   4.359
 2657SOL     OW 8869   2.466   4.547   6.656
 2657SOL    HW1 8870   2.438   4.530   6.750
 2657SOL    HW2 8871   2.416   4.484   6.595
 2658SOL     OW 8872   5.468   4.087   0.804
 2658SOL    HW1 8873   5.491   4.008   0.861
 2658SOL    HW2 8874   5.549   4.144   0.791
 2659SOL     OW 8875   6.414   2.234   4.453
 2659SOL    HW1 8876   6.378   2.166   4.389
 2659SOL    HW2 8877   6.514   2.231   4.452
 2660SOL     OW 8878   0.749   1.802   1.248
 2660SOL    HW1 8879   0.653   1.779   1.267
 2660SOL    HW2 8880   0.752   1.882   1.188
 2661SOL     OW 8881   2.259   5.957   2.362
 2661SOL    HW1 8882   2.305   5.875   2.396
 2661SOL    HW2 8883   2.327   6.021   2.327
 2662SOL     OW 8884   4.659   0.087   5.322
 2662SOL    HW1 8885   4.658   7.017   5.370
 2662SOL    HW2 8886   4.731   0.145   5.361
 2663SOL     OW 8887   2.946   4.476   1.253
 2663SOL    HW1 8888   2.901   4.433   1.175
 2663SOL    HW2 8889   2.992   4.405   1.307
 2664SOL     OW 8890   4.018   3.803   3.635
 2664SOL    HW1 8891   4.008   3.713   3.678
 2664SOL    HW2 8892   3.976   3.872   3.694
 2665SOL     OW 8893   2.927   1.778   4.452
 2665SOL    HW1 8894   2.926   1.825   4.541
 2665SOL    HW2 8895   2.973   1.690   4.462
 2666SOL     OW 8896   4.573   4.016   1.495
 2666SOL    HW1 8897   4.593   4.023   1.592
 2666SOL    HW2 8898   4.504   3.945   1.480
 2667SOL     OW 8899   1.860   5.755   4.505
 2667SOL    HW1 8900   1.837   5.852   4.516
 2667SOL    HW2 8901   1.825   5.722   4.418
 2668SOL     OW 8902   6.621   3.213   3.366
 2668SOL    HW1 8903   6.678   3.206   3.447
 2668SOL    HW2 8904   6.679   3.226   3.285
 2669SOL     OW 8905   2.937   4.876   5.040
 2669SOL    HW1 8906   2.863   4.944   5.028
 2669SOL    HW2 8907   2.897   4.789   5.067
 2670SOL     OW 8908   6.143   1.072   6.350
 2670SOL    HW1 8909   6.109   1.042   6.261
 2670SOL    HW2 8910   6.181   1.164   6.342
 2671SOL     OW 8911   3.436   4.966   0.566
 2671SOL    HW1 8912   3.354   4.917   0.595
 2671SOL    HW2 8913   3.431   5.061   0.597
 2672SOL     OW 8914   0.324   5.461   6.702
 2672SOL    HW1 8915   0.406   5.461   6.759
 2672SOL    HW2 8916   0.347   5.429   6.610
 2673SOL     OW 8917   5.736   2.250   3.655
 2673SOL    HW1 8918   5.674   2.199   3.595
 2673SOL    HW2 8919   5.825   2.205   3.658
 2674SOL     OW 8920   2.271   4.091   4.378
 2674SOL    HW1 8921   2.241   3.996   4.374
 2674SOL    HW2 8922   2.337   4.102   4.453
 2675SOL     OW 8923   0.783   4.833   4.940
 2675SOL    HW1 8924   0.720   4.887   4.885
 2675SOL    HW2 8925   0.743   4.743   4.957
 2676SOL     OW 8926   4.347   0.640   2.981
 2676SOL    HW1 8927   4.264   0.690   2.957
 2676SOL    HW2 8928   4.366   0.571   2.910
 2677SOL     OW 8929   3.186   5.460   0.494
 2677SOL    HW1 8930   3.267   5.443   0.438
 2677SOL    HW2 8931   3.148   5.550   0.472
 2678SOL     OW 8932   6.906   3.597   1.155
 2678SOL    HW1 8933   6.850   3.665   1.106
 2678SOL    HW2 8934   6.850   3.518   1.178
 2679SOL     OW 8935   4.039   5.667   1.242
 2679SOL    HW1 8936   4.126   5.644   1.287
 2679SOL    HW2 8937   4.017   5.763   1.260
 2680SOL     OW 8938   1.747   1.279   0.745
 2680SOL    HW1 8939   1.834   1.318   0.773
 2680SOL    HW2 8940   1.679   1.352   0.734
 2681SOL     OW 8941   1.288   1.906   4.361
 2681SOL    HW1 8942   1.253   1.877   4.272
 2681SOL    HW2 8943   1.328   1.827   4.408
 2682SOL     OW 8944   5.711   3.683   1.974
 2682SOL    HW1 8945   5.658   3.766   1.956
 2682SOL    HW2 8946   5.659   3.624   2.035
 2683SOL     OW 8947   1.376   3.561   7.001
 2683SOL    HW1 8948   1.386   3.486   6.935
 2683SOL    HW2 8949   1.373   3.648   6.951
 2684SOL     OW 8950   4.269   5.169   3.304
 2684SOL    HW1 8951   4.212   5.134   3.230
 2684SOL    HW2 8952   4.213   5.225   3.365
 2685SOL     OW 8953   0.104   6.755   5.794
 2685SOL    HW1 8954   0.122   6.751   5.893
 2685SOL    HW2 8955   0.128   6.667   5.753
 2686SOL     OW 8956   1.627   2.094   5.509
 2686SOL    HW1 8957   1.572   2.075   5.591
 2686SOL    HW2 8958   1.673   2.010   5.480
 2687SOL     OW 8959   4.348   4.661   3.307
 2687SOL    HW1 8960   4.433   4.712   3.292
 2687SOL    HW2 8961   4.350   4.619   3.397
 2688SOL     OW 8962   4.524   5.388   6.263
 2688SOL    HW1 8963   4.489   5.295   6.275
 2688SOL    HW2 8964   4.611   5.397   6.312
 2689SOL     OW 8965   2.296   2.087   3.144
 2689SOL    HW1 8966   2.243   2.162   3.104
 2689SOL    HW2 8967   2.327   2.025   3.072
 2690SOL     OW 8968   3.086   3.971   3.920
 2690SOL    HW1 8969   3.000   3.954   3.968
 2690SOL    HW2 8970   3.068   3.972   3.821
 2691SOL     OW 8971   1.343   5.417   2.448
 2691SOL    HW1 8972   1.244   5.417   2.458
 2691SOL    HW2 8973   1.368   5.447   2.356
 2692SOL     OW 8974   4.652   5.476   4.343
 2692SOL    HW1 8975   4.701   5.432   4.268
 2692SOL    HW2 8976   4.598   5.552   4.307
 2693SOL     OW 8977   1.808   4.105   2.621
 2693SOL    HW1 8978   1.810   4.202   2.594
 2693SOL    HW2 8979   1.793   4.049   2.540
 2694SOL     OW 8980   3.798   0.422   3.103
 2694SOL    HW1 8981   3.753   0.367   3.033
 2694SOL    HW2 8982   3.896   0.405   3.101
 2695SOL     OW 8983   5.659   1.474   2.523
 2695SOL    HW1 8984   5.667   1.454   2.621
 2695SOL    HW2 8985   5.694   1.397   2.470
 2696SOL     OW 8986   3.372   3.174   5.269
 2696SOL    HW1 8987   3.340   3.235   5.197
 2696SOL    HW2 8988   3.399   3.228   5.349
 2697SOL     OW 8989   3.974   1.976   3.392
 2697SOL    HW1 8990   4.033   1.906   3.352
 2697SOL    HW2 8991   3.997   2.065   3.352
 2698SOL     OW 8992   1.701   5.469   1.077
 2698SOL    HW1 8993   1.684   5.518   0.991
 2698SOL    HW2 8994   1.706   5.534   1.152
 2699SOL     OW 8995   3.270   5.750   0.328
 2699SOL    HW1 8996   3.206   5.780   0.258
 2699SOL    HW2 8997   3.282   5.651   0.322
 2700SOL     OW 8998   2.093   3.440   1.509
 2700SOL    HW1 8999   2.169   3.397   1.558
 2700SOL    HW2 9000   2.099   3.540   1.521
 2701SOL     OW 9001   3.848   7.017   6.439
 2701SOL    HW1 9002   3.854   0.058   6.520
 2701SOL    HW2 9003   3.847   0.057   6.357
 2702SOL     OW 9004   0.548   1.978   3.672
 2702SOL    HW1 9005   0.610   1.900   3.662
 2702SOL    HW2 9006   0.566   2.025   3.758
 2703SOL     OW 9007   2.108   0.739   2.581
 2703SOL    HW1 9008   2.116   0.659   2.642
 2703SOL    HW2 9009   2.199   0.772   2.557
 2704SOL     OW 9010   0.836   5.047   0.879
 2704SOL    HW1 9011   0.902   5.099   0.934
 2704SOL    HW2 9012   0.822   4.957   0.919
 2705SOL     OW 9013   1.379   5.433   4.435
 2705SOL    HW1 9014   1.294   5.480   4.459
 2705SOL    HW2 9015   1.457   5.494   4.450
 2706SOL     OW 9016   0.651   0.606   1.287
 2706SOL    HW1 9017   0.579   0.567   1.230
 2706SOL    HW2 9018   0.645   0.706   1.285
 2707SOL     OW 9019   2.295   0.689   5.688
 2707SOL    HW1 9020   2.344   0.766   5.728
 2707SOL    HW2 9021   2.343   0.658   5.606
 2708SOL     OW 9022   1.630   2.048   1.565
 2708SOL    HW1 9023   1.681   2.095   1.493
 2708SOL    HW2 9024   1.693   1.997   1.623
 2709SOL     OW 9025   5.379   6.697   1.028
 2709SOL    HW1 9026   5.446   6.771   1.037
 2709SOL    HW2 9027   5.287   6.733   1.044
 2710SOL     OW 9028   6.713   2.830   2.741
 2710SOL    HW1 9029   6.666   2.857   2.825
 2710SOL    HW2 9030   6.682   2.888   2.666
 2711SOL     OW 9031   2.899   0.882   3.005
 2711SOL    HW1 9032   2.822   0.882   3.069
 2711SOL    HW2 9033   2.894   0.802   2.946
 2712SOL     OW 9034   3.362   5.347   1.081
 2712SOL    HW1 9035   3.417   5.332   1.163
 2712SOL    HW2 9036   3.271   5.382   1.107
 2713SOL     OW 9037   1.376   2.111   4.706
 2713SOL    HW1 9038   1.322   2.174   4.651
 2713SOL    HW2 9039   1.316   2.062   4.770
 2714SOL     OW 9040   4.826   2.017   6.686
 2714SOL    HW1 9041   4.794   2.112   6.684
 2714SOL    HW2 9042   4.831   1.982   6.593
 2715SOL     OW 9043   5.855   0.136   0.132
 2715SOL    HW1 9044   5.841   0.235   0.139
 2715SOL    HW2 9045   5.784   0.088   0.183
 2716SOL     OW 9046   5.942   5.436   1.921
 2716SOL    HW1 9047   5.906   5.384   1.998
 2716SOL    HW2 9048   6.005   5.379   1.868
 2717SOL     OW 9049   0.902   5.348   1.431
 2717SOL    HW1 9050   0.825   5.351   1.494
 2717SOL    HW2 9051   0.951   5.435   1.433
 2718SOL     OW 9052   2.153   3.865   4.788
 2718SOL    HW1 9053   2.156   3.773   4.749
 2718SOL    HW2 9054   2.191   3.863   4.881
 2719SOL     OW 9055   5.350   4.843   1.784
 2719SOL    HW1 9056   5.450   4.854   1.784
 2719SOL    HW2 9057   5.312   4.886   1.702
 2720SOL     OW 9058   1.913   6.207   3.593
 2720SOL    HW1 9059   1.890   6.122   3.640
 2720SOL    HW2 9060   2.010   6.206   3.569
 2721SOL     OW 9061   3.032   0.211   4.724
 2721SOL    HW1 9062   3.076   0.122   4.714
 2721SOL    HW2 9063   2.944   0.210   4.677
 2722SOL     OW 9064   6.670   5.500   2.983
 2722SOL    HW1 9065   6.611   5.452   2.917
 2722SOL    HW2 9066   6.766   5.488   2.957
 2723SOL     OW 9067   1.732   6.802   5.634
 2723SOL    HW1 9068   1.797   6.754   5.693
 2723SOL    HW2 9069   1.759   6.898   5.627
 2724SOL     OW 9070   3.036   6.340   5.852
 2724SOL    HW1 9071   3.027   6.257   5.797
 2724SOL    HW2 9072   2.946   6.376   5.873
 2725SOL     OW 9073   6.327   5.228   3.174
 2725SOL    HW1 9074   6.424   5.228   3.200
 2725SOL    HW2 9075   6.298   5.322   3.155
 2726SOL     OW 9076   6.429   4.278   1.031
 2726SOL    HW1 9077   6.476   4.214   0.970
 2726SOL    HW2 9078   6.331   4.264   1.025
 2727SOL     OW 9079   6.955   4.712   2.809
 2727SOL    HW1 9080   6.866   4.693   2.766
 2727SOL    HW2 9081   0.009   4.660   2.761
 2728SOL     OW 9082   3.763   0.327   5.375
 2728SOL    HW1 9083   3.811   0.334   5.463
 2728SOL    HW2 9084   3.731   0.234   5.362
 2729SOL     OW 9085   6.644   5.944   2.028
 2729SOL    HW1 9086   6.727   5.965   1.975
 2729SOL    HW2 9087   6.625   5.846   2.024
 2730SOL     OW 9088   1.674   6.165   1.207
 2730SOL    HW1 9089   1.620   6.243   1.241
 2730SOL    HW2 9090   1.768   6.173   1.238
 2731SOL     OW 9091   3.901   3.876   2.134
 2731SOL    HW1 9092   3.969   3.809   2.165
 2731SOL    HW2 9093   3.840   3.899   2.211
 2732SOL     OW 9094   6.016   3.112   1.594
 2732SOL    HW1 9095   5.995   3.014   1.599
 2732SOL    HW2 9096   6.099   3.125   1.540
 2733SOL     OW 9097   0.290   0.009   5.228
 2733SOL    HW1 9098   0.232   6.998   5.305
 2733SOL    HW2 9099   0.318   0.104   5.242
 2734SOL     OW 9100   2.209   5.239   2.394
 2734SOL    HW1 9101   2.255   5.155   2.423
 2734SOL    HW2 9102   2.112   5.235   2.418
 2735SOL     OW 9103   0.458   3.867   3.130
 2735SOL    HW1 9104   0.558   3.864   3.133
 2735SOL    HW2 9105   0.425   3.935   3.195
 2736SOL     OW 9106   5.227   0.322   4.093
 2736SOL    HW1 9107   5.325   0.343   4.101
 2736SOL    HW2 9108   5.176   0.377   4.159
 2737SOL     OW 9109   3.172   3.082   5.437
 2737SOL    HW1 9110   3.250   3.118   5.386
 2737SOL    HW2 9111   3.164   3.129   5.524
 2738SOL     OW 9112   5.289   5.449   4.495
 2738SOL    HW1 9113   5.243   5.420   4.411
 2738SOL    HW2 9114   5.302   5.369   4.555
 2739SOL     OW 9115   5.870   4.897   0.386
 2739SOL    HW1 9116   5.811   4.837   0.333
 2739SOL    HW2 9117   5.813   4.963   0.436
 2740SOL     OW 9118   5.979   2.898   2.646
 2740SOL    HW1 9119   6.006   2.878   2.552
 2740SOL    HW2 9120   6.007   2.822   2.705
 2741SOL     OW 9121   6.878   1.402   5.799
 2741SOL    HW1 9122   6.839   1.494   5.803
 2741SOL    HW2 9123   6.837   1.345   5.870
 2742SOL     OW 9124   1.946   5.400   6.785
 2742SOL    HW1 9125   1.948   5.401   6.685
 2742SOL    HW2 9126   1.984   5.313   6.818
 2743SOL     OW 9127   6.401   5.292   2.267
 2743SOL    HW1 9128   6.348   5.327   2.345
 2743SOL    HW2 9129   6.441   5.204   2.291
 2744SOL     OW 9130   4.032   2.442   6.828
 2744SOL    HW1 9131   4.128   2.465   6.845
 2744SOL    HW2 9132   4.021   2.342   6.828
 2745SOL     OW 9133   1.079   6.965   0.083
 2745SOL    HW1 9134   1.009   6.914   0.033
 2745SOL    HW2 9135   1.041   0.033   0.116
 2746SOL     OW 9136   1.909   1.791   4.615
 2746SOL    HW1 9137   1.963   1.755   4.691
 2746SOL    HW2 9138   1.946   1.880   4.587
 2747SOL     OW 9139   5.653   3.792   5.555
 2747SOL    HW1 9140   5.752   3.803   5.568
 2747SOL    HW2 9141   5.623   3.706   5.597
 2748SOL     OW 9142   3.891   1.443   1.004
 2748SOL    HW1 9143   3.889   1.509   1.079
 2748SOL    HW2 9144   3.982   1.444   0.962
 2749SOL     OW 9145   6.089   4.460   4.152
 2749SOL    HW1 9146   6.155   4.508   4.095
 2749SOL    HW2 9147   6.130   4.439   4.241
 2750SOL     OW 9148   0.228   5.014   1.956
 2750SOL    HW1 9149   0.319   4.973   1.962
 2750SOL    HW2 9150   0.213   5.051   1.865
 2751SOL     OW 9151   1.699   6.540   0.484
 2751SOL    HW1 9152   1.631   6.537   0.557
 2751SOL    HW2 9153   1.655   6.516   0.397
 2752SOL     OW 9154   5.387   5.311   4.942
 2752SOL    HW1 9155   5.310   5.304   5.005
 2752SOL    HW2 9156   5.444   5.229   4.948
 2753SOL     OW 9157   1.542   6.946   5.989
 2753SOL    HW1 9158   1.487   6.899   6.058
 2753SOL    HW2 9159   1.632   6.903   5.983
 2754SOL     OW 9160   6.489   1.320   4.186
 2754SOL    HW1 9161   6.419   1.381   4.223
 2754SOL    HW2 9162   6.517   1.254   4.256
 2755SOL     OW 9163   3.243   6.875   3.176
 2755SOL    HW1 9164   3.323   6.858   3.234
 2755SOL    HW2 9165   3.271   6.872   3.080
 2756SOL     OW 9166   6.466   3.798   4.463
 2756SOL    HW1 9167   6.423   3.821   4.376
 2756SOL    HW2 9168   6.535   3.727   4.448
 2757SOL     OW 9169   2.697   1.279   6.793
 2757SOL    HW1 9170   2.773   1.296   6.730
 2757SOL    HW2 9171   2.717   1.198   6.847
 2758SOL     OW 9172   5.630   6.084   3.793
 2758SOL    HW1 9173   5.554   6.048   3.739
 2758SOL    HW2 9174   5.672   6.160   3.744
 2759SOL     OW 9175   3.910   5.426   5.075
 2759SOL    HW1 9176   3.894   5.514   5.030
 2759SOL    HW2 9177   3.966   5.441   5.156
 2760SOL     OW 9178   0.030   5.250   2.746
 2760SOL    HW1 9179   0.079   5.198   2.816
 2760SOL    HW2 9180   0.086   5.260   2.665
 2761SOL     OW 9181   1.828   4.238   3.707
 2761SOL    HW1 9182   1.744   4.218   3.758
 2761SOL    HW2 9183   1.902   4.257   3.772
 2762SOL     OW 9184   1.541   2.189   6.942
 2762SOL    HW1 9185   1.561   2.218   0.018
 2762SOL    HW2 9186   1.621   2.206   6.884
 2763SOL     OW 9187   4.906   2.158   5.502
 2763SOL    HW1 9188   4.946   2.193   5.587
 2763SOL    HW2 9189   4.858   2.232   5.454
 2764SOL     OW 9190   0.496   5.479   2.379
 2764SOL    HW1 9191   0.544   5.483   2.467
 2764SOL    HW2 9192   0.398   5.471   2.396
 2765SOL     OW 9193   6.849   0.220   0.959
 2765SOL    HW1 9194   6.808   0.133   0.933
 2765SOL    HW2 9195   6.924   0.203   1.023
 2766SOL     OW 9196   3.755   1.163   6.230
 2766SOL    HW1 9197   3.794   1.081   6.272
 2766SOL    HW2 9198   3.765   1.240   6.292
 2767SOL     OW 9199   6.086   5.865   6.483
 2767SOL    HW1 9200   6.001   5.851   6.533
 2767SOL    HW2 9201   6.114   5.780   6.439
 2768SOL     OW 9202   4.242   1.416   6.755
 2768SOL    HW1 9203   4.276   1.466   6.835
 2768SOL    HW2 9204   4.283   1.326   6.752
 2769SOL     OW 9205   2.760   4.648   6.292
 2769SOL    HW1 9206   2.666   4.636   6.261
 2769SOL    HW2 9207   2.762   4.709   6.371
 2770SOL     OW 9208   4.352   5.954   6.204
 2770SOL    HW1 9209   4.356   5.938   6.105
 2770SOL    HW2 9210   4.390   6.044   6.224
 2771SOL     OW 9211   5.632   6.975   4.859
 2771SOL    HW1 9212   5.729   6.981   4.879
 2771SOL    HW2 9213   5.611   0.013   4.778
 2772SOL     OW 9214   2.947   1.587   1.908
 2772SOL    HW1 9215   2.876   1.516   1.909
 2772SOL    HW2 9216   2.997   1.583   1.822
 2773SOL     OW 9217   7.006   2.946   3.803
 2773SOL    HW1 9218   6.989   2.998   3.887
 2773SOL    HW2 9219   6.935   2.877   3.791
 2774SOL     OW 9220   5.174   2.983   2.853
 2774SOL    HW1 9221   5.230   2.933   2.787
 2774SOL    HW2 9222   5.224   2.991   2.940
 2775SOL     OW 9223   6.181   3.882   3.616
 2775SOL    HW1 9224   6.247   3.821   3.659
 2775SOL    HW2 9225   6.170   3.964   3.673
 2776SOL     OW 9226   5.374   4.581   5.674
 2776SOL    HW1 9227   5.316   4.616   5.601
 2776SOL    HW2 9228   5.343   4.617   5.761
 2777SOL     OW 9229   2.154   1.521   6.579
 2777SOL    HW1 9230   2.216   1.537   6.502
 2777SOL    HW2 9231   2.187   1.571   6.659
 2778SOL     OW 9232   2.015   6.017   6.538
 2778SOL    HW1 9233   1.987   5.921   6.547
 2778SOL    HW2 9234   1.939   6.076   6.562
 2779SOL     OW 9235   5.557   6.834   2.152
 2779SOL    HW1 9236   5.562   6.734   2.148
 2779SOL    HW2 9237   5.587   6.873   2.065
 2780SOL     OW 9238   6.660   0.311   6.122
 2780SOL    HW1 9239   6.756   0.293   6.099
 2780SOL    HW2 9240   6.645   0.293   6.219
 2781SOL     OW 9241   6.143   0.325   3.178
 2781SOL    HW1 9242   6.160   0.424   3.170
 2781SOL    HW2 9243   6.053   0.304   3.141
 2782SOL     OW 9244   4.105   1.558   5.571
 2782SOL    HW1 9245   4.182   1.520   5.518
 2782SOL    HW2 9246   4.137   1.581   5.663
 2783SOL     OW 9247   6.850   3.872   1.427
 2783SOL    HW1 9248   6.778   3.837   1.367
 2783SOL    HW2 9249   6.935   3.821   1.411
 2784SOL     OW 9250   3.534   1.721   1.689
 2784SOL    HW1 9251   3.478   1.803   1.694
 2784SOL    HW2 9252   3.487   1.646   1.735
 2785SOL     OW 9253   5.341   2.130   0.892
 2785SOL    HW1 9254   5.347   2.174   0.803
 2785SOL    HW2 9255   5.306   2.196   0.959
 2786SOL     OW 9256   6.579   6.154   1.452
 2786SOL    HW1 9257   6.579   6.117   1.545
 2786SOL    HW2 9258   6.566   6.253   1.456
 2787SOL     OW 9259   6.625   5.854   5.564
 2787SOL    HW1 9260   6.588   5.775   5.516
 2787SOL    HW2 9261   6.723   5.864   5.543
 2788SOL     OW 9262   2.839   6.156   6.322
 2788SOL    HW1 9263   2.912   6.148   6.254
 2788SOL    HW2 9264   2.750   6.143   6.278
 2789SOL     OW 9265   1.766   2.221   3.279
 2789SOL    HW1 9266   1.703   2.293   3.308
 2789SOL    HW2 9267   1.853   2.263   3.251
 2790SOL     OW 9268   3.416   5.219   0.671
 2790SOL    HW1 9269   3.396   5.307   0.628
 2790SOL    HW2 9270   3.466   5.234   0.756
 2791SOL     OW 9271   0.180   4.416   2.317
 2791SOL    HW1 9272   0.127   4.447   2.239
 2791SOL    HW2 9273   0.273   4.392   2.287
 2792SOL     OW 9274   2.891   1.411   4.268
 2792SOL    HW1 9275   2.913   1.427   4.172
 2792SOL    HW2 9276   2.943   1.333   4.302
 2793SOL     OW 9277   5.068   3.898   1.865
 2793SOL    HW1 9278   5.154   3.933   1.826
 2793SOL    HW2 9279   5.054   3.804   1.835
 2794SOL     OW 9280   6.401   1.899   5.742
 2794SOL    HW1 9281   6.360   1.986   5.765
 2794SOL    HW2 9282   6.356   1.826   5.794
 2795SOL     OW 9283   0.402   4.635   1.108
 2795SOL    HW1 9284   0.351   4.695   1.046
 2795SOL    HW2 9285   0.489   4.609   1.066
 2796SOL     OW 9286   0.942   5.576   4.212
 2796SOL    HW1 9287   0.899   5.633   4.282
 2796SOL    HW2 9288   0.880   5.501   4.188
 2797SOL     OW 9289   5.321   5.454   5.768
 2797SOL    HW1 9290   5.364   5.372   5.730
 2797SOL    HW2 9291   5.392   5.515   5.805
 2798SOL     OW 9292   6.148   5.747   2.701
 2798SOL    HW1 9293   6.062   5.781   2.663
 2798SOL    HW2 9294   6.194   5.820   2.752
 2799SOL     OW 9295   4.817   5.495   5.327
 2799SOL    HW1 9296   4.886   5.558   5.293
 2799SOL    HW2 9297   4.762   5.462   5.250
 2800SOL     OW 9298   6.153   0.935   6.024
 2800SOL    HW1 9299   6.161   0.883   5.939
 2800SOL    HW2 9300   6.059   0.931   6.057
 2801SOL     OW 9301   1.732   5.812   5.637
 2801SOL    HW1 9302   1.815   5.861   5.665
 2801SOL    HW2 9303   1.735   5.795   5.539
 2802SOL     OW 9304   6.577   6.572   5.612
 2802SOL    HW1 9305   6.563   6.612   5.521
 2802SOL    HW2 9306   6.499   6.596   5.670
 2803SOL     OW 9307   3.747   4.038   5.697
 2803SOL    HW1 9308   3.722   3.943   5.716
 2803SOL    HW2 9309   3.676   4.099   5.731
 2804SOL     OW 9310   0.168   3.362   4.521
 2804SOL    HW1 9311   0.172   3.341   4.618
 2804SOL    HW2 9312   0.086   3.416   4.502
 2805SOL     OW 9313   6.118   3.859   2.589
 2805SOL    HW1 9314   6.113   3.956   2.564
 2805SOL    HW2 9315   6.112   3.850   2.688
 2806SOL     OW 9316   1.624   4.490   0.087
 2806SOL    HW1 9317   1.709   4.542   0.098
 2806SOL    HW2 9318   1.621   4.451   7.012
 2807SOL     OW 9319   4.069   0.356   3.160
 2807SOL    HW1 9320   4.059   0.404   3.247
 2807SOL    HW2 9321   4.152   0.300   3.162
 2808SOL     OW 9322   5.973   6.052   0.914
 2808SOL    HW1 9323   5.884   6.050   0.961
 2808SOL    HW2 9324   5.991   6.145   0.882
 2809SOL     OW 9325   5.915   2.442   1.663
 2809SOL    HW1 9326   5.942   2.361   1.715
 2809SOL    HW2 9327   5.976   2.518   1.686
 2810SOL     OW 9328   2.474   4.975   2.716
 2810SOL    HW1 9329   2.573   4.964   2.707
 2810SOL    HW2 9330   2.454   5.067   2.751
 2811SOL     OW 9331   0.489   1.339   2.140
 2811SOL    HW1 9332   0.537   1.417   2.180
 2811SOL    HW2 9333   0.537   1.311   2.056
 2812SOL     OW 9334   6.328   2.955   0.496
 2812SOL    HW1 9335   6.260   3.027   0.480
 2812SOL    HW2 9336   6.418   2.987   0.463
 2813SOL     OW 9337   0.664   1.553   0.596
 2813SOL    HW1 9338   0.585   1.611   0.616
 2813SOL    HW2 9339   0.705   1.582   0.509
 2814SOL     OW 9340   3.097   4.226   5.624
 2814SOL    HW1 9341   3.181   4.245   5.676
 2814SOL    HW2 9342   3.086   4.296   5.554
 2815SOL     OW 9343   6.987   5.771   6.013
 2815SOL    HW1 9344   6.889   5.748   6.009
 2815SOL    HW2 9345   6.999   5.868   5.994
 2816SOL     OW 9346   6.941   5.863   4.623
 2816SOL    HW1 9347   6.975   5.822   4.707
 2816SOL    HW2 9348   6.921   5.790   4.557
 2817SOL     OW 9349   3.438   1.596   2.362
 2817SOL    HW1 9350   3.495   1.664   2.408
 2817SOL    HW2 9351   3.343   1.605   2.391
 2818SOL     OW 9352   0.067   1.014   1.794
 2818SOL    HW1 9353   0.080   1.098   1.741
 2818SOL    HW2 9354   0.073   0.935   1.733
 2819SOL     OW 9355   1.438   0.238   1.104
 2819SOL    HW1 9356   1.377   0.314   1.082
 2819SOL    HW2 9357   1.509   0.270   1.167
 2820SOL     OW 9358   0.800   2.127   2.387
 2820SOL    HW1 9359   0.784   2.063   2.311
 2820SOL    HW2 9360   0.874   2.190   2.363
 2821SOL     OW 9361   3.090   4.984   6.060
 2821SOL    HW1 9362   3.002   4.997   6.016
 2821SOL    HW2 9363   3.077   4.941   6.150
 2822SOL     OW 9364   4.264   2.521   0.151
 2822SOL    HW1 9365   4.324   2.573   0.212
 2822SOL    HW2 9366   4.314   2.443   0.113
 2823SOL     OW 9367   5.857   0.801   6.798
 2823SOL    HW1 9368   5.882   0.705   6.783
 2823SOL    HW2 9369   5.766   0.818   6.760
 2824SOL     OW 9370   1.802   3.581   5.563
 2824SOL    HW1 9371   1.882   3.628   5.526
 2824SOL    HW2 9372   1.779   3.503   5.504
 2825SOL     OW 9373   5.651   0.489   6.661
 2825SOL    HW1 9374   5.638   0.537   6.575
 2825SOL    HW2 9375   5.665   0.392   6.644
 2826SOL     OW 9376   2.290   2.800   6.304
 2826SOL    HW1 9377   2.194   2.784   6.328
 2826SOL    HW2 9378   2.312   2.750   6.220
 2827SOL     OW 9379   0.408   1.134   6.499
 2827SOL    HW1 9380   0.468   1.061   6.464
 2827SOL    HW2 9381   0.403   1.127   6.598
 2828SOL     OW 9382   1.870   3.615   1.280
 2828SOL    HW1 9383   1.927   3.533   1.287
 2828SOL    HW2 9384   1.910   3.688   1.335
 2829SOL     OW 9385   3.475   3.189   3.217
 2829SOL    HW1 9386   3.571   3.203   3.244
 2829SOL    HW2 9387   3.449   3.095   3.236
 2830SOL     OW 9388   3.521   4.372   5.369
 2830SOL    HW1 9389   3.457   4.447   5.382
 2830SOL    HW2 9390   3.476   4.298   5.319
 2831SOL     OW 9391   0.185   1.884   2.875
 2831SOL    HW1 9392   0.239   1.948   2.822
 2831SOL    HW2 9393   0.238   1.800   2.890
 2832SOL     OW 9394   0.998   3.401   1.746
 2832SOL    HW1 9395   1.000   3.304   1.721
 2832SOL    HW2 9396   1.026   3.412   1.841
 2833SOL     OW 9397   2.415   1.616   2.180
 2833SOL    HW1 9398   2.402   1.539   2.118
 2833SOL    HW2 9399   2.491   1.596   2.243
 2834SOL     OW 9400   4.726   6.134   5.057
 2834SOL    HW1 9401   4.753   6.209   4.995
 2834SOL    HW2 9402   4.649   6.084   5.017
 2835SOL     OW 9403   0.947   6.528   0.450
 2835SOL    HW1 9404   0.847   6.532   0.453
 2835SOL    HW2 9405   0.984   6.612   0.490
 2836SOL     OW 9406   2.964   6.181   2.938
 2836SOL    HW1 9407   2.941   6.084   2.936
 2836SOL    HW2 9408   3.060   6.192   2.964
 2837SOL     OW 9409   5.522   4.265   2.344
 2837SOL    HW1 9410   5.563   4.185   2.388
 2837SOL    HW2 9411   5.529   4.344   2.406
 2838SOL     OW 9412   4.946   3.959   0.285
 2838SOL    HW1 9413   4.863   3.997   0.245
 2838SOL    HW2 9414   5.026   3.997   0.239
 2839SOL     OW 9415   0.039   2.221   2.990
 2839SOL    HW1 9416   0.081   2.264   2.910
 2839SOL    HW2 9417   0.105   2.218   3.065
 2840SOL     OW 9418   1.437   5.610   2.744
 2840SOL    HW1 9419   1.418   5.706   2.724
 2840SOL    HW2 9420   1.352   5.560   2.755
 2841SOL     OW 9421   6.492   2.095   0.127
 2841SOL    HW1 9422   6.402   2.133   0.104
 2841SOL    HW2 9423   6.545   2.163   0.178
 2842SOL     OW 9424   1.660   5.886   5.082
 2842SOL    HW1 9425   1.591   5.955   5.102
 2842SOL    HW2 9426   1.685   5.891   4.985
 2843SOL     OW 9427   2.540   2.256   2.935
 2843SOL    HW1 9428   2.515   2.267   3.032
 2843SOL    HW2 9429   2.501   2.332   2.882
 2844SOL     OW 9430   5.168   4.815   1.398
 2844SOL    HW1 9431   5.144   4.832   1.494
 2844SOL    HW2 9432   5.163   4.901   1.347
 2845SOL     OW 9433   5.271   2.614   3.487
 2845SOL    HW1 9434   5.177   2.608   3.455
 2845SOL    HW2 9435   5.308   2.705   3.466
 2846SOL     OW 9436   3.564   0.825   0.160
 2846SOL    HW1 9437   3.562   0.887   0.081
 2846SOL    HW2 9438   3.637   0.758   0.148
 2847SOL     OW 9439   4.826   3.963   2.392
 2847SOL    HW1 9440   4.779   3.953   2.305
 2847SOL    HW2 9441   4.901   4.029   2.383
 2848SOL     OW 9442   1.708   2.346   5.441
 2848SOL    HW1 9443   1.723   2.356   5.343
 2848SOL    HW2 9444   1.715   2.249   5.466
 2849SOL     OW 9445   3.809   1.157   1.339
 2849SOL    HW1 9446   3.743   1.082   1.346
 2849SOL    HW2 9447   3.856   1.152   1.251
 2850SOL     OW 9448   1.722   0.034   3.705
 2850SOL    HW1 9449   1.765   0.101   3.645
 2850SOL    HW2 9450   1.625   0.055   3.713
 2851SOL     OW 9451   4.265   3.665   6.420
 2851SOL    HW1 9452   4.168   3.673   6.443
 2851SOL    HW2 9453   4.311   3.753   6.438
 2852SOL     OW 9454   6.661   4.328   0.064
 2852SOL    HW1 9455   6.728   4.300   7.013
 2852SOL    HW2 9456   6.624   4.247   0.109
 2853SOL     OW 9457   0.761   3.383   0.019
 2853SOL    HW1 9458   0.786   3.438   6.957
 2853SOL    HW2 9459   0.738   3.444   0.096
 2854SOL     OW 9460   3.530   1.024   6.252
 2854SOL    HW1 9461   3.616   1.075   6.250
 2854SOL    HW2 9462   3.511   0.987   6.161
 2855SOL     OW 9463   1.087   2.599   4.291
 2855SOL    HW1 9464   1.060   2.679   4.346
 2855SOL    HW2 9465   1.180   2.613   4.258
 2856SOL     OW 9466   1.543   2.611   3.071
 2856SOL    HW1 9467   1.452   2.570   3.080
 2856SOL    HW2 9468   1.610   2.540   3.052
 2857SOL     OW 9469   0.170   3.124   1.018
 2857SOL    HW1 9470   0.207   3.196   1.076
 2857SOL    HW2 9471   0.246   3.069   0.981
 2858SOL     OW 9472   5.121   6.597   2.319
 2858SOL    HW1 9473   5.164   6.605   2.229
 2858SOL    HW2 9474   5.153   6.514   2.364
 2859SOL     OW 9475   5.409   5.538   0.614
 2859SOL    HW1 9476   5.480   5.599   0.649
 2859SOL    HW2 9477   5.423   5.523   0.516
 2860SOL     OW 9478   1.994   6.597   2.281
 2860SOL    HW1 9479   1.963   6.529   2.348
 2860SOL    HW2 9480   1.979   6.689   2.317
 2861SOL     OW 9481   3.126   5.423   5.621
 2861SOL    HW1 9482   3.132   5.331   5.583
 2861SOL    HW2 9483   3.197   5.481   5.581
 2862SOL     OW 9484   4.509   2.526   1.850
 2862SOL    HW1 9485   4.571   2.478   1.913
 2862SOL    HW2 9486   4.415   2.500   1.870
 2863SOL     OW 9487   5.216   1.445   6.645
 2863SOL    HW1 9488   5.251   1.510   6.713
 2863SOL    HW2 9489   5.277   1.444   6.566
 2864SOL     OW 9490   4.236   3.302   1.098
 2864SOL    HW1 9491   4.273   3.223   1.147
 2864SOL    HW2 9492   4.244   3.384   1.156
 2865SOL     OW 9493   4.574   7.011   4.039
 2865SOL    HW1 9494   4.620   6.936   3.993
 2865SOL    HW2 9495   4.625   0.018   4.122
 2866SOL     OW 9496   5.761   3.808   0.625
 2866SOL    HW1 9497   5.834   3.740   0.634
 2866SOL    HW2 9498   5.685   3.768   0.574
 2867SOL     OW 9499   6.610   6.415   2.261
 2867SOL    HW1 9500   6.547   6.349   2.301
 2867SOL    HW2 9501   6.662   6.460   2.333
 2868SOL     OW 9502   0.927   0.776   5.244
 2868SOL    HW1 9503   1.006   0.834   5.221
 2868SOL    HW2 9504   0.897   0.797   5.337
 2869SOL     OW 9505   6.085   0.506   3.836
 2869SOL    HW1 9506   6.091   0.603   3.815
 2869SOL    HW2 9507   6.161   0.479   3.894
 2870SOL     OW 9508   0.772   1.859   6.720
 2870SOL    HW1 9509   0.773   1.801   6.801
 2870SOL    HW2 9510   0.688   1.841   6.668
 2871SOL     OW 9511   6.291   0.873   6.887
 2871SOL    HW1 9512   6.217   0.859   6.953
 2871SOL    HW2 9513   6.302   0.790   6.833
 2872SOL     OW 9514   2.519   1.178   1.090
 2872SOL    HW1 9515   2.521   1.247   1.163
 2872SOL    HW2 9516   2.442   1.197   1.029
 2873SOL     OW 9517   6.866   5.905   1.515
 2873SOL    HW1 9518   6.887   5.945   1.604
 2873SOL    HW2 9519   6.865   5.977   1.445
 2874SOL     OW 9520   4.277   6.953   2.960
 2874SOL    HW1 9521   4.313   0.029   2.958
 2874SOL    HW2 9522   4.259   6.926   3.054
 2875SOL     OW 9523   3.512   6.749   2.733
 2875SOL    HW1 9524   3.436   6.738   2.668
 2875SOL    HW2 9525   3.596   6.712   2.694
 2876SOL     OW 9526   1.308   6.418   2.082
 2876SOL    HW1 9527   1.345   6.326   2.093
 2876SOL    HW2 9528   1.366   6.469   2.018
 2877SOL     OW 9529   2.047   1.100   6.471
 2877SOL    HW1 9530   2.017   1.041   6.546
 2877SOL    HW2 9531   2.130   1.149   6.498
 2878SOL     OW 9532   3.268   4.013   4.283
 2878SOL    HW1 9533   3.358   3.976   4.305
 2878SOL    HW2 9534   3.213   4.020   4.367
 2879SOL     OW 9535   4.115   5.392   5.938
 2879SOL    HW1 9536   4.032   5.389   5.993
 2879SOL    HW2 9537   4.193   5.412   5.997
 2880SOL     OW 9538   0.500   1.620   3.789
 2880SOL    HW1 9539   0.503   1.520   3.786
 2880SOL    HW2 9540   0.434   1.649   3.857
 2881SOL     OW 9541   3.510   5.843   0.194
 2881SOL    HW1 9542   3.433   5.816   0.252
 2881SOL    HW2 9543   3.596   5.813   0.236
 2882SOL     OW 9544   5.919   6.241   1.283
 2882SOL    HW1 9545   5.941   6.145   1.299
 2882SOL    HW2 9546   5.847   6.247   1.213
 2883SOL     OW 9547   5.813   6.504   3.671
 2883SOL    HW1 9548   5.881   6.504   3.744
 2883SOL    HW2 9549   5.774   6.413   3.662
 2884SOL     OW 9550   6.740   5.453   2.170
 2884SOL    HW1 9551   6.758   5.379   2.105
 2884SOL    HW2 9552   6.680   5.521   2.127
 2885SOL     OW 9553   1.393   2.161   4.334
 2885SOL    HW1 9554   1.329   2.226   4.375
 2885SOL    HW2 9555   1.360   2.068   4.351
 2886SOL     OW 9556   2.801   4.599   6.924
 2886SOL    HW1 9557   2.721   4.629   6.975
 2886SOL    HW2 9558   2.775   4.527   6.859
 2887SOL     OW 9559   6.833   6.615   4.342
 2887SOL    HW1 9560   6.875   6.597   4.431
 2887SOL    HW2 9561   6.817   6.528   4.295
 2888SOL     OW 9562   0.068   5.026   0.050
 2888SOL    HW1 9563   0.048   5.089   6.992
 2888SOL    HW2 9564   0.150   5.057   0.099
 2889SOL     OW 9565   3.172   6.611   2.914
 2889SOL    HW1 9566   3.220   6.601   3.001
 2889SOL    HW2 9567   3.122   6.698   2.914
 2890SOL     OW 9568   1.998   5.222   0.905
 2890SOL    HW1 9569   1.903   5.204   0.932
 2890SOL    HW2 9570   2.006   5.317   0.876
 2891SOL     OW 9571   1.305   3.402   3.010
 2891SOL    HW1 9572   1.271   3.345   2.935
 2891SOL    HW2 9573   1.246   3.391   3.090
 2892SOL     OW 9574   5.815   2.639   1.010
 2892SOL    HW1 9575   5.815   2.706   0.936
 2892SOL    HW2 9576   5.773   2.679   1.092
 2893SOL     OW 9577   1.813   5.604   4.735
 2893SOL    HW1 9578   1.841   5.650   4.651
 2893SOL    HW2 9579   1.890   5.550   4.770
 2894SOL     OW 9580   1.732   4.106   1.627
 2894SOL    HW1 9581   1.677   4.179   1.669
 2894SOL    HW2 9582   1.758   4.133   1.534
 2895SOL     OW 9583   4.096   0.877   6.131
 2895SOL    HW1 9584   4.015   0.824   6.156
 2895SOL    HW2 9585   4.161   0.817   6.083
 2896SOL     OW 9586   5.163   0.226   6.193
 2896SOL    HW1 9587   5.095   0.295   6.169
 2896SOL    HW2 9588   5.150   0.145   6.137
 2897SOL     OW 9589   4.255   4.743   2.966
 2897SOL    HW1 9590   4.198   4.792   3.032
 2897SOL    HW2 9591   4.349   4.741   2.998
 2898SOL     OW 9592   5.378   3.756   3.969
 2898SOL    HW1 9593   5.322   3.674   3.963
 2898SOL    HW2 9594   5.344   3.814   4.044
 2899SOL     OW 9595   6.464   1.817   0.769
 2899SOL    HW1 9596   6.533   1.859   0.827
 2899SOL    HW2 9597   6.373   1.844   0.801
 2900SOL     OW 9598   3.923   4.938   0.112
 2900SOL    HW1 9599   3.992   4.877   0.075
 2900SOL    HW2 9600   3.879   4.895   0.191
 2901SOL     OW 9601   1.579   5.048   3.497
 2901SOL    HW1 9602   1.516   4.971   3.498
 2901SOL    HW2 9603   1.577   5.094   3.585
 2902SOL     OW 9604   0.512   5.539   3.773
 2902SOL    HW1 9605   0.473   5.629   3.793
 2902SOL    HW2 9606   0.493   5.515   3.677
 2903SOL     OW 9607   4.453   6.451   1.300
 2903SOL    HW1 9608   4.546   6.469   1.266
 2903SOL    HW2 9609   4.457   6.430   1.398
 2904SOL     OW 9610   3.073   4.988   4.808
 2904SOL    HW1 9611   3.051   4.984   4.906
 2904SOL    HW2 9612   3.164   4.948   4.792
 2905SOL     OW 9613   1.472   4.127   3.622
 2905SOL    HW1 9614   1.533   4.130   3.701
 2905SOL    HW2 9615   1.377   4.128   3.653
 2906SOL     OW 9616   5.358   6.022   2.415
 2906SOL    HW1 9617   5.381   5.942   2.470
 2906SOL    HW2 9618   5.262   6.047   2.430
 2907SOL     OW 9619   0.665   1.559   4.342
 2907SOL    HW1 9620   0.724   1.514   4.409
 2907SOL    HW2 9621   0.589   1.498   4.317
 2908SOL     OW 9622   5.667   6.717   4.305
 2908SOL    HW1 9623   5.712   6.791   4.356
 2908SOL    HW2 9624   5.575   6.703   4.340
 2909SOL     OW 9625   1.469   6.636   3.335
 2909SOL    HW1 9626   1.545   6.654   3.398
 2909SOL    HW2 9627   1.414   6.560   3.371
 2910SOL     OW 9628   6.843   1.136   3.369
 2910SOL    HW1 9629   6.838   1.036   3.368
 2910SOL    HW2 9630   6.933   1.165   3.337
 2911SOL     OW 9631   1.196   4.870   3.936
 2911SOL    HW1 9632   1.233   4.934   3.869
 2911SOL    HW2 9633   1.126   4.915   3.991
 2912SOL     OW 9634   6.657   6.286   6.934
 2912SOL    HW1 9635   6.737   6.338   6.964
 2912SOL    HW2 9636   6.616   6.240   7.013
 2913SOL     OW 9637   2.809   4.732   2.659
 2913SOL    HW1 9638   2.857   4.738   2.747
 2913SOL    HW2 9639   2.873   4.752   2.585
 2914SOL     OW 9640   5.487   5.345   1.341
 2914SOL    HW1 9641   5.502   5.258   1.388
 2914SOL    HW2 9642   5.569   5.401   1.347
 2915SOL     OW 9643   3.058   1.909   3.836
 2915SOL    HW1 9644   3.022   1.961   3.759
 2915SOL    HW2 9645   3.133   1.961   3.878
 2916SOL     OW 9646   2.190   5.600   0.402
 2916SOL    HW1 9647   2.154   5.523   0.454
 2916SOL    HW2 9648   2.267   5.641   0.451
 2917SOL     OW 9649   3.198   0.464   3.796
 2917SOL    HW1 9650   3.237   0.438   3.708
 2917SOL    HW2 9651   3.104   0.430   3.802
 2918SOL     OW 9652   5.757   3.806   0.047
 2918SOL    HW1 9653   5.826   3.869   0.013
 2918SOL    HW2 9654   5.681   3.858   0.086
 2919SOL     OW 9655   6.421   6.328   3.632
 2919SOL    HW1 9656   6.436   6.318   3.534
 2919SOL    HW2 9657   6.325   6.352   3.648
 2920SOL     OW 9658   2.877   0.500   2.201
 2920SOL    HW1 9659   2.793   0.552   2.187
 2920SOL    HW2 9660   2.854   0.405   2.221
 2921SOL     OW 9661   0.230   0.276   6.068
 2921SOL    HW1 9662   0.286   0.261   5.987
 2921SOL    HW2 9663   0.173   0.195   6.084
 2922SOL     OW 9664   3.861   6.718   2.117
 2922SOL    HW1 9665   3.796   6.664   2.064
 2922SOL    HW2 9666   3.941   6.663   2.138
 2923SOL     OW 9667   6.445   5.010   4.623
 2923SOL    HW1 9668   6.541   5.036   4.633
 2923SOL    HW2 9669   6.415   5.028   4.530
 2924SOL     OW 9670   6.585   1.635   4.842
 2924SOL    HW1 9671   6.622   1.554   4.797
 2924SOL    HW2 9672   6.652   1.669   4.909
 2925SOL     OW 9673   5.567   1.943   6.811
 2925SOL    HW1 9674   5.601   2.032   6.781
 2925SOL    HW2 9675   5.644   1.881   6.827
 2926SOL     OW 9676   6.638   2.430   6.153
 2926SOL    HW1 9677   6.626   2.472   6.062
 2926SOL    HW2 9678   6.568   2.360   6.166
 2927SOL     OW 9679   1.860   3.128   0.513
 2927SOL    HW1 9680   1.815   3.214   0.536
 2927SOL    HW2 9681   1.794   3.066   0.472
 2928SOL     OW 9682   6.777   1.269   6.749
 2928SOL    HW1 9683   6.819   1.267   6.840
 2928SOL    HW2 9684   6.693   1.322   6.753
 2929SOL     OW 9685   1.248   2.628   5.112
 2929SOL    HW1 9686   1.229   2.671   5.024
 2929SOL    HW2 9687   1.321   2.678   5.158
 2930SOL     OW 9688   5.703   6.039   5.319
 2930SOL    HW1 9689   5.693   5.954   5.268
 2930SOL    HW2 9690   5.762   6.102   5.267
 2931SOL     OW 9691   3.854   4.728   0.291
 2931SOL    HW1 9692   3.950   4.738   0.316
 2931SOL    HW2 9693   3.801   4.703   0.372
 2932SOL     OW 9694   6.810   5.426   1.552
 2932SOL    HW1 9695   6.824   5.480   1.470
 2932SOL    HW2 9696   6.853   5.337   1.542
 2933SOL     OW 9697   0.747   0.073   2.404
 2933SOL    HW1 9698   0.667   0.105   2.353
 2933SOL    HW2 9699   0.724   7.006   2.453
 2934SOL     OW 9700   4.781   2.793   0.999
 2934SOL    HW1 9701   4.722   2.869   0.973
 2934SOL    HW2 9702   4.725   2.717   1.031
 2935SOL     OW 9703   0.929   2.524   6.328
 2935SOL    HW1 9704   0.852   2.460   6.320
 2935SOL    HW2 9705   1.015   2.473   6.325
 2936SOL     OW 9706   4.021   6.343   0.795
 2936SOL    HW1 9707   4.063   6.397   0.868
 2936SOL    HW2 9708   4.081   6.341   0.716
 2937SOL     OW 9709   4.583   5.211   1.117
 2937SOL    HW1 9710   4.623   5.200   1.026
 2937SOL    HW2 9711   4.620   5.293   1.160
 2938SOL     OW 9712   6.453   5.213   0.136
 2938SOL    HW1 9713   6.500   5.263   0.063
 2938SOL    HW2 9714   6.378   5.268   0.171
 2939SOL     OW 9715   1.148   0.243   1.928
 2939SOL    HW1 9716   1.166   0.178   2.002
 2939SOL    HW2 9717   1.208   0.323   1.938
 2940SOL     OW 9718   6.253   5.572   4.938
 2940SOL    HW1 9719   6.170   5.614   4.977
 2940SOL    HW2 9720   6.271   5.486   4.985
 2941SOL     OW 9721   2.476   2.203   3.349
 2941SOL    HW1 9722   2.477   2.147   3.433
 2941SOL    HW2 9723   2.414   2.161   3.282
 2942SOL     OW 9724   3.616   2.676   0.423
 2942SOL    HW1 9725   3.696   2.622   0.398
 2942SOL    HW2 9726   3.541   2.654   0.360
 2943SOL     OW 9727   6.314   5.087   3.915
 2943SOL    HW1 9728   6.401   5.056   3.951
 2943SOL    HW2 9729   6.305   5.058   3.819
 2944SOL     OW 9730   2.754   6.173   3.538
 2944SOL    HW1 9731   2.790   6.259   3.501
 2944SOL    HW2 9732   2.772   6.168   3.636
 2945SOL     OW 9733   5.147   3.190   1.962
 2945SOL    HW1 9734   5.060   3.180   2.011
 2945SOL    HW2 9735   5.191   3.101   1.953
 2946SOL     OW 9736   1.952   4.051   5.617
 2946SOL    HW1 9737   1.967   4.137   5.568
 2946SOL    HW2 9738   2.018   3.983   5.586
 2947SOL     OW 9739   0.249   5.183   0.218
 2947SOL    HW1 9740   0.272   5.266   0.167
 2947SOL    HW2 9741   0.171   5.202   0.278
 2948SOL     OW 9742   6.745   4.534   3.204
 2948SOL    HW1 9743   6.713   4.552   3.111
 2948SOL    HW2 9744   6.810   4.604   3.232
 2949SOL     OW 9745   0.358   5.710   6.524
 2949SOL    HW1 9746   0.314   5.793   6.490
 2949SOL    HW2 9747   0.416   5.732   6.602
 2950SOL     OW 9748   5.642   5.468   3.559
 2950SOL    HW1 9749   5.713   5.497   3.494
 2950SOL    HW2 9750   5.569   5.536   3.561
 2951SOL     OW 9751   5.453   1.084   2.108
 2951SOL    HW1 9752   5.426   1.012   2.044
 2951SOL    HW2 9753   5.529   1.136   2.068
 2952SOL     OW 9754   6.636   6.834   5.117
 2952SOL    HW1 9755   6.541   6.830   5.086
 2952SOL    HW2 9756   6.698   6.827   5.039
 2953SOL     OW 9757   0.300   4.479   3.359
 2953SOL    HW1 9758   0.380   4.429   3.328
 2953SOL    HW2 9759   0.218   4.438   3.318
 2954SOL     OW 9760   6.971   4.776   6.649
 2954SOL    HW1 9761   7.016   4.727   6.724
 2954SOL    HW2 9762   6.968   4.873   6.671
 2955SOL     OW 9763   0.915   4.255   0.492
 2955SOL    HW1 9764   0.969   4.336   0.469
 2955SOL    HW2 9765   0.913   4.244   0.591
 2956SOL     OW 9766   0.209   5.729   4.069
 2956SOL    HW1 9767   0.124   5.775   4.045
 2956SOL    HW2 9768   0.282   5.758   4.008
 2957SOL     OW 9769   4.200   5.112   1.595
 2957SOL    HW1 9770   4.148   5.043   1.543
 2957SOL    HW2 9771   4.220   5.076   1.686
 2958SOL     OW 9772   2.248   4.981   3.615
 2958SOL    HW1 9773   2.261   5.067   3.566
 2958SOL    HW2 9774   2.152   4.971   3.641
 2959SOL     OW 9775   5.006   2.763   2.901
 2959SOL    HW1 9776   5.064   2.839   2.872
 2959SOL    HW2 9777   4.923   2.763   2.845
 2960SOL     OW 9778   3.568   0.109   6.743
 2960SOL    HW1 9779   3.596   0.013   6.739
 2960SOL    HW2 9780   3.530   0.129   6.833
 2961SOL     OW 9781   6.766   5.144   3.295
 2961SOL    HW1 9782   6.847   5.202   3.294
 2961SOL    HW2 9783   6.769   5.083   3.374
 2962SOL     OW 9784   4.757   6.517   3.379
 2962SOL    HW1 9785   4.831   6.489   3.317
 2962SOL    HW2 9786   4.671   6.519   3.329
 2963SOL     OW 9787   1.093   0.717   6.397
 2963SOL    HW1 9788   1.039   0.757   6.471
 2963SOL    HW2 9789   1.168   0.663   6.436
 2964SOL     OW 9790   0.227   2.482   6.355
 2964SOL    HW1 9791   0.315   2.449   6.390
 2964SOL    HW2 9792   0.216   2.455   6.260
 2965SOL     OW 9793   1.252   0.415   4.644
 2965SOL    HW1 9794   1.154   0.417   4.627
 2965SOL    HW2 9795   1.281   0.321   4.661
 2966SOL     OW 9796   4.785   5.636   3.750
 2966SOL    HW1 9797   4.774   5.609   3.846
 2966SOL    HW2 9798   4.772   5.734   3.741
 2967SOL     OW 9799   6.192   1.191   5.597
 2967SOL    HW1 9800   6.123   1.182   5.668
 2967SOL    HW2 9801   6.167   1.265   5.535
 2968SOL     OW 9802   1.718   2.394   0.816
 2968SOL    HW1 9803   1.635   2.428   0.860
 2968SOL    HW2 9804   1.699   2.377   0.719
 2969SOL     OW 9805   4.906   3.557   4.709
 2969SOL    HW1 9806   4.868   3.567   4.801
 2969SOL    HW2 9807   4.875   3.632   4.651
 2970SOL     OW 9808   2.949   2.739   5.444
 2970SOL    HW1 9809   2.930   2.838   5.444
 2970SOL    HW2 9810   3.039   2.722   5.406
 2971SOL     OW 9811   5.695   4.159   0.292
 2971SOL    HW1 9812   5.792   4.146   0.311
 2971SOL    HW2 9813   5.654   4.073   0.263
 2972SOL     OW 9814   5.370   4.791   6.848
 2972SOL    HW1 9815   5.429   4.714   6.870
 2972SOL    HW2 9816   5.422   4.876   6.852
 2973SOL     OW 9817   4.897   6.833   2.409
 2973SOL    HW1 9818   4.973   6.776   2.440
 2973SOL    HW2 9819   4.895   6.918   2.461
 2974SOL     OW 9820   6.276   4.227   3.514
 2974SOL    HW1 9821   6.372   4.216   3.490
 2974SOL    HW2 9822   6.262   4.204   3.611
 2975SOL     OW 9823   5.039   4.737   4.277
 2975SOL    HW1 9824   5.128   4.702   4.305
 2975SOL    HW2 9825   4.997   4.673   4.212
 2976SOL     OW 9826   5.210   2.021   3.084
 2976SOL    HW1 9827   5.198   2.053   2.990
 2976SOL    HW2 9828   5.189   2.096   3.148
 2977SOL     OW 9829   0.768   0.590   2.565
 2977SOL    HW1 9830   0.705   0.621   2.494
 2977SOL    HW2 9831   0.752   0.493   2.584
 2978SOL     OW 9832   3.815   3.969   0.115
 2978SOL    HW1 9833   3.904   3.941   0.151
 2978SOL    HW2 9834   3.828   4.016   0.028
 2979SOL     OW 9835   2.951   1.438   4.007
 2979SOL    HW1 9836   3.036   1.387   3.991
 2979SOL    HW2 9837   2.945   1.514   3.942
 2980SOL     OW 9838   2.401   5.348   6.568
 2980SOL    HW1 9839   2.391   5.291   6.486
 2980SOL    HW2 9840   2.487   5.398   6.563
 2981SOL     OW 9841   2.508   1.589   0.250
 2981SOL    HW1 9842   2.493   1.686   0.269
 2981SOL    HW2 9843   2.422   1.540   0.255
 2982SOL     OW 9844   1.991   5.888   2.339
 2982SOL    HW1 9845   1.960   5.839   2.420
 2982SOL    HW2 9846   2.091   5.890   2.337
 2983SOL     OW 9847   0.139   2.208   0.988
 2983SOL    HW1 9848   0.139   2.303   0.955
 2983SOL    HW2 9849   0.068   2.156   0.940
 2984SOL     OW 9850   5.845   5.154   6.240
 2984SOL    HW1 9851   5.811   5.063   6.216
 2984SOL    HW2 9852   5.906   5.147   6.319
 2985SOL     OW 9853   0.443   1.252   4.725
 2985SOL    HW1 9854   0.451   1.224   4.629
 2985SOL    HW2 9855   0.440   1.170   4.783
 2986SOL     OW 9856   3.597   4.130   2.328
 2986SOL    HW1 9857   3.610   4.127   2.427
 2986SOL    HW2 9858   3.584   4.225   2.299
 2987SOL     OW 9859   1.679   1.185   4.418
 2987SOL    HW1 9860   1.645   1.240   4.341
 2987SOL    HW2 9861   1.696   1.092   4.387
 2988SOL     OW 9862   1.592   6.782   1.544
 2988SOL    HW1 9863   1.510   6.799   1.490
 2988SOL    HW2 9864   1.655   6.859   1.534
 2989SOL     OW 9865   5.184   3.592   5.078
 2989SOL    HW1 9866   5.130   3.673   5.053
 2989SOL    HW2 9867   5.202   3.593   5.176
 2990SOL     OW 9868   5.151   2.481   4.598
 2990SOL    HW1 9869   5.158   2.395   4.649
 2990SOL    HW2 9870   5.152   2.558   4.662
 2991SOL     OW 9871   6.081   3.385   6.481
 2991SOL    HW1 9872   6.175   3.405   6.506
 2991SOL    HW2 9873   6.023   3.390   6.562
 2992SOL     OW 9874   1.594   4.668   4.813
 2992SOL    HW1 9875   1.507   4.672   4.863
 2992SOL    HW2 9876   1.662   4.725   4.859
 2993SOL     OW 9877   0.075   5.013   0.462
 2993SOL    HW1 9878   0.061   5.104   0.425
 2993SOL    HW2 9879   0.056   4.945   0.392
 2994SOL     OW 9880   4.127   5.822   0.154
 2994SOL    HW1 9881   4.164   5.733   0.181
 2994SOL    HW2 9882   4.064   5.854   0.224
 2995SOL     OW 9883   4.302   0.050   0.148
 2995SOL    HW1 9884   4.205   0.062   0.125
 2995SOL    HW2 9885   4.316   6.975   0.182
 2996SOL     OW 9886   0.755   1.935   4.708
 2996SOL    HW1 9887   0.822   1.933   4.634
 2996SOL    HW2 9888   0.675   1.881   4.681
 2997SOL     OW 9889   4.648   0.295   2.871
 2997SOL    HW1 9890   4.669   0.280   2.774
 2997SOL    HW2 9891   4.677   0.386   2.898
 2998SOL     OW 9892   3.743   0.020   3.701
 2998SOL    HW1 9893   3.716   0.057   3.613
 2998SOL    HW2 9894   3.838   0.046   3.721
 2999SOL     OW 9895   3.192   4.736   5.965
 2999SOL    HW1 9896   3.169   4.821   6.011
 2999SOL    HW2 9897   3.177   4.746   5.866
 3000SOL     OW 9898   2.851   4.388   6.705
 3000SOL    HW1 9899   2.772   4.352   6.755
 3000SOL    HW2 9900   2.865   4.335   6.622
 3001SOL     OW 9901   6.233   2.128   0.616
 3001SOL    HW1 9902   6.297   2.102   0.545
 3001SOL    HW2 9903   6.158   2.061   0.619
 3002SOL     OW 9904   3.129   1.648   0.713
 3002SOL    HW1 9905   3.075   1.594   0.649
 3002SOL    HW2 9906   3.226   1.640   0.690
 3003SOL     OW 9907   0.763   6.459   1.423
 3003SOL    HW1 9908   0.788   6.556   1.414
 3003SOL    HW2 9909   0.670   6.445   1.389
 3004SOL     OW 9910   1.926   4.797   3.204
 3004SOL    HW1 9911   1.879   4.782   3.117
 3004SOL    HW2 9912   2.012   4.846   3.187
 3005SOL     OW 9913   1.513   3.124   6.267
 3005SOL    HW1 9914   1.522   3.221   6.244
 3005SOL    HW2 9915   1.452   3.079   6.202
 3006SOL     OW 9916   5.541   1.495   5.197
 3006SOL    HW1 9917   5.528   1.399   5.171
 3006SOL    HW2 9918   5.462   1.526   5.249
 3007SOL     OW 9919   5.049   5.403   0.285
 3007SOL    HW1 9920   5.088   5.375   0.198
 3007SOL    HW2 9921   5.104   5.364   0.360
 3008SOL     OW 9922   3.632   2.466   6.318
 3008SOL    HW1 9923   3.714   2.473   6.260
 3008SOL    HW2 9924   3.643   2.525   6.398
 3009SOL     OW 9925   0.148   2.367   2.778
 3009SOL    HW1 9926   0.224   2.338   2.720
 3009SOL    HW2 9927   0.181   2.433   2.845
 3010SOL     OW 9928   2.920   5.625   4.532
 3010SOL    HW1 9929   2.834   5.663   4.567
 3010SOL    HW2 9930   2.910   5.526   4.522
 3011SOL     OW 9931   6.230   6.951   1.539
 3011SOL    HW1 9932   6.142   6.917   1.504
 3011SOL    HW2 9933   6.272   6.881   1.597
 3012SOL     OW 9934   2.368   3.690   0.183
 3012SOL    HW1 9935   2.333   3.753   0.253
 3012SOL    HW2 9936   2.421   3.617   0.227
 3013SOL     OW 9937   6.445   4.880   3.194
 3013SOL    HW1 9938   6.396   4.939   3.130
 3013SOL    HW2 9939   6.456   4.789   3.154
 3014SOL     OW 9940   4.733   1.868   6.957
 3014SOL    HW1 9941   4.744   1.930   6.880
 3014SOL    HW2 9942   4.821   1.823   6.976
 3015SOL     OW 9943   2.029   1.636   0.370
 3015SOL    HW1 9944   1.993   1.685   0.291
 3015SOL    HW2 9945   2.101   1.573   0.341
 3016SOL     OW 9946   3.453   6.834   4.211
 3016SOL    HW1 9947   3.539   6.875   4.179
 3016SOL    HW2 9948   3.405   6.900   4.269
 3017SOL     OW 9949   5.312   4.792   2.585
 3017SOL    HW1 9950   5.407   4.804   2.613
 3017SOL    HW2 9951   5.260   4.875   2.606
 3018SOL     OW 9952   3.575   6.808   6.791
 3018SOL    HW1 9953   3.521   6.845   6.715
 3018SOL    HW2 9954   3.570   6.708   6.789
 3019SOL     OW 9955   0.706   6.853   0.723
 3019SOL    HW1 9956   0.707   6.791   0.801
 3019SOL    HW2 9957   0.620   6.904   0.722
 3020SOL     OW 9958   4.190   3.375   0.527
 3020SOL    HW1 9959   4.153   3.345   0.439
 3020SOL    HW2 9960   4.198   3.297   0.589
 3021SOL     OW 9961   2.318   6.897   4.423
 3021SOL    HW1 9962   2.226   6.921   4.453
 3021SOL    HW2 9963   2.379   6.893   4.502
 3022SOL     OW 9964   4.203   5.454   4.378
 3022SOL    HW1 9965   4.298   5.487   4.384
 3022SOL    HW2 9966   4.144   5.527   4.344
 3023SOL     OW 9967   3.715   6.651   2.591
 3023SOL    HW1 9968   3.776   6.610   2.659
 3023SOL    HW2 9969   3.770   6.702   2.524
 3024SOL     OW 9970   6.158   6.179   5.276
 3024SOL    HW1 9971   6.121   6.126   5.352
 3024SOL    HW2 9972   6.228   6.242   5.310
 3025SOL     OW 9973   3.946   6.072   1.690
 3025SOL    HW1 9974   3.891   6.153   1.672
 3025SOL    HW2 9975   3.999   6.049   1.608
 3026SOL     OW 9976   0.579   1.366   6.410
 3026SOL    HW1 9977   0.486   1.330   6.414
 3026SOL    HW2 9978   0.644   1.293   6.428
 3027SOL     OW 9979   3.922   1.233   2.081
 3027SOL    HW1 9980   3.901   1.140   2.053
 3027SOL    HW2 9981   4.010   1.261   2.044
 3028SOL     OW 9982   1.965   3.858   6.174
 3028SOL    HW1 9983   2.063   3.869   6.159
 3028SOL    HW2 9984   1.919   3.849   6.085
 3029SOL     OW 9985   1.146   2.476   3.553
 3029SOL    HW1 9986   1.220   2.418   3.518
 3029SOL    HW2 9987   1.119   2.445   3.644
 3030SOL     OW 9988   1.309   4.190   0.838
 3030SOL    HW1 9989   1.321   4.289   0.841
 3030SOL    HW2 9990   1.351   4.153   0.756
 3031SOL     OW 9991   1.213   4.694   0.597
 3031SOL    HW1 9992   1.221   4.683   0.697
 3031SOL    HW2 9993   1.301   4.725   0.561
 3032SOL     OW 9994   2.307   5.512   2.556
 3032SOL    HW1 9995   2.228   5.497   2.497
 3032SOL    HW2 9996   2.290   5.469   2.645
 3033SOL     OW 9997   6.298   1.912   2.777
 3033SOL    HW1 9998   6.212   1.861   2.776
 3033SOL    HW2 9999   6.354   1.883   2.699
 3034SOL     OW10000   1.208   5.787   4.118
 3034SOL    HW110001   1.229   5.862   4.181
 3034SOL    HW210002   1.287   5.726   4.110
 3035SOL     OW10003   1.110   3.162   6.271
 3035SOL    HW110004   1.056   3.134   6.350
 3035SOL    HW210005   1.068   3.128   6.187
 3036SOL     OW10006   1.204   2.132   5.079
 3036SOL    HW110007   1.113   2.124   5.040
 3036SOL    HW210008   1.238   2.225   5.065
 3037SOL     OW10009   6.728   4.845   5.322
 3037SOL    HW110010   6.777   4.783   5.384
 3037SOL    HW210011   6.737   4.939   5.356
 3038SOL     OW10012   5.069   4.438   5.826
 3038SOL    HW110013   5.109   4.385   5.752
 3038SOL    HW210014   5.140   4.494   5.868
 3039SOL     OW10015   0.056   3.017   6.628
 3039SOL    HW110016   0.010   2.969   6.553
 3039SOL    HW210017   7.016   3.014   6.709
 3040SOL     OW10018   3.009   4.825   5.747
 3040SOL    HW110019   2.971   4.911   5.783
 3040SOL    HW210020   2.936   4.770   5.708
 3041SOL     OW10021   0.782   4.595   6.307
 3041SOL    HW110022   0.856   4.625   6.369
 3041SOL    HW210023   0.738   4.676   6.268
 3042SOL     OW10024   5.930   5.763   2.457
 3042SOL    HW110025   5.922   5.674   2.413
 3042SOL    HW210026   5.864   5.826   2.416
 3043SOL     OW10027   3.262   3.651   0.908
 3043SOL    HW110028   3.277   3.553   0.924
 3043SOL    HW210029   3.350   3.695   0.888
 3044SOL     OW10030   3.088   4.908   5.502
 3044SOL    HW110031   3.072   4.861   5.589
 3044SOL    HW210032   3.020   4.878   5.435
 3045SOL     OW10033   4.875   6.746   3.105
 3045SOL    HW110034   4.933   6.665   3.103
 3045SOL    HW210035   4.823   6.751   3.020
 3046SOL     OW10036   3.718   6.390   0.128
 3046SOL    HW110037   3.771   6.312   0.160
 3046SOL    HW210038   3.704   6.455   0.203
 3047SOL     OW10039   6.699   0.002   0.622
 3047SOL    HW110040   6.628   6.954   0.649
 3047SOL    HW210041   6.684   0.088   0.670
 3048SOL     OW10042   4.545   2.324   0.781
 3048SOL    HW110043   4.477   2.396   0.782
 3048SOL    HW210044   4.503   2.238   0.753
 3049SOL     OW10045   1.120   0.707   3.985
 3049SOL    HW110046   1.208   0.660   3.976
 3049SOL    HW210047   1.090   0.739   3.895
 3050SOL     OW10048   2.422   2.527   1.349
 3050SOL    HW110049   2.473   2.455   1.397
 3050SOL    HW210050   2.332   2.538   1.392
 3051SOL     OW10051   2.782   6.587   6.369
 3051SOL    HW110052   2.773   6.679   6.407
 3051SOL    HW210053   2.843   6.532   6.427
 3052SOL     OW10054   5.300   5.103   2.293
 3052SOL    HW110055   5.313   5.131   2.198
 3052SOL    HW210056   5.215   5.143   2.328
 3053SOL     OW10057   0.429   3.833   1.079
 3053SOL    HW110058   0.523   3.832   1.113
 3053SOL    HW210059   0.418   3.908   1.014
 3054SOL     OW10060   5.629   0.734   2.495
 3054SOL    HW110061   5.613   0.795   2.417
 3054SOL    HW210062   5.644   0.641   2.461
 3055SOL     OW10063   5.720   6.915   5.514
 3055SOL    HW110064   5.744   6.866   5.430
 3055SOL    HW210065   5.746   6.859   5.593
 3056SOL     OW10066   6.061   1.652   5.817
 3056SOL    HW110067   6.048   1.743   5.856
 3056SOL    HW210068   6.159   1.633   5.810
 3057SOL     OW10069   5.250   6.212   4.356
 3057SOL    HW110070   5.311   6.239   4.281
 3057SOL    HW210071   5.246   6.287   4.423
 3058SOL     OW10072   6.234   3.824   0.868
 3058SOL    HW110073   6.325   3.862   0.888
 3058SOL    HW210074   6.194   3.872   0.791
 3059SOL     OW10075   2.359   1.781   4.107
 3059SOL    HW110076   2.364   1.814   4.202
 3059SOL    HW210077   2.403   1.691   4.101
 3060SOL     OW10078   2.382   4.975   6.850
 3060SOL    HW110079   2.357   4.928   6.935
 3060SOL    HW210080   2.481   4.966   6.835
 3061SOL     OW10081   5.780   5.801   5.891
 3061SOL    HW110082   5.790   5.824   5.988
 3061SOL    HW210083   5.692   5.755   5.877
 3062SOL     OW10084   3.151   5.481   1.175
 3062SOL    HW110085   3.066   5.465   1.123
 3062SOL    HW210086   3.130   5.532   1.258
 3063SOL     OW10087   0.663   4.159   1.058
 3063SOL    HW110088   0.685   4.182   0.963
 3063SOL    HW210089   0.566   4.178   1.075
 3064SOL     OW10090   4.289   3.107   6.968
 3064SOL    HW110091   4.380   3.146   6.983
 3064SOL    HW210092   4.280   3.023   0.003
 3065SOL     OW10093   1.277   1.607   6.316
 3065SOL    HW110094   1.294   1.618   6.218
 3065SOL    HW210095   1.182   1.629   6.336
 3066SOL     OW10096   5.311   5.167   6.341
 3066SOL    HW110097   5.346   5.248   6.293
 3066SOL    HW210098   5.293   5.191   6.437
 3067SOL     OW10099   2.528   1.607   0.620
 3067SOL    HW110100   2.609   1.648   0.577
 3067SOL    HW210101   2.539   1.507   0.622
 3068SOL     OW10102   0.072   0.427   1.704
 3068SOL    HW110103   0.058   0.526   1.694
 3068SOL    HW210104   0.156   0.400   1.656
 3069SOL     OW10105   6.212   6.300   3.211
 3069SOL    HW110106   6.148   6.287   3.136
 3069SOL    HW210107   6.233   6.398   3.220
 3070SOL     OW10108   2.640   1.161   6.413
 3070SOL    HW110109   2.605   1.234   6.473
 3070SOL    HW210110   2.701   1.102   6.466
 3071SOL     OW10111   6.640   5.051   3.920
 3071SOL    HW110112   6.631   5.105   3.836
 3071SOL    HW210113   6.699   5.099   3.985
 3072SOL     OW10114   1.731   6.508   6.820
 3072SOL    HW110115   1.660   6.439   6.814
 3072SOL    HW210116   1.734   6.544   6.914
 3073SOL     OW10117   0.192   4.361   1.760
 3073SOL    HW110118   0.121   4.431   1.751
 3073SOL    HW210119   0.168   4.282   1.704
 3074SOL     OW10120   1.372   4.118   1.104
 3074SOL    HW110121   1.319   4.177   1.166
 3074SOL    HW210122   1.343   4.135   1.010
 3075SOL     OW10123   2.551   5.382   3.875
 3075SOL    HW110124   2.586   5.291   3.857
 3075SOL    HW210125   2.456   5.388   3.844
 3076SOL     OW10126   6.357   1.548   4.303
 3076SOL    HW110127   6.391   1.568   4.396
 3076SOL    HW210128   6.365   1.631   4.247
 3077SOL     OW10129   6.148   3.433   1.719
 3077SOL    HW110130   6.088   3.492   1.664
 3077SOL    HW210131   6.158   3.473   1.810
 3078SOL     OW10132   6.559   3.136   2.007
 3078SOL    HW110133   6.592   3.131   2.101
 3078SOL    HW210134   6.631   3.174   1.948
 3079SOL     OW10135   3.270   2.101   3.809
 3079SOL    HW110136   3.310   2.101   3.901
 3079SOL    HW210137   3.343   2.084   3.742
 3080SOL     OW10138   4.809   4.169   2.103
 3080SOL    HW110139   4.902   4.171   2.140
 3080SOL    HW210140   4.751   4.229   2.157
 3081SOL     OW10141   0.474   4.589   6.168
 3081SOL    HW110142   0.416   4.513   6.138
 3081SOL    HW210143   0.508   4.570   6.260
 3082SOL     OW10144   2.691   5.874   4.086
 3082SOL    HW110145   2.670   5.965   4.122
 3082SOL    HW210146   2.670   5.805   4.156
 3083SOL     OW10147   3.287   5.839   2.873
 3083SOL    HW110148   3.298   5.804   2.780
 3083SOL    HW210149   3.217   5.786   2.921
 3084SOL     OW10150   0.001   3.905   2.478
 3084SOL    HW110151   6.920   3.897   2.493
 3084SOL    HW210152   0.020   3.978   2.412
 3085SOL     OW10153   5.483   4.374   0.999
 3085SOL    HW110154   5.491   4.430   0.916
 3085SOL    HW210155   5.393   4.331   1.001
 3086SOL     OW10156   4.395   0.947   0.088
 3086SOL    HW110157   4.443   1.035   0.089
 3086SOL    HW210158   4.423   0.896   0.006
 3087SOL     OW10159   2.435   6.379   2.884
 3087SOL    HW110160   2.460   6.450   2.819
 3087SOL    HW210161   2.503   6.305   2.882
 3088SOL     OW10162   1.568   3.039   5.568
 3088SOL    HW110163   1.570   3.090   5.654
 3088SOL    HW210164   1.534   3.098   5.494
 3089SOL     OW10165   4.665   1.907   4.840
 3089SOL    HW110166   4.617   1.831   4.883
 3089SOL    HW210167   4.757   1.915   4.879
 3090SOL     OW10168   1.913   0.971   2.020
 3090SOL    HW110169   1.938   1.067   2.007
 3090SOL    HW210170   1.829   0.965   2.074
 3091SOL     OW10171   1.403   1.054   0.748
 3091SOL    HW110172   1.441   1.088   0.834
 3091SOL    HW210173   1.459   1.086   0.672
 3092SOL     OW10174   5.191   6.348   1.174
 3092SOL    HW110175   5.285   6.333   1.143
 3092SOL    HW210176   5.188   6.341   1.274
 3093SOL     OW10177   5.419   6.429   5.473
 3093SOL    HW110178   5.518   6.444   5.469
 3093SOL    HW210179   5.380   6.440   5.381
 3094SOL     OW10180   3.193   0.522   4.252
 3094SOL    HW110181   3.093   0.532   4.249
 3094SOL    HW210182   3.216   0.425   4.258
 3095SOL     OW10183   1.994   3.646   5.935
 3095SOL    HW110184   2.076   3.659   5.991
 3095SOL    HW210185   2.013   3.671   5.841
 3096SOL     OW10186   0.559   3.862   4.962
 3096SOL    HW110187   0.599   3.907   4.882
 3096SOL    HW210188   0.547   3.929   5.035
 3097SOL     OW10189   5.507   2.910   7.016
 3097SOL    HW110190   5.602   2.940   7.002
 3097SOL    HW210191   5.449   2.990   0.014
 3098SOL     OW10192   1.903   3.025   1.910
 3098SOL    HW110193   1.950   3.111   1.930
 3098SOL    HW210194   1.970   2.956   1.882
 3099SOL     OW10195   1.167   6.145   4.097
 3099SOL    HW110196   1.126   6.078   4.160
 3099SOL    HW210197   1.190   6.099   4.011
 3100SOL     OW10198   6.897   6.259   2.393
 3100SOL    HW110199   6.830   6.293   2.458
 3100SOL    HW210200   6.984   6.242   2.440
 3101SOL     OW10201   4.520   6.453   5.596
 3101SOL    HW110202   4.509   6.505   5.680
 3101SOL    HW210203   4.607   6.477   5.552
 3102SOL     OW10204   6.933   5.598   1.132
 3102SOL    HW110205   6.900   5.607   1.038
 3102SOL    HW210206   0.006   5.639   1.139
 3103SOL     OW10207   5.293   0.831   1.021
 3103SOL    HW110208   5.269   0.844   1.117
 3103SOL    HW210209   5.382   0.787   1.014
 3104SOL     OW10210   3.901   0.163   6.653
 3104SOL    HW110211   3.998   0.183   6.668
 3104SOL    HW210212   3.864   0.112   6.731
 3105SOL     OW10213   4.721   3.790   1.268
 3105SOL    HW110214   4.709   3.867   1.331
 3105SOL    HW210215   4.818   3.781   1.245
 3106SOL     OW10216   5.495   6.904   5.204
 3106SOL    HW110217   5.430   6.883   5.130
 3106SOL    HW210218   5.468   6.854   5.287
 3107SOL     OW10219   4.244   1.539   4.060
 3107SOL    HW110220   4.252   1.446   4.026
 3107SOL    HW210221   4.311   1.597   4.014
 3108SOL     OW10222   2.036   5.487   4.865
 3108SOL    HW110223   2.075   5.425   4.797
 3108SOL    HW210224   2.107   5.516   4.929
 3109SOL     OW10225   6.418   0.616   4.407
 3109SOL    HW110226   6.321   0.602   4.425
 3109SOL    HW210227   6.454   0.685   4.470
 3110SOL     OW10228   2.263   4.150   3.391
 3110SOL    HW110229   2.257   4.210   3.310
 3110SOL    HW210230   2.357   4.145   3.422
 3111SOL     OW10231   0.308   4.753   3.418
 3111SOL    HW110232   0.302   4.654   3.408
 3111SOL    HW210233   0.399   4.778   3.451
 3112SOL     OW10234   3.232   3.530   6.930
 3112SOL    HW110235   3.181   3.507   7.012
 3112SOL    HW210236   3.271   3.622   6.939
 3113SOL     OW10237   3.266   6.194   2.513
 3113SOL    HW110238   3.266   6.287   2.475
 3113SOL    HW210239   3.173   6.167   2.535
 3114SOL     OW10240   4.013   1.501   0.158
 3114SOL    HW110241   3.992   1.438   0.233
 3114SOL    HW210242   4.007   1.595   0.190
 3115SOL     OW10243   3.827   4.470   5.447
 3115SOL    HW110244   3.737   4.433   5.423
 3115SOL    HW210245   3.897   4.424   5.392
 3116SOL     OW10246   0.404   1.840   0.302
 3116SOL    HW110247   0.334   1.887   0.249
 3116SOL    HW210248   0.363   1.801   0.385
 3117SOL     OW10249   4.712   2.591   5.323
 3117SOL    HW110250   4.743   2.500   5.353
 3117SOL    HW210251   4.646   2.581   5.249
 3118SOL     OW10252   1.152   6.827   1.999
 3118SOL    HW110253   1.192   6.836   2.091
 3118SOL    HW210254   1.118   6.734   1.987
 3119SOL     OW10255   2.979   2.458   5.874
 3119SOL    HW110256   2.979   2.481   5.776
 3119SOL    HW210257   2.907   2.510   5.920
 3120SOL     OW10258   3.287   1.021   5.732
 3120SOL    HW110259   3.257   0.947   5.793
 3120SOL    HW210260   3.338   0.982   5.655
 3121SOL     OW10261   5.677   2.019   4.276
 3121SOL    HW110262   5.678   2.069   4.363
 3121SOL    HW210263   5.600   2.052   4.221
 3122SOL     OW10264   4.485   4.695   5.321
 3122SOL    HW110265   4.520   4.719   5.412
 3122SOL    HW210266   4.421   4.766   5.290
 3123SOL     OW10267   1.333   1.080   3.470
 3123SOL    HW110268   1.306   1.161   3.521
 3123SOL    HW210269   1.305   1.089   3.375
 3124SOL     OW10270   5.429   6.822   3.662
 3124SOL    HW110271   5.336   6.855   3.679
 3124SOL    HW210272   5.480   6.892   3.611
 3125SOL     OW10273   1.142   2.877   5.192
 3125SOL    HW110274   1.174   2.822   5.268
 3125SOL    HW210275   1.218   2.929   5.153
 3126SOL     OW10276   5.283   4.548   5.936
 3126SOL    HW110277   5.346   4.472   5.955
 3126SOL    HW210278   5.294   4.619   6.005
 3127SOL     OW10279   1.473   2.791   5.126
 3127SOL    HW110280   1.522   2.827   5.206
 3127SOL    HW210281   1.540   2.757   5.060
 3128SOL     OW10282   3.682   0.511   0.294
 3128SOL    HW110283   3.756   0.562   0.250
 3128SOL    HW210284   3.664   0.549   0.385
 3129SOL     OW10285   5.005   3.785   1.238
 3129SOL    HW110286   5.076   3.743   1.182
 3129SOL    HW210287   5.042   3.805   1.329
 3130SOL     OW10288   1.496   4.616   0.972
 3130SOL    HW110289   1.435   4.677   0.920
 3130SOL    HW210290   1.573   4.589   0.914
 3131SOL     OW10291   0.652   3.654   2.265
 3131SOL    HW110292   0.712   3.616   2.335
 3131SOL    HW210293   0.571   3.597   2.255
 3132SOL     OW10294   4.690   4.881   6.712
 3132SOL    HW110295   4.682   4.931   6.798
 3132SOL    HW210296   4.711   4.944   6.638
 3133SOL     OW10297   3.442   0.776   2.893
 3133SOL    HW110298   3.346   0.798   2.912
 3133SOL    HW210299   3.493   0.861   2.880
 3134SOL     OW10300   4.081   5.266   1.812
 3134SOL    HW110301   4.018   5.343   1.818
 3134SOL    HW210302   4.084   5.232   1.718
 3135SOL     OW10303   4.707   6.625   6.223
 3135SOL    HW110304   4.657   6.699   6.269
 3135SOL    HW210305   4.744   6.657   6.137
 3136SOL     OW10306   5.384   0.434   1.681
 3136SOL    HW110307   5.376   0.514   1.621
 3136SOL    HW210308   5.474   0.434   1.725
 3137SOL     OW10309   6.424   6.663   3.132
 3137SOL    HW110310   6.347   6.644   3.193
 3137SOL    HW210311   6.421   6.600   3.054
 3138SOL     OW10312   6.231   5.640   3.449
 3138SOL    HW110313   6.156   5.594   3.402
 3138SOL    HW210314   6.215   5.636   3.548
 3139SOL     OW10315   3.781   4.804   1.487
 3139SOL    HW110316   3.705   4.742   1.505
 3139SOL    HW210317   3.748   4.885   1.440
 3140SOL     OW10318   6.342   6.331   5.404
 3140SOL    HW110319   6.433   6.301   5.378
 3140SOL    HW210320   6.336   6.341   5.504
 3141SOL     OW10321   0.491   0.046   6.907
 3141SOL    HW110322   0.553   0.122   6.884
 3141SOL    HW210323   0.438   0.021   6.827
 3142SOL     OW10324   3.390   1.043   3.072
 3142SOL    HW110325   3.460   1.011   3.136
 3142SOL    HW210326   3.433   1.094   2.998
 3143SOL     OW10327   6.291   1.834   6.610
 3143SOL    HW110328   6.352   1.773   6.559
 3143SOL    HW210329   6.284   1.803   6.704
 3144SOL     OW10330   4.457   3.732   0.605
 3144SOL    HW110331   4.412   3.752   0.519
 3144SOL    HW210332   4.393   3.685   0.666
 3145SOL     OW10333   2.204   6.442   2.528
 3145SOL    HW110334   2.258   6.521   2.555
 3145SOL    HW210335   2.113   6.447   2.570
 3146SOL     OW10336   0.456   0.981   4.825
 3146SOL    HW110337   0.377   0.970   4.765
 3146SOL    HW210338   0.538   0.946   4.780
 3147SOL     OW10339   3.165   4.939   6.667
 3147SOL    HW110340   3.074   4.909   6.695
 3147SOL    HW210341   3.214   4.863   6.624
 3148SOL     OW10342   6.951   0.623   4.103
 3148SOL    HW110343   6.857   0.655   4.093
 3148SOL    HW210344   6.951   0.533   4.147
 3149SOL     OW10345   3.331   1.170   6.705
 3149SOL    HW110346   3.278   1.247   6.738
 3149SOL    HW210347   3.364   1.116   6.783
 3150SOL     OW10348   6.650   5.773   5.177
 3150SOL    HW110349   6.552   5.754   5.175
 3150SOL    HW210350   6.699   5.694   5.216
 3151SOL     OW10351   0.114   1.753   6.050
 3151SOL    HW110352   0.080   1.696   5.976
 3151SOL    HW210353   0.084   1.848   6.037
 3152SOL     OW10354   0.712   3.996   6.854
 3152SOL    HW110355   0.751   4.087   6.871
 3152SOL    HW210356   0.710   3.979   6.756
 3153SOL     OW10357   6.399   4.934   0.096
 3153SOL    HW110358   6.422   5.030   0.111
 3153SOL    HW210359   6.390   4.887   0.184
 3154SOL     OW10360   6.438   1.011   1.011
 3154SOL    HW110361   6.403   0.980   1.099
 3154SOL    HW210362   6.467   1.106   1.018
 3155SOL     OW10363   6.153   4.630   0.296
 3155SOL    HW110364   6.138   4.692   0.374
 3155SOL    HW210365   6.065   4.610   0.253
 3156SOL     OW10366   3.366   4.041   2.178
 3156SOL    HW110367   3.287   4.040   2.239
 3156SOL    HW210368   3.450   4.052   2.232
 3157SOL     OW10369   1.814   1.482   5.001
 3157SOL    HW110370   1.795   1.452   4.907
 3157SOL    HW210371   1.900   1.443   5.032
 3158SOL     OW10372   2.571   1.156   4.660
 3158SOL    HW110373   2.671   1.162   4.666
 3158SOL    HW210374   2.534   1.135   4.750
 3159SOL     OW10375   5.646   0.207   6.546
 3159SOL    HW110376   5.658   0.163   6.636
 3159SOL    HW210377   5.622   0.138   6.478
 3160SOL     OW10378   1.087   6.561   5.773
 3160SOL    HW110379   1.111   6.518   5.861
 3160SOL    HW210380   0.999   6.608   5.783
 3161SOL     OW10381   2.751   2.396   3.149
 3161SOL    HW110382   2.825   2.457   3.120
 3161SOL    HW210383   2.752   2.387   3.248
 3162SOL     OW10384   1.430   5.820   0.584
 3162SOL    HW110385   1.348   5.795   0.636
 3162SOL    HW210386   1.404   5.863   0.498
 3163SOL     OW10387   3.532   3.729   6.784
 3163SOL    HW110388   3.554   3.814   6.738
 3163SOL    HW210389   3.617   3.680   6.806
 3164SOL     OW10390   3.755   5.690   2.286
 3164SOL    HW110391   3.657   5.680   2.307
 3164SOL    HW210392   3.766   5.756   2.211
 3165SOL     OW10393   0.703   5.457   1.123
 3165SOL    HW110394   0.735   5.543   1.164
 3165SOL    HW210395   0.667   5.476   1.032
 3166SOL     OW10396   4.724   1.661   4.202
 3166SOL    HW110397   4.770   1.609   4.275
 3166SOL    HW210398   4.635   1.691   4.235
 3167SOL     OW10399   5.646   4.320   0.726
 3167SOL    HW110400   5.700   4.404   0.725
 3167SOL    HW210401   5.708   4.241   0.716
 3168SOL     OW10402   5.800   3.060   0.140
 3168SOL    HW110403   5.839   2.969   0.154
 3168SOL    HW210404   5.812   3.087   0.044
 3169SOL     OW10405   1.773   3.950   3.544
 3169SOL    HW110406   1.749   3.948   3.641
 3169SOL    HW210407   1.843   3.881   3.525
 3170SOL     OW10408   4.408   5.468   2.634
 3170SOL    HW110409   4.498   5.467   2.678
 3170SOL    HW210410   4.395   5.556   2.589
 3171SOL     OW10411   5.763   2.104   1.599
 3171SOL    HW110412   5.835   2.170   1.620
 3171SOL    HW210413   5.787   2.053   1.517
 3172SOL     OW10414   0.507   5.211   6.852
 3172SOL    HW110415   0.575   5.153   6.809
 3172SOL    HW210416   0.421   5.206   6.801
 3173SOL     OW10417   3.134   2.251   6.916
 3173SOL    HW110418   3.196   2.172   6.917
 3173SOL    HW210419   3.160   2.313   6.842
 3174SOL     OW10420   2.887   3.056   6.688
 3174SOL    HW110421   2.936   3.087   6.607
 3174SOL    HW210422   2.806   3.113   6.702
 3175SOL     OW10423   5.968   1.461   1.421
 3175SOL    HW110424   6.041   1.504   1.367
 3175SOL    HW210425   5.894   1.433   1.361
 3176SOL     OW10426   0.794   3.006   5.579
 3176SOL    HW110427   0.804   2.965   5.487
 3176SOL    HW210428   0.806   3.105   5.573
 3177SOL     OW10429   5.218   4.177   3.788
 3177SOL    HW110430   5.226   4.174   3.688
 3177SOL    HW210431   5.307   4.197   3.828
 3178SOL     OW10432   6.577   2.293   6.975
 3178SOL    HW110433   6.639   2.293   0.036
 3178SOL    HW210434   6.491   2.338   7.000
 3179SOL     OW10435   1.153   1.803   1.821
 3179SOL    HW110436   1.215   1.849   1.758
 3179SOL    HW210437   1.205   1.748   1.886
 3180SOL     OW10438   5.943   6.940   0.592
 3180SOL    HW110439   5.955   7.009   0.521
 3180SOL    HW210440   5.994   6.967   0.673
 3181SOL     OW10441   6.592   2.384   3.851
 3181SOL    HW110442   6.513   2.327   3.829
 3181SOL    HW210443   6.582   2.419   3.945
 3182SOL     OW10444   2.547   0.235   0.267
 3182SOL    HW110445   2.457   0.277   0.268
 3182SOL    HW210446   2.539   0.138   0.245
 3183SOL     OW10447   4.342   4.756   2.441
 3183SOL    HW110448   4.264   4.818   2.449
 3183SOL    HW210449   4.372   4.729   2.533
 3184SOL     OW10450   0.868   1.895   3.071
 3184SOL    HW110451   0.798   1.916   3.139
 3184SOL    HW210452   0.831   1.908   2.979
 3185SOL     OW10453   4.719   6.644   6.578
 3185SOL    HW110454   4.780   6.625   6.655
 3185SOL    HW210455   4.657   6.566   6.565
 3186SOL     OW10456   3.104   1.826   0.156
 3186SOL    HW110457   3.098   1.829   0.056
 3186SOL    HW210458   3.198   1.806   0.184
 3187SOL     OW10459   3.590   5.230   2.075
 3187SOL    HW110460   3.670   5.284   2.047
 3187SOL    HW210461   3.609   5.183   2.161
 3188SOL     OW10462   1.630   6.363   4.776
 3188SOL    HW110463   1.615   6.461   4.791
 3188SOL    HW210464   1.718   6.350   4.731
 3189SOL     OW10465   1.324   1.639   1.009
 3189SOL    HW110466   1.249   1.582   1.042
 3189SOL    HW210467   1.396   1.580   0.972
 3190SOL     OW10468   0.045   5.788   6.952
 3190SOL    HW110469   0.071   5.700   6.913
 3190SOL    HW210470   6.979   5.821   6.908
 3191SOL     OW10471   4.599   5.010   2.001
 3191SOL    HW110472   4.620   4.999   1.904
 3191SOL    HW210473   4.532   4.940   2.028
 3192SOL     OW10474   0.833   3.063   0.872
 3192SOL    HW110475   0.881   3.149   0.859
 3192SOL    HW210476   0.748   3.064   0.819
 3193SOL     OW10477   3.718   1.552   5.021
 3193SOL    HW110478   3.640   1.492   5.042
 3193SOL    HW210479   3.803   1.506   5.048
 3194SOL     OW10480   1.089   2.183   5.838
 3194SOL    HW110481   1.111   2.216   5.747
 3194SOL    HW210482   0.991   2.192   5.855
 3195SOL     OW10483   0.848   1.786   1.526
 3195SOL    HW110484   0.939   1.745   1.534
 3195SOL    HW210485   0.824   1.794   1.430
 3196SOL     OW10486   0.192   0.321   6.604
 3196SOL    HW110487   0.147   0.410   6.595
 3196SOL    HW210488   0.158   0.274   6.685
 3197SOL     OW10489   2.639   6.881   4.986
 3197SOL    HW110490   2.725   6.834   5.005
 3197SOL    HW210491   2.657   6.966   4.937
 3198SOL     OW10492   6.670   3.012   3.002
 3198SOL    HW110493   6.593   2.954   3.030
 3198SOL    HW210494   6.639   3.107   2.995
 3199SOL     OW10495   5.365   4.302   2.979
 3199SOL    HW110496   5.452   4.260   3.004
 3199SOL    HW210497   5.348   4.288   2.881
 3200SOL     OW10498   5.873   3.051   2.391
 3200SOL    HW110499   5.804   2.989   2.353
 3200SOL    HW210500   5.912   3.011   2.474
 3201SOL     OW10501   6.694   4.623   2.933
 3201SOL    HW110502   6.609   4.587   2.970
 3201SOL    HW210503   6.674   4.693   2.864
 3202SOL     OW10504   1.162   5.025   0.419
 3202SOL    HW110505   1.078   5.076   0.437
 3202SOL    HW210506   1.179   4.961   0.494
 3203SOL     OW10507   5.814   1.678   0.441
 3203SOL    HW110508   5.733   1.658   0.385
 3203SOL    HW210509   5.855   1.764   0.410
 3204SOL     OW10510   3.781   0.115   3.429
 3204SOL    HW110511   3.793   0.214   3.422
 3204SOL    HW210512   3.751   0.078   3.341
 3205SOL     OW10513   5.000   2.972   5.918
 3205SOL    HW110514   4.993   3.072   5.916
 3205SOL    HW210515   5.080   2.943   5.865
 3206SOL     OW10516   1.682   4.278   0.877
 3206SOL    HW110517   1.648   4.201   0.930
 3206SOL    HW210518   1.634   4.283   0.790
 3207SOL     OW10519   1.115   1.219   7.013
 3207SOL    HW110520   1.215   1.216   0.000
 3207SOL    HW210521   1.086   1.300   6.963
 3208SOL     OW10522   5.267   5.871   6.311
 3208SOL    HW110523   5.190   5.935   6.305
 3208SOL    HW210524   5.352   5.923   6.322
 3209SOL     OW10525   2.878   5.178   4.363
 3209SOL    HW110526   2.856   5.083   4.342
 3209SOL    HW210527   2.884   5.231   4.277
 3210SOL     OW10528   1.429   4.873   0.883
 3210SOL    HW110529   1.463   4.901   0.973
 3210SOL    HW210530   1.507   4.844   0.826
 3211SOL     OW10531   1.683   4.045   0.664
 3211SOL    HW110532   1.695   4.075   0.759
 3211SOL    HW210533   1.773   4.036   0.621
 3212SOL     OW10534   3.048   6.887   2.506
 3212SOL    HW110535   3.040   6.940   2.591
 3212SOL    HW210536   3.019   6.793   2.523
 3213SOL     OW10537   0.915   0.336   6.827
 3213SOL    HW110538   0.976   0.282   6.770
 3213SOL    HW210539   0.912   0.430   6.794
 3214SOL     OW10540   4.756   5.661   2.134
 3214SOL    HW110541   4.797   5.604   2.062
 3214SOL    HW210542   4.810   5.744   2.146
 3215SOL     OW10543   0.287   3.904   0.609
 3215SOL    HW110544   0.322   3.810   0.611
 3215SOL    HW210545   0.206   3.911   0.666
 3216SOL     OW10546   6.006   5.226   0.919
 3216SOL    HW110547   5.952   5.271   0.848
 3216SOL    HW210548   5.945   5.176   0.980
 3217SOL     OW10549   0.577   5.550   2.639
 3217SOL    HW110550   0.632   5.568   2.721
 3217SOL    HW210551   0.501   5.490   2.662
 3218SOL     OW10552   5.827   2.756   3.253
 3218SOL    HW110553   5.899   2.701   3.295
 3218SOL    HW210554   5.752   2.768   3.317
 3219SOL     OW10555   6.846   1.045   4.145
 3219SOL    HW110556   6.887   1.058   4.235
 3219SOL    HW210557   6.910   1.075   4.074
 3220SOL     OW10558   0.333   5.662   5.917
 3220SOL    HW110559   0.254   5.642   5.860
 3220SOL    HW210560   0.303   5.699   6.004
 3221SOL     OW10561   3.581   0.143   2.282
 3221SOL    HW110562   3.560   0.050   2.312
 3221SOL    HW210563   3.647   0.184   2.345
 3222SOL     OW10564   2.764   1.573   2.651
 3222SOL    HW110565   2.843   1.634   2.642
 3222SOL    HW210566   2.680   1.626   2.643
 3223SOL     OW10567   2.679   6.372   6.981
 3223SOL    HW110568   2.644   6.465   6.975
 3223SOL    HW210569   2.656   6.323   6.897
 3224SOL     OW10570   4.750   2.879   4.927
 3224SOL    HW110571   4.847   2.902   4.925
 3224SOL    HW210572   4.718   2.862   4.834
 3225SOL     OW10573   4.467   1.755   5.786
 3225SOL    HW110574   4.497   1.686   5.853
 3225SOL    HW210575   4.472   1.716   5.694
 3226SOL     OW10576   2.578   0.921   2.318
 3226SOL    HW110577   2.623   1.010   2.316
 3226SOL    HW210578   2.529   0.906   2.232
 3227SOL     OW10579   3.576   3.976   6.653
 3227SOL    HW110580   3.539   3.955   6.563
 3227SOL    HW210581   3.647   4.046   6.643
 3228SOL     OW10582   6.635   3.629   1.023
 3228SOL    HW110583   6.558   3.673   0.976
 3228SOL    HW210584   6.636   3.531   1.001
 3229SOL     OW10585   3.648   0.960   5.625
 3229SOL    HW110586   3.576   0.956   5.556
 3229SOL    HW210587   3.695   0.872   5.631
 3230SOL     OW10588   2.199   4.807   5.972
 3230SOL    HW110589   2.213   4.863   5.891
 3230SOL    HW210590   2.101   4.798   5.990
 3231SOL     OW10591   2.660   0.413   2.463
 3231SOL    HW110592   2.683   0.485   2.398
 3231SOL    HW210593   2.569   0.429   2.501
 3232SOL     OW10594   4.078   6.260   4.251
 3232SOL    HW110595   4.142   6.335   4.236
 3232SOL    HW210596   4.000   6.270   4.189
 3233SOL     OW10597   6.923   2.428   0.792
 3233SOL    HW110598   6.948   2.471   0.705
 3233SOL    HW210599   6.883   2.496   0.853
 3234SOL     OW10600   0.514   2.657   0.229
 3234SOL    HW110601   0.506   2.677   0.132
 3234SOL    HW210602   0.469   2.570   0.249
 3235SOL     OW10603   6.755   0.087   1.528
 3235SOL    HW110604   6.672   0.056   1.573
 3235SOL    HW210605   6.767   0.185   1.543
 3236SOL     OW10606   0.729   4.279   0.156
 3236SOL    HW110607   0.828   4.285   0.150
 3236SOL    HW210608   0.703   4.236   0.243
 3237SOL     OW10609   6.093   1.676   2.186
 3237SOL    HW110610   6.051   1.718   2.105
 3237SOL    HW210611   6.148   1.744   2.233
 3238SOL     OW10612   6.062   5.374   0.053
 3238SOL    HW110613   5.969   5.372   0.015
 3238SOL    HW210614   6.061   5.341   0.147
 3239SOL     OW10615   0.325   1.307   2.707
 3239SOL    HW110616   0.301   1.386   2.650
 3239SOL    HW210617   0.379   1.338   2.785
 3240SOL     OW10618   0.105   6.771   6.655
 3240SOL    HW110619   0.093   6.791   6.557
 3240SOL    HW210620   0.178   6.827   6.692
 3241SOL     OW10621   4.840   1.304   5.936
 3241SOL    HW110622   4.870   1.210   5.951
 3241SOL    HW210623   4.917   1.366   5.951
 3242SOL     OW10624   4.310   4.392   6.319
 3242SOL    HW110625   4.404   4.402   6.286
 3242SOL    HW210626   4.263   4.324   6.262
 3243SOL     OW10627   4.608   5.141   0.467
 3243SOL    HW110628   4.534   5.122   0.402
 3243SOL    HW210629   4.676   5.199   0.423
 3244SOL     OW10630   5.374   6.324   0.217
 3244SOL    HW110631   5.420   6.381   0.149
 3244SOL    HW210632   5.310   6.381   0.269
 3245SOL     OW10633   4.926   2.379   4.144
 3245SOL    HW110634   5.000   2.417   4.200
 3245SOL    HW210635   4.856   2.340   4.204
 3246SOL     OW10636   6.680   6.822   3.157
 3246SOL    HW110637   6.612   6.748   3.163
 3246SOL    HW210638   6.636   6.905   3.123
 3247SOL     OW10639   5.795   4.305   2.223
 3247SOL    HW110640   5.820   4.215   2.187
 3247SOL    HW210641   5.702   4.303   2.258
 3248SOL     OW10642   5.465   2.922   2.145
 3248SOL    HW110643   5.483   2.845   2.083
 3248SOL    HW210644   5.490   3.008   2.100
 3249SOL     OW10645   3.395   4.131   3.096
 3249SOL    HW110646   3.393   4.033   3.073
 3249SOL    HW210647   3.405   4.142   3.195
 3250SOL     OW10648   5.857   6.932   2.401
 3250SOL    HW110649   5.879   6.871   2.325
 3250SOL    HW210650   5.784   6.994   2.373
 3251SOL     OW10651   3.521   0.664   3.819
 3251SOL    HW110652   3.497   0.577   3.863
 3251SOL    HW210653   3.454   0.733   3.845
 3252SOL     OW10654   2.864   0.952   2.409
 3252SOL    HW110655   2.806   0.872   2.425
 3252SOL    HW210656   2.827   1.005   2.332
 3253SOL     OW10657   4.486   3.519   0.897
 3253SOL    HW110658   4.404   3.504   0.841
 3253SOL    HW210659   4.529   3.431   0.917
 3254SOL     OW10660   4.894   6.252   0.077
 3254SOL    HW110661   4.862   6.337   0.118
 3254SOL    HW210662   4.953   6.272   7.016
 3255SOL     OW10663   4.080   6.773   1.577
 3255SOL    HW110664   4.003   6.835   1.592
 3255SOL    HW210665   4.127   6.798   1.493
 3256SOL     OW10666   3.663   1.498   0.863
 3256SOL    HW110667   3.623   1.586   0.888
 3256SOL    HW210668   3.737   1.476   0.926
 3257SOL     OW10669   1.416   1.888   1.682
 3257SOL    HW110670   1.477   1.937   1.620
 3257SOL    HW210671   1.420   1.929   1.773
 3258SOL     OW10672   4.325   5.745   2.984
 3258SOL    HW110673   4.277   5.789   2.909
 3258SOL    HW210674   4.263   5.683   3.032
 3259SOL     OW10675   4.737   4.627   4.738
 3259SOL    HW110676   4.728   4.691   4.814
 3259SOL    HW210677   4.833   4.617   4.714
 3260SOL     OW10678   1.768   2.601   1.710
 3260SOL    HW110679   1.750   2.503   1.704
 3260SOL    HW210680   1.711   2.642   1.781
 3261SOL     OW10681   5.759   0.881   1.071
 3261SOL    HW110682   5.793   0.792   1.041
 3261SOL    HW210683   5.790   0.899   1.165
 3262SOL     OW10684   3.842   2.086   2.230
 3262SOL    HW110685   3.928   2.048   2.194
 3262SOL    HW210686   3.786   2.118   2.154
 3263SOL     OW10687   2.781   1.166   3.202
 3263SOL    HW110688   2.786   1.107   3.282
 3263SOL    HW210689   2.865   1.158   3.148
 3264SOL     OW10690   1.984   5.337   1.301
 3264SOL    HW110691   2.008   5.293   1.215
 3264SOL    HW210692   1.905   5.292   1.341
 3265SOL     OW10693   5.140   6.889   6.385
 3265SOL    HW110694   5.053   6.841   6.373
 3265SOL    HW210695   5.186   6.896   6.297
 3266SOL     OW10696   3.051   4.566   0.001
 3266SOL    HW110697   2.973   4.568   6.955
 3266SOL    HW210698   3.095   4.477   7.015
 3267SOL     OW10699   2.923   6.257   1.791
 3267SOL    HW110700   2.909   6.165   1.753
 3267SOL    HW210701   2.855   6.274   1.863
 3268SOL     OW10702   2.163   4.065   1.247
 3268SOL    HW110703   2.147   3.969   1.223
 3268SOL    HW210704   2.179   4.072   1.345
 3269SOL     OW10705   6.127   5.585   2.112
 3269SOL    HW110706   6.090   5.543   2.195
 3269SOL    HW210707   6.072   5.557   2.033
 3270SOL     OW10708   1.753   4.012   6.622
 3270SOL    HW110709   1.805   3.977   6.700
 3270SOL    HW210710   1.807   4.001   6.539
 3271SOL     OW10711   6.685   2.909   1.257
 3271SOL    HW110712   6.627   2.953   1.326
 3271SOL    HW210713   6.627   2.858   1.194
 3272SOL     OW10714   3.190   4.292   6.254
 3272SOL    HW110715   3.212   4.388   6.242
 3272SOL    HW210716   3.114   4.267   6.194
 3273SOL     OW10717   6.490   4.696   6.859
 3273SOL    HW110718   6.397   4.728   6.877
 3273SOL    HW210719   6.530   4.661   6.944
 3274SOL     OW10720   5.951   0.462   0.432
 3274SOL    HW110721   5.927   0.469   0.335
 3274SOL    HW210722   5.994   0.547   0.462
 3275SOL     OW10723   5.350   0.911   7.004
 3275SOL    HW110724   5.417   0.945   0.052
 3275SOL    HW210725   5.360   0.960   6.917
 3276SOL     OW10726   4.240   5.992   6.555
 3276SOL    HW110727   4.272   5.902   6.525
 3276SOL    HW210728   4.191   5.983   6.642
 3277SOL     OW10729   3.447   0.691   0.968
 3277SOL    HW110730   3.471   0.671   1.063
 3277SOL    HW210731   3.463   0.788   0.950
 3278SOL     OW10732   1.123   1.226   5.800
 3278SOL    HW110733   1.043   1.221   5.740
 3278SOL    HW210734   1.206   1.234   5.745
 3279SOL     OW10735   5.348   6.689   0.348
 3279SOL    HW110736   5.273   6.633   0.381
 3279SOL    HW210737   5.430   6.670   0.402
 3280SOL     OW10738   4.817   4.908   4.857
 3280SOL    HW110739   4.810   4.940   4.763
 3280SOL    HW210740   4.913   4.904   4.884
 3281SOL     OW10741   1.065   4.864   1.114
 3281SOL    HW110742   0.994   4.796   1.131
 3281SOL    HW210743   1.141   4.850   1.177
 3282SOL     OW10744   6.524   5.220   4.895
 3282SOL    HW110745   6.446   5.265   4.852
 3282SOL    HW210746   6.609   5.252   4.852
 3283SOL     OW10747   3.186   1.272   1.091
 3283SOL    HW110748   3.283   1.291   1.076
 3283SOL    HW210749   3.171   1.173   1.087
 3284SOL     OW10750   1.175   6.095   6.151
 3284SOL    HW110751   1.213   6.065   6.063
 3284SOL    HW210752   1.107   6.167   6.134
 3285SOL     OW10753   4.590   1.986   4.341
 3285SOL    HW110754   4.538   1.900   4.342
 3285SOL    HW210755   4.655   1.987   4.417
 3286SOL     OW10756   3.788   2.890   2.018
 3286SOL    HW110757   3.714   2.876   1.953
 3286SOL    HW210758   3.767   2.845   2.104
 3287SOL     OW10759   0.507   0.060   0.245
 3287SOL    HW110760   0.575   0.086   0.313
 3287SOL    HW210761   0.424   0.115   0.258
 3288SOL     OW10762   1.973   6.180   0.028
 3288SOL    HW110763   1.961   6.279   0.036
 3288SOL    HW210764   1.975   6.140   0.120
 3289SOL     OW10765   2.938   1.236   6.322
 3289SOL    HW110766   2.961   1.270   6.413
 3289SOL    HW210767   2.848   1.272   6.296
 3290SOL     OW10768   6.756   4.563   0.906
 3290SOL    HW110769   6.821   4.524   0.840
 3290SOL    HW210770   6.793   4.648   0.942
 3291SOL     OW10771   2.398   0.703   6.090
 3291SOL    HW110772   2.459   0.673   6.163
 3291SOL    HW210773   2.424   0.658   6.004
 3292SOL     OW10774   6.758   0.900   0.719
 3292SOL    HW110775   6.743   0.991   0.760
 3292SOL    HW210776   6.734   0.904   0.622
 3293SOL     OW10777   6.402   4.624   1.803
 3293SOL    HW110778   6.304   4.618   1.782
 3293SOL    HW210779   6.454   4.630   1.717
 3294SOL     OW10780   5.300   3.214   6.444
 3294SOL    HW110781   5.276   3.117   6.450
 3294SOL    HW210782   5.262   3.262   6.523
 3295SOL     OW10783   0.824   2.865   2.240
 3295SOL    HW110784   0.868   2.948   2.276
 3295SOL    HW210785   0.807   2.877   2.142
 3296SOL     OW10786   1.601   0.699   2.988
 3296SOL    HW110787   1.569   0.794   2.990
 3296SOL    HW210788   1.626   0.670   3.081
 3297SOL     OW10789   2.763   1.880   5.225
 3297SOL    HW110790   2.792   1.885   5.321
 3297SOL    HW210791   2.827   1.823   5.174
 3298SOL     OW10792   5.884   2.298   5.948
 3298SOL    HW110793   5.801   2.353   5.938
 3298SOL    HW210794   5.906   2.289   6.045
 3299SOL     OW10795   3.990   5.826   2.346
 3299SOL    HW110796   3.914   5.771   2.380
 3299SOL    HW210797   3.960   5.879   2.267
 3300SOL     OW10798   0.660   1.054   5.905
 3300SOL    HW110799   0.704   1.065   5.994
 3300SOL    HW210800   0.615   0.965   5.901
 3301SOL     OW10801   2.090   3.305   3.450
 3301SOL    HW110802   2.048   3.361   3.378
 3301SOL    HW210803   2.060   3.210   3.440
 3302SOL     OW10804   0.617   4.724   5.203
 3302SOL    HW110805   0.669   4.649   5.244
 3302SOL    HW210806   0.562   4.689   5.126
 3303SOL     OW10807   3.360   3.558   0.198
 3303SOL    HW110808   3.371   3.606   0.111
 3303SOL    HW210809   3.296   3.609   0.256
 3304SOL     OW10810   1.859   5.444   5.944
 3304SOL    HW110811   1.876   5.504   6.021
 3304SOL    HW210812   1.878   5.493   5.858
 3305SOL     OW10813   2.510   1.633   2.619
 3305SOL    HW110814   2.467   1.552   2.660
 3305SOL    HW210815   2.454   1.713   2.639
 3306SOL     OW10816   1.818   5.061   5.072
 3306SOL    HW110817   1.720   5.050   5.052
 3306SOL    HW210818   1.843   5.158   5.065
 3307SOL     OW10819   0.554   6.535   6.189
 3307SOL    HW110820   0.608   6.472   6.133
 3307SOL    HW210821   0.609   6.615   6.211
 3308SOL     OW10822   2.811   5.711   1.471
 3308SOL    HW110823   2.736   5.683   1.412
 3308SOL    HW210824   2.777   5.771   1.543
 3309SOL     OW10825   6.494   5.539   3.751
 3309SOL    HW110826   6.570   5.600   3.727
 3309SOL    HW210827   6.410   5.574   3.710
 3310SOL     OW10828   0.206   4.132   5.051
 3310SOL    HW110829   0.223   4.158   4.956
 3310SOL    HW210830   0.126   4.071   5.054
 3311SOL     OW10831   3.492   4.409   0.788
 3311SOL    HW110832   3.493   4.482   0.719
 3311SOL    HW210833   3.418   4.345   0.768
 3312SOL     OW10834   4.345   3.915   5.902
 3312SOL    HW110835   4.319   3.828   5.944
 3312SOL    HW210836   4.262   3.962   5.869
 3313SOL     OW10837   0.811   6.332   4.130
 3313SOL    HW110838   0.814   6.372   4.221
 3313SOL    HW210839   0.888   6.366   4.076
 3314SOL     OW10840   2.508   1.328   2.391
 3314SOL    HW110841   2.457   1.360   2.472
 3314SOL    HW210842   2.550   1.406   2.346
 3315SOL     OW10843   0.414   4.453   4.808
 3315SOL    HW110844   0.461   4.485   4.725
 3315SOL    HW210845   0.315   4.454   4.793
 3316SOL     OW10846   5.099   1.021   5.019
 3316SOL    HW110847   5.066   0.937   4.977
 3316SOL    HW210848   5.034   1.095   5.001
 3317SOL     OW10849   4.979   2.651   1.910
 3317SOL    HW110850   5.038   2.669   1.832
 3317SOL    HW210851   4.885   2.673   1.886
 3318SOL     OW10852   2.102   1.530   1.119
 3318SOL    HW110853   2.188   1.531   1.171
 3318SOL    HW210854   2.048   1.611   1.143
 3319SOL     OW10855   5.556   1.332   3.671
 3319SOL    HW110856   5.493   1.312   3.597
 3319SOL    HW210857   5.551   1.260   3.740
 3320SOL     OW10858   6.173   0.879   6.567
 3320SOL    HW110859   6.123   0.913   6.647
 3320SOL    HW210860   6.139   0.925   6.485
 3321SOL     OW10861   5.226   2.048   0.451
 3321SOL    HW110862   5.264   2.061   0.542
 3321SOL    HW210863   5.162   2.122   0.431
 3322SOL     OW10864   6.736   2.361   1.141
 3322SOL    HW110865   6.777   2.446   1.109
 3322SOL    HW210866   6.795   2.318   1.209
 3323SOL     OW10867   2.815   3.093   0.131
 3323SOL    HW110868   2.886   3.129   0.071
 3323SOL    HW210869   2.845   3.007   0.172
 3324SOL     OW10870   3.996   4.611   6.571
 3324SOL    HW110871   3.928   4.591   6.641
 3324SOL    HW210872   4.058   4.683   6.604
 3325SOL     OW10873   0.108   3.864   0.198
 3325SOL    HW110874   0.074   3.945   0.151
 3325SOL    HW210875   0.044   3.788   0.184
 3326SOL     OW10876   5.206   1.870   1.751
 3326SOL    HW110877   5.151   1.854   1.833
 3326SOL    HW210878   5.195   1.793   1.688
 3327SOL     OW10879   3.142   5.301   2.087
 3327SOL    HW110880   3.213   5.315   2.018
 3327SOL    HW210881   3.056   5.275   2.042
 3328SOL     OW10882   4.199   2.099   0.771
 3328SOL    HW110883   4.113   2.145   0.795
 3328SOL    HW210884   4.184   2.000   0.765
 3329SOL     OW10885   5.979   0.223   5.332
 3329SOL    HW110886   6.011   0.315   5.356
 3329SOL    HW210887   5.960   0.220   5.234
 3330SOL     OW10888   6.609   3.520   1.488
 3330SOL    HW110889   6.579   3.610   1.457
 3330SOL    HW210890   6.703   3.526   1.521
 3331SOL     OW10891   2.177   3.068   1.653
 3331SOL    HW110892   2.234   3.151   1.647
 3331SOL    HW210893   2.197   3.020   1.739
 3332SOL     OW10894   5.680   5.940   0.214
 3332SOL    HW110895   5.775   5.941   0.183
 3332SOL    HW210896   5.619   5.922   0.137
 3333SOL     OW10897   4.285   5.624   6.463
 3333SOL    HW110898   4.229   5.580   6.393
 3333SOL    HW210899   4.374   5.649   6.423
 3334SOL     OW10900   3.347   3.873   1.134
 3334SOL    HW110901   3.314   3.836   1.220
 3334SOL    HW210902   3.270   3.891   1.073
 3335SOL     OW10903   4.793   5.268   5.702
 3335SOL    HW110904   4.810   5.366   5.691
 3335SOL    HW210905   4.819   5.220   5.618
 3336SOL     OW10906   2.827   5.322   5.045
 3336SOL    HW110907   2.798   5.246   5.104
 3336SOL    HW210908   2.902   5.371   5.089
 3337SOL     OW10909   2.985   3.806   2.190
 3337SOL    HW110910   2.919   3.734   2.168
 3337SOL    HW210911   3.050   3.816   2.114
 3338SOL     OW10912   5.651   2.982   1.354
 3338SOL    HW110913   5.586   3.028   1.293
 3338SOL    HW210914   5.700   3.051   1.408
 3339SOL     OW10915   6.744   6.900   6.641
 3339SOL    HW110916   6.647   6.883   6.655
 3339SOL    HW210917   6.757   6.960   6.562
 3340SOL     OW10918   3.680   0.363   1.300
 3340SOL    HW110919   3.643   0.343   1.391
 3340SOL    HW210920   3.752   0.433   1.308
 3341SOL     OW10921   0.901   5.962   3.815
 3341SOL    HW110922   0.978   5.905   3.786
 3341SOL    HW210923   0.879   5.943   3.910
 3342SOL     OW10924   2.848   6.490   4.023
 3342SOL    HW110925   2.791   6.466   4.101
 3342SOL    HW210926   2.825   6.583   3.992
 3343SOL     OW10927   4.459   3.197   0.759
 3343SOL    HW110928   4.507   3.211   0.672
 3343SOL    HW210929   4.368   3.160   0.742
 3344SOL     OW10930   6.084   3.328   4.558
 3344SOL    HW110931   6.066   3.419   4.596
 3344SOL    HW210932   6.043   3.258   4.617
 3345SOL     OW10933   1.388   3.968   5.535
 3345SOL    HW110934   1.470   4.020   5.561
 3345SOL    HW210935   1.319   3.976   5.607
 3346SOL     OW10936   1.711   0.832   0.828
 3346SOL    HW110937   1.785   0.845   0.763
 3346SOL    HW210938   1.724   0.745   0.876
 3347SOL     OW10939   0.456   4.667   4.019
 3347SOL    HW110940   0.543   4.710   3.995
 3347SOL    HW210941   0.467   4.568   4.025
 3348SOL     OW10942   3.025   3.143   3.619
 3348SOL    HW110943   3.102   3.078   3.624
 3348SOL    HW210944   2.975   3.141   3.705
 3349SOL     OW10945   0.776   5.315   4.225
 3349SOL    HW110946   0.741   5.235   4.177
 3349SOL    HW210947   0.778   5.296   4.323
 3350SOL     OW10948   1.092   2.489   5.652
 3350SOL    HW110949   1.086   2.391   5.633
 3350SOL    HW210950   1.187   2.519   5.645
 3351SOL     OW10951   5.496   0.322   3.037
 3351SOL    HW110952   5.428   0.278   2.979
 3351SOL    HW210953   5.464   0.323   3.132
 3352SOL     OW10954   0.202   2.821   0.158
 3352SOL    HW110955   0.288   2.805   0.110
 3352SOL    HW210956   0.217   2.888   0.231
 3353SOL     OW10957   1.523   6.541   2.280
 3353SOL    HW110958   1.476   6.536   2.192
 3353SOL    HW210959   1.488   6.469   2.340
 3354SOL     OW10960   5.345   2.821   4.573
 3354SOL    HW110961   5.399   2.741   4.545
 3354SOL    HW210962   5.338   2.822   4.673
 3355SOL     OW10963   1.615   1.586   0.149
 3355SOL    HW110964   1.640   1.578   0.246
 3355SOL    HW210965   1.576   1.677   0.133
 3356SOL     OW10966   2.237   3.991   6.358
 3356SOL    HW110967   2.300   3.944   6.295
 3356SOL    HW210968   2.255   4.089   6.357
 3357SOL     OW10969   2.750   4.862   1.726
 3357SOL    HW110970   2.843   4.829   1.710
 3357SOL    HW210971   2.721   4.835   1.818
 3358SOL     OW10972   4.997   0.255   1.324
 3358SOL    HW110973   4.915   0.292   1.368
 3358SOL    HW210974   5.078   0.286   1.372
 3359SOL     OW10975   6.729   0.491   3.631
 3359SOL    HW110976   6.654   0.440   3.672
 3359SOL    HW210977   6.753   0.568   3.690
 3360SOL     OW10978   0.685   1.202   6.869
 3360SOL    HW110979   0.765   1.153   6.906
 3360SOL    HW210980   0.716   1.277   6.812
 3361SOL     OW10981   0.293   4.213   2.573
 3361SOL    HW110982   0.249   4.177   2.655
 3361SOL    HW210983   0.223   4.238   2.506
 3362SOL     OW10984   3.877   1.638   3.823
 3362SOL    HW110985   3.869   1.553   3.876
 3362SOL    HW210986   3.876   1.716   3.886
 3363SOL     OW10987   0.745   0.005   0.125
 3363SOL    HW110988   0.648   0.015   0.103
 3363SOL    HW210989   0.755   6.969   0.208
 3364SOL     OW10990   0.770   4.414   4.553
 3364SOL    HW110991   0.784   4.316   4.568
 3364SOL    HW210992   0.858   4.457   4.535
 3365SOL     OW10993   0.585   2.532   5.235
 3365SOL    HW110994   0.633   2.462   5.287
 3365SOL    HW210995   0.494   2.500   5.210
 3366SOL     OW10996   6.037   0.549   6.224
 3366SOL    HW110997   5.973   0.487   6.270
 3366SOL    HW210998   6.017   0.551   6.126
 3367SOL     OW10999   2.853   2.895   1.164
 3367SOL    HW111000   2.849   2.946   1.250
 3367SOL    HW211001   2.913   2.816   1.174
 3368SOL     OW11002   0.804   5.758   6.155
 3368SOL    HW111003   0.809   5.716   6.065
 3368SOL    HW211004   0.713   5.796   6.169
 3369SOL     OW11005   3.485   2.360   5.823
 3369SOL    HW111006   3.469   2.366   5.921
 3369SOL    HW211007   3.458   2.446   5.780
 3370SOL     OW11008   6.696   6.317   6.047
 3370SOL    HW111009   6.660   6.303   6.139
 3370SOL    HW211010   6.796   6.317   6.050
 3371SOL     OW11011   1.207   4.264   2.751
 3371SOL    HW111012   1.154   4.348   2.760
 3371SOL    HW211013   1.147   4.190   2.720
 3372SOL     OW11014   0.500   1.262   1.477
 3372SOL    HW111015   0.478   1.165   1.484
 3372SOL    HW211016   0.591   1.273   1.435
 3373SOL     OW11017   6.589   1.058   2.725
 3373SOL    HW111018   6.606   1.046   2.823
 3373SOL    HW211019   6.641   1.136   2.692
 3374SOL     OW11020   2.287   5.781   4.780
 3374SOL    HW111021   2.302   5.718   4.856
 3374SOL    HW211022   2.230   5.737   4.711
 3375SOL     OW11023   5.079   5.130   6.114
 3375SOL    HW111024   5.092   5.199   6.185
 3375SOL    HW211025   5.047   5.174   6.030
 3376SOL     OW11026   3.724   3.171   3.292
 3376SOL    HW111027   3.749   3.088   3.341
 3376SOL    HW211028   3.703   3.243   3.358
 3377SOL     OW11029   0.111   6.725   4.516
 3377SOL    HW111030   0.172   6.770   4.582
 3377SOL    HW211031   0.098   6.629   4.541
 3378SOL     OW11032   6.397   0.643   0.409
 3378SOL    HW111033   6.365   0.579   0.340
 3378SOL    HW211034   6.362   0.735   0.389
 3379SOL     OW11035   0.007   5.288   6.100
 3379SOL    HW111036   0.047   5.291   6.008
 3379SOL    HW211037   0.070   5.242   6.162
 3380SOL     OW11038   5.533   6.635   6.143
 3380SOL    HW111039   5.525   6.671   6.236
 3380SOL    HW211040   5.508   6.706   6.077
 3381SOL     OW11041   1.117   2.873   1.347
 3381SOL    HW111042   1.162   2.878   1.257
 3381SOL    HW211043   1.091   2.779   1.366
 3382SOL     OW11044   0.868   0.655   0.656
 3382SOL    HW111045   0.902   0.581   0.599
 3382SOL    HW211046   0.810   0.618   0.729
 3383SOL     OW11047   4.266   5.485   3.102
 3383SOL    HW111048   4.320   5.459   3.182
 3383SOL    HW211049   4.169   5.469   3.120
 3384SOL     OW11050   2.603   3.387   5.352
 3384SOL    HW111051   2.510   3.407   5.322
 3384SOL    HW211052   2.607   3.292   5.385
 3385SOL     OW11053   0.336   4.090   3.675
 3385SOL    HW111054   0.323   4.145   3.594
 3385SOL    HW211055   0.266   4.019   3.679
 3386SOL     OW11056   6.319   3.807   6.390
 3386SOL    HW111057   6.311   3.904   6.370
 3386SOL    HW211058   6.284   3.789   6.482
 3387SOL     OW11059   3.048   1.132   3.469
 3387SOL    HW111060   2.972   1.069   3.454
 3387SOL    HW211061   3.107   1.131   3.389
 3388SOL     OW11062   5.906   3.716   1.794
 3388SOL    HW111063   5.838   3.705   1.866
 3388SOL    HW211064   5.862   3.712   1.705
 3389SOL     OW11065   5.065   5.175   4.816
 3389SOL    HW111066   5.154   5.203   4.851
 3389SOL    HW211067   5.018   5.254   4.775
 3390SOL     OW11068   5.205   4.649   5.467
 3390SOL    HW111069   5.172   4.638   5.373
 3390SOL    HW211070   5.128   4.673   5.527
 3391SOL     OW11071   5.294   2.858   4.877
 3391SOL    HW111072   5.385   2.826   4.903
 3391SOL    HW211073   5.274   2.944   4.925
 3392SOL     OW11074   2.700   0.132   3.772
 3392SOL    HW111075   2.681   0.221   3.814
 3392SOL    HW211076   2.654   0.060   3.824
 3393SOL     OW11077   0.131   6.644   6.995
 3393SOL    HW111078   0.169   6.581   0.045
 3393SOL    HW211079   0.178   6.632   6.907
 3394SOL     OW11080   5.787   2.794   0.778
 3394SOL    HW111081   5.719   2.829   0.715
 3394SOL    HW211082   5.875   2.839   0.761
 3395SOL     OW11083   5.780   3.425   3.478
 3395SOL    HW111084   5.788   3.353   3.409
 3395SOL    HW211085   5.753   3.510   3.434
 3396SOL     OW11086   5.958   2.245   3.426
 3396SOL    HW111087   5.994   2.235   3.519
 3396SOL    HW211088   5.951   2.155   3.384
 3397SOL     OW11089   2.755   1.244   5.248
 3397SOL    HW111090   2.772   1.232   5.345
 3397SOL    HW211091   2.656   1.238   5.230
 3398SOL     OW11092   1.291   6.655   3.952
 3398SOL    HW111093   1.306   6.717   3.875
 3398SOL    HW211094   1.320   6.563   3.928
 3399SOL     OW11095   5.670   4.287   5.055
 3399SOL    HW111096   5.765   4.318   5.043
 3399SOL    HW211097   5.613   4.365   5.080
 3400SOL     OW11098   4.654   1.886   5.984
 3400SOL    HW111099   4.597   1.872   5.904
 3400SOL    HW211100   4.601   1.931   6.056
 3401SOL     OW11101   6.951   3.195   0.559
 3401SOL    HW111102   6.942   3.276   0.502
 3401SOL    HW211103   6.860   3.161   0.583
 3402SOL     OW11104   4.061   6.207   0.195
 3402SOL    HW111105   3.966   6.176   0.194
 3402SOL    HW211106   4.065   6.303   0.224
 3403SOL     OW11107   4.544   6.958   4.993
 3403SOL    HW111108   4.544   6.864   5.027
 3403SOL    HW211109   4.507   0.002   5.063
 3404SOL     OW11110   5.531   1.617   6.612
 3404SOL    HW111111   5.616   1.597   6.662
 3404SOL    HW211112   5.457   1.632   6.677
 3405SOL     OW11113   6.711   4.513   4.448
 3405SOL    HW111114   6.621   4.470   4.459
 3405SOL    HW211115   6.739   4.506   4.352
 3406SOL     OW11116   0.745   4.365   2.486
 3406SOL    HW111117   0.702   4.441   2.437
 3406SOL    HW211118   0.840   4.356   2.457
 3407SOL     OW11119   1.549   5.429   0.086
 3407SOL    HW111120   1.565   5.330   0.095
 3407SOL    HW211121   1.527   5.450   7.009
 3408SOL     OW11122   4.914   4.062   5.057
 3408SOL    HW111123   4.999   4.110   5.036
 3408SOL    HW211124   4.906   4.050   5.156
 3409SOL     OW11125   3.938   6.328   6.277
 3409SOL    HW111126   4.001   6.251   6.291
 3409SOL    HW211127   3.863   6.322   6.343
 3410SOL     OW11128   6.588   5.779   6.971
 3410SOL    HW111129   6.546   5.864   7.000
 3410SOL    HW211130   6.632   5.735   0.031
 3411SOL     OW11131   0.395   2.562   1.728
 3411SOL    HW111132   0.311   2.511   1.709
 3411SOL    HW211133   0.440   2.586   1.642
 3412SOL     OW11134   4.596   2.729   6.338
 3412SOL    HW111135   4.506   2.685   6.340
 3412SOL    HW211136   4.587   2.825   6.368
 3413SOL     OW11137   5.431   0.549   2.279
 3413SOL    HW111138   5.514   0.513   2.237
 3413SOL    HW211139   5.445   0.646   2.302
 3414SOL     OW11140   1.951   0.870   5.733
 3414SOL    HW111141   2.019   0.901   5.667
 3414SOL    HW211142   1.873   0.933   5.733
 3415SOL     OW11143   1.598   4.148   4.747
 3415SOL    HW111144   1.637   4.237   4.771
 3415SOL    HW211145   1.665   4.076   4.764
 3416SOL     OW11146   6.886   5.641   0.368
 3416SOL    HW111147   6.969   5.649   0.314
 3416SOL    HW211148   6.909   5.618   0.462
 3417SOL     OW11149   0.687   5.802   3.619
 3417SOL    HW111150   0.758   5.739   3.587
 3417SOL    HW211151   0.729   5.875   3.673
 3418SOL     OW11152   3.927   0.023   5.095
 3418SOL    HW111153   3.938   6.942   5.112
 3418SOL    HW211154   3.891   0.037   5.003
 3419SOL     OW11155   4.008   5.158   4.901
 3419SOL    HW111156   4.038   5.141   4.807
 3419SOL    HW211157   4.016   5.256   4.921
 3420SOL     OW11158   5.259   3.322   3.612
 3420SOL    HW111159   5.229   3.414   3.588
 3420SOL    HW211160   5.180   3.266   3.637
 3421SOL     OW11161   5.607   0.567   6.356
 3421SOL    HW111162   5.507   0.564   6.355
 3421SOL    HW211163   5.639   0.628   6.283
 3422SOL     OW11164   1.774   6.652   1.216
 3422SOL    HW111165   1.861   6.702   1.216
 3422SOL    HW211166   1.768   6.596   1.298
 3423SOL     OW11167   2.267   6.350   0.534
 3423SOL    HW111168   2.217   6.400   0.605
 3423SOL    HW211169   2.357   6.323   0.571
 3424SOL     OW11170   2.916   0.105   2.451
 3424SOL    HW111171   2.854   0.126   2.526
 3424SOL    HW211172   2.967   0.022   2.471
 3425SOL     OW11173   5.602   4.012   2.440
 3425SOL    HW111174   5.691   3.976   2.466
 3425SOL    HW211175   5.560   3.953   2.371
 3426SOL     OW11176   3.323   2.881   0.102
 3426SOL    HW111177   3.382   2.908   0.025
 3426SOL    HW211178   3.251   2.820   0.068
 3427SOL     OW11179   6.371   6.499   0.073
 3427SOL    HW111180   6.465   6.530   0.066
 3427SOL    HW211181   6.311   6.558   0.019
 3428SOL     OW11182   2.931   4.996   1.189
 3428SOL    HW111183   3.020   4.953   1.210
 3428SOL    HW211184   2.919   5.076   1.247
 3429SOL     OW11185   0.814   1.748   6.965
 3429SOL    HW111186   0.830   1.650   6.977
 3429SOL    HW211187   0.763   1.783   0.026
 3430SOL     OW11188   0.095   6.547   5.304
 3430SOL    HW111189   0.061   6.570   5.213
 3430SOL    HW211190   0.116   6.631   5.355
 3431SOL     OW11191   2.006   6.893   1.211
 3431SOL    HW111192   2.080   6.941   1.258
 3431SOL    HW211193   1.920   6.939   1.230
 3432SOL     OW11194   2.347   2.866   6.950
 3432SOL    HW111195   2.396   2.937   7.000
 3432SOL    HW211196   2.399   2.780   6.953
 3433SOL     OW11197   0.970   6.940   6.423
 3433SOL    HW111198   1.040   7.007   6.448
 3433SOL    HW211199   0.924   6.908   6.506
 3434SOL     OW11200   4.351   2.138   0.529
 3434SOL    HW111201   4.315   2.158   0.620
 3434SOL    HW211202   4.432   2.080   0.537
 3435SOL     OW11203   1.439   1.571   1.287
 3435SOL    HW111204   1.515   1.592   1.226
 3435SOL    HW211205   1.388   1.493   1.252
 3436SOL     OW11206   3.418   6.615   5.733
 3436SOL    HW111207   3.428   6.698   5.787
 3436SOL    HW211208   3.507   6.574   5.716
 3437SOL     OW11209   3.137   0.525   6.107
 3437SOL    HW111210   3.089   0.476   6.179
 3437SOL    HW211211   3.081   0.524   6.023
 3438SOL     OW11212   1.334   2.197   0.599
 3438SOL    HW111213   1.307   2.217   0.505
 3438SOL    HW211214   1.253   2.192   0.657
 3439SOL     OW11215   1.973   6.296   5.398
 3439SOL    HW111216   2.066   6.332   5.412
 3439SOL    HW211217   1.930   6.344   5.321
 3440SOL     OW11218   4.212   3.389   1.910
 3440SOL    HW111219   4.217   3.474   1.961
 3440SOL    HW211220   4.141   3.331   1.948
 3441SOL     OW11221   5.180   6.896   3.746
 3441SOL    HW111222   5.189   6.860   3.839
 3441SOL    HW211223   5.153   6.993   3.751
 3442SOL     OW11224   2.862   4.766   2.942
 3442SOL    HW111225   2.827   4.860   2.943
 3442SOL    HW211226   2.937   4.758   3.008
 3443SOL     OW11227   5.627   0.102   1.873
 3443SOL    HW111228   5.544   0.077   1.923
 3443SOL    HW211229   5.611   0.093   1.775
 3444SOL     OW11230   5.541   5.487   0.359
 3444SOL    HW111231   5.555   5.389   0.368
 3444SOL    HW211232   5.506   5.508   0.268
 3445SOL     OW11233   5.995   5.718   4.594
 3445SOL    HW111234   6.045   5.636   4.623
 3445SOL    HW211235   6.038   5.755   4.511
 3446SOL     OW11236   5.999   0.549   2.378
 3446SOL    HW111237   6.043   0.551   2.288
 3446SOL    HW211238   5.987   0.642   2.411
 3447SOL     OW11239   5.003   5.347   1.311
 3447SOL    HW111240   4.923   5.317   1.364
 3447SOL    HW211241   5.083   5.350   1.371
 3448SOL     OW11242   3.323   0.385   0.479
 3448SOL    HW111243   3.340   0.465   0.536
 3448SOL    HW211244   3.224   0.376   0.463
 3449SOL     OW11245   6.173   6.620   3.556
 3449SOL    HW111246   6.107   6.682   3.598
 3449SOL    HW211247   6.164   6.529   3.596
 3450SOL     OW11248   0.529   2.521   6.518
 3450SOL    HW111249   0.595   2.590   6.548
 3450SOL    HW211250   0.475   2.489   6.597
 3451SOL     OW11251   1.301   5.884   3.107
 3451SOL    HW111252   1.265   5.959   3.163
 3451SOL    HW211253   1.383   5.915   3.059
 3452SOL     OW11254   6.123   1.664   6.429
 3452SOL    HW111255   6.166   1.732   6.489
 3452SOL    HW211256   6.099   1.583   6.482
 3453SOL     OW11257   6.731   5.914   6.281
 3453SOL    HW111258   6.727   5.855   6.201
 3453SOL    HW211259   6.695   5.865   6.360
 3454SOL     OW11260   1.309   1.424   6.713
 3454SOL    HW111261   1.362   1.414   6.797
 3454SOL    HW211262   1.336   1.507   6.666
 3455SOL     OW11263   2.240   2.552   4.227
 3455SOL    HW111264   2.253   2.539   4.325
 3455SOL    HW211265   2.171   2.624   4.212
 3456SOL     OW11266   5.248   5.634   2.147
 3456SOL    HW111267   5.248   5.622   2.246
 3456SOL    HW211268   5.289   5.722   2.125
 3457SOL     OW11269   2.781   5.837   3.793
 3457SOL    HW111270   2.766   5.868   3.887
 3457SOL    HW211271   2.763   5.739   3.786
 3458SOL     OW11272   4.443   6.969   0.446
 3458SOL    HW111273   4.454   6.903   0.372
 3458SOL    HW211274   4.439   0.044   0.408
 3459SOL     OW11275   6.426   3.848   2.765
 3459SOL    HW111276   6.369   3.841   2.847
 3459SOL    HW211277   6.381   3.803   2.688
 3460SOL     OW11278   2.199   2.879   0.176
 3460SOL    HW111279   2.228   2.865   0.081
 3460SOL    HW211280   2.266   2.938   0.223
 3461SOL     OW11281   4.561   6.408   4.791
 3461SOL    HW111282   4.511   6.487   4.755
 3461SOL    HW211283   4.555   6.333   4.725
 3462SOL     OW11284   0.450   3.739   2.051
 3462SOL    HW111285   0.446   3.838   2.038
 3462SOL    HW211286   0.520   3.717   2.119
 3463SOL     OW11287   1.318   3.433   3.498
 3463SOL    HW111288   1.319   3.374   3.579
 3463SOL    HW211289   1.406   3.428   3.452
 3464SOL     OW11290   6.787   2.910   6.767
 3464SOL    HW111291   6.796   2.833   6.831
 3464SOL    HW211292   6.728   2.883   6.691
 3465SOL     OW11293   0.833   2.931   1.971
 3465SOL    HW111294   0.792   3.017   2.001
 3465SOL    HW211295   0.921   2.950   1.928
 3466SOL     OW11296   6.566   5.029   6.843
 3466SOL    HW111297   6.554   4.934   6.870
 3466SOL    HW211298   6.635   5.072   6.902
 3467SOL     OW11299   2.226   1.868   0.886
 3467SOL    HW111300   2.184   1.849   0.975
 3467SOL    HW211301   2.298   1.800   0.869
 3468SOL     OW11302   5.779   0.828   2.703
 3468SOL    HW111303   5.813   0.739   2.735
 3468SOL    HW211304   5.717   0.814   2.626
 3469SOL     OW11305   4.677   0.731   4.230
 3469SOL    HW111306   4.675   0.662   4.158
 3469SOL    HW211307   4.593   0.785   4.227
 3470SOL     OW11308   0.135   2.440   1.675
 3470SOL    HW111309   0.110   2.344   1.658
 3470SOL    HW211310   0.100   2.497   1.600
 3471SOL     OW11311   4.438   4.612   4.555
 3471SOL    HW111312   4.359   4.663   4.588
 3471SOL    HW211313   4.502   4.597   4.630
 3472SOL     OW11314   2.907   1.493   2.923
 3472SOL    HW111315   2.959   1.434   2.985
 3472SOL    HW211316   2.914   1.457   2.830
 3473SOL     OW11317   0.097   2.490   1.948
 3473SOL    HW111318   0.136   2.488   1.856
 3473SOL    HW211319   0.158   2.444   2.012
 3474SOL     OW11320   0.553   4.577   3.118
 3474SOL    HW111321   0.646   4.553   3.145
 3474SOL    HW211322   0.494   4.496   3.124
 3475SOL     OW11323   1.218   4.201   3.735
 3475SOL    HW111324   1.167   4.160   3.660
 3475SOL    HW211325   1.154   4.251   3.794
 3476SOL     OW11326   2.354   1.885   2.651
 3476SOL    HW111327   2.315   1.976   2.667
 3476SOL    HW211328   2.324   1.852   2.561
 3477SOL     OW11329   2.152   4.687   0.944
 3477SOL    HW111330   2.197   4.773   0.966
 3477SOL    HW211331   2.055   4.693   0.970
 3478SOL     OW11332   2.338   5.292   5.914
 3478SOL    HW111333   2.303   5.360   5.979
 3478SOL    HW211334   2.261   5.239   5.878
 3479SOL     OW11335   0.904   0.826   2.918
 3479SOL    HW111336   0.875   0.911   2.874
 3479SOL    HW211337   0.827   0.762   2.920
 3480SOL     OW11338   6.660   5.832   4.677
 3480SOL    HW111339   6.753   5.859   4.702
 3480SOL    HW211340   6.595   5.872   4.741
 3481SOL     OW11341   5.189   0.706   0.270
 3481SOL    HW111342   5.222   0.775   0.334
 3481SOL    HW211343   5.239   0.714   0.184
 3482SOL     OW11344   6.054   1.126   1.920
 3482SOL    HW111345   6.108   1.197   1.966
 3482SOL    HW211346   6.102   1.099   1.836
 3483SOL     OW11347   5.008   2.062   1.750
 3483SOL    HW111348   5.077   2.018   1.807
 3483SOL    HW211349   5.028   2.159   1.742
 3484SOL     OW11350   0.689   2.827   0.596
 3484SOL    HW111351   0.788   2.829   0.590
 3484SOL    HW211352   0.650   2.827   0.504
 3485SOL     OW11353   1.652   2.126   4.272
 3485SOL    HW111354   1.697   2.133   4.361
 3485SOL    HW211355   1.553   2.133   4.284
 3486SOL     OW11356   2.636   0.289   3.536
 3486SOL    HW111357   2.640   0.210   3.597
 3486SOL    HW211358   2.546   0.332   3.542
 3487SOL     OW11359   6.665   1.900   0.351
 3487SOL    HW111360   6.710   1.864   0.269
 3487SOL    HW211361   6.684   1.839   0.428
 3488SOL     OW11362   6.607   0.436   4.948
 3488SOL    HW111363   6.651   0.512   4.996
 3488SOL    HW211364   6.522   0.411   4.996
 3489SOL     OW11365   3.767   0.348   2.064
 3489SOL    HW111366   3.677   0.331   2.105
 3489SOL    HW211367   3.755   0.379   1.969
 3490SOL     OW11368   3.918   4.142   1.118
 3490SOL    HW111369   3.844   4.201   1.088
 3490SOL    HW211370   3.925   4.146   1.218
 3491SOL     OW11371   4.646   2.671   5.783
 3491SOL    HW111372   4.600   2.596   5.736
 3491SOL    HW211373   4.650   2.652   5.881
 3492SOL     OW11374   6.496   4.515   0.894
 3492SOL    HW111375   6.594   4.526   0.912
 3492SOL    HW211376   6.460   4.440   0.950
 3493SOL     OW11377   4.781   4.098   4.836
 3493SOL    HW111378   4.685   4.106   4.861
 3493SOL    HW211379   4.838   4.113   4.916
 3494SOL     OW11380   3.271   1.227   1.920
 3494SOL    HW111381   3.255   1.198   2.014
 3494SOL    HW211382   3.344   1.171   1.880
 3495SOL     OW11383   6.137   4.651   1.674
 3495SOL    HW111384   6.149   4.713   1.596
 3495SOL    HW211385   6.056   4.595   1.659
 3496SOL     OW11386   6.199   5.072   1.119
 3496SOL    HW111387   6.170   5.080   1.024
 3496SOL    HW211388   6.218   5.163   1.156
 3497SOL     OW11389   2.282   1.160   4.097
 3497SOL    HW111390   2.272   1.184   4.194
 3497SOL    HW211391   2.371   1.116   4.083
 3498SOL     OW11392   3.080   1.833   1.007
 3498SOL    HW111393   3.003   1.834   1.071
 3498SOL    HW211394   3.046   1.848   0.914
 3499SOL     OW11395   5.646   4.068   4.206
 3499SOL    HW111396   5.723   4.086   4.267
 3499SOL    HW211397   5.672   4.090   4.112
 3500SOL     OW11398   2.117   3.365   4.757
 3500SOL    HW111399   2.210   3.376   4.793
 3500SOL    HW211400   2.085   3.452   4.720
 3501SOL     OW11401   2.280   5.717   5.724
 3501SOL    HW111402   2.373   5.682   5.709
 3501SOL    HW211403   2.234   5.727   5.636
 3502SOL     OW11404   6.523   2.900   1.862
 3502SOL    HW111405   6.505   2.967   1.933
 3502SOL    HW211406   6.617   2.867   1.868
 3503SOL     OW11407   5.876   6.317   4.713
 3503SOL    HW111408   5.832   6.252   4.650
 3503SOL    HW211409   5.816   6.395   4.728
 3504SOL     OW11410   2.583   1.111   2.028
 3504SOL    HW111411   2.602   1.073   1.938
 3504SOL    HW211412   2.667   1.120   2.081
 3505SOL     OW11413   5.584   4.417   5.573
 3505SOL    HW111414   5.568   4.362   5.492
 3505SOL    HW211415   5.507   4.480   5.587
 3506SOL     OW11416   5.038   4.934   5.537
 3506SOL    HW111417   5.116   4.906   5.592
 3506SOL    HW211418   4.965   4.966   5.598
 3507SOL     OW11419   2.455   0.652   1.095
 3507SOL    HW111420   2.468   0.746   1.124
 3507SOL    HW211421   2.498   0.590   1.160
 3508SOL     OW11422   2.273   1.775   6.072
 3508SOL    HW111423   2.343   1.759   6.141
 3508SOL    HW211424   2.283   1.867   6.034
 3509SOL     OW11425   4.919   0.707   6.843
 3509SOL    HW111426   4.964   0.621   6.819
 3509SOL    HW211427   4.963   0.745   6.924
 3510SOL     OW11428   1.253   1.407   2.104
 3510SOL    HW111429   1.184   1.358   2.157
 3510SOL    HW211430   1.341   1.401   2.151
 3511SOL     OW11431   2.318   4.923   1.042
 3511SOL    HW111432   2.403   4.906   0.992
 3511SOL    HW211433   2.311   4.858   1.118
 3512SOL     OW11434   0.322   4.489   0.622
 3512SOL    HW111435   0.412   4.484   0.580
 3512SOL    HW211436   0.268   4.560   0.577
 3513SOL     OW11437   5.542   2.392   6.732
 3513SOL    HW111438   5.462   2.373   6.789
 3513SOL    HW211439   5.523   2.365   6.637
 3514SOL     OW11440   6.764   1.989   1.987
 3514SOL    HW111441   6.814   1.904   2.000
 3514SOL    HW211442   6.826   2.067   1.998
 3515SOL     OW11443   4.409   6.019   3.573
 3515SOL    HW111444   4.474   5.979   3.508
 3515SOL    HW211445   4.403   6.118   3.558
 3516SOL     OW11446   5.114   6.803   0.952
 3516SOL    HW111447   5.180   6.832   0.882
 3516SOL    HW211448   5.070   6.884   0.991
 3517SOL     OW11449   1.337   2.157   1.453
 3517SOL    HW111450   1.309   2.220   1.381
 3517SOL    HW211451   1.436   2.144   1.449
 3518SOL     OW11452   5.445   2.929   4.327
 3518SOL    HW111453   5.418   2.875   4.247
 3518SOL    HW211454   5.412   2.884   4.410
 3519SOL     OW11455   1.460   0.659   6.049
 3519SOL    HW111456   1.497   0.732   5.992
 3519SOL    HW211457   1.533   0.623   6.108
 3520SOL     OW11458   3.251   5.202   6.698
 3520SOL    HW111459   3.323   5.200   6.629
 3520SOL    HW211460   3.227   5.109   6.725
 3521SOL     OW11461   5.125   2.282   0.284
 3521SOL    HW111462   5.114   2.334   0.368
 3521SOL    HW211463   5.219   2.289   0.251
 3522SOL     OW11464   6.700   4.735   1.312
 3522SOL    HW111465   6.638   4.703   1.383
 3522SOL    HW211466   6.794   4.707   1.334
 3523SOL     OW11467   1.273   4.690   6.049
 3523SOL    HW111468   1.298   4.614   6.108
 3523SOL    HW211469   1.288   4.777   6.097
 3524SOL     OW11470   4.625   1.555   2.133
 3524SOL    HW111471   4.601   1.465   2.096
 3524SOL    HW211472   4.693   1.598   2.073
 3525SOL     OW11473   0.632   4.637   2.851
 3525SOL    HW111474   0.589   4.629   2.941
 3525SOL    HW211475   0.664   4.548   2.821
 3526SOL     OW11476   2.567   6.500   4.115
 3526SOL    HW111477   2.507   6.456   4.181
 3526SOL    HW211478   2.572   6.444   4.032
 3527SOL     OW11479   5.666   3.416   6.420
 3527SOL    HW111480   5.631   3.395   6.328
 3527SOL    HW211481   5.597   3.390   6.488
 3528SOL     OW11482   1.119   6.163   5.201
 3528SOL    HW111483   1.132   6.258   5.172
 3528SOL    HW211484   1.204   6.128   5.239
 3529SOL     OW11485   3.596   0.323   6.566
 3529SOL    HW111486   3.570   0.284   6.654
 3529SOL    HW211487   3.693   0.304   6.549
 3530SOL     OW11488   6.784   4.875   2.412
 3530SOL    HW111489   6.804   4.966   2.447
 3530SOL    HW211490   6.822   4.865   2.320
 3531SOL     OW11491   5.047   3.356   0.232
 3531SOL    HW111492   4.998   3.404   0.160
 3531SOL    HW211493   4.991   3.281   0.267
 3532SOL     OW11494   2.712   0.564   1.743
 3532SOL    HW111495   2.789   0.501   1.759
 3532SOL    HW211496   2.635   0.538   1.801
 3533SOL     OW11497   1.772   1.678   2.703
 3533SOL    HW111498   1.870   1.659   2.697
 3533SOL    HW211499   1.753   1.767   2.660
 3534SOL     OW11500   6.680   1.731   0.583
 3534SOL    HW111501   6.703   1.644   0.541
 3534SOL    HW211502   6.589   1.726   0.624
 3535SOL     OW11503   1.646   6.098   0.877
 3535SOL    HW111504   1.580   6.163   0.840
 3535SOL    HW211505   1.619   6.071   0.969
 3536SOL     OW11506   2.850   2.124   3.115
 3536SOL    HW111507   2.772   2.070   3.146
 3536SOL    HW211508   2.819   2.214   3.085
 3537SOL     OW11509   3.369   6.006   1.881
 3537SOL    HW111510   3.465   6.008   1.909
 3537SOL    HW211511   3.356   6.069   1.804
 3538SOL     OW11512   1.543   0.069   6.251
 3538SOL    HW111513   1.468   0.011   6.281
 3538SOL    HW211514   1.550   0.067   6.151
 3539SOL     OW11515   4.994   3.285   5.888
 3539SOL    HW111516   4.895   3.286   5.901
 3539SOL    HW211517   5.016   3.279   5.791
 3540SOL     OW11518   2.395   1.864   5.466
 3540SOL    HW111519   2.342   1.858   5.381
 3540SOL    HW211520   2.438   1.954   5.472
 3541SOL     OW11521   2.015   2.175   6.301
 3541SOL    HW111522   2.031   2.094   6.357
 3541SOL    HW211523   2.098   2.198   6.251
 3542SOL     OW11524   1.869   5.363   2.890
 3542SOL    HW111525   1.794   5.312   2.932
 3542SOL    HW211526   1.951   5.353   2.946
 3543SOL     OW11527   0.933   2.382   4.292
 3543SOL    HW111528   0.988   2.463   4.272
 3543SOL    HW211529   0.987   2.319   4.348
 3544SOL     OW11530   2.886   4.307   6.457
 3544SOL    HW111531   2.968   4.249   6.455
 3544SOL    HW211532   2.849   4.315   6.365
 3545SOL     OW11533   4.414   5.364   0.725
 3545SOL    HW111534   4.360   5.370   0.641
 3545SOL    HW211535   4.419   5.269   0.756
 3546SOL     OW11536   1.338   4.457   4.304
 3546SOL    HW111537   1.325   4.390   4.378
 3546SOL    HW211538   1.427   4.501   4.316
 3547SOL     OW11539   6.692   5.048   4.343
 3547SOL    HW111540   6.602   5.079   4.374
 3547SOL    HW211541   6.758   5.122   4.353
 3548SOL     OW11542   5.659   1.704   5.871
 3548SOL    HW111543   5.673   1.605   5.876
 3548SOL    HW211544   5.708   1.741   5.792
 3549SOL     OW11545   6.653   5.474   5.775
 3549SOL    HW111546   6.565   5.429   5.760
 3549SOL    HW211547   6.709   5.418   5.836
 3550SOL     OW11548   6.387   2.590   2.792
 3550SOL    HW111549   6.387   2.655   2.716
 3550SOL    HW211550   6.473   2.596   2.842
 3551SOL     OW11551   3.658   0.878   2.115
 3551SOL    HW111552   3.693   0.861   2.023
 3551SOL    HW211553   3.651   0.791   2.164
 3552SOL     OW11554   5.542   6.218   2.389
 3552SOL    HW111555   5.462   6.158   2.377
 3552SOL    HW211556   5.550   6.244   2.485
 3553SOL     OW11557   4.512   4.604   1.092
 3553SOL    HW111558   4.533   4.701   1.095
 3553SOL    HW211559   4.549   4.559   1.173
 3554SOL     OW11560   4.852   2.193   1.212
 3554SOL    HW111561   4.887   2.129   1.144
 3554SOL    HW211562   4.798   2.264   1.167
 3555SOL     OW11563   1.134   4.463   4.127
 3555SOL    HW111564   1.213   4.477   4.188
 3555SOL    HW211565   1.133   4.535   4.058
 3556SOL     OW11566   4.353   1.486   3.636
 3556SOL    HW111567   4.342   1.581   3.608
 3556SOL    HW211568   4.307   1.472   3.724
 3557SOL     OW11569   0.977   0.643   4.186
 3557SOL    HW111570   1.045   0.660   4.115
 3557SOL    HW211571   0.886   0.649   4.147
 3558SOL     OW11572   1.843   6.260   1.912
 3558SOL    HW111573   1.835   6.332   1.981
 3558SOL    HW211574   1.861   6.302   1.823
 3559SOL     OW11575   0.402   6.431   5.572
 3559SOL    HW111576   0.381   6.356   5.510
 3559SOL    HW211577   0.359   6.515   5.538
 3560SOL     OW11578   0.198   5.583   1.595
 3560SOL    HW111579   0.256   5.521   1.542
 3560SOL    HW211580   0.144   5.639   1.532
 3561SOL     OW11581   4.102   4.744   5.185
 3561SOL    HW111582   4.068   4.754   5.279
 3561SOL    HW211583   4.144   4.655   5.174
 3562SOL     OW11584   5.104   0.587   3.271
 3562SOL    HW111585   5.197   0.622   3.282
 3562SOL    HW211586   5.072   0.608   3.179
 3563SOL     OW11587   5.852   2.000   0.040
 3563SOL    HW111588   5.791   1.926   0.069
 3563SOL    HW211589   5.805   2.088   0.053
 3564SOL     OW11590   1.730   4.703   3.676
 3564SOL    HW111591   1.682   4.790   3.689
 3564SOL    HW211592   1.670   4.639   3.628
 3565SOL     OW11593   2.866   5.886   5.291
 3565SOL    HW111594   2.809   5.968   5.286
 3565SOL    HW211595   2.945   5.897   5.231
 3566SOL     OW11596   6.465   3.390   5.538
 3566SOL    HW111597   6.541   3.355   5.484
 3566SOL    HW211598   6.399   3.317   5.555
 3567SOL     OW11599   0.423   3.449   0.238
 3567SOL    HW111600   0.365   3.496   0.304
 3567SOL    HW211601   0.515   3.489   0.241
 3568SOL     OW11602   4.899   5.701   4.299
 3568SOL    HW111603   4.988   5.687   4.342
 3568SOL    HW211604   4.912   5.728   4.204
 3569SOL     OW11605   2.374   2.241   5.841
 3569SOL    HW111606   2.470   2.214   5.827
 3569SOL    HW211607   2.365   2.340   5.831
 3570SOL     OW11608   5.180   0.581   4.957
 3570SOL    HW111609   5.184   0.498   5.014
 3570SOL    HW211610   5.259   0.639   4.977
 3571SOL     OW11611   1.175   0.011   5.174
 3571SOL    HW111612   1.231   0.031   5.093
 3571SOL    HW211613   1.216   6.954   5.226
 3572SOL     OW11614   5.611   3.072   2.866
 3572SOL    HW111615   5.699   3.115   2.884
 3572SOL    HW211616   5.581   3.022   2.947
 3573SOL     OW11617   6.532   4.171   3.480
 3573SOL    HW111618   6.591   4.170   3.399
 3573SOL    HW211619   6.551   4.090   3.536
 3574SOL     OW11620   0.452   2.846   0.994
 3574SOL    HW111621   0.380   2.882   1.054
 3574SOL    HW211622   0.540   2.850   1.041
 3575SOL     OW11623   5.108   6.028   2.679
 3575SOL    HW111624   5.188   5.968   2.679
 3575SOL    HW211625   5.122   6.101   2.746
 3576SOL     OW11626   0.823   2.111   6.807
 3576SOL    HW111627   0.780   2.020   6.810
 3576SOL    HW211628   0.839   2.137   6.712
 3577SOL     OW11629   1.991   2.554   6.476
 3577SOL    HW111630   2.025   2.601   6.395
 3577SOL    HW211631   2.007   2.610   6.557
 3578SOL     OW11632   4.661   1.381   0.686
 3578SOL    HW111633   4.731   1.341   0.745
 3578SOL    HW211634   4.576   1.329   0.695
 3579SOL     OW11635   6.686   2.584   2.911
 3579SOL    HW111636   6.696   2.499   2.860
 3579SOL    HW211637   6.702   2.661   2.849
 3580SOL     OW11638   6.057   3.047   0.839
 3580SOL    HW111639   6.101   2.966   0.877
 3580SOL    HW211640   5.977   3.070   0.895
 3581SOL     OW11641   0.615   5.041   3.077
 3581SOL    HW111642   0.693   5.021   3.136
 3581SOL    HW211643   0.548   4.968   3.083
 3582SOL     OW11644   1.312   3.653   6.171
 3582SOL    HW111645   1.216   3.671   6.151
 3582SOL    HW211646   1.344   3.719   6.240
 3583SOL     OW11647   1.455   4.606   6.694
 3583SOL    HW111648   1.409   4.691   6.667
 3583SOL    HW211649   1.515   4.624   6.771
 3584SOL     OW11650   5.968   4.525   5.921
 3584SOL    HW111651   6.043   4.464   5.895
 3584SOL    HW211652   5.924   4.561   5.839
 3585SOL     OW11653   2.945   2.228   4.560
 3585SOL    HW111654   2.873   2.180   4.610
 3585SOL    HW211655   2.913   2.249   4.468
 3586SOL     OW11656   5.986   1.464   4.714
 3586SOL    HW111657   5.911   1.398   4.712
 3586SOL    HW211658   6.039   1.457   4.629
 3587SOL     OW11659   2.305   4.993   5.781
 3587SOL    HW111660   2.387   5.035   5.741
 3587SOL    HW211661   2.224   5.047   5.756
 3588SOL     OW11662   0.334   3.054   5.086
 3588SOL    HW111663   0.326   2.984   5.157
 3588SOL    HW211664   0.418   3.107   5.101
 3589SOL     OW11665   5.872   0.698   5.651
 3589SOL    HW111666   5.845   0.788   5.683
 3589SOL    HW211667   5.822   0.676   5.568
 3590SOL     OW11668   7.005   3.468   0.489
 3590SOL    HW111669   6.964   3.457   0.580
 3590SOL    HW211670   0.081   3.504   0.499
 3591SOL     OW11671   5.690   3.590   0.215
 3591SOL    HW111672   5.739   3.504   0.225
 3591SOL    HW211673   5.739   3.649   0.150
 3592SOL     OW11674   0.578   6.224   2.521
 3592SOL    HW111675   0.498   6.171   2.491
 3592SOL    HW211676   0.595   6.298   2.455
 3593SOL     OW11677   0.831   4.726   5.815
 3593SOL    HW111678   0.923   4.688   5.804
 3593SOL    HW211679   0.789   4.688   5.898
 3594SOL     OW11680   4.668   6.990   3.248
 3594SOL    HW111681   4.568   6.990   3.251
 3594SOL    HW211682   4.704   0.028   3.323
 3595SOL     OW11683   4.944   5.915   6.631
 3595SOL    HW111684   4.938   5.934   6.533
 3595SOL    HW211685   4.859   5.873   6.662
 3596SOL     OW11686   5.023   3.377   2.957
 3596SOL    HW111687   5.120   3.356   2.943
 3596SOL    HW211688   4.979   3.299   3.003
 3597SOL     OW11689   1.930   2.261   5.681
 3597SOL    HW111690   1.972   2.313   5.606
 3597SOL    HW211691   1.970   2.170   5.684
 3598SOL     OW11692   1.619   6.522   5.791
 3598SOL    HW111693   1.520   6.511   5.782
 3598SOL    HW211694   1.662   6.513   5.701
 3599SOL     OW11695   5.011   2.005   6.941
 3599SOL    HW111696   4.968   2.034   0.009
 3599SOL    HW211697   4.951   2.028   6.864
 3600SOL     OW11698   0.944   2.786   2.633
 3600SOL    HW111699   1.020   2.823   2.688
 3600SOL    HW211700   0.890   2.862   2.596
 3601SOL     OW11701   5.204   2.737   6.012
 3601SOL    HW111702   5.167   2.706   6.099
 3601SOL    HW211703   5.253   2.823   6.026
 3602SOL     OW11704   1.396   4.017   0.607
 3602SOL    HW111705   1.381   4.049   0.514
 3602SOL    HW211706   1.494   4.011   0.626
 3603SOL     OW11707   3.795   0.931   4.101
 3603SOL    HW111708   3.778   0.900   4.195
 3603SOL    HW211709   3.731   1.005   4.079
 3604SOL     OW11710   6.731   6.625   3.515
 3604SOL    HW111711   6.760   6.635   3.419
 3604SOL    HW211712   6.632   6.633   3.521
 3605SOL     OW11713   0.742   4.696   4.024
 3605SOL    HW111714   0.785   4.727   4.109
 3605SOL    HW211715   0.786   4.613   3.992
 3606SOL     OW11716   0.567   6.799   4.466
 3606SOL    HW111717   0.592   6.715   4.514
 3606SOL    HW211718   0.582   6.878   4.527
 3607SOL     OW11719   5.392   4.878   2.164
 3607SOL    HW111720   5.353   4.943   2.230
 3607SOL    HW211721   5.322   4.852   2.098
 3608SOL     OW11722   4.747   1.938   4.576
 3608SOL    HW111723   4.711   1.916   4.666
 3608SOL    HW211724   4.839   1.977   4.586
 3609SOL     OW11725   1.829   0.287   4.593
 3609SOL    HW111726   1.881   0.355   4.542
 3609SOL    HW211727   1.764   0.333   4.654
 3610SOL     OW11728   1.384   0.358   6.266
 3610SOL    HW111729   1.454   0.429   6.270
 3610SOL    HW211730   1.427   0.268   6.270
 3611SOL     OW11731   4.527   5.221   4.336
 3611SOL    HW111732   4.577   5.307   4.345
 3611SOL    HW211733   4.582   5.156   4.283
 3612SOL     OW11734   0.630   0.681   6.775
 3612SOL    HW111735   0.707   0.679   6.838
 3612SOL    HW211736   0.609   0.776   6.751
 3613SOL     OW11737   4.847   4.531   2.310
 3613SOL    HW111738   4.790   4.571   2.237
 3613SOL    HW211739   4.836   4.432   2.310
 3614SOL     OW11740   3.484   3.672   0.637
 3614SOL    HW111741   3.543   3.655   0.716
 3614SOL    HW211742   3.448   3.765   0.642
 3615SOL     OW11743   5.390   2.971   6.067
 3615SOL    HW111744   5.366   3.025   5.986
 3615SOL    HW211745   5.419   3.032   6.141
 3616SOL     OW11746   0.797   0.889   6.315
 3616SOL    HW111747   0.886   0.845   6.330
 3616SOL    HW211748   0.796   0.932   6.225
 3617SOL     OW11749   4.249   0.934   6.495
 3617SOL    HW111750   4.234   0.874   6.574
 3617SOL    HW211751   4.212   1.025   6.515
 3618SOL     OW11752   2.322   3.097   5.414
 3618SOL    HW111753   2.395   3.106   5.347
 3618SOL    HW211754   2.305   3.185   5.457
 3619SOL     OW11755   5.998   2.755   5.940
 3619SOL    HW111756   6.062   2.684   5.912
 3619SOL    HW211757   5.928   2.715   6.000
 3620SOL     OW11758   6.102   5.588   5.474
 3620SOL    HW111759   6.184   5.578   5.530
 3620SOL    HW211760   6.024   5.609   5.533
 3621SOL     OW11761   2.908   3.460   4.751
 3621SOL    HW111762   2.863   3.538   4.708
 3621SOL    HW211763   2.960   3.410   4.682
 3622SOL     OW11764   1.564   1.087   0.181
 3622SOL    HW111765   1.535   1.099   0.276
 3622SOL    HW211766   1.661   1.113   0.172
 3623SOL     OW11767   6.660   6.101   4.151
 3623SOL    HW111768   6.753   6.115   4.115
 3623SOL    HW211769   6.663   6.032   4.223
 3624SOL     OW11770   1.584   0.230   2.642
 3624SOL    HW111771   1.594   0.237   2.542
 3624SOL    HW211772   1.511   0.164   2.663
 3625SOL     OW11773   0.601   3.462   6.187
 3625SOL    HW111774   0.551   3.408   6.119
 3625SOL    HW211775   0.660   3.402   6.241
 3626SOL     OW11776   0.520   2.998   5.662
 3626SOL    HW111777   0.491   2.974   5.570
 3626SOL    HW211778   0.620   3.000   5.666
 3627SOL     OW11779   4.177   3.143   1.579
 3627SOL    HW111780   4.242   3.175   1.648
 3627SOL    HW211781   4.226   3.100   1.503
 3628SOL     OW11782   0.728   1.765   1.929
 3628SOL    HW111783   0.801   1.833   1.926
 3628SOL    HW211784   0.682   1.762   1.840
 3629SOL     OW11785   0.464   0.313   5.545
 3629SOL    HW111786   0.365   0.305   5.559
 3629SOL    HW211787   0.483   0.390   5.485
 3630SOL     OW11788   5.869   2.738   3.586
 3630SOL    HW111789   5.777   2.717   3.553
 3630SOL    HW211790   5.889   2.682   3.666
 3631SOL     OW11791   1.860   0.141   2.613
 3631SOL    HW111792   1.792   0.193   2.562
 3631SOL    HW211793   1.833   0.136   2.709
 3632SOL     OW11794   5.396   4.832   1.106
 3632SOL    HW111795   5.343   4.909   1.142
 3632SOL    HW211796   5.448   4.862   1.026
 3633SOL     OW11797   4.215   2.614   6.117
 3633SOL    HW111798   4.311   2.600   6.093
 3633SOL    HW211799   4.170   2.526   6.127
 3634SOL     OW11800   2.121   5.535   6.251
 3634SOL    HW111801   2.147   5.608   6.315
 3634SOL    HW211802   2.186   5.533   6.175
 3635SOL     OW11803   2.806   0.746   1.027
 3635SOL    HW111804   2.855   0.741   1.113
 3635SOL    HW211805   2.757   0.660   1.011
 3636SOL     OW11806   6.286   5.396   0.950
 3636SOL    HW111807   6.269   5.356   0.859
 3636SOL    HW211808   6.384   5.413   0.961
 3637SOL     OW11809   0.138   2.150   1.600
 3637SOL    HW111810   0.073   2.111   1.665
 3637SOL    HW211811   0.213   2.086   1.585
 3638SOL     OW11812   6.970   4.183   2.490
 3638SOL    HW111813   6.873   4.158   2.493
 3638SOL    HW211814   6.998   4.196   2.395
 3639SOL     OW11815   4.802   4.951   0.311
 3639SOL    HW111816   4.809   4.985   0.217
 3639SOL    HW211817   4.861   4.871   0.321
 3640SOL     OW11818   4.959   1.678   0.192
 3640SOL    HW111819   5.030   1.721   0.247
 3640SOL    HW211820   5.001   1.619   0.123
 3641SOL     OW11821   6.409   3.727   1.790
 3641SOL    HW111822   6.347   3.736   1.712
 3641SOL    HW211823   6.376   3.655   1.850
 3642SOL     OW11824   4.664   2.520   0.046
 3642SOL    HW111825   4.648   2.618   0.034
 3642SOL    HW211826   4.601   2.468   7.006
 3643SOL     OW11827   3.697   6.030   5.026
 3643SOL    HW111828   3.739   6.120   5.039
 3643SOL    HW211829   3.624   6.036   4.959
 3644SOL     OW11830   2.286   1.501   1.756
 3644SOL    HW111831   2.273   1.565   1.680
 3644SOL    HW211832   2.379   1.509   1.791
 3645SOL     OW11833   1.677   2.830   4.291
 3645SOL    HW111834   1.697   2.749   4.346
 3645SOL    HW211835   1.718   2.910   4.334
 3646SOL     OW11836   1.214   4.003   5.748
 3646SOL    HW111837   1.234   4.090   5.794
 3646SOL    HW211838   1.118   4.000   5.722
 3647SOL     OW11839   2.509   5.669   6.923
 3647SOL    HW111840   2.604   5.638   6.932
 3647SOL    HW211841   2.467   5.673   7.013
 3648SOL     OW11842   4.850   5.917   3.769
 3648SOL    HW111843   4.909   5.947   3.844
 3648SOL    HW211844   4.800   5.995   3.731
 3649SOL     OW11845   6.045   3.199   0.065
 3649SOL    HW111846   6.120   3.218   0.001
 3649SOL    HW211847   6.037   3.101   0.080
 3650SOL     OW11848   5.945   5.063   1.624
 3650SOL    HW111849   5.867   5.010   1.592
 3650SOL    HW211850   5.917   5.157   1.642
 3651SOL     OW11851   1.837   0.694   4.815
 3651SOL    HW111852   1.839   0.791   4.840
 3651SOL    HW211853   1.919   0.671   4.763
 3652SOL     OW11854   6.204   6.572   3.289
 3652SOL    HW111855   6.205   6.594   3.387
 3652SOL    HW211856   6.112   6.589   3.253
 3653SOL     OW11857   1.516   1.289   2.871
 3653SOL    HW111858   1.600   1.327   2.908
 3653SOL    HW211859   1.535   1.202   2.825
 3654SOL     OW11860   4.578   5.562   0.801
 3654SOL    HW111861   4.672   5.536   0.778
 3654SOL    HW211862   4.516   5.486   0.783
 3655SOL     OW11863   3.388   0.977   4.023
 3655SOL    HW111864   3.341   0.901   4.069
 3655SOL    HW211865   3.340   0.998   3.937
 3656SOL     OW11866   0.528   5.134   1.537
 3656SOL    HW111867   0.450   5.143   1.474
 3656SOL    HW211868   0.549   5.223   1.578
 3657SOL     OW11869   4.819   5.386   4.770
 3657SOL    HW111870   4.879   5.445   4.823
 3657SOL    HW211871   4.779   5.317   4.830
 3658SOL     OW11872   2.406   4.904   6.535
 3658SOL    HW111873   2.345   4.825   6.528
 3658SOL    HW211874   2.434   4.916   6.631
 3659SOL     OW11875   1.582   2.421   5.694
 3659SOL    HW111876   1.606   2.360   5.769
 3659SOL    HW211877   1.624   2.389   5.609
 3660SOL     OW11878   6.187   6.009   4.513
 3660SOL    HW111879   6.160   6.095   4.556
 3660SOL    HW211880   6.223   5.947   4.583
 3661SOL     OW11881   0.180   0.524   5.188
 3661SOL    HW111882   0.135   0.454   5.133
 3661SOL    HW211883   0.112   0.586   5.227
 3662SOL     OW11884   4.348   0.971   4.571
 3662SOL    HW111885   4.278   0.912   4.609
 3662SOL    HW211886   4.407   1.005   4.644
 3663SOL     OW11887   1.723   2.726   6.689
 3663SOL    HW111888   1.760   2.735   6.597
 3663SOL    HW211889   1.708   2.817   6.729
 3664SOL     OW11890   4.704   2.369   1.949
 3664SOL    HW111891   4.741   2.360   1.857
 3664SOL    HW211892   4.712   2.282   1.998
 3665SOL     OW11893   0.416   6.055   5.198
 3665SOL    HW111894   0.478   5.980   5.219
 3665SOL    HW211895   0.463   6.142   5.210
 3666SOL     OW11896   0.917   3.669   2.987
 3666SOL    HW111897   0.919   3.573   3.017
 3666SOL    HW211898   0.822   3.697   2.972
 3667SOL     OW11899   0.123   0.908   3.338
 3667SOL    HW111900   0.044   0.855   3.368
 3667SOL    HW211901   0.178   0.853   3.275
 3668SOL     OW11902   1.208   0.383   1.115
 3668SOL    HW111903   1.175   0.417   1.027
 3668SOL    HW211904   1.217   0.460   1.178
 3669SOL     OW11905   5.584   1.650   3.567
 3669SOL    HW111906   5.579   1.664   3.468
 3669SOL    HW211907   5.643   1.572   3.587
 3670SOL     OW11908   2.711   5.238   0.276
 3670SOL    HW111909   2.673   5.327   0.302
 3670SOL    HW211910   2.807   5.234   0.304
 3671SOL     OW11911   6.974   2.171   3.935
 3671SOL    HW111912   6.905   2.201   3.869
 3671SOL    HW211913   0.019   2.247   3.954
 3672SOL     OW11914   4.568   2.504   2.892
 3672SOL    HW111915   4.539   2.547   2.977
 3672SOL    HW211916   4.648   2.446   2.910
 3673SOL     OW11917   3.904   5.820   6.623
 3673SOL    HW111918   3.942   5.892   6.564
 3673SOL    HW211919   3.977   5.757   6.650
 3674SOL     OW11920   1.480   6.216   5.365
 3674SOL    HW111921   1.524   6.197   5.453
 3674SOL    HW211922   1.416   6.293   5.375
 3675SOL     OW11923   1.474   2.505   4.030
 3675SOL    HW111924   1.463   2.601   4.004
 3675SOL    HW211925   1.571   2.481   4.029
 3676SOL     OW11926   5.740   3.401   2.292
 3676SOL    HW111927   5.823   3.453   2.270
 3676SOL    HW211928   5.740   3.315   2.240
 3677SOL     OW11929   3.010   0.175   4.354
 3677SOL    HW111930   3.064   0.109   4.407
 3677SOL    HW211931   2.944   0.219   4.415
 3678SOL     OW11932   1.825   0.717   4.110
 3678SOL    HW111933   1.910   0.697   4.159
 3678SOL    HW211934   1.840   0.793   4.047
 3679SOL     OW11935   6.938   0.327   2.673
 3679SOL    HW111936   7.002   0.271   2.726
 3679SOL    HW211937   6.962   0.423   2.682
 3680SOL     OW11938   4.640   2.768   4.699
 3680SOL    HW111939   4.591   2.734   4.619
 3680SOL    HW211940   4.668   2.690   4.756
 3681SOL     OW11941   1.086   1.496   6.864
 3681SOL    HW111942   1.148   1.450   6.801
 3681SOL    HW211943   1.137   1.561   6.920
 3682SOL     OW11944   5.815   2.514   0.155
 3682SOL    HW111945   5.830   2.533   0.252
 3682SOL    HW211946   5.876   2.442   0.125
 3683SOL     OW11947   6.981   0.365   3.816
 3683SOL    HW111948   6.943   0.308   3.888
 3683SOL    HW211949   0.009   0.445   3.856
 3684SOL     OW11950   1.222   5.447   0.135
 3684SOL    HW111951   1.176   5.530   0.167
 3684SOL    HW211952   1.321   5.460   0.141
 3685SOL     OW11953   2.199   5.841   5.952
 3685SOL    HW111954   2.218   5.782   5.873
 3685SOL    HW211955   2.267   5.914   5.957
 3686SOL     OW11956   6.435   5.296   4.267
 3686SOL    HW111957   6.400   5.323   4.178
 3686SOL    HW211958   6.535   5.301   4.268
 3687SOL     OW11959   4.989   6.618   3.779
 3687SOL    HW111960   4.927   6.693   3.755
 3687SOL    HW211961   5.083   6.653   3.781
 3688SOL     OW11962   6.530   3.403   0.135
 3688SOL    HW111963   6.468   3.388   0.059
 3688SOL    HW211964   6.478   3.415   0.220
 3689SOL     OW11965   1.991   1.508   5.409
 3689SOL    HW111966   1.980   1.409   5.419
 3689SOL    HW211967   2.047   1.543   5.484
 3690SOL     OW11968   4.469   6.194   0.864
 3690SOL    HW111969   4.557   6.176   0.908
 3690SOL    HW211970   4.450   6.122   0.797
 3691SOL     OW11971   2.376   1.584   6.756
 3691SOL    HW111972   2.448   1.626   6.701
 3691SOL    HW211973   2.414   1.550   6.842
 3692SOL     OW11974   6.767   5.022   5.568
 3692SOL    HW111975   6.818   4.939   5.590
 3692SOL    HW211976   6.826   5.102   5.581
 3693SOL     OW11977   2.008   1.931   2.737
 3693SOL    HW111978   2.054   1.938   2.825
 3693SOL    HW211979   1.909   1.946   2.750
 3694SOL     OW11980   1.409   6.791   2.409
 3694SOL    HW111981   1.440   6.699   2.390
 3694SOL    HW211982   1.485   6.845   2.448
 3695SOL     OW11983   5.594   1.311   1.536
 3695SOL    HW111984   5.685   1.280   1.564
 3695SOL    HW211985   5.572   1.274   1.446
 3696SOL     OW11986   4.154   6.898   4.876
 3696SOL    HW111987   4.195   6.852   4.797
 3696SOL    HW211988   4.068   6.852   4.900
 3697SOL     OW11989   6.541   6.194   2.917
 3697SOL    HW111990   6.489   6.181   2.833
 3697SOL    HW211991   6.533   6.113   2.975
 3698SOL     OW11992   2.355   0.652   3.614
 3698SOL    HW111993   2.257   0.657   3.598
 3698SOL    HW211994   2.391   0.744   3.629
 3699SOL     OW11995   1.710   1.586   3.576
 3699SOL    HW111996   1.764   1.601   3.494
 3699SOL    HW211997   1.613   1.603   3.556
 3700SOL     OW11998   1.545   5.008   5.039
 3700SOL    HW111999   1.481   4.931   5.051
 3700SOL    HW212000   1.517   5.083   5.099
 3701SOL     OW12001   1.207   6.504   3.043
 3701SOL    HW112002   1.209   6.515   3.142
 3701SOL    HW212003   1.116   6.471   3.015
 3702SOL     OW12004   5.366   6.461   3.215
 3702SOL    HW112005   5.356   6.554   3.248
 3702SOL    HW212006   5.429   6.411   3.275
 3703SOL     OW12007   0.795   0.318   6.515
 3703SOL    HW112008   0.848   0.344   6.435
 3703SOL    HW212009   0.747   0.398   6.551
 3704SOL     OW12010   4.948   2.465   1.274
 3704SOL    HW112011   4.990   2.403   1.207
 3704SOL    HW212012   5.011   2.479   1.350
 3705SOL     OW12013   5.029   4.476   4.138
 3705SOL    HW112014   5.053   4.426   4.221
 3705SOL    HW212015   5.112   4.503   4.090
 3706SOL     OW12016   0.475   4.247   6.631
 3706SOL    HW112017   0.395   4.264   6.688
 3706SOL    HW212018   0.450   4.188   6.555
 3707SOL     OW12019   4.587   6.131   4.066
 3707SOL    HW112020   4.543   6.065   4.006
 3707SOL    HW212021   4.668   6.090   4.108
 3708SOL     OW12022   4.201   6.812   1.312
 3708SOL    HW112023   4.291   6.771   1.320
 3708SOL    HW212024   4.160   6.788   1.224
 3709SOL     OW12025   2.878   0.347   1.763
 3709SOL    HW112026   2.814   0.275   1.791
 3709SOL    HW212027   2.962   0.306   1.727
 3710SOL     OW12028   0.398   5.240   4.565
 3710SOL    HW112029   0.432   5.333   4.575
 3710SOL    HW212030   0.335   5.219   4.640
 3711SOL     OW12031   1.123   5.541   4.927
 3711SOL    HW112032   1.163   5.450   4.941
 3711SOL    HW212033   1.073   5.542   4.841
 3712SOL     OW12034   1.585   6.049   6.975
 3712SOL    HW112035   1.537   6.015   0.038
 3712SOL    HW212036   1.634   5.974   6.932
 3713SOL     OW12037   0.491   0.261   4.958
 3713SOL    HW112038   0.447   0.349   4.937
 3713SOL    HW212039   0.457   0.227   5.045
 3714SOL     OW12040   5.905   5.178   6.758
 3714SOL    HW112041   5.842   5.124   6.813
 3714SOL    HW212042   5.860   5.204   6.672
 3715SOL     OW12043   1.345   4.767   1.990
 3715SOL    HW112044   1.304   4.770   1.899
 3715SOL    HW212045   1.445   4.766   1.980
 3716SOL     OW12046   5.985   5.860   4.884
 3716SOL    HW112047   5.927   5.933   4.921
 3716SOL    HW212048   5.948   5.830   4.796
 3717SOL     OW12049   5.552   1.195   0.384
 3717SOL    HW112050   5.600   1.282   0.375
 3717SOL    HW212051   5.594   1.141   0.457
 3718SOL     OW12052   6.835   6.755   0.074
 3718SOL    HW112053   6.912   6.797   0.123
 3718SOL    HW212054   6.854   6.756   6.994
 3719SOL     OW12055   3.967   2.792   6.612
 3719SOL    HW112056   3.994   2.805   6.707
 3719SOL    HW212057   4.043   2.816   6.551
 3720SOL     OW12058   5.531   3.737   0.909
 3720SOL    HW112059   5.473   3.699   0.836
 3720SOL    HW212060   5.480   3.807   0.959
 3721SOL     OW12061   0.271   4.937   0.611
 3721SOL    HW112062   0.200   4.975   0.551
 3721SOL    HW212063   0.251   4.962   0.706
 3722SOL     OW12064   5.624   6.159   1.350
 3722SOL    HW112065   5.531   6.142   1.316
 3722SOL    HW212066   5.626   6.247   1.399
 3723SOL     OW12067   4.383   5.102   0.646
 3723SOL    HW112068   4.445   5.121   0.569
 3723SOL    HW212069   4.354   5.006   0.642
 3724SOL     OW12070   1.463   4.323   6.113
 3724SOL    HW112071   1.557   4.294   6.095
 3724SOL    HW212072   1.413   4.249   6.157
 3725SOL     OW12073   0.628   5.862   6.599
 3725SOL    HW112074   0.653   5.956   6.577
 3725SOL    HW212075   0.631   5.849   6.698
 3726SOL     OW12076   5.132   3.935   6.219
 3726SOL    HW112077   5.133   4.027   6.258
 3726SOL    HW212078   5.218   3.917   6.171
 3727SOL     OW12079   6.720   2.864   5.437
 3727SOL    HW112080   6.696   2.874   5.340
 3727SOL    HW212081   6.725   2.767   5.460
 3728SOL     OW12082   2.191   3.270   6.500
 3728SOL    HW112083   2.160   3.217   6.579
 3728SOL    HW212084   2.233   3.209   6.433
 3729SOL     OW12085   1.215   1.680   4.160
 3729SOL    HW112086   1.149   1.689   4.235
 3729SOL    HW212087   1.245   1.585   4.154
 3730SOL     OW12088   3.968   6.306   5.666
 3730SOL    HW112089   4.058   6.335   5.635
 3730SOL    HW212090   3.977   6.232   5.732
 3731SOL     OW12091   0.161   1.290   0.310
 3731SOL    HW112092   0.254   1.254   0.299
 3731SOL    HW212093   0.146   1.363   0.244
 3732SOL     OW12094   2.544   2.362   0.708
 3732SOL    HW112095   2.524   2.443   0.653
 3732SOL    HW212096   2.459   2.325   0.745
 3733SOL     OW12097   2.171   1.970   3.367
 3733SOL    HW112098   2.223   1.989   3.283
 3733SOL    HW212099   2.228   1.991   3.447
 3734SOL     OW12100   4.420   0.892   1.709
 3734SOL    HW112101   4.344   0.943   1.667
 3734SOL    HW212102   4.427   0.917   1.805
 3735SOL     OW12103   3.441   0.718   2.575
 3735SOL    HW112104   3.511   0.788   2.560
 3735SOL    HW212105   3.429   0.704   2.673
 3736SOL     OW12106   6.878   1.454   0.944
 3736SOL    HW112107   6.815   1.499   0.881
 3736SOL    HW212108   6.971   1.487   0.928
 3737SOL     OW12109   5.912   1.407   3.171
 3737SOL    HW112110   5.924   1.454   3.258
 3737SOL    HW212111   5.970   1.449   3.101
 3738SOL     OW12112   6.369   0.038   1.290
 3738SOL    HW112113   6.358   0.137   1.282
 3738SOL    HW212114   6.331   0.006   1.376
 3739SOL     OW12115   2.306   4.318   1.474
 3739SOL    HW112116   2.322   4.354   1.566
 3739SOL    HW212117   2.375   4.356   1.411
 3740SOL     OW12118   6.470   5.427   0.451
 3740SOL    HW112119   6.546   5.376   0.492
 3740SOL    HW212120   6.483   5.524   0.469
 3741SOL     OW12121   4.860   2.889   6.910
 3741SOL    HW112122   4.942   2.875   6.966
 3741SOL    HW212123   4.881   2.870   6.814
 3742SOL     OW12124   4.018   0.044   0.353
 3742SOL    HW112125   4.052   0.132   0.317
 3742SOL    HW212126   4.075   0.017   0.431
 3743SOL     OW12127   5.304   3.729   1.515
 3743SOL    HW112128   5.211   3.764   1.527
 3743SOL    HW212129   5.365   3.772   1.582
 3744SOL     OW12130   1.433   6.151   2.151
 3744SOL    HW112131   1.502   6.113   2.213
 3744SOL    HW212132   1.372   6.078   2.121
 3745SOL     OW12133   5.652   4.031   2.885
 3745SOL    HW112134   5.587   4.014   2.958
 3745SOL    HW212135   5.606   4.074   2.807
 3746SOL     OW12136   6.356   0.409   3.995
 3746SOL    HW112137   6.340   0.340   3.924
 3746SOL    HW212138   6.451   0.403   4.026
 3747SOL     OW12139   4.370   6.373   5.321
 3747SOL    HW112140   4.299   6.353   5.253
 3747SOL    HW212141   4.423   6.291   5.339
 3748SOL     OW12142   4.924   0.886   1.968
 3748SOL    HW112143   4.927   0.880   1.868
 3748SOL    HW212144   4.959   0.802   2.008
 3749SOL     OW12145   2.351   4.802   3.395
 3749SOL    HW112146   2.322   4.864   3.468
 3749SOL    HW212147   2.352   4.708   3.429
 3750SOL     OW12148   6.179   4.259   1.016
 3750SOL    HW112149   6.131   4.211   0.942
 3750SOL    HW212150   6.124   4.253   1.100
 3751SOL     OW12151   6.689   3.133   0.683
 3751SOL    HW112152   6.677   3.039   0.650
 3751SOL    HW212153   6.671   3.136   0.782
 3752SOL     OW12154   0.928   6.981   0.836
 3752SOL    HW112155   0.859   6.963   0.766
 3752SOL    HW212156   1.017   6.950   0.803
 3753SOL     OW12157   6.602   1.022   3.856
 3753SOL    HW112158   6.697   1.052   3.847
 3753SOL    HW212159   6.549   1.094   3.902
 3754SOL     OW12160   4.146   6.414   1.789
 3754SOL    HW112161   4.171   6.511   1.776
 3754SOL    HW212162   4.163   6.388   1.884
 3755SOL     OW12163   5.502   5.737   4.277
 3755SOL    HW112164   5.574   5.689   4.327
 3755SOL    HW212165   5.503   5.708   4.182
 3756SOL     OW12166   2.024   6.480   6.105
 3756SOL    HW112167   2.054   6.560   6.159
 3756SOL    HW212168   1.929   6.493   6.078
 3757SOL     OW12169   4.017   6.148   6.737
 3757SOL    HW112170   3.963   6.223   6.774
 3757SOL    HW212171   4.098   6.134   6.794
 3758SOL     OW12172   2.027   1.058   4.147
 3758SOL    HW112173   1.980   1.145   4.135
 3758SOL    HW212174   2.125   1.074   4.161
 3759SOL     OW12175   4.663   5.014   6.314
 3759SOL    HW112176   4.664   5.077   6.236
 3759SOL    HW212177   4.577   4.962   6.313
 3760SOL     OW12178   1.428   2.725   4.266
 3760SOL    HW112179   1.403   2.737   4.170
 3760SOL    HW212180   1.521   2.759   4.280
 3761SOL     OW12181   0.368   0.295   5.214
 3761SOL    HW112182   0.299   0.358   5.176
 3761SOL    HW212183   0.417   0.341   5.288
 3762SOL     OW12184   0.546   5.479   6.954
 3762SOL    HW112185   0.531   5.382   6.935
 3762SOL    HW212186   0.638   5.505   6.922
 3763SOL     OW12187   6.852   4.660   0.153
 3763SOL    HW112188   6.784   4.624   0.217
 3763SOL    HW212189   6.835   4.623   0.062
 3764SOL     OW12190   1.620   0.321   3.625
 3764SOL    HW112191   1.601   0.273   3.539
 3764SOL    HW212192   1.669   0.406   3.605
 3765SOL     OW12193   5.095   1.361   0.940
 3765SOL    HW112194   5.133   1.296   1.005
 3765SOL    HW212195   5.086   1.450   0.984
 3766SOL     OW12196   1.409   1.069   4.095
 3766SOL    HW112197   1.476   1.001   4.066
 3766SOL    HW212198   1.333   1.023   4.140
 3767SOL     OW12199   2.584   5.078   0.106
 3767SOL    HW112200   2.632   5.135   0.172
 3767SOL    HW212201   2.616   4.983   0.114
 3768SOL     OW12202   2.608   6.072   5.558
 3768SOL    HW112203   2.653   6.081   5.469
 3768SOL    HW212204   2.596   5.975   5.580
 3769SOL     OW12205   5.577   5.514   5.068
 3769SOL    HW112206   5.570   5.421   5.034
 3769SOL    HW212207   5.486   5.552   5.082
 3770SOL     OW12208   1.819   6.949   6.950
 3770SOL    HW112209   1.790   6.894   6.872
 3770SOL    HW212210   1.739   6.992   6.992
 3771SOL     OW12211   6.364   2.443   0.010
 3771SOL    HW112212   6.298   2.493   6.972
 3771SOL    HW212213   6.377   2.490   0.097
 3772SOL     OW12214   6.816   1.395   0.220
 3772SOL    HW112215   6.770   1.329   0.161
 3772SOL    HW212216   6.866   1.461   0.164
 3773SOL     OW12217   6.489   3.261   6.318
 3773SOL    HW112218   6.399   3.220   6.311
 3773SOL    HW212219   6.495   3.340   6.257
 3774SOL     OW12220   0.307   5.892   6.976
 3774SOL    HW112221   0.316   5.944   0.043
 3774SOL    HW212222   0.213   5.860   6.966
 3775SOL     OW12223   5.108   4.598   2.196
 3775SOL    HW112224   5.191   4.600   2.252
 3775SOL    HW212225   5.034   4.553   2.248
 3776SOL     OW12226   4.114   1.077   0.566
 3776SOL    HW112227   4.058   1.096   0.486
 3776SOL    HW212228   4.197   1.028   0.539
 3777SOL     OW12229   2.881   4.918   4.594
 3777SOL    HW112230   2.950   4.953   4.656
 3777SOL    HW212231   2.828   4.847   4.638
 3778SOL     OW12232   2.705   5.001   2.969
 3778SOL    HW112233   2.702   5.083   2.913
 3778SOL    HW212234   2.612   4.967   2.985
 3779SOL     OW12235   1.788   4.538   0.874
 3779SOL    HW112236   1.741   4.451   0.888
 3779SOL    HW212237   1.881   4.521   0.843
 3780SOL     OW12238   4.456   5.137   5.976
 3780SOL    HW112239   4.410   5.165   5.892
 3780SOL    HW212240   4.400   5.161   6.055
 3781SOL     OW12241   1.774   6.859   4.898
 3781SOL    HW112242   1.774   6.851   4.997
 3781SOL    HW212243   1.849   6.919   4.869
 3782SOL     OW12244   2.681   1.542   4.374
 3782SOL    HW112245   2.756   1.492   4.332
 3782SOL    HW212246   2.698   1.640   4.370
 3783SOL     OW12247   5.561   6.223   5.026
 3783SOL    HW112248   5.523   6.183   5.109
 3783SOL    HW212249   5.577   6.321   5.040
 3784SOL     OW12250   4.745   2.209   3.564
 3784SOL    HW112251   4.677   2.241   3.498
 3784SOL    HW212252   4.834   2.200   3.519
 3785SOL     OW12253   1.148   1.087   6.774
 3785SOL    HW112254   1.183   1.149   6.844
 3785SOL    HW212255   1.072   1.130   6.726
 3786SOL     OW12256   2.518   6.584   2.729
 3786SOL    HW112257   2.596   6.564   2.669
 3786SOL    HW212258   2.543   6.657   2.792
 3787SOL     OW12259   5.952   6.555   3.176
 3787SOL    HW112260   5.982   6.558   3.081
 3787SOL    HW212261   5.861   6.512   3.181
 3788SOL     OW12262   0.619   3.370   4.059
 3788SOL    HW112263   0.569   3.435   4.116
 3788SOL    HW212264   0.585   3.278   4.077
 3789SOL     OW12265   0.689   3.318   4.333
 3789SOL    HW112266   0.663   3.243   4.273
 3789SOL    HW212267   0.770   3.364   4.297
 3790SOL     OW12268   2.170   3.875   5.559
 3790SOL    HW112269   2.239   3.849   5.491
 3790SOL    HW212270   2.131   3.793   5.600
 3791SOL     OW12271   6.425   0.229   0.396
 3791SOL    HW112272   6.378   0.147   0.430
 3791SOL    HW212273   6.357   0.296   0.367
 3792SOL     OW12274   6.870   0.937   3.630
 3792SOL    HW112275   6.880   1.025   3.676
 3792SOL    HW212276   6.843   0.867   3.697
 3793SOL     OW12277   3.695   0.315   2.495
 3793SOL    HW112278   3.618   0.289   2.553
 3793SOL    HW212279   3.743   0.393   2.535
 3794SOL     OW12280   2.290   4.027   0.992
 3794SOL    HW112281   2.388   4.045   0.999
 3794SOL    HW212282   2.245   4.053   1.077
 3795SOL     OW12283   3.537   6.505   6.744
 3795SOL    HW112284   3.549   6.468   6.652
 3795SOL    HW212285   3.546   6.431   6.811
 3796SOL     OW12286   2.578   1.643   1.131
 3796SOL    HW112287   2.601   1.551   1.162
 3796SOL    HW212288   2.597   1.652   1.033
 3797SOL     OW12289   6.575   4.278   3.025
 3797SOL    HW112290   6.550   4.223   2.945
 3797SOL    HW212291   6.495   4.328   3.057
 3798SOL     OW12292   3.715   5.903   2.798
 3798SOL    HW112293   3.751   5.966   2.867
 3798SOL    HW212294   3.654   5.837   2.842
 3799SOL     OW12295   0.103   2.622   3.965
 3799SOL    HW112296   0.007   2.596   3.948
 3799SOL    HW212297   0.146   2.649   3.880
 3800SOL     OW12298   5.231   3.130   4.443
 3800SOL    HW112299   5.283   3.211   4.470
 3800SOL    HW212300   5.256   3.053   4.502
 3801SOL     OW12301   6.459   6.295   3.364
 3801SOL    HW112302   6.542   6.331   3.322
 3801SOL    HW212303   6.387   6.290   3.295
 3802SOL     OW12304   0.698   2.673   3.731
 3802SOL    HW112305   0.696   2.666   3.632
 3802SOL    HW212306   0.619   2.726   3.762
 3803SOL     OW12307   3.680   2.190   0.990
 3803SOL    HW112308   3.765   2.158   0.949
 3803SOL    HW212309   3.656   2.131   1.068
 3804SOL     OW12310   4.907   2.138   3.766
 3804SOL    HW112311   4.852   2.175   3.690
 3804SOL    HW212312   4.847   2.089   3.829
 3805SOL     OW12313   2.832   3.563   1.631
 3805SOL    HW112314   2.815   3.656   1.662
 3805SOL    HW212315   2.931   3.549   1.618
 3806SOL     OW12316   3.084   4.084   6.831
 3806SOL    HW112317   3.140   4.045   6.759
 3806SOL    HW212318   3.128   4.166   6.867
 3807SOL     OW12319   2.541   6.911   3.879
 3807SOL    HW112320   2.447   6.909   3.912
 3807SOL    HW212321   2.544   6.882   3.784
 3808SOL     OW12322   4.081   0.458   1.068
 3808SOL    HW112323   4.040   0.445   0.978
 3808SOL    HW212324   4.150   0.530   1.063
 3809SOL     OW12325   5.939   2.777   0.530
 3809SOL    HW112326   5.908   2.848   0.468
 3809SOL    HW212327   5.861   2.727   0.567
 3810SOL     OW12328   4.416   2.223   5.268
 3810SOL    HW112329   4.480   2.223   5.191
 3810SOL    HW212330   4.358   2.142   5.262
 3811SOL     OW12331   1.029   4.273   3.953
 3811SOL    HW112332   1.071   4.342   4.012
 3811SOL    HW212333   1.002   4.194   4.009
 3812SOL     OW12334   5.498   0.820   5.179
 3812SOL    HW112335   5.507   0.743   5.115
 3812SOL    HW212336   5.588   0.861   5.194
 3813SOL     OW12337   4.055   4.268   0.387
 3813SOL    HW112338   3.976   4.229   0.339
 3813SOL    HW212339   4.032   4.282   0.483
 3814SOL     OW12340   0.345   6.726   1.337
 3814SOL    HW112341   0.277   6.798   1.325
 3814SOL    HW212342   0.378   6.695   1.247
 3815SOL     OW12343   4.762   2.913   0.574
 3815SOL    HW112344   4.837   2.924   0.639
 3815SOL    HW212345   4.707   2.996   0.571
 3816SOL     OW12346   0.292   5.806   0.483
 3816SOL    HW112347   0.296   5.722   0.429
 3816SOL    HW212348   0.385   5.836   0.504
 3817SOL     OW12349   5.422   3.848   3.444
 3817SOL    HW112350   5.413   3.772   3.380
 3817SOL    HW212351   5.420   3.814   3.538
 3818SOL     OW12352   5.094   0.476   0.382
 3818SOL    HW112353   5.117   0.562   0.337
 3818SOL    HW212354   5.000   0.450   0.358
 3819SOL     OW12355   5.376   5.468   1.142
 3819SOL    HW112356   5.409   5.441   1.233
 3819SOL    HW212357   5.450   5.512   1.092
 3820SOL     OW12358   6.892   6.979   3.663
 3820SOL    HW112359   6.882   6.952   3.568
 3820SOL    HW212360   6.961   0.034   3.670
 3821SOL     OW12361   2.177   2.646   1.048
 3821SOL    HW112362   2.273   2.622   1.064
 3821SOL    HW212363   2.122   2.615   1.125
 3822SOL     OW12364   1.735   5.876   2.730
 3822SOL    HW112365   1.642   5.878   2.694
 3822SOL    HW212366   1.747   5.795   2.786
 3823SOL     OW12367   4.135   2.277   5.839
 3823SOL    HW112368   4.225   2.241   5.815
 3823SOL    HW212369   4.065   2.231   5.784
 3824SOL     OW12370   5.544   1.727   6.153
 3824SOL    HW112371   5.600   1.744   6.073
 3824SOL    HW212372   5.600   1.733   6.236
 3825SOL     OW12373   0.412   6.738   0.950
 3825SOL    HW112374   0.427   6.671   1.022
 3825SOL    HW212375   0.421   6.694   0.860
 3826SOL     OW12376   0.778   3.812   0.309
 3826SOL    HW112377   0.800   3.832   0.214
 3826SOL    HW212378   0.700   3.867   0.338
 3827SOL     OW12379   3.052   3.334   0.987
 3827SOL    HW112380   3.139   3.378   1.006
 3827SOL    HW212381   3.045   3.249   1.039
 3828SOL     OW12382   4.665   2.503   1.349
 3828SOL    HW112383   4.646   2.503   1.447
 3828SOL    HW212384   4.751   2.456   1.332
 3829SOL     OW12385   1.981   4.702   4.110
 3829SOL    HW112386   2.048   4.652   4.165
 3829SOL    HW212387   1.994   4.678   4.013
 3830SOL     OW12388   1.181   6.960   4.841
 3830SOL    HW112389   1.216   6.896   4.909
 3830SOL    HW212390   1.090   6.930   4.811
 3831SOL     OW12391   4.552   1.975   2.071
 3831SOL    HW112392   4.581   2.017   1.985
 3831SOL    HW212393   4.630   1.968   2.133
 3832SOL     OW12394   5.773   0.856   2.159
 3832SOL    HW112395   5.793   0.765   2.123
 3832SOL    HW212396   5.858   0.907   2.172
 3833SOL     OW12397   1.445   6.057   6.232
 3833SOL    HW112398   1.364   6.104   6.195
 3833SOL    HW212399   1.504   6.030   6.156
 3834SOL     OW12400   3.595   2.698   0.869
 3834SOL    HW112401   3.622   2.602   0.869
 3834SOL    HW212402   3.543   2.719   0.951
 3835SOL     OW12403   3.062   5.371   5.179
 3835SOL    HW112404   3.084   5.344   5.273
 3835SOL    HW212405   3.144   5.410   5.136
 3836SOL     OW12406   1.882   3.845   5.164
 3836SOL    HW112407   1.972   3.853   5.120
 3836SOL    HW212408   1.833   3.932   5.156
 3837SOL     OW12409   5.114   3.537   6.982
 3837SOL    HW112410   5.103   3.609   0.033
 3837SOL    HW212411   5.048   3.464   6.999
 3838SOL     OW12412   6.150   4.057   4.269
 3838SOL    HW112413   6.195   3.975   4.233
 3838SOL    HW212414   6.051   4.047   4.259
 3839SOL     OW12415   4.438   0.610   4.501
 3839SOL    HW112416   4.512   0.675   4.520
 3839SOL    HW212417   4.409   0.568   4.587
 3840SOL     OW12418   1.729   1.300   5.224
 3840SOL    HW112419   1.729   1.348   5.136
 3840SOL    HW212420   1.693   1.361   5.295
 3841SOL     OW12421   6.778   3.190   4.567
 3841SOL    HW112422   6.714   3.114   4.581
 3841SOL    HW212423   6.731   3.276   4.584
 3842SOL     OW12424   1.224   4.569   6.851
 3842SOL    HW112425   1.136   4.572   6.804
 3842SOL    HW212426   1.298   4.568   6.783
 3843SOL     OW12427   7.012   4.548   2.119
 3843SOL    HW112428   0.053   4.610   2.066
 3843SOL    HW212429   6.994   4.465   2.065
 3844SOL     OW12430   7.011   4.026   5.864
 3844SOL    HW112431   6.927   4.080   5.868
 3844SOL    HW212432   0.068   4.082   5.828
 3845SOL     OW12433   3.771   3.038   3.059
 3845SOL    HW112434   3.859   3.066   3.022
 3845SOL    HW212435   3.752   3.089   3.143
 3846SOL     OW12436   0.464   4.906   4.187
 3846SOL    HW112437   0.435   4.828   4.132
 3846SOL    HW212438   0.506   4.874   4.271
 3847SOL     OW12439   6.140   1.143   5.188
 3847SOL    HW112440   6.065   1.132   5.253
 3847SOL    HW212441   6.106   1.126   5.095
 3848SOL     OW12442   3.080   5.659   2.963
 3848SOL    HW112443   3.020   5.583   2.937
 3848SOL    HW212444   3.155   5.626   3.020
 3849SOL     OW12445   0.337   1.511   5.637
 3849SOL    HW112446   0.390   1.596   5.636
 3849SOL    HW212447   0.372   1.450   5.566
 3850SOL     OW12448   2.736   3.438   1.430
 3850SOL    HW112449   2.757   3.477   1.519
 3850SOL    HW212450   2.648   3.472   1.398
 3851SOL     OW12451   1.372   4.419   3.175
 3851SOL    HW112452   1.402   4.411   3.270
 3851SOL    HW212453   1.350   4.328   3.139
 3852SOL     OW12454   4.701   6.693   4.635
 3852SOL    HW112455   4.741   6.609   4.598
 3852SOL    HW212456   4.738   6.709   4.727
 3853SOL     OW12457   1.549   3.186   2.597
 3853SOL    HW112458   1.645   3.158   2.587
 3853SOL    HW212459   1.512   3.211   2.508
 3854SOL     OW12460   0.832   4.176   2.796
 3854SOL    HW112461   0.868   4.113   2.865
 3854SOL    HW212462   0.906   4.201   2.733
 3855SOL     OW12463   5.259   5.851   6.586
 3855SOL    HW112464   5.253   5.847   6.486
 3855SOL    HW212465   5.185   5.908   6.621
 3856SOL     OW12466   6.816   6.432   4.970
 3856SOL    HW112467   6.723   6.410   4.999
 3856SOL    HW212468   6.850   6.360   4.909
 3857SOL     OW12469   0.938   6.362   5.402
 3857SOL    HW112470   0.878   6.291   5.439
 3857SOL    HW212471   1.010   6.320   5.347
 3858SOL     OW12472   1.606   6.216   5.882
 3858SOL    HW112473   1.698   6.255   5.872
 3858SOL    HW212474   1.554   6.271   5.947
 3859SOL     OW12475   0.061   1.528   3.185
 3859SOL    HW112476   0.079   1.441   3.230
 3859SOL    HW212477   0.021   1.592   3.250
 3860SOL     OW12478   1.375   6.653   4.669
 3860SOL    HW112479   1.400   6.728   4.608
 3860SOL    HW212480   1.289   6.612   4.638
 3861SOL     OW12481   5.290   4.210   1.860
 3861SOL    HW112482   5.220   4.275   1.890
 3861SOL    HW212483   5.356   4.195   1.934
 3862SOL     OW12484   6.637   0.041   5.415
 3862SOL    HW112485   6.584   6.997   5.474
 3862SOL    HW212486   6.588   0.128   5.406
 3863SOL     OW12487   4.008   4.330   6.511
 3863SOL    HW112488   4.031   4.413   6.561
 3863SOL    HW212489   3.973   4.355   6.421
 3864SOL     OW12490   4.223   1.850   5.450
 3864SOL    HW112491   4.191   1.888   5.537
 3864SOL    HW212492   4.161   1.778   5.420
 3865SOL     OW12493   4.069   0.550   1.436
 3865SOL    HW112494   4.106   0.627   1.487
 3865SOL    HW212495   4.130   0.471   1.446
 3866SOL     OW12496   3.802   0.681   0.083
 3866SOL    HW112497   3.892   0.682   0.040
 3866SOL    HW212498   3.740   0.624   0.028
 3867SOL     OW12499   2.101   3.603   4.230
 3867SOL    HW112500   2.083   3.548   4.149
 3867SOL    HW212501   2.107   3.544   4.310
 3868SOL     OW12502   2.260   6.253   2.011
 3868SOL    HW112503   2.243   6.156   2.032
 3868SOL    HW212504   2.223   6.310   2.085
 3869SOL     OW12505   7.009   3.014   4.116
 3869SOL    HW112506   0.034   3.095   4.156
 3869SOL    HW212507   0.057   2.937   4.120
 3870SOL     OW12508   4.153   4.923   0.504
 3870SOL    HW112509   4.165   4.857   0.429
 3870SOL    HW212510   4.060   4.959   0.502
 3871SOL     OW12511   3.062   1.061   2.608
 3871SOL    HW112512   3.024   1.051   2.700
 3871SOL    HW212513   2.994   1.031   2.541
 3872SOL     OW12514   3.370   2.755   1.459
 3872SOL    HW112515   3.350   2.806   1.543
 3872SOL    HW212516   3.469   2.751   1.445
 3873SOL     OW12517   5.674   5.566   1.374
 3873SOL    HW112518   5.728   5.615   1.306
 3873SOL    HW212519   5.666   5.621   1.457
 3874SOL     OW12520   4.471   6.546   0.413
 3874SOL    HW112521   4.408   6.526   0.338
 3874SOL    HW212522   4.523   6.463   0.436
 3875SOL     OW12523   1.102   3.421   2.445
 3875SOL    HW112524   1.158   3.495   2.407
 3875SOL    HW212525   1.160   3.363   2.502
 3876SOL     OW12526   5.104   5.043   6.805
 3876SOL    HW112527   5.127   5.124   6.860
 3876SOL    HW212528   5.011   5.054   6.767
 3877SOL     OW12529   6.551   1.386   0.680
 3877SOL    HW112530   6.608   1.419   0.755
 3877SOL    HW212531   6.584   1.424   0.593
 3878SOL     OW12532   2.583   5.718   6.086
 3878SOL    HW112533   2.531   5.713   6.170
 3878SOL    HW212534   2.663   5.777   6.099
 3879SOL     OW12535   5.065   5.985   1.321
 3879SOL    HW112536   4.990   6.007   1.258
 3879SOL    HW212537   5.085   5.887   1.316
 3880SOL     OW12538   6.245   4.172   2.993
 3880SOL    HW112539   6.247   4.075   2.969
 3880SOL    HW212540   6.239   4.227   2.910
 3881SOL     OW12541   1.420   5.486   0.731
 3881SOL    HW112542   1.402   5.480   0.633
 3881SOL    HW212543   1.333   5.493   0.780
 3882SOL     OW12544   6.457   0.956   5.324
 3882SOL    HW112545   6.527   0.927   5.388
 3882SOL    HW212546   6.441   1.054   5.334
 3883SOL     OW12547   5.218   1.746   3.931
 3883SOL    HW112548   5.277   1.812   3.978
 3883SOL    HW212549   5.215   1.769   3.833
 3884SOL     OW12550   1.602   6.289   4.411
 3884SOL    HW112551   1.637   6.317   4.501
 3884SOL    HW212552   1.507   6.316   4.402
 3885SOL     OW12553   6.632   1.114   4.361
 3885SOL    HW112554   6.695   1.122   4.438
 3885SOL    HW212555   6.675   1.064   4.287
 3886SOL     OW12556   5.874   0.093   5.863
 3886SOL    HW112557   5.934   0.087   5.783
 3886SOL    HW212558   5.780   0.105   5.833
 3887SOL     OW12559   4.871   1.967   5.252
 3887SOL    HW112560   4.778   1.971   5.288
 3887SOL    HW212561   4.929   2.030   5.303
 3888SOL     OW12562   0.228   0.964   6.218
 3888SOL    HW112563   0.290   0.998   6.290
 3888SOL    HW212564   0.160   1.035   6.198
 3889SOL     OW12565   0.795   5.314   6.532
 3889SOL    HW112566   0.753   5.371   6.602
 3889SOL    HW212567   0.727   5.250   6.495
 3890SOL     OW12568   6.428   6.491   2.901
 3890SOL    HW112569   6.456   6.412   2.954
 3890SOL    HW212570   6.410   6.464   2.807
 3891SOL     OW12571   5.585   4.866   4.461
 3891SOL    HW112572   5.616   4.959   4.444
 3891SOL    HW212573   5.557   4.824   4.374
 3892SOL     OW12574   1.234   0.253   2.569
 3892SOL    HW112575   1.288   0.206   2.640
 3892SOL    HW212576   1.296   0.304   2.509
 3893SOL     OW12577   3.423   5.889   3.232
 3893SOL    HW112578   3.512   5.856   3.263
 3893SOL    HW212579   3.351   5.842   3.283
 3894SOL     OW12580   3.867   2.533   0.361
 3894SOL    HW112581   3.831   2.477   0.287
 3894SOL    HW212582   3.922   2.607   0.324
 3895SOL     OW12583   1.368   1.315   5.320
 3895SOL    HW112584   1.416   1.402   5.331
 3895SOL    HW212585   1.326   1.312   5.229
 3896SOL     OW12586   0.806   1.965   5.996
 3896SOL    HW112587   0.762   2.047   6.031
 3896SOL    HW212588   0.755   1.932   5.916
 3897SOL     OW12589   2.839   6.605   2.367
 3897SOL    HW112590   2.893   6.605   2.451
 3897SOL    HW212591   2.807   6.512   2.348
 3898SOL     OW12592   3.198   2.957   3.948
 3898SOL    HW112593   3.270   3.025   3.963
 3898SOL    HW212594   3.201   2.926   3.853
 3899SOL     OW12595   5.402   1.284   5.075
 3899SOL    HW112596   5.418   1.195   5.032
 3899SOL    HW212597   5.399   1.354   5.004
 3900SOL     OW12598   6.142   2.952   3.429
 3900SOL    HW112599   6.095   2.901   3.357
 3900SOL    HW212600   6.136   3.050   3.410
 3901SOL     OW12601   1.630   6.643   5.412
 3901SOL    HW112602   1.675   6.716   5.464
 3901SOL    HW212603   1.699   6.586   5.368
 3902SOL     OW12604   5.115   4.608   3.078
 3902SOL    HW112605   5.122   4.521   3.127
 3902SOL    HW212606   5.118   4.591   2.979
 3903SOL     OW12607   4.720   3.187   0.182
 3903SOL    HW112608   4.681   3.116   0.241
 3903SOL    HW212609   4.724   3.273   0.233
 3904SOL     OW12610   0.706   6.666   0.501
 3904SOL    HW112611   0.612   6.644   0.475
 3904SOL    HW212612   0.706   6.717   0.587
 3905SOL     OW12613   6.470   6.471   6.346
 3905SOL    HW112614   6.567   6.478   6.324
 3905SOL    HW212615   6.458   6.457   6.444
 3906SOL     OW12616   1.417   4.776   4.062
 3906SOL    HW112617   1.345   4.816   4.006
 3906SOL    HW212618   1.403   4.800   4.158
 3907SOL     OW12619   0.243   0.982   4.675
 3907SOL    HW112620   0.149   0.990   4.708
 3907SOL    HW212621   0.246   0.915   4.601
 3908SOL     OW12622   1.120   0.935   5.690
 3908SOL    HW112623   1.148   0.997   5.616
 3908SOL    HW212624   1.139   0.977   5.778
 3909SOL     OW12625   5.031   3.536   6.011
 3909SOL    HW112626   5.031   3.440   5.984
 3909SOL    HW212627   5.111   3.554   6.069
 3910SOL     OW12628   3.817   3.723   1.916
 3910SOL    HW112629   3.791   3.630   1.943
 3910SOL    HW212630   3.851   3.772   1.996
 3911SOL     OW12631   5.382   0.519   0.708
 3911SOL    HW112632   5.303   0.559   0.754
 3911SOL    HW212633   5.433   0.463   0.773
 3912SOL     OW12634   3.066   1.941   5.906
 3912SOL    HW112635   3.077   2.031   5.948
 3912SOL    HW212636   3.150   1.888   5.921
 3913SOL     OW12637   3.803   6.573   0.669
 3913SOL    HW112638   3.711   6.568   0.709
 3913SOL    HW212639   3.862   6.506   0.715
 3914SOL     OW12640   5.843   1.577   1.102
 3914SOL    HW112641   5.812   1.510   1.170
 3914SOL    HW212642   5.821   1.545   1.010
 3915SOL     OW12643   3.232   6.165   0.239
 3915SOL    HW112644   3.316   6.152   0.187
 3915SOL    HW212645   3.231   6.103   0.318
 3916SOL     OW12646   3.281   0.530   2.759
 3916SOL    HW112647   3.250   0.442   2.723
 3916SOL    HW212648   3.248   0.542   2.852
 3917SOL     OW12649   2.545   5.149   0.949
 3917SOL    HW112650   2.496   5.231   0.920
 3917SOL    HW212651   2.521   5.127   1.044
 3918SOL     OW12652   5.263   1.151   0.366
 3918SOL    HW112653   5.270   1.052   0.379
 3918SOL    HW212654   5.354   1.192   0.372
 3919SOL     OW12655   4.845   1.279   0.867
 3919SOL    HW112656   4.785   1.271   0.946
 3919SOL    HW212657   4.935   1.309   0.897
 3920SOL     OW12658   3.063   1.506   0.001
 3920SOL    HW112659   3.112   1.511   0.088
 3920SOL    HW212660   3.034   1.597   6.990
 3921SOL     OW12661   6.960   2.512   6.481
 3921SOL    HW112662   0.039   2.493   6.464
 3921SOL    HW212663   6.904   2.453   6.422
 3922SOL     OW12664   4.751   4.778   2.204
 3922SOL    HW112665   4.683   4.728   2.151
 3922SOL    HW212666   4.705   4.839   2.269
 3923SOL     OW12667   6.172   1.062   1.678
 3923SOL    HW112668   6.170   1.133   1.608
 3923SOL    HW212669   6.092   1.003   1.668
 3924SOL     OW12670   0.231   4.542   3.992
 3924SOL    HW112671   0.255   4.453   3.955
 3924SOL    HW212672   0.314   4.598   3.999
 3925SOL     OW12673   4.715   3.828   0.563
 3925SOL    HW112674   4.692   3.800   0.469
 3925SOL    HW212675   4.638   3.807   0.623
 3926SOL     OW12676   1.593   0.757   5.811
 3926SOL    HW112677   1.661   0.827   5.788
 3926SOL    HW212678   1.517   0.761   5.746
 3927SOL     OW12679   0.411   2.484   4.434
 3927SOL    HW112680   0.390   2.490   4.532
 3927SOL    HW212681   0.361   2.408   4.394
 3928SOL     OW12682   2.280   6.836   3.474
 3928SOL    HW112683   2.203   6.809   3.417
 3928SOL    HW212684   2.250   6.905   3.540
 3929SOL     OW12685   6.676   1.858   5.730
 3929SOL    HW112686   6.595   1.909   5.758
 3929SOL    HW212687   6.750   1.922   5.708
 3930SOL     OW12688   1.539   2.421   3.675
 3930SOL    HW112689   1.483   2.344   3.707
 3930SOL    HW212690   1.513   2.504   3.724
 3931SOL     OW12691   1.369   1.969   1.967
 3931SOL    HW112692   1.467   1.988   1.969
 3931SOL    HW212693   1.350   1.884   2.016
 3932SOL     OW12694   1.935   5.498   4.081
 3932SOL    HW112695   1.870   5.433   4.042
 3932SOL    HW212696   2.010   5.447   4.125
 3933SOL     OW12697   1.933   5.347   0.235
 3933SOL    HW112698   1.908   5.428   0.181
 3933SOL    HW212699   1.906   5.361   0.330
 3934SOL     OW12700   0.754   1.435   2.293
 3934SOL    HW112701   0.722   1.523   2.328
 3934SOL    HW212702   0.740   1.364   2.361
 3935SOL     OW12703   6.337   3.445   6.508
 3935SOL    HW112704   6.392   3.463   6.427
 3935SOL    HW212705   6.395   3.403   6.579
 3936SOL     OW12706   6.383   5.702   5.215
 3936SOL    HW112707   6.379   5.604   5.194
 3936SOL    HW212708   6.300   5.730   5.262
 3937SOL     OW12709   0.079   5.244   2.390
 3937SOL    HW112710   0.158   5.212   2.442
 3937SOL    HW212711   0.067   5.187   2.309
 3938SOL     OW12712   6.810   3.762   4.346
 3938SOL    HW112713   6.827   3.793   4.252
 3938SOL    HW212714   6.892   3.718   4.382
 3939SOL     OW12715   0.777   1.503   1.873
 3939SOL    HW112716   0.744   1.596   1.886
 3939SOL    HW212717   0.709   1.450   1.822
 3940SOL     OW12718   2.987   4.712   1.679
 3940SOL    HW112719   3.028   4.729   1.769
 3940SOL    HW212720   2.940   4.624   1.680
 3941SOL     OW12721   5.911   0.173   4.124
 3941SOL    HW112722   5.954   0.165   4.034
 3941SOL    HW212723   5.967   0.232   4.182
 3942SOL     OW12724   0.826   6.376   6.347
 3942SOL    HW112725   0.806   6.474   6.348
 3942SOL    HW212726   0.862   6.350   6.437
 3943SOL     OW12727   0.949   3.966   1.859
 3943SOL    HW112728   1.008   4.029   1.807
 3943SOL    HW212729   0.926   4.007   1.947
 3944SOL     OW12730   6.334   3.048   6.620
 3944SOL    HW112731   6.373   3.020   6.532
 3944SOL    HW212732   6.405   3.091   6.675
 3945SOL     OW12733   0.906   1.796   3.454
 3945SOL    HW112734   0.873   1.887   3.477
 3945SOL    HW212735   0.844   1.753   3.389
 3946SOL     OW12736   6.679   3.590   0.703
 3946SOL    HW112737   6.596   3.619   0.751
 3946SOL    HW212738   6.656   3.515   0.640
 3947SOL     OW12739   5.677   5.978   0.786
 3947SOL    HW112740   5.602   6.020   0.735
 3947SOL    HW212741   5.764   6.018   0.757
 3948SOL     OW12742   2.029   2.768   6.010
 3948SOL    HW112743   1.987   2.678   6.004
 3948SOL    HW212744   2.053   2.800   5.918
 3949SOL     OW12745   6.442   6.480   2.616
 3949SOL    HW112746   6.522   6.454   2.561
 3949SOL    HW212747   6.450   6.576   2.643
 3950SOL     OW12748   4.134   4.631   1.549
 3950SOL    HW112749   4.144   4.605   1.645
 3950SOL    HW212750   4.213   4.597   1.498
 3951SOL     OW12751   0.237   2.030   5.245
 3951SOL    HW112752   0.250   1.952   5.183
 3951SOL    HW212753   0.278   2.112   5.204
 3952SOL     OW12754   5.709   2.400   5.084
 3952SOL    HW112755   5.741   2.435   4.996
 3952SOL    HW212756   5.788   2.366   5.136
 3953SOL     OW12757   2.969   3.914   6.078
 3953SOL    HW112758   2.933   4.001   6.044
 3953SOL    HW212759   2.960   3.911   6.178
 3954SOL     OW12760   0.244   3.822   5.055
 3954SOL    HW112761   0.309   3.746   5.052
 3954SOL    HW212762   0.292   3.907   5.030
 3955SOL     OW12763   5.355   6.064   0.089
 3955SOL    HW112764   5.333   6.156   0.123
 3955SOL    HW212765   5.340   6.061   7.008
 3956SOL     OW12766   0.668   2.711   5.508
 3956SOL    HW112767   0.741   2.776   5.530
 3956SOL    HW212768   0.592   2.759   5.465
 3957SOL     OW12769   2.799   6.770   3.960
 3957SOL    HW112770   2.882   6.824   3.944
 3957SOL    HW212771   2.719   6.829   3.952
 3958SOL     OW12772   6.480   5.745   0.418
 3958SOL    HW112773   6.566   5.780   0.382
 3958SOL    HW212774   6.467   5.779   0.511
 3959SOL     OW12775   2.734   6.063   0.878
 3959SOL    HW112776   2.704   5.968   0.885
 3959SOL    HW212777   2.728   6.107   0.967
 3960SOL     OW12778   4.154   2.762   0.021
 3960SOL    HW112779   4.088   2.727   6.972
 3960SOL    HW212780   4.154   2.702   0.102
 3961SOL     OW12781   4.984   1.530   2.463
 3961SOL    HW112782   4.909   1.478   2.422
 3961SOL    HW212783   5.057   1.466   2.490
 3962SOL     OW12784   1.177   6.595   6.975
 3962SOL    HW112785   1.223   6.507   6.988
 3962SOL    HW212786   1.172   6.643   0.044
 3963SOL     OW12787   5.294   5.243   3.634
 3963SOL    HW112788   5.380   5.261   3.586
 3963SOL    HW212789   5.243   5.172   3.585
 3964SOL     OW12790   5.321   5.932   5.196
 3964SOL    HW112791   5.251   6.001   5.214
 3964SOL    HW212792   5.335   5.875   5.277
 3965SOL     OW12793   4.271   5.027   6.847
 3965SOL    HW112794   4.243   5.109   6.897
 3965SOL    HW212795   4.339   5.051   6.778
 3966SOL     OW12796   6.075   5.253   6.082
 3966SOL    HW112797   5.987   5.294   6.106
 3966SOL    HW212798   6.083   5.164   6.126
 3967SOL     OW12799   0.122   5.849   4.876
 3967SOL    HW112800   0.034   5.843   4.924
 3967SOL    HW212801   0.171   5.931   4.907
 3968SOL     OW12802   4.916   0.547   2.468
 3968SOL    HW112803   4.865   0.544   2.382
 3968SOL    HW212804   5.010   0.516   2.452
 3969SOL     OW12805   1.524   4.891   3.061
 3969SOL    HW112806   1.565   4.883   3.152
 3969SOL    HW212807   1.488   4.984   3.048
 3970SOL     OW12808   4.958   4.886   3.837
 3970SOL    HW112809   4.891   4.826   3.882
 3970SOL    HW212810   4.922   4.979   3.833
 3971SOL     OW12811   2.529   5.464   3.587
 3971SOL    HW112812   2.589   5.538   3.555
 3971SOL    HW212813   2.581   5.401   3.645
 3972SOL     OW12814   0.666   6.395   0.741
 3972SOL    HW112815   0.637   6.458   0.668
 3972SOL    HW212816   0.757   6.420   0.772
 3973SOL     OW12817   3.476   3.725   4.073
 3973SOL    HW112818   3.562   3.727   4.022
 3973SOL    HW212819   3.452   3.818   4.102
 3974SOL     OW12820   0.084   1.343   5.943
 3974SOL    HW112821   0.153   1.292   5.892
 3974SOL    HW212822   0.036   1.406   5.882
 3975SOL     OW12823   6.631   0.903   6.380
 3975SOL    HW112824   6.560   0.837   6.356
 3975SOL    HW212825   6.715   0.855   6.404
 3976SOL     OW12826   0.959   4.361   0.770
 3976SOL    HW112827   0.985   4.291   0.837
 3976SOL    HW212828   0.973   4.452   0.809
 3977SOL     OW12829   2.462   5.718   6.318
 3977SOL    HW112830   2.493   5.813   6.325
 3977SOL    HW212831   2.372   5.710   6.361
 3978SOL     OW12832   5.883   1.860   5.619
 3978SOL    HW112833   5.973   1.888   5.587
 3978SOL    HW212834   5.876   1.760   5.617
 3979SOL     OW12835   1.252   7.007   1.837
 3979SOL    HW112836   1.208   6.936   1.892
 3979SOL    HW212837   1.210   0.078   1.857
 3980SOL     OW12838   5.257   3.409   4.566
 3980SOL    HW112839   5.283   3.473   4.494
 3980SOL    HW212840   5.251   3.458   4.653
 3981SOL     OW12841   0.411   1.944   6.416
 3981SOL    HW112842   0.377   1.995   6.336
 3981SOL    HW212843   0.470   2.003   6.471
 3982SOL     OW12844   2.209   0.866   4.555
 3982SOL    HW112845   2.163   0.791   4.602
 3982SOL    HW212846   2.307   0.847   4.550
 3983SOL     OW12847   3.189   0.014   4.566
 3983SOL    HW112848   3.106   6.976   4.559
 3983SOL    HW212849   3.259   6.981   4.616
 3984SOL     OW12850   1.501   6.622   1.980
 3984SOL    HW112851   1.573   6.681   2.017
 3984SOL    HW212852   1.445   6.675   1.916
 3985SOL     OW12853   1.299   3.817   6.912
 3985SOL    HW112854   1.379   3.848   6.862
 3985SOL    HW212855   1.220   3.814   6.850
 3986SOL     OW12856   0.283   1.995   1.295
 3986SOL    HW112857   0.227   1.912   1.283
 3986SOL    HW212858   0.232   2.074   1.262
 3987SOL     OW12859   2.167   5.791   5.473
 3987SOL    HW112860   2.239   5.823   5.412
 3987SOL    HW212861   2.108   5.726   5.424
 3988SOL     OW12862   4.222   1.975   6.352
 3988SOL    HW112863   4.171   1.895   6.385
 3988SOL    HW212864   4.314   1.974   6.391
 3989SOL     OW12865   6.577   0.288   6.680
 3989SOL    HW112866   6.658   0.231   6.699
 3989SOL    HW212867   6.606   0.372   6.634
 3990SOL     OW12868   6.895   2.695   4.564
 3990SOL    HW112869   6.909   2.712   4.467
 3990SOL    HW212870   6.798   2.682   4.582
 3991SOL     OW12871   0.622   2.220   3.814
 3991SOL    HW112872   0.631   2.220   3.913
 3991SOL    HW212873   0.683   2.288   3.774
 3992SOL     OW12874   4.175   3.312   6.517
 3992SOL    HW112875   4.257   3.357   6.484
 3992SOL    HW212876   4.095   3.366   6.492
 3993SOL     OW12877   2.761   2.274   2.371
 3993SOL    HW112878   2.779   2.287   2.469
 3993SOL    HW212879   2.830   2.213   2.333
 3994SOL     OW12880   2.579   2.308   4.812
 3994SOL    HW112881   2.565   2.343   4.720
 3994SOL    HW212882   2.659   2.248   4.814
 3995SOL     OW12883   1.806   4.162   3.380
 3995SOL    HW112884   1.777   4.089   3.442
 3995SOL    HW212885   1.829   4.243   3.432
 3996SOL     OW12886   0.700   0.909   4.104
 3996SOL    HW112887   0.790   0.922   4.062
 3996SOL    HW212888   0.647   0.993   4.096
 3997SOL     OW12889   5.091   3.737   3.261
 3997SOL    HW112890   5.189   3.742   3.244
 3997SOL    HW212891   5.068   3.645   3.294
 3998SOL     OW12892   6.128   2.162   2.677
 3998SOL    HW112893   6.156   2.075   2.636
 3998SOL    HW212894   6.188   2.235   2.644
 3999SOL     OW12895   5.735   3.866   3.143
 3999SOL    HW112896   5.696   3.842   3.232
 3999SOL    HW212897   5.794   3.946   3.153
 4000SOL     OW12898   3.003   5.773   2.654
 4000SOL    HW112899   2.996   5.842   2.581
 4000SOL    HW212900   3.100   5.755   2.673
 4001SOL     OW12901   2.703   3.863   6.210
 4001SOL    HW112902   2.673   3.794   6.143
 4001SOL    HW212903   2.786   3.908   6.176
 4002SOL     OW12904   3.938   2.997   5.194
 4002SOL    HW112905   3.916   2.936   5.117
 4002SOL    HW212906   3.958   3.088   5.159
 4003SOL     OW12907   2.313   1.251   6.464
 4003SOL    HW112908   2.376   1.303   6.522
 4003SOL    HW212909   2.350   1.160   6.449
 4004SOL     OW12910   6.310   3.889   3.025
 4004SOL    HW112911   6.250   3.906   3.103
 4004SOL    HW212912   6.386   3.954   3.026
 4005SOL     OW12913   4.040   4.421   1.341
 4005SOL    HW112914   4.123   4.474   1.323
 4005SOL    HW212915   3.972   4.479   1.385
 4006SOL     OW12916   5.389   4.527   1.894
 4006SOL    HW112917   5.384   4.431   1.923
 4006SOL    HW212918   5.301   4.554   1.853
 4007SOL     OW12919   0.084   2.098   3.513
 4007SOL    HW112920   7.016   2.134   3.552
 4007SOL    HW212921   0.152   2.089   3.586
 4008SOL     OW12922   2.954   6.582   0.156
 4008SOL    HW112923   2.968   6.483   0.157
 4008SOL    HW212924   2.873   6.604   0.102
 4009SOL     OW12925   4.891   2.050   0.980
 4009SOL    HW112926   4.983   2.018   0.956
 4009SOL    HW212927   4.840   1.975   1.022
 4010SOL     OW12928   3.236   3.781   1.626
 4010SOL    HW112929   3.165   3.712   1.637
 4010SOL    HW212930   3.292   3.786   1.709
 4011SOL     OW12931   6.608   6.035   1.743
 4011SOL    HW112932   6.606   6.084   1.830
 4011SOL    HW212933   6.685   5.971   1.742
 4012SOL     OW12934   3.792   6.794   2.385
 4012SOL    HW112935   3.710   6.852   2.383
 4012SOL    HW212936   3.820   6.774   2.292
 4013SOL     OW12937   1.724   0.005   1.493
 4013SOL    HW112938   1.658   0.044   1.556
 4013SOL    HW212939   1.812   0.051   1.504
 4014SOL     OW12940   3.618   6.531   4.020
 4014SOL    HW112941   3.614   6.518   4.119
 4014SOL    HW212942   3.531   6.505   3.979
 4015SOL     OW12943   4.873   4.830   6.297
 4015SOL    HW112944   4.811   4.897   6.339
 4015SOL    HW212945   4.959   4.829   6.348
 4016SOL     OW12946   2.795   5.381   0.541
 4016SOL    HW112947   2.831   5.462   0.495
 4016SOL    HW212948   2.868   5.335   0.591
 4017SOL     OW12949   0.299   4.661   5.143
 4017SOL    HW112950   0.222   4.670   5.206
 4017SOL    HW212951   0.354   4.581   5.170
 4018SOL     OW12952   3.884   6.970   1.649
 4018SOL    HW112953   3.881   6.989   1.747
 4018SOL    HW212954   3.795   6.936   1.619
 4019SOL     OW12955   5.774   3.879   2.619
 4019SOL    HW112956   5.768   3.904   2.715
 4019SOL    HW212957   5.869   3.859   2.595
 4020SOL     OW12958   6.995   2.860   5.420
 4020SOL    HW112959   0.011   2.814   5.502
 4020SOL    HW212960   6.898   2.880   5.431
 4021SOL     OW12961   3.448   3.980   5.171
 4021SOL    HW112962   3.532   3.938   5.205
 4021SOL    HW212963   3.425   3.943   5.082
 4022SOL     OW12964   4.014   6.463   0.240
 4022SOL    HW112965   4.011   6.535   0.309
 4022SOL    HW212966   3.977   6.497   0.154
 4023SOL     OW12967   0.019   1.140   6.150
 4023SOL    HW112968   0.040   1.213   6.085
 4023SOL    HW212969   6.946   1.102   6.129
 4024SOL     OW12970   2.543   4.876   4.292
 4024SOL    HW112971   2.610   4.806   4.314
 4024SOL    HW212972   2.589   4.958   4.258
 4025SOL     OW12973   0.639   6.316   4.612
 4025SOL    HW112974   0.550   6.275   4.597
 4025SOL    HW212975   0.657   6.321   4.710
 4026SOL     OW12976   6.338   6.449   4.146
 4026SOL    HW112977   6.242   6.445   4.176
 4026SOL    HW212978   6.342   6.441   4.047
 4027SOL     OW12979   2.652   1.920   0.067
 4027SOL    HW112980   2.558   1.954   0.069
 4027SOL    HW212981   2.698   1.943   0.152
 4028SOL     OW12982   4.209   1.724   3.568
 4028SOL    HW112983   4.127   1.673   3.543
 4028SOL    HW212984   4.184   1.805   3.621
 4029SOL     OW12985   2.752   4.263   6.194
 4029SOL    HW112986   2.692   4.320   6.137
 4029SOL    HW212987   2.827   4.228   6.139
 4030SOL     OW12988   6.710   1.025   1.645
 4030SOL    HW112989   6.743   1.095   1.708
 4030SOL    HW212990   6.717   0.935   1.689
 4031SOL     OW12991   4.954   6.254   3.139
 4031SOL    HW112992   4.982   6.193   3.213
 4031SOL    HW212993   4.855   6.245   3.124
 4032SOL     OW12994   0.238   6.916   2.792
 4032SOL    HW112995   0.333   6.945   2.798
 4032SOL    HW212996   0.222   6.869   2.705
 4033SOL     OW12997   1.549   2.711   1.919
 4033SOL    HW112998   1.508   2.724   2.009
 4033SOL    HW212999   1.527   2.619   1.885
 4034SOL     OW13000   5.636   2.030   5.378
 4034SOL    HW113001   5.632   1.930   5.371
 4034SOL    HW213002   5.644   2.056   5.474
 4035SOL     OW13003   6.255   1.019   0.616
 4035SOL    HW113004   6.298   0.954   0.678
 4035SOL    HW213005   6.159   1.030   0.640
 4036SOL     OW13006   3.814   4.860   2.568
 4036SOL    HW113007   3.797   4.952   2.604
 4036SOL    HW213008   3.882   4.814   2.624
 4037SOL     OW13009   1.883   1.165   6.160
 4037SOL    HW113010   1.915   1.075   6.191
 4037SOL    HW213011   1.913   1.181   6.066
 4038SOL     OW13012   4.134   3.045   0.942
 4038SOL    HW113013   4.105   2.963   0.992
 4038SOL    HW213014   4.076   3.122   0.969
 4039SOL     OW13015   4.683   5.624   1.623
 4039SOL    HW113016   4.675   5.525   1.634
 4039SOL    HW213017   4.611   5.656   1.561
 4040SOL     OW13018   2.884   6.832   5.174
 4040SOL    HW113019   2.976   6.822   5.135
 4040SOL    HW213020   2.855   6.745   5.214
 4041SOL     OW13021   1.724   5.215   1.040
 4041SOL    HW113022   1.735   5.314   1.054
 4041SOL    HW213023   1.660   5.199   0.965
 4042SOL     OW13024   6.361   5.942   4.251
 4042SOL    HW113025   6.363   6.025   4.307
 4042SOL    HW213026   6.388   5.964   4.158
 4043SOL     OW13027   6.872   1.875   6.337
 4043SOL    HW113028   6.819   1.919   6.410
 4043SOL    HW213029   6.823   1.885   6.250
 4044SOL     OW13030   5.352   6.101   3.732
 4044SOL    HW113031   5.275   6.145   3.685
 4044SOL    HW213032   5.334   6.099   3.830
 4045SOL     OW13033   3.787   6.370   6.027
 4045SOL    HW113034   3.696   6.361   6.066
 4045SOL    HW213035   3.855   6.356   6.099
 4046SOL     OW13036   1.040   2.063   3.249
 4046SOL    HW113037   0.964   2.088   3.309
 4046SOL    HW213038   1.008   2.000   3.179
 4047SOL     OW13039   2.418   2.045   0.002
 4047SOL    HW113040   2.477   2.119   6.987
 4047SOL    HW213041   2.360   2.078   0.077
 4048SOL     OW13042   5.187   1.339   1.555
 4048SOL    HW113043   5.198   1.344   1.456
 4048SOL    HW213044   5.277   1.343   1.598
 4049SOL     OW13045   5.332   5.006   6.625
 4049SOL    HW113046   5.249   5.000   6.681
 4049SOL    HW213047   5.352   4.916   6.587
 4050SOL     OW13048   0.767   6.305   2.102
 4050SOL    HW113049   0.865   6.285   2.111
 4050SOL    HW213050   0.753   6.404   2.102
 4051SOL     OW13051   3.901   1.584   6.334
 4051SOL    HW113052   3.904   1.485   6.347
 4051SOL    HW213053   3.966   1.610   6.263
 4052SOL     OW13054   5.946   1.298   2.801
 4052SOL    HW113055   5.855   1.338   2.788
 4052SOL    HW213056   6.014   1.357   2.757
 4053SOL     OW13057   2.723   6.947   4.495
 4053SOL    HW113058   2.704   6.977   4.401
 4053SOL    HW213059   2.664   6.870   4.518
 4054SOL     OW13060   4.809   4.306   1.029
 4054SOL    HW113061   4.757   4.386   0.998
 4054SOL    HW213062   4.894   4.336   1.072
 4055SOL     OW13063   3.069   3.795   0.550
 4055SOL    HW113064   2.982   3.840   0.532
 4055SOL    HW213065   3.111   3.835   0.632
 4056SOL     OW13066   5.651   4.155   1.105
 4056SOL    HW113067   5.582   4.207   1.054
 4056SOL    HW213068   5.674   4.205   1.189
 4057SOL     OW13069   0.243   2.724   0.580
 4057SOL    HW113070   0.216   2.718   0.676
 4057SOL    HW213071   0.273   2.817   0.559
 4058SOL     OW13072   2.860   6.696   4.821
 4058SOL    HW113073   2.886   6.646   4.904
 4058SOL    HW213074   2.815   6.634   4.757
 4059SOL     OW13075   1.065   1.922   2.498
 4059SOL    HW113076   1.101   1.829   2.487
 4059SOL    HW213077   1.030   1.955   2.411
 4060SOL     OW13078   5.414   5.076   5.323
 4060SOL    HW113079   5.321   5.041   5.315
 4060SOL    HW213080   5.432   5.101   5.418
 4061SOL     OW13081   2.024   4.881   2.252
 4061SOL    HW113082   2.014   4.889   2.352
 4061SOL    HW213083   1.949   4.826   2.216
 4062SOL     OW13084   2.333   0.423   1.729
 4062SOL    HW113085   2.391   0.464   1.800
 4062SOL    HW213086   2.371   0.335   1.702
 4063SOL     OW13087   6.207   6.234   0.438
 4063SOL    HW113088   6.202   6.145   0.393
 4063SOL    HW213089   6.271   6.293   0.390
 4064SOL     OW13090   2.468   0.552   3.839
 4064SOL    HW113091   2.379   0.507   3.847
 4064SOL    HW213092   2.470   0.606   3.754
 4065SOL     OW13093   1.247   6.434   1.546
 4065SOL    HW113094   1.345   6.454   1.536
 4065SOL    HW213095   1.226   6.346   1.504
 4066SOL     OW13096   6.487   4.635   3.113
 4066SOL    HW113097   6.560   4.649   3.179
 4066SOL    HW213098   6.438   4.550   3.134
 4067SOL     OW13099   6.335   3.161   2.616
 4067SOL    HW113100   6.387   3.220   2.678
 4067SOL    HW213101   6.266   3.216   2.568
 4068SOL     OW13102   1.981   1.275   4.583
 4068SOL    HW113103   2.037   1.346   4.540
 4068SOL    HW213104   1.968   1.199   4.518
 4069SOL     OW13105   3.554   5.252   6.627
 4069SOL    HW113106   3.584   5.254   6.722
 4069SOL    HW213107   3.553   5.345   6.590
 4070SOL     OW13108   0.347   2.556   2.942
 4070SOL    HW113109   0.353   2.649   2.980
 4070SOL    HW213110   0.410   2.548   2.865
 4071SOL     OW13111   0.814   1.596   5.306
 4071SOL    HW113112   0.827   1.497   5.304
 4071SOL    HW213113   0.852   1.633   5.391
 4072SOL     OW13114   0.974   5.580   4.674
 4072SOL    HW113115   0.967   5.672   4.711
 4072SOL    HW213116   1.031   5.582   4.592
 4073SOL     OW13117   3.128   6.360   6.661
 4073SOL    HW113118   3.182   6.431   6.617
 4073SOL    HW213119   3.157   6.350   6.756
 4074SOL     OW13120   0.291   3.933   1.433
 4074SOL    HW113121   0.381   3.925   1.476
 4074SOL    HW213122   0.287   3.872   1.353
 4075SOL     OW13123   4.974   1.994   1.475
 4075SOL    HW113124   4.996   2.011   1.571
 4075SOL    HW213125   4.904   2.059   1.445
 4076SOL     OW13126   2.655   3.638   6.063
 4076SOL    HW113127   2.718   3.633   5.985
 4076SOL    HW213128   2.603   3.553   6.069
 4077SOL     OW13129   3.850   1.500   6.908
 4077SOL    HW113130   3.879   1.419   6.958
 4077SOL    HW213131   3.921   1.571   6.914
 4078SOL     OW13132   0.753   5.208   1.253
 4078SOL    HW113133   0.819   5.228   1.325
 4078SOL    HW213134   0.739   5.290   1.197
 4079SOL     OW13135   1.765   0.840   3.569
 4079SOL    HW113136   1.739   0.793   3.485
 4079SOL    HW213137   1.716   0.927   3.575
 4080SOL     OW13138   4.431   4.065   6.180
 4080SOL    HW113139   4.506   4.128   6.161
 4080SOL    HW213140   4.350   4.094   6.129
 4081SOL     OW13141   2.247   2.916   4.334
 4081SOL    HW113142   2.220   2.900   4.429
 4081SOL    HW213143   2.285   3.008   4.325
 4082SOL     OW13144   1.064   3.932   0.175
 4082SOL    HW113145   1.003   3.874   0.119
 4082SOL    HW213146   1.119   3.990   0.115
 4083SOL     OW13147   6.972   2.948   2.519
 4083SOL    HW113148   6.888   2.980   2.475
 4083SOL    HW213149   6.955   2.861   2.565
 4084SOL     OW13150   5.462   2.386   3.933
 4084SOL    HW113151   5.460   2.309   3.997
 4084SOL    HW213152   5.383   2.380   3.872
 4085SOL     OW13153   2.896   5.822   1.936
 4085SOL    HW113154   2.983   5.859   1.969
 4085SOL    HW213155   2.874   5.864   1.848
 4086SOL     OW13156   1.642   5.850   1.827
 4086SOL    HW113157   1.696   5.822   1.906
 4086SOL    HW213158   1.561   5.899   1.858
 4087SOL     OW13159   1.913   1.806   3.610
 4087SOL    HW113160   1.875   1.753   3.685
 4087SOL    HW213161   1.839   1.842   3.553
 4088SOL     OW13162   0.270   1.669   0.512
 4088SOL    HW113163   0.267   1.721   0.598
 4088SOL    HW213164   0.297   1.575   0.530
 4089SOL     OW13165   6.065   6.227   4.220
 4089SOL    HW113166   6.154   6.227   4.265
 4089SOL    HW213167   6.005   6.293   4.266
 4090SOL     OW13168   1.041   4.244   5.914
 4090SOL    HW113169   1.136   4.274   5.899
 4090SOL    HW213170   0.988   4.258   5.830
 4091SOL     OW13171   0.011   6.252   0.343
 4091SOL    HW113172   0.005   6.178   0.276
 4091SOL    HW213173   6.956   6.242   0.411
 4092SOL     OW13174   6.717   2.391   5.719
 4092SOL    HW113175   6.780   2.341   5.660
 4092SOL    HW213176   6.687   2.331   5.793
 4093SOL     OW13177   4.433   0.155   2.631
 4093SOL    HW113178   4.457   0.084   2.696
 4093SOL    HW213179   4.504   0.160   2.560
 4094SOL     OW13180   2.674   6.116   4.352
 4094SOL    HW113181   2.686   6.154   4.260
 4094SOL    HW213182   2.614   6.175   4.405
 4095SOL     OW13183   0.550   3.964   0.334
 4095SOL    HW113184   0.555   4.061   0.307
 4095SOL    HW213185   0.481   3.918   0.279
 4096SOL     OW13186   4.470   5.938   5.953
 4096SOL    HW113187   4.504   5.848   5.929
 4096SOL    HW213188   4.539   5.987   6.006
 4097SOL     OW13189   3.465   4.682   5.542
 4097SOL    HW113190   3.424   4.760   5.589
 4097SOL    HW213191   3.394   4.633   5.491
 4098SOL     OW13192   0.574   3.016   1.739
 4098SOL    HW113193   0.527   3.021   1.652
 4098SOL    HW213194   0.671   3.036   1.726
 4099SOL     OW13195   2.768   5.116   1.674
 4099SOL    HW113196   2.816   5.146   1.756
 4099SOL    HW213197   2.747   5.018   1.680
 4100SOL     OW13198   6.719   5.517   4.501
 4100SOL    HW113199   6.702   5.441   4.438
 4100SOL    HW213200   6.797   5.571   4.469
 4101SOL     OW13201   6.353   1.077   0.034
 4101SOL    HW113202   6.413   1.154   0.014
 4101SOL    HW213203   6.338   1.025   6.968
 4102SOL     OW13204   6.269   0.515   0.851
 4102SOL    HW113205   6.358   0.500   0.894
 4102SOL    HW213206   6.281   0.576   0.772
 4103SOL     OW13207   0.250   0.834   0.322
 4103SOL    HW113208   0.160   0.840   0.279
 4103SOL    HW213209   0.321   0.841   0.253
 4104SOL     OW13210   0.613   4.585   2.311
 4104SOL    HW113211   0.532   4.625   2.353
 4104SOL    HW213212   0.630   4.629   2.223
 4105SOL     OW13213   4.558   0.073   1.727
 4105SOL    HW113214   4.561   7.008   1.671
 4105SOL    HW213215   4.493   0.138   1.687
 4106SOL     OW13216   6.643   2.599   3.545
 4106SOL    HW113217   6.582   2.526   3.516
 4106SOL    HW213218   6.666   2.656   3.466
 4107SOL     OW13219   1.318   5.979   1.453
 4107SOL    HW113220   1.396   6.035   1.480
 4107SOL    HW213221   1.260   5.962   1.533
 4108SOL     OW13222   6.295   4.481   5.225
 4108SOL    HW113223   6.223   4.448   5.164
 4108SOL    HW213224   6.279   4.445   5.317
 4109SOL     OW13225   5.765   6.756   5.303
 4109SOL    HW113226   5.803   6.671   5.267
 4109SOL    HW213227   5.689   6.786   5.245
 4110SOL     OW13228   4.293   3.707   6.123
 4110SOL    HW113229   4.292   3.797   6.165
 4110SOL    HW213230   4.285   3.636   6.193
 4111SOL     OW13231   3.815   3.623   6.830
 4111SOL    HW113232   3.822   3.579   6.740
 4111SOL    HW213233   3.903   3.619   6.877
 4112SOL     OW13234   4.966   6.851   5.315
 4112SOL    HW113235   4.923   6.859   5.405
 4112SOL    HW213236   5.046   6.911   5.312
 4113SOL     OW13237   4.799   6.455   4.560
 4113SOL    HW113238   4.755   6.365   4.564
 4113SOL    HW213239   4.870   6.454   4.490
 4114SOL     OW13240   3.418   2.065   4.322
 4114SOL    HW113241   3.490   2.089   4.388
 4114SOL    HW213242   3.329   2.084   4.363
 4115SOL     OW13243   3.535   4.938   2.632
 4115SOL    HW113244   3.492   4.959   2.544
 4115SOL    HW213245   3.581   4.849   2.626
 4116SOL     OW13246   3.908   2.188   1.816
 4116SOL    HW113247   3.919   2.270   1.760
 4116SOL    HW213248   3.826   2.197   1.873
 4117SOL     OW13249   1.307   4.630   2.214
 4117SOL    HW113250   1.352   4.701   2.267
 4117SOL    HW213251   1.320   4.647   2.117
 4118SOL     OW13252   2.771   6.665   0.749
 4118SOL    HW113253   2.678   6.664   0.712
 4118SOL    HW213254   2.832   6.619   0.686
 4119SOL     OW13255   3.466   1.769   3.787
 4119SOL    HW113256   3.566   1.772   3.777
 4119SOL    HW213257   3.431   1.688   3.742
 4120SOL     OW13258   3.772   6.998   0.489
 4120SOL    HW113259   3.834   0.050   0.453
 4120SOL    HW213260   3.703   6.976   0.420
 4121SOL     OW13261   6.413   0.749   4.913
 4121SOL    HW113262   6.471   0.761   4.994
 4121SOL    HW213263   6.322   0.718   4.941
 4122SOL     OW13264   0.704   5.419   5.102
 4122SOL    HW113265   0.791   5.370   5.113
 4122SOL    HW213266   0.633   5.373   5.155
 4123SOL     OW13267   4.028   4.977   6.088
 4123SOL    HW113268   3.947   4.984   6.030
 4123SOL    HW213269   4.110   4.975   6.031
 4124SOL     OW13270   5.524   5.341   6.645
 4124SOL    HW113271   5.560   5.261   6.597
 4124SOL    HW213272   5.529   5.421   6.585
 4125SOL     OW13273   4.520   1.641   2.736
 4125SOL    HW113274   4.588   1.690   2.681
 4125SOL    HW213275   4.517   1.545   2.707
 4126SOL     OW13276   1.167   3.602   4.124
 4126SOL    HW113277   1.134   3.582   4.216
 4126SOL    HW213278   1.174   3.701   4.112
 4127SOL     OW13279   4.263   4.833   4.587
 4127SOL    HW113280   4.313   4.819   4.673
 4127SOL    HW213281   4.167   4.808   4.600
 4128SOL     OW13282   1.699   3.004   2.128
 4128SOL    HW113283   1.752   3.022   2.211
 4128SOL    HW213284   1.758   3.013   2.048
 4129SOL     OW13285   4.420   1.862   6.598
 4129SOL    HW113286   4.390   1.781   6.547
 4129SOL    HW213287   4.421   1.841   6.695
 4130SOL     OW13288   6.779   2.620   5.455
 4130SOL    HW113289   6.810   2.634   5.549
 4130SOL    HW213290   6.834   2.548   5.412
 4131SOL     OW13291   1.789   0.107   2.877
 4131SOL    HW113292   1.878   0.078   2.911
 4131SOL    HW213293   1.717   0.056   2.925
 4132SOL     OW13294   5.002   4.291   3.598
 4132SOL    HW113295   4.954   4.368   3.558
 4132SOL    HW213296   4.950   4.207   3.582
 4133SOL     OW13297   3.074   0.166   1.385
 4133SOL    HW113298   3.134   0.110   1.327
 4133SOL    HW213299   3.001   0.109   1.423
 4134SOL     OW13300   2.539   3.025   0.074
 4134SOL    HW113301   2.497   3.114   0.091
 4134SOL    HW213302   2.626   3.020   0.124
 4135SOL     OW13303   1.350   1.593   3.008
 4135SOL    HW113304   1.444   1.606   2.979
 4135SOL    HW213305   1.322   1.670   3.066
 4136SOL     OW13306   1.534   2.281   2.846
 4136SOL    HW113307   1.529   2.183   2.827
 4136SOL    HW213308   1.498   2.332   2.767
 4137SOL     OW13309   0.741   4.594   0.721
 4137SOL    HW113310   0.824   4.622   0.673
 4137SOL    HW213311   0.670   4.569   0.654
 4138SOL     OW13312   3.955   5.229   3.227
 4138SOL    HW113313   3.978   5.168   3.151
 4138SOL    HW213314   3.961   5.324   3.196
 4139SOL     OW13315   2.520   2.308   5.063
 4139SOL    HW113316   2.538   2.321   4.965
 4139SOL    HW213317   2.421   2.304   5.078
 4140SOL     OW13318   2.922   0.943   5.392
 4140SOL    HW113319   2.888   1.028   5.434
 4140SOL    HW213320   2.885   0.864   5.441
 4141SOL     OW13321   5.928   6.347   1.527
 4141SOL    HW113322   5.904   6.298   1.443
 4141SOL    HW213323   5.844   6.370   1.577
 4142SOL     OW13324   6.207   5.675   0.808
 4142SOL    HW113325   6.151   5.657   0.727
 4142SOL    HW213326   6.227   5.588   0.854
 4143SOL     OW13327   6.919   2.802   0.878
 4143SOL    HW113328   6.910   2.855   0.963
 4143SOL    HW213329   7.015   2.795   0.852
 4144SOL     OW13330   4.917   4.228   5.969
 4144SOL    HW113331   4.944   4.149   5.913
 4144SOL    HW213332   4.971   4.308   5.942
 4145SOL     OW13333   6.731   5.961   1.055
 4145SOL    HW113334   6.640   5.939   1.019
 4145SOL    HW213335   6.757   6.053   1.025
 4146SOL     OW13336   6.568   0.699   5.152
 4146SOL    HW113337   6.632   0.747   5.213
 4146SOL    HW213338   6.489   0.668   5.204
 4147SOL     OW13339   4.509   3.388   5.597
 4147SOL    HW113340   4.483   3.291   5.601
 4147SOL    HW213341   4.577   3.401   5.525
 4148SOL     OW13342   0.903   0.368   5.239
 4148SOL    HW113343   0.836   0.392   5.169
 4148SOL    HW213344   0.976   0.436   5.240
 4149SOL     OW13345   6.946   2.578   0.112
 4149SOL    HW113346   6.976   2.667   0.145
 4149SOL    HW213347   6.960   2.509   0.183
 4150SOL     OW13348   0.510   0.878   5.574
 4150SOL    HW113349   0.563   0.954   5.611
 4150SOL    HW213350   0.525   0.796   5.629
 4151SOL     OW13351   3.707   6.101   5.855
 4151SOL    HW113352   3.792   6.138   5.890
 4151SOL    HW213353   3.676   6.027   5.915
 4152SOL     OW13354   3.183   6.288   1.255
 4152SOL    HW113355   3.263   6.282   1.195
 4152SOL    HW213356   3.188   6.373   1.308
 4153SOL     OW13357   4.691   4.713   0.130
 4153SOL    HW113358   4.641   4.799   0.120
 4153SOL    HW213359   4.659   4.665   0.212
 4154SOL     OW13360   0.598   4.763   4.419
 4154SOL    HW113361   0.686   4.748   4.375
 4154SOL    HW213362   0.559   4.675   4.448
 4155SOL     OW13363   6.816   1.591   2.295
 4155SOL    HW113364   6.765   1.596   2.381
 4155SOL    HW213365   6.868   1.675   2.282
 4156SOL     OW13366   5.226   6.448   4.931
 4156SOL    HW113367   5.196   6.373   4.872
 4156SOL    HW213368   5.159   6.460   5.005
 4157SOL     OW13369   4.238   6.017   4.370
 4157SOL    HW113370   4.334   6.026   4.397
 4157SOL    HW213371   4.212   6.093   4.311
 4158SOL     OW13372   1.674   4.782   3.291
 4158SOL    HW113373   1.673   4.834   3.377
 4158SOL    HW213374   1.768   4.776   3.257
 4159SOL     OW13375   2.093   3.432   4.450
 4159SOL    HW113376   2.020   3.461   4.511
 4159SOL    HW213377   2.167   3.392   4.504
 4160SOL     OW13378   6.177   0.641   0.616
 4160SOL    HW113379   6.249   0.624   0.549
 4160SOL    HW213380   6.103   0.693   0.574
 4161SOL     OW13381   0.818   0.784   6.964
 4161SOL    HW113382   0.917   0.778   6.952
 4161SOL    HW213383   0.785   0.869   6.923
 4162SOL     OW13384   6.097   6.543   6.040
 4162SOL    HW113385   6.137   6.628   6.005
 4162SOL    HW213386   6.055   6.492   5.965
 4163SOL     OW13387   6.318   6.942   3.104
 4163SOL    HW113388   6.240   6.953   3.165
 4163SOL    HW213389   6.352   6.848   3.111
 4164SOL     OW13390   1.331   6.329   6.976
 4164SOL    HW113391   1.385   6.364   6.899
 4164SOL    HW213392   1.392   6.302   0.032
 4165SOL     OW13393   4.160   0.213   6.719
 4165SOL    HW113394   4.190   0.169   6.634
 4165SOL    HW213395   4.216   0.181   6.795
 4166SOL     OW13396   6.029   3.925   1.007
 4166SOL    HW113397   6.122   3.904   0.975
 4166SOL    HW213398   5.963   3.872   0.954
 4167SOL     OW13399   1.046   4.056   0.919
 4167SOL    HW113400   1.136   4.065   0.877
 4167SOL    HW213401   0.985   4.006   0.857
 4168SOL     OW13402   6.638   5.182   1.206
 4168SOL    HW113403   6.586   5.097   1.196
 4168SOL    HW213404   6.651   5.202   1.303
 4169SOL     OW13405   5.991   4.252   3.980
 4169SOL    HW113406   6.068   4.190   3.966
 4169SOL    HW213407   6.020   4.329   4.037
 4170SOL     OW13408   3.100   4.031   4.990
 4170SOL    HW113409   3.098   4.131   4.993
 4170SOL    HW213410   3.017   3.995   5.034
 4171SOL     OW13411   4.900   5.143   1.652
 4171SOL    HW113412   4.829   5.079   1.684
 4171SOL    HW213413   4.863   5.200   1.579
 4172SOL     OW13414   0.509   1.805   5.994
 4172SOL    HW113415   0.489   1.881   5.933
 4172SOL    HW213416   0.439   1.799   6.065
 4173SOL     OW13417   5.252   3.593   5.351
 4173SOL    HW113418   5.182   3.598   5.422
 4173SOL    HW213419   5.302   3.679   5.348
 4174SOL     OW13420   5.284   0.804   3.560
 4174SOL    HW113421   5.347   0.790   3.484
 4174SOL    HW213422   5.283   0.901   3.585
 4175SOL     OW13423   2.140   5.707   4.579
 4175SOL    HW113424   2.163   5.613   4.605
 4175SOL    HW213425   2.058   5.706   4.521
 4176SOL     OW13426   2.668   6.960   2.038
 4176SOL    HW113427   2.702   6.952   2.132
 4176SOL    HW213428   2.635   6.871   2.007
 4177SOL     OW13429   6.935   4.110   4.532
 4177SOL    HW113430   6.862   4.085   4.469
 4177SOL    HW213431   6.979   4.195   4.501
 4178SOL     OW13432   4.531   1.370   4.198
 4178SOL    HW113433   4.436   1.390   4.220
 4178SOL    HW213434   4.575   1.327   4.277
 4179SOL     OW13435   5.309   2.333   3.432
 4179SOL    HW113436   5.264   2.289   3.354
 4179SOL    HW213437   5.297   2.432   3.426
 4180SOL     OW13438   5.697   3.615   1.566
 4180SOL    HW113439   5.689   3.642   1.470
 4180SOL    HW213440   5.615   3.565   1.594
 4181SOL     OW13441   2.200   1.933   6.779
 4181SOL    HW113442   2.145   1.852   6.799
 4181SOL    HW213443   2.197   1.995   6.857
 4182SOL     OW13444   0.175   6.319   2.941
 4182SOL    HW113445   0.239   6.245   2.921
 4182SOL    HW213446   0.226   6.404   2.957
 4183SOL     OW13447   4.484   0.349   0.572
 4183SOL    HW113448   4.444   0.327   0.484
 4183SOL    HW213449   4.579   0.316   0.575
 4184SOL     OW13450   4.596   5.411   1.406
 4184SOL    HW113451   4.650   5.492   1.386
 4184SOL    HW213452   4.506   5.438   1.441
 4185SOL     OW13453   1.166   5.845   1.979
 4185SOL    HW113454   1.110   5.897   2.043
 4185SOL    HW213455   1.119   5.761   1.953
 4186SOL     OW13456   1.828   4.711   1.081
 4186SOL    HW113457   1.824   4.659   1.166
 4186SOL    HW213458   1.819   4.648   1.003
 4187SOL     OW13459   3.361   4.217   5.795
 4187SOL    HW113460   3.363   4.155   5.873
 4187SOL    HW213461   3.448   4.266   5.788
 4188SOL     OW13462   5.214   6.792   4.003
 4188SOL    HW113463   5.209   6.717   4.068
 4188SOL    HW213464   5.261   6.870   4.044
 4189SOL     OW13465   3.056   0.657   5.165
 4189SOL    HW113466   3.032   0.610   5.080
 4189SOL    HW213467   3.112   0.597   5.222
 4190SOL     OW13468   0.935   0.206   0.049
 4190SOL    HW113469   0.945   0.231   6.971
 4190SOL    HW213470   0.870   0.131   0.058
 4191SOL     OW13471   5.684   3.701   2.913
 4191SOL    HW113472   5.636   3.731   2.831
 4191SOL    HW213473   5.683   3.773   2.981
 4192SOL     OW13474   0.133   0.272   3.396
 4192SOL    HW113475   0.122   0.359   3.444
 4192SOL    HW213476   0.223   0.270   3.351
 4193SOL     OW13477   2.492   6.751   2.306
 4193SOL    HW113478   2.455   6.782   2.218
 4193SOL    HW213479   2.549   6.823   2.345
 4194SOL     OW13480   6.062   0.961   5.465
 4194SOL    HW113481   5.992   0.946   5.535
 4194SOL    HW213482   6.118   1.040   5.491
 4195SOL     OW13483   4.146   0.752   1.630
 4195SOL    HW113484   4.107   0.691   1.699
 4195SOL    HW213485   4.097   0.839   1.631
 4196SOL     OW13486   6.020   2.592   3.793
 4196SOL    HW113487   5.960   2.526   3.837
 4196SOL    HW213488   6.097   2.545   3.751
 4197SOL     OW13489   5.161   5.455   5.382
 4197SOL    HW113490   5.259   5.466   5.366
 4197SOL    HW213491   5.114   5.541   5.363
 4198SOL     OW13492   5.634   2.874   6.719
 4198SOL    HW113493   5.571   2.857   6.795
 4198SOL    HW213494   5.620   2.968   6.685
 4199SOL     OW13495   1.892   4.022   6.384
 4199SOL    HW113496   1.925   3.974   6.302
 4199SOL    HW213497   1.917   4.118   6.378
 4200SOL     OW13498   3.163   6.545   4.986
 4200SOL    HW113499   3.193   6.457   5.024
 4200SOL    HW213500   3.140   6.533   4.890
 4201SOL     OW13501   5.661   5.958   4.287
 4201SOL    HW113502   5.600   5.880   4.275
 4201SOL    HW213503   5.615   6.028   4.342
 4202SOL     OW13504   3.994   6.019   5.766
 4202SOL    HW113505   4.094   6.031   5.764
 4202SOL    HW213506   3.957   6.039   5.675
 4203SOL     OW13507   4.655   5.393   1.715
 4203SOL    HW113508   4.601   5.334   1.656
 4203SOL    HW213509   4.707   5.337   1.779
 4204SOL     OW13510   3.573   3.228   2.277
 4204SOL    HW113511   3.670   3.206   2.274
 4204SOL    HW213512   3.522   3.149   2.311
 4205SOL     OW13513   3.795   5.272   4.520
 4205SOL    HW113514   3.815   5.227   4.433
 4205SOL    HW213515   3.710   5.235   4.557
 4206SOL     OW13516   5.762   0.600   5.400
 4206SOL    HW113517   5.663   0.584   5.403
 4206SOL    HW213518   5.779   0.692   5.365
 4207SOL     OW13519   2.562   1.528   1.799
 4207SOL    HW113520   2.591   1.517   1.704
 4207SOL    HW213521   2.611   1.463   1.857
 4208SOL     OW13522   1.606   2.699   6.043
 4208SOL    HW113523   1.636   2.620   6.096
 4208SOL    HW213524   1.655   2.781   6.074
 4209SOL     OW13525   0.923   1.365   5.056
 4209SOL    HW113526   0.861   1.318   5.119
 4209SOL    HW213527   0.872   1.432   5.002
 4210SOL     OW13528   2.880   3.571   2.005
 4210SOL    HW113529   2.862   3.641   1.936
 4210SOL    HW213530   2.827   3.489   1.984
 4211SOL     OW13531   3.927   5.625   5.332
 4211SOL    HW113532   3.980   5.698   5.289
 4211SOL    HW213533   3.829   5.643   5.320
 4212SOL     OW13534   5.756   2.051   2.361
 4212SOL    HW113535   5.723   1.963   2.394
 4212SOL    HW213536   5.764   2.115   2.438
 4213SOL     OW13537   2.443   1.193   2.816
 4213SOL    HW113538   2.429   1.111   2.872
 4213SOL    HW213539   2.535   1.190   2.775
 4214SOL     OW13540   0.490   4.256   5.896
 4214SOL    HW113541   0.460   4.315   5.971
 4214SOL    HW213542   0.563   4.302   5.845
 4215SOL     OW13543   6.419   5.601   4.648
 4215SOL    HW113544   6.366   5.548   4.582
 4215SOL    HW213545   6.486   5.657   4.600
 4216SOL     OW13546   2.039   1.614   2.675
 4216SOL    HW113547   2.108   1.676   2.638
 4216SOL    HW213548   2.083   1.533   2.714
 4217SOL     OW13549   6.256   6.815   2.368
 4217SOL    HW113550   6.335   6.796   2.426
 4217SOL    HW213551   6.254   6.911   2.343
 4218SOL     OW13552   4.815   7.000   1.283
 4218SOL    HW113553   4.879   0.025   1.219
 4218SOL    HW213554   4.745   0.049   1.310
 4219SOL     OW13555   2.832   5.593   4.871
 4219SOL    HW113556   2.789   5.576   4.960
 4219SOL    HW213557   2.819   5.514   4.812
 4220SOL     OW13558   6.165   2.715   3.162
 4220SOL    HW113559   6.232   2.789   3.160
 4220SOL    HW213560   6.166   2.671   3.252
 4221SOL     OW13561   6.018   5.599   6.392
 4221SOL    HW113562   6.012   5.561   6.484
 4221SOL    HW213563   5.946   5.559   6.335
 4222SOL     OW13564   6.259   2.374   2.520
 4222SOL    HW113565   6.324   2.446   2.544
 4222SOL    HW213566   6.296   2.319   2.444
 4223SOL     OW13567   3.021   3.556   4.334
 4223SOL    HW113568   2.991   3.641   4.291
 4223SOL    HW213569   3.042   3.488   4.264
 4224SOL     OW13570   5.024   2.892   3.409
 4224SOL    HW113571   4.953   2.824   3.395
 4224SOL    HW213572   5.063   2.919   3.321
 4225SOL     OW13573   4.873   0.192   5.457
 4225SOL    HW113574   4.950   0.244   5.418
 4225SOL    HW213575   4.903   0.147   5.541
 4226SOL     OW13576   1.008   0.794   3.205
 4226SOL    HW113577   1.059   0.711   3.228
 4226SOL    HW213578   0.967   0.832   3.287
 4227SOL     OW13579   3.449   4.984   6.911
 4227SOL    HW113580   3.454   4.898   6.860
 4227SOL    HW213581   3.528   5.041   6.887
 4228SOL     OW13582   6.836   4.300   2.949
 4228SOL    HW113583   6.878   4.370   3.006
 4228SOL    HW213584   6.741   4.287   2.976
 4229SOL     OW13585   4.653   4.800   5.592
 4229SOL    HW113586   4.685   4.891   5.563
 4229SOL    HW213587   4.722   4.732   5.568
 4230SOL     OW13588   2.349   0.751   4.830
 4230SOL    HW113589   2.274   0.709   4.779
 4230SOL    HW213590   2.320   0.771   4.923
 4231SOL     OW13591   5.291   6.696   4.845
 4231SOL    HW113592   5.252   6.613   4.887
 4231SOL    HW213593   5.314   6.761   4.917
 4232SOL     OW13594   0.376   4.575   1.947
 4232SOL    HW113595   0.446   4.622   2.002
 4232SOL    HW213596   0.419   4.534   1.866
 4233SOL     OW13597   6.773   0.129   6.790
 4233SOL    HW113598   6.771   0.034   6.760
 4233SOL    HW213599   6.756   0.134   6.889
 4234SOL     OW13600   1.120   0.619   5.716
 4234SOL    HW113601   1.045   0.592   5.776
 4234SOL    HW213602   1.117   0.718   5.701
 4235SOL     OW13603   6.491   3.620   5.224
 4235SOL    HW113604   6.400   3.593   5.255
 4235SOL    HW213605   6.545   3.649   5.303
 4236SOL     OW13606   0.260   3.357   3.074
 4236SOL    HW113607   0.178   3.414   3.073
 4236SOL    HW213608   0.234   3.261   3.062
 4237SOL     OW13609   6.273   4.648   3.994
 4237SOL    HW113610   6.209   4.677   3.922
 4237SOL    HW213611   6.358   4.701   3.986
 4238SOL     OW13612   4.260   5.066   3.918
 4238SOL    HW113613   4.270   4.967   3.929
 4238SOL    HW213614   4.199   5.085   3.841
 4239SOL     OW13615   5.775   0.758   4.010
 4239SOL    HW113616   5.721   0.815   4.072
 4239SOL    HW213617   5.713   0.705   3.952
 4240SOL     OW13618   2.005   6.714   6.633
 4240SOL    HW113619   2.099   6.722   6.666
 4240SOL    HW213620   1.978   6.618   6.631
 4241SOL     OW13621   5.031   0.870   0.544
 4241SOL    HW113622   4.971   0.949   0.559
 4241SOL    HW213623   5.030   0.812   0.625
 4242SOL     OW13624   1.948   0.336   3.024
 4242SOL    HW113625   1.873   0.329   2.959
 4242SOL    HW213626   1.940   0.263   3.092
 4243SOL     OW13627   0.899   3.650   3.306
 4243SOL    HW113628   0.908   3.584   3.231
 4243SOL    HW213629   0.983   3.649   3.361
 4244SOL     OW13630   4.197   5.293   0.973
 4244SOL    HW113631   4.272   5.288   0.907
 4244SOL    HW213632   4.218   5.233   1.051
 4245SOL     OW13633   0.241   1.615   6.789
 4245SOL    HW113634   0.300   1.597   6.710
 4245SOL    HW213635   0.176   1.687   6.765
 4246SOL     OW13636   5.861   3.009   3.517
 4246SOL    HW113637   5.945   2.999   3.464
 4246SOL    HW213638   5.831   2.920   3.550
 4247SOL     OW13639   2.509   5.247   4.454
 4247SOL    HW113640   2.525   5.338   4.491
 4247SOL    HW213641   2.563   5.180   4.504
 4248SOL     OW13642   1.451   0.925   2.982
 4248SOL    HW113643   1.359   0.950   3.011
 4248SOL    HW213644   1.466   0.956   2.888
 4249SOL     OW13645   6.535   1.201   3.202
 4249SOL    HW113646   6.464   1.142   3.241
 4249SOL    HW213647   6.551   1.279   3.264
 4250SOL     OW13648   0.279   5.871   3.687
 4250SOL    HW113649   0.289   5.968   3.709
 4250SOL    HW213650   0.187   5.853   3.654
 4251SOL     OW13651   6.374   2.839   0.067
 4251SOL    HW113652   6.391   2.936   0.084
 4251SOL    HW213653   6.455   2.786   0.092
 4252SOL     OW13654   5.512   6.027   6.271
 4252SOL    HW113655   5.559   5.986   6.350
 4252SOL    HW213656   5.493   6.123   6.290
 4253SOL     OW13657   4.143   6.078   2.224
 4253SOL    HW113658   4.154   5.985   2.189
 4253SOL    HW213659   4.047   6.104   2.220
 4254SOL     OW13660   2.103   4.580   2.006
 4254SOL    HW113661   2.164   4.569   1.927
 4254SOL    HW213662   2.023   4.633   1.979
 4255SOL     OW13663   0.340   4.056   4.162
 4255SOL    HW113664   0.377   3.998   4.234
 4255SOL    HW213665   0.411   4.077   4.095
 4256SOL     OW13666   1.415   5.969   1.906
 4256SOL    HW113667   1.360   6.049   1.883
 4256SOL    HW213668   1.360   5.904   1.958
 4257SOL     OW13669   5.732   0.976   4.418
 4257SOL    HW113670   5.785   1.033   4.480
 4257SOL    HW213671   5.666   0.922   4.470
 4258SOL     OW13672   3.111   5.967   1.530
 4258SOL    HW113673   3.044   5.977   1.457
 4258SOL    HW213674   3.198   5.936   1.492
 4259SOL     OW13675   1.854   6.592   0.951
 4259SOL    HW113676   1.843   6.623   1.045
 4259SOL    HW213677   1.945   6.620   0.918
 4260SOL     OW13678   5.515   6.918   4.063
 4260SOL    HW113679   5.557   7.009   4.069
 4260SOL    HW213680   5.583   6.850   4.037
 4261SOL     OW13681   1.580   0.617   2.710
 4261SOL    HW113682   1.482   0.600   2.705
 4261SOL    HW213683   1.606   0.636   2.805
 4262SOL     OW13684   1.308   4.323   5.866
 4262SOL    HW113685   1.328   4.416   5.835
 4262SOL    HW213686   1.351   4.308   5.955
 4263SOL     OW13687   2.568   1.348   3.430
 4263SOL    HW113688   2.662   1.381   3.437
 4263SOL    HW213689   2.553   1.307   3.340
 4264SOL     OW13690   5.948   1.802   3.947
 4264SOL    HW113691   6.033   1.774   3.992
 4264SOL    HW213692   5.874   1.801   4.014
 4265SOL     OW13693   3.734   0.625   0.527
 4265SOL    HW113694   3.748   0.589   0.619
 4265SOL    HW213695   3.778   0.714   0.518
 4266SOL     OW13696   1.155   6.736   0.192
 4266SOL    HW113697   1.084   6.673   0.223
 4266SOL    HW213698   1.112   6.822   0.162
 4267SOL     OW13699   1.814   3.446   3.811
 4267SOL    HW113700   1.905   3.467   3.775
 4267SOL    HW213701   1.762   3.397   3.741
 4268SOL     OW13702   2.200   5.314   0.055
 4268SOL    HW113703   2.141   5.237   0.081
 4268SOL    HW213704   2.246   5.292   6.987
 4269SOL     OW13705   2.822   1.178   3.881
 4269SOL    HW113706   2.889   1.244   3.916
 4269SOL    HW213707   2.786   1.210   3.793
 4270SOL     OW13708   3.249   2.882   1.968
 4270SOL    HW113709   3.291   2.905   1.880
 4270SOL    HW213710   3.203   2.793   1.961
 4271SOL     OW13711   7.014   0.866   0.095
 4271SOL    HW113712   0.007   0.956   0.136
 4271SOL    HW213713   0.029   0.869   7.018
 4272SOL     OW13714   6.870   3.097   5.118
 4272SOL    HW113715   6.938   3.110   5.190
 4272SOL    HW213716   6.809   3.022   5.141
 4273SOL     OW13717   4.990   6.076   5.017
 4273SOL    HW113718   4.898   6.103   5.046
 4273SOL    HW213719   5.058   6.121   5.074
 4274SOL     OW13720   0.926   0.214   2.235
 4274SOL    HW113721   0.861   0.187   2.306
 4274SOL    HW213722   0.989   0.283   2.271
 4275SOL     OW13723   0.551   1.935   4.049
 4275SOL    HW113724   0.589   1.923   4.140
 4275SOL    HW213725   0.613   1.992   3.994
 4276SOL     OW13726   2.786   5.330   3.623
 4276SOL    HW113727   2.843   5.264   3.672
 4276SOL    HW213728   2.825   5.347   3.532
 4277SOL     OW13729   0.004   4.193   2.776
 4277SOL    HW113730   6.950   4.230   2.835
 4277SOL    HW213731   7.001   4.216   2.681
 4278SOL     OW13732   0.768   6.903   3.517
 4278SOL    HW113733   0.738   6.969   3.448
 4278SOL    HW213734   0.695   6.889   3.584
 4279SOL     OW13735   1.182   1.121   2.315
 4279SOL    HW113736   1.165   1.213   2.351
 4279SOL    HW213737   1.218   1.128   2.222
 4280SOL     OW13738   6.097   6.972   6.072
 4280SOL    HW113739   6.027   0.006   6.022
 4280SOL    HW213740   6.125   0.006   6.152
 4281SOL     OW13741   5.198   4.955   3.721
 4281SOL    HW113742   5.245   4.904   3.793
 4281SOL    HW213743   5.099   4.943   3.730
 4282SOL     OW13744   2.995   4.949   0.934
 4282SOL    HW113745   3.092   4.974   0.929
 4282SOL    HW213746   2.959   4.974   1.023
 4283SOL     OW13747   4.737   1.227   3.771
 4283SOL    HW113748   4.643   1.193   3.776
 4283SOL    HW213749   4.747   1.307   3.830
 4284SOL     OW13750   4.654   5.549   0.337
 4284SOL    HW113751   4.705   5.576   0.419
 4284SOL    HW213752   4.595   5.624   0.308
 4285SOL     OW13753   2.654   0.931   6.078
 4285SOL    HW113754   2.742   0.887   6.098
 4285SOL    HW213755   2.580   0.866   6.096
 4286SOL     OW13756   6.020   0.051   6.366
 4286SOL    HW113757   5.992   0.102   6.285
 4286SOL    HW213758   5.957   6.992   6.380
 4287SOL     OW13759   4.730   1.344   6.185
 4287SOL    HW113760   4.643   1.294   6.184
 4287SOL    HW213761   4.763   1.354   6.091
 4288SOL     OW13762   0.377   6.122   2.905
 4288SOL    HW113763   0.420   6.169   2.828
 4288SOL    HW213764   0.444   6.107   2.977
 4289SOL     OW13765   1.624   2.485   6.232
 4289SOL    HW113766   1.539   2.509   6.280
 4289SOL    HW213767   1.698   2.477   6.298
 4290SOL     OW13768   0.532   6.869   4.863
 4290SOL    HW113769   0.577   6.781   4.846
 4290SOL    HW213770   0.537   6.890   4.960
 4291SOL     OW13771   4.962   3.721   6.270
 4291SOL    HW113772   5.032   3.778   6.226
 4291SOL    HW213773   4.915   3.667   6.200
 4292SOL     OW13774   6.292   3.329   6.974
 4292SOL    HW113775   6.261   3.422   6.994
 4292SOL    HW213776   6.238   3.290   6.900
 4293SOL     OW13777   3.740   4.194   6.562
 4293SOL    HW113778   3.716   4.211   6.467
 4293SOL    HW213779   3.839   4.197   6.572
 4294SOL     OW13780   2.070   1.528   5.992
 4294SOL    HW113781   2.118   1.493   6.072
 4294SOL    HW213782   2.079   1.464   5.916
 4295SOL     OW13783   4.547   6.541   2.936
 4295SOL    HW113784   4.463   6.592   2.918
 4295SOL    HW213785   4.548   6.511   3.032
 4296SOL     OW13786   3.273   6.934   0.553
 4296SOL    HW113787   3.322   6.902   0.634
 4296SOL    HW213788   3.336   6.986   0.495
 4297SOL     OW13789   6.694   6.625   2.919
 4297SOL    HW113790   6.671   6.530   2.936
 4297SOL    HW213791   6.786   6.631   2.880
 4298SOL     OW13792   3.383   6.400   2.065
 4298SOL    HW113793   3.384   6.336   2.142
 4298SOL    HW213794   3.327   6.363   1.991
 4299SOL     OW13795   1.274   3.287   0.344
 4299SOL    HW113796   1.353   3.296   0.282
 4299SOL    HW213797   1.281   3.202   0.396
 4300SOL     OW13798   2.651   6.730   0.414
 4300SOL    HW113799   2.600   6.699   0.494
 4300SOL    HW213800   2.720   6.797   0.442
 4301SOL     OW13801   3.881   0.359   1.579
 4301SOL    HW113802   3.891   0.428   1.507
 4301SOL    HW213803   3.910   0.270   1.543
 4302SOL     OW13804   6.437   0.414   6.891
 4302SOL    HW113805   6.517   0.370   6.848
 4302SOL    HW213806   6.409   0.361   6.971
 4303SOL     OW13807   0.054   4.780   3.540
 4303SOL    HW113808   0.053   4.748   3.634
 4303SOL    HW213809   0.136   4.747   3.494
 4304SOL     OW13810   3.882   3.924   1.747
 4304SOL    HW113811   3.849   3.856   1.812
 4304SOL    HW213812   3.974   3.899   1.716
 4305SOL     OW13813   0.514   6.748   5.780
 4305SOL    HW113814   0.428   6.729   5.826
 4305SOL    HW213815   0.589   6.705   5.830
 4306SOL     OW13816   4.982   4.798   4.537
 4306SOL    HW113817   4.974   4.735   4.615
 4306SOL    HW213818   4.930   4.762   4.460
 4307SOL     OW13819   5.342   3.330   5.325
 4307SOL    HW113820   5.305   3.423   5.334
 4307SOL    HW213821   5.271   3.270   5.289
 4308SOL     OW13822   5.501   5.130   1.492
 4308SOL    HW113823   5.513   5.035   1.463
 4308SOL    HW213824   5.418   5.138   1.547
 4309SOL     OW13825   1.582   3.017   0.620
 4309SOL    HW113826   1.546   3.067   0.699
 4309SOL    HW213827   1.666   2.969   0.646
 4310SOL     OW13828   1.428   2.936   2.079
 4310SOL    HW113829   1.401   2.970   1.989
 4310SOL    HW213830   1.522   2.963   2.098
 4311SOL     OW13831   1.083   6.580   1.994
 4311SOL    HW113832   1.103   6.520   1.916
 4311SOL    HW213833   1.096   6.528   2.079
 4312SOL     OW13834   1.466   5.529   3.250
 4312SOL    HW113835   1.525   5.596   3.295
 4312SOL    HW213836   1.374   5.534   3.290
 4313SOL     OW13837   3.491   2.277   0.313
 4313SOL    HW113838   3.465   2.255   0.218
 4313SOL    HW213839   3.474   2.374   0.330
 4314SOL     OW13840   5.965   2.223   4.912
 4314SOL    HW113841   5.963   2.143   4.972
 4314SOL    HW213842   5.992   2.196   4.820
 4315SOL     OW13843   1.711   1.139   3.316
 4315SOL    HW113844   1.668   1.126   3.405
 4315SOL    HW213845   1.781   1.210   3.323
 4316SOL     OW13846   5.319   0.212   2.863
 4316SOL    HW113847   5.242   0.153   2.887
 4316SOL    HW213848   5.386   0.160   2.811
 4317SOL     OW13849   4.738   1.067   5.594
 4317SOL    HW113850   4.799   1.001   5.551
 4317SOL    HW213851   4.779   1.159   5.588
 4318SOL     OW13852   0.692   0.986   4.399
 4318SOL    HW113853   0.648   0.897   4.385
 4318SOL    HW213854   0.726   1.021   4.312
 4319SOL     OW13855   2.131   1.880   1.187
 4319SOL    HW113856   2.109   1.964   1.237
 4319SOL    HW213857   2.229   1.861   1.197
 4320SOL     OW13858   3.938   5.933   1.215
 4320SOL    HW113859   3.940   6.031   1.235
 4320SOL    HW213860   3.844   5.905   1.195
 4321SOL     OW13861   0.049   5.192   3.263
 4321SOL    HW113862   0.040   5.192   3.163
 4321SOL    HW213863   0.071   5.099   3.294
 4322SOL     OW13864   6.542   3.144   5.918
 4322SOL    HW113865   6.476   3.209   5.955
 4322SOL    HW213866   6.622   3.194   5.883
 4323SOL     OW13867   4.307   5.248   6.992
 4323SOL    HW113868   4.406   5.258   6.991
 4323SOL    HW213869   4.273   5.257   0.068
 4324SOL     OW13870   6.801   4.156   5.093
 4324SOL    HW113871   6.784   4.058   5.104
 4324SOL    HW213872   6.734   4.195   5.031
 4325SOL     OW13873   2.824   1.725   2.312
 4325SOL    HW113874   2.807   1.817   2.276
 4325SOL    HW213875   2.908   1.688   2.273
 4326SOL     OW13876   6.051   3.691   2.019
 4326SOL    HW113877   6.145   3.658   2.026
 4326SOL    HW213878   6.042   3.748   1.937
 4327SOL     OW13879   4.213   5.967   3.143
 4327SOL    HW113880   4.274   6.014   3.079
 4327SOL    HW213881   4.267   5.918   3.211
 4328SOL     OW13882   6.082   4.467   4.801
 4328SOL    HW113883   6.100   4.540   4.867
 4328SOL    HW213884   6.169   4.430   4.768
 4329SOL     OW13885   6.106   3.416   5.572
 4329SOL    HW113886   6.012   3.389   5.591
 4329SOL    HW213887   6.168   3.339   5.590
 4330SOL     OW13888   1.707   6.556   4.368
 4330SOL    HW113889   1.779   6.492   4.342
 4330SOL    HW213890   1.619   6.509   4.368
 4331SOL     OW13891   0.144   0.362   1.184
 4331SOL    HW113892   0.183   0.270   1.180
 4331SOL    HW213893   0.206   0.427   1.140
 4332SOL     OW13894   6.568   3.275   3.076
 4332SOL    HW113895   6.505   3.323   3.137
 4332SOL    HW213896   6.662   3.302   3.097
 4333SOL     OW13897   4.387   2.010   4.791
 4333SOL    HW113898   4.477   1.971   4.770
 4333SOL    HW213899   4.329   2.007   4.710
 4334SOL     OW13900   1.506   2.669   2.467
 4334SOL    HW113901   1.501   2.752   2.413
 4334SOL    HW213902   1.525   2.692   2.563
 4335SOL     OW13903   3.676   3.167   1.576
 4335SOL    HW113904   3.766   3.188   1.613
 4335SOL    HW213905   3.611   3.154   1.650
 4336SOL     OW13906   2.307   4.666   5.379
 4336SOL    HW113907   2.346   4.675   5.470
 4336SOL    HW213908   2.323   4.574   5.345
 4337SOL     OW13909   1.521   5.348   1.504
 4337SOL    HW113910   1.548   5.443   1.522
 4337SOL    HW213911   1.456   5.318   1.574
 4338SOL     OW13912   5.821   0.396   6.385
 4338SOL    HW113913   5.785   0.314   6.430
 4338SOL    HW213914   5.747   0.461   6.369
 4339SOL     OW13915   3.314   2.655   6.536
 4339SOL    HW113916   3.267   2.739   6.564
 4339SOL    HW213917   3.257   2.606   6.469
 4340SOL     OW13918   5.478   3.112   1.172
 4340SOL    HW113919   5.435   3.202   1.174
 4340SOL    HW213920   5.422   3.049   1.118
 4341SOL     OW13921   1.344   5.147   1.878
 4341SOL    HW113922   1.255   5.102   1.893
 4341SOL    HW213923   1.393   5.153   1.965
 4342SOL     OW13924   5.418   3.617   2.948
 4342SOL    HW113925   5.506   3.639   2.906
 4342SOL    HW213926   5.345   3.626   2.881
 4343SOL     OW13927   3.064   6.230   5.458
 4343SOL    HW113928   3.055   6.210   5.555
 4343SOL    HW213929   3.111   6.318   5.446
 4344SOL     OW13930   0.998   3.156   3.300
 4344SOL    HW113931   0.976   3.131   3.205
 4344SOL    HW213932   0.913   3.167   3.352
 4345SOL     OW13933   2.949   3.559   3.523
 4345SOL    HW113934   3.027   3.497   3.531
 4345SOL    HW213935   2.938   3.610   3.609
 4346SOL     OW13936   2.236   2.692   2.375
 4346SOL    HW113937   2.312   2.643   2.333
 4346SOL    HW213938   2.195   2.754   2.308
 4347SOL     OW13939   6.415   5.904   2.439
 4347SOL    HW113940   6.474   5.835   2.479
 4347SOL    HW213941   6.467   5.957   2.371
 4348SOL     OW13942   0.685   6.029   4.537
 4348SOL    HW113943   0.731   5.981   4.611
 4348SOL    HW213944   0.620   5.967   4.492
 4349SOL     OW13945   6.932   3.350   3.900
 4349SOL    HW113946   6.880   3.266   3.887
 4349SOL    HW213947   6.906   3.393   3.987
 4350SOL     OW13948   5.314   2.167   4.504
 4350SOL    HW113949   5.338   2.178   4.600
 4350SOL    HW213950   5.385   2.210   4.447
 4351SOL     OW13951   1.256   6.212   1.304
 4351SOL    HW113952   1.263   6.121   1.346
 4351SOL    HW213953   1.323   6.220   1.230
 4352SOL     OW13954   6.241   3.912   2.121
 4352SOL    HW113955   6.272   3.961   2.203
 4352SOL    HW213956   6.175   3.842   2.148
 4353SOL     OW13957   2.959   4.253   0.138
 4353SOL    HW113958   2.925   4.161   0.118
 4353SOL    HW213959   2.883   4.318   0.135
 4354SOL     OW13960   0.725   1.631   5.956
 4354SOL    HW113961   0.691   1.614   5.863
 4354SOL    HW213962   0.669   1.702   5.999
 4355SOL     OW13963   1.602   6.987   3.020
 4355SOL    HW113964   1.648   6.919   3.077
 4355SOL    HW213965   1.520   0.002   3.067
 4356SOL     OW13966   4.300   3.321   5.306
 4356SOL    HW113967   4.253   3.397   5.261
 4356SOL    HW213968   4.394   3.349   5.328
 4357SOL     OW13969   0.044   1.515   1.223
 4357SOL    HW113970   6.966   1.543   1.224
 4357SOL    HW213971   0.059   1.445   1.294
 4358SOL     OW13972   6.927   0.014   0.230
 4358SOL    HW113973   6.966   0.105   0.245
 4358SOL    HW213974   6.936   7.007   0.134
 4359SOL     OW13975   1.569   0.998   6.575
 4359SOL    HW113976   1.631   0.955   6.509
 4359SOL    HW213977   1.590   1.095   6.584
 4360SOL     OW13978   0.769   2.654   4.033
 4360SOL    HW113979   0.757   2.674   3.935
 4360SOL    HW213980   0.767   2.740   4.085
 4361SOL     OW13981   2.267   3.232   1.338
 4361SOL    HW113982   2.213   3.208   1.258
 4361SOL    HW213983   2.213   3.291   1.398
 4362SOL     OW13984   0.339   6.114   4.204
 4362SOL    HW113985   0.418   6.144   4.256
 4362SOL    HW213986   0.367   6.088   4.112
 4363SOL     OW13987   4.493   1.191   1.615
 4363SOL    HW113988   4.541   1.273   1.644
 4363SOL    HW213989   4.395   1.201   1.633
 4364SOL     OW13990   3.271   3.747   2.823
 4364SOL    HW113991   3.338   3.673   2.816
 4364SOL    HW213992   3.194   3.727   2.761
 4365SOL     OW13993   3.178   1.364   1.688
 4365SOL    HW113994   3.212   1.302   1.618
 4365SOL    HW213995   3.189   1.323   1.779
 4366SOL     OW13996   6.177   6.384   6.630
 4366SOL    HW113997   6.128   6.465   6.599
 4366SOL    HW213998   6.139   6.303   6.585
 4367SOL     OW13999   3.143   5.117   3.384
 4367SOL    HW114000   3.128   5.211   3.416
 4367SOL    HW214001   3.193   5.067   3.454
 4368SOL     OW14002   3.986   5.553   2.701
 4368SOL    HW114003   3.970   5.527   2.606
 4368SOL    HW214004   4.080   5.530   2.727
 4369SOL     OW14005   5.040   5.904   3.536
 4369SOL    HW114006   5.130   5.872   3.565
 4369SOL    HW214007   4.970   5.865   3.595
 4370SOL     OW14008   3.452   4.053   1.478
 4370SOL    HW114009   3.387   4.017   1.411
 4370SOL    HW214010   3.500   3.978   1.522
 4371SOL     OW14011   2.307   1.373   2.551
 4371SOL    HW114012   2.231   1.393   2.490
 4371SOL    HW214013   2.288   1.411   2.642
 4372SOL     OW14014   2.156   3.235   3.950
 4372SOL    HW114015   2.152   3.187   4.038
 4372SOL    HW214016   2.159   3.169   3.875
 4373SOL     OW14017   4.180   1.312   6.444
 4373SOL    HW114018   4.273   1.302   6.479
 4373SOL    HW214019   4.115   1.287   6.516
 4374SOL     OW14020   1.891   1.693   1.260
 4374SOL    HW114021   1.944   1.777   1.267
 4374SOL    HW214022   1.866   1.661   1.351
 4375SOL     OW14023   3.674   6.355   2.822
 4375SOL    HW114024   3.577   6.370   2.806
 4375SOL    HW214025   3.721   6.344   2.735
 4376SOL     OW14026   6.688   6.912   1.762
 4376SOL    HW114027   6.685   7.008   1.788
 4376SOL    HW214028   6.753   6.863   1.821
 4377SOL     OW14029   6.302   5.060   0.468
 4377SOL    HW114030   6.339   5.021   0.383
 4377SOL    HW214031   6.376   5.077   0.532
 4378SOL     OW14032   1.272   4.579   2.712
 4378SOL    HW114033   1.272   4.608   2.808
 4378SOL    HW214034   1.180   4.589   2.675
 4379SOL     OW14035   2.397   0.913   2.094
 4379SOL    HW114036   2.471   0.968   2.056
 4379SOL    HW214037   2.318   0.916   2.032
 4380SOL     OW14038   2.075   5.833   5.111
 4380SOL    HW114039   2.047   5.820   5.016
 4380SOL    HW214040   2.075   5.745   5.159
 4381SOL     OW14041   2.137   4.432   4.652
 4381SOL    HW114042   2.179   4.399   4.567
 4381SOL    HW214043   2.166   4.375   4.729
 4382SOL     OW14044   6.193   4.158   5.743
 4382SOL    HW114045   6.145   4.078   5.706
 4382SOL    HW214046   6.183   4.161   5.842
 4383SOL     OW14047   0.402   1.791   5.476
 4383SOL    HW114048   0.441   1.726   5.410
 4383SOL    HW214049   0.380   1.877   5.429
 4384SOL     OW14050   5.199   1.252   0.051
 4384SOL    HW114051   5.175   1.233   0.146
 4384SOL    HW214052   5.293   1.287   0.047
 4385SOL     OW14053   0.178   2.817   4.147
 4385SOL    HW114054   0.186   2.776   4.237
 4385SOL    HW214055   0.163   2.746   4.079
 4386SOL     OW14056   1.289   3.289   6.398
 4386SOL    HW114057   1.216   3.243   6.348
 4386SOL    HW214058   1.364   3.311   6.336
 4387SOL     OW14059   0.686   2.304   2.131
 4387SOL    HW114060   0.674   2.297   2.032
 4387SOL    HW214061   0.761   2.368   2.150
 4388SOL     OW14062   4.293   1.617   6.528
 4388SOL    HW114063   4.205   1.633   6.483
 4388SOL    HW214064   4.280   1.552   6.603
 4389SOL     OW14065   5.507   2.573   0.556
 4389SOL    HW114066   5.513   2.531   0.466
 4389SOL    HW214067   5.418   2.619   0.565
 4390SOL     OW14068   4.123   2.011   2.083
 4390SOL    HW114069   4.106   2.072   2.005
 4390SOL    HW214070   4.213   2.031   2.122
 4391SOL     OW14071   1.547   5.967   5.990
 4391SOL    HW114072   1.575   6.058   5.959
 4391SOL    HW214073   1.626   5.905   5.990
 4392SOL     OW14074   6.082   4.211   5.159
 4392SOL    HW114075   6.081   4.153   5.240
 4392SOL    HW214076   6.164   4.193   5.106
 4393SOL     OW14077   5.111   6.500   2.698
 4393SOL    HW114078   5.096   6.436   2.774
 4393SOL    HW214079   5.171   6.574   2.728
 4394SOL     OW14080   6.533   5.277   3.381
 4394SOL    HW114081   6.626   5.306   3.361
 4394SOL    HW214082   6.534   5.198   3.442
 4395SOL     OW14083   4.176   2.086   1.543
 4395SOL    HW114084   4.109   2.015   1.564
 4395SOL    HW214085   4.129   2.170   1.516
 4396SOL     OW14086   2.466   1.861   3.676
 4396SOL    HW114087   2.526   1.935   3.646
 4396SOL    HW214088   2.509   1.810   3.750
 4397SOL     OW14089   0.126   1.827   4.304
 4397SOL    HW114090   0.180   1.892   4.251
 4397SOL    HW214091   0.031   1.856   4.305
 4398SOL     OW14092   1.102   4.263   5.107
 4398SOL    HW114093   1.006   4.291   5.105
 4398SOL    HW214094   1.112   4.177   5.057
 4399SOL     OW14095   2.208   0.939   1.457
 4399SOL    HW114096   2.291   0.884   1.461
 4399SOL    HW214097   2.232   1.034   1.437
 4400SOL     OW14098   2.104   6.986   4.603
 4400SOL    HW114099   2.140   0.055   4.638
 4400SOL    HW214100   2.140   6.910   4.657
 4401SOL     OW14101   5.446   5.900   6.035
 4401SOL    HW114102   5.460   5.955   6.117
 4401SOL    HW214103   5.350   5.904   6.008
 4402SOL     OW14104   1.965   6.249   2.681
 4402SOL    HW114105   2.000   6.157   2.665
 4402SOL    HW214106   1.907   6.249   2.763
 4403SOL     OW14107   0.162   6.507   3.591
 4403SOL    HW114108   0.151   6.491   3.689
 4403SOL    HW214109   0.150   6.605   3.572
 4404SOL     OW14110   1.326   3.662   5.328
 4404SOL    HW114111   1.418   3.687   5.358
 4404SOL    HW214112   1.266   3.654   5.408
 4405SOL     OW14113   3.232   4.513   0.286
 4405SOL    HW114114   3.187   4.429   0.317
 4405SOL    HW214115   3.163   4.576   0.250
 4406SOL     OW14116   5.505   4.836   1.369
 4406SOL    HW114117   5.513   4.791   1.280
 4406SOL    HW214118   5.409   4.841   1.396
 4407SOL     OW14119   0.157   4.701   0.921
 4407SOL    HW114120   0.063   4.684   0.890
 4407SOL    HW214121   0.189   4.788   0.883
 4408SOL     OW14122   4.986   0.930   0.260
 4408SOL    HW114123   4.965   1.010   0.316
 4408SOL    HW214124   5.050   0.870   0.309
 4409SOL     OW14125   4.011   0.717   1.910
 4409SOL    HW114126   3.997   0.645   1.978
 4409SOL    HW214127   4.052   0.796   1.954
 4410SOL     OW14128   2.137   4.614   0.047
 4410SOL    HW114129   2.140   4.562   0.132
 4410SOL    HW214130   2.121   4.552   6.988
 4411SOL     OW14131   4.057   3.565   3.319
 4411SOL    HW114132   4.095   3.507   3.391
 4411SOL    HW214133   4.079   3.661   3.338
 4412SOL     OW14134   3.313   1.741   4.331
 4412SOL    HW114135   3.327   1.762   4.428
 4412SOL    HW214136   3.384   1.786   4.277
 4413SOL     OW14137   5.081   5.806   5.084
 4413SOL    HW114138   5.180   5.823   5.086
 4413SOL    HW214139   5.035   5.883   5.039
 4414SOL     OW14140   4.495   5.317   2.085
 4414SOL    HW114141   4.445   5.244   2.132
 4414SOL    HW214142   4.493   5.400   2.142
 4415SOL     OW14143   4.019   3.606   6.517
 4415SOL    HW114144   3.928   3.596   6.478
 4415SOL    HW214145   4.023   3.689   6.573
 4416SOL     OW14146   2.624   0.865   4.248
 4416SOL    HW114147   2.635   0.807   4.328
 4416SOL    HW214148   2.601   0.808   4.169
 4417SOL     OW14149   6.709   4.119   2.531
 4417SOL    HW114150   6.683   4.212   2.556
 4417SOL    HW214151   6.690   4.057   2.607
 4418SOL     OW14152   5.045   0.072   4.110
 4418SOL    HW114153   5.111   0.014   4.158
 4418SOL    HW214154   5.091   0.155   4.080
 4419SOL     OW14155   5.604   5.721   0.751
 4419SOL    HW114156   5.633   5.719   0.655
 4419SOL    HW214157   5.601   5.816   0.783
 4420SOL     OW14158   4.943   2.037   0.502
 4420SOL    HW114159   4.957   2.124   0.550
 4420SOL    HW214160   4.936   1.963   0.569
 4421SOL     OW14161   2.010   0.880   3.211
 4421SOL    HW114162   1.926   0.914   3.254
 4421SOL    HW214163   2.082   0.872   3.279
 4422SOL     OW14164   2.520   3.770   5.537
 4422SOL    HW114165   2.522   3.771   5.637
 4422SOL    HW214166   2.607   3.738   5.502
 4423SOL     OW14167   1.399   2.889   5.831
 4423SOL    HW114168   1.469   2.819   5.819
 4423SOL    HW214169   1.353   2.905   5.744
 4424SOL     OW14170   5.732   6.710   3.519
 4424SOL    HW114171   5.771   6.627   3.557
 4424SOL    HW214172   5.642   6.690   3.479
 4425SOL     OW14173   3.603   5.881   6.021
 4425SOL    HW114174   3.522   5.853   5.970
 4425SOL    HW214175   3.583   5.879   6.119
 4426SOL     OW14176   6.670   1.838   4.445
 4426SOL    HW114177   6.701   1.778   4.518
 4426SOL    HW214178   6.748   1.886   4.406
 4427SOL     OW14179   0.114   6.758   2.990
 4427SOL    HW114180   0.169   6.832   2.953
 4427SOL    HW214181   0.017   6.783   2.989
 4428SOL     OW14182   2.972   5.458   3.131
 4428SOL    HW114183   3.040   5.416   3.070
 4428SOL    HW214184   2.882   5.452   3.090
 4429SOL     OW14185   2.931   0.354   3.897
 4429SOL    HW114186   2.856   0.333   3.835
 4429SOL    HW214187   2.897   0.407   3.974
 4430SOL     OW14188   5.083   3.011   3.868
 4430SOL    HW114189   5.156   3.014   3.936
 4430SOL    HW214190   5.105   2.941   3.799
 4431SOL     OW14191   1.626   1.331   2.027
 4431SOL    HW114192   1.621   1.427   2.001
 4431SOL    HW214193   1.571   1.315   2.109
 4432SOL     OW14194   3.396   4.125   3.412
 4432SOL    HW114195   3.459   4.201   3.424
 4432SOL    HW214196   3.329   4.125   3.486
 4433SOL     OW14197   6.235   0.617   4.678
 4433SOL    HW114198   6.236   0.565   4.763
 4433SOL    HW214199   6.318   0.672   4.671
 4434SOL     OW14200   4.808   1.758   3.666
 4434SOL    HW114201   4.797   1.820   3.744
 4434SOL    HW214202   4.724   1.704   3.654
 4435SOL     OW14203   4.261   3.782   1.069
 4435SOL    HW114204   4.233   3.701   1.018
 4435SOL    HW214205   4.350   3.766   1.110
 4436SOL     OW14206   3.135   2.354   0.673
 4436SOL    HW114207   3.227   2.333   0.704
 4436SOL    HW214208   3.076   2.371   0.753
 4437SOL     OW14209   5.279   1.940   3.430
 4437SOL    HW114210   5.185   1.961   3.403
 4437SOL    HW214211   5.278   1.881   3.511
 4438SOL     OW14212   4.061   1.764   6.457
 4438SOL    HW114213   3.985   1.709   6.422
 4438SOL    HW214214   4.038   1.798   6.548
 4439SOL     OW14215   0.257   5.566   1.294
 4439SOL    HW114216   0.203   5.644   1.324
 4439SOL    HW214217   0.197   5.489   1.272
 4440SOL     OW14218   1.710   4.919   6.855
 4440SOL    HW114219   1.678   4.985   6.787
 4440SOL    HW214220   1.803   4.890   6.832
 4441SOL     OW14221   6.776   1.432   1.934
 4441SOL    HW114222   6.702   1.498   1.950
 4441SOL    HW214223   6.858   1.481   1.905
 4442SOL     OW14224   3.447   6.311   3.956
 4442SOL    HW114225   3.458   6.302   4.055
 4442SOL    HW214226   3.404   6.398   3.935
 4443SOL     OW14227   0.337   2.976   0.414
 4443SOL    HW114228   0.315   3.070   0.390
 4443SOL    HW214229   0.436   2.960   0.402
 4444SOL     OW14230   3.741   6.124   6.583
 4444SOL    HW114231   3.822   6.108   6.639
 4444SOL    HW214232   3.662   6.080   6.625
 4445SOL     OW14233   7.014   0.337   0.605
 4445SOL    HW114234   6.939   0.403   0.595
 4445SOL    HW214235   0.075   0.383   0.646
 4446SOL     OW14236   5.390   1.296   1.743
 4446SOL    HW114237   5.380   1.199   1.765
 4446SOL    HW214238   5.466   1.309   1.680
 4447SOL     OW14239   5.601   3.956   5.924
 4447SOL    HW114240   5.609   3.972   6.023
 4447SOL    HW214241   5.642   3.868   5.901
 4448SOL     OW14242   3.106   4.241   0.934
 4448SOL    HW114243   3.175   4.192   0.988
 4448SOL    HW214244   3.039   4.176   0.898
 4449SOL     OW14245   4.595   0.554   5.956
 4449SOL    HW114246   4.570   0.646   5.986
 4449SOL    HW214247   4.520   0.491   5.975
 4450SOL     OW14248   4.059   3.188   4.232
 4450SOL    HW114249   4.154   3.157   4.223
 4450SOL    HW214250   4.055   3.267   4.293
 4451SOL     OW14251   5.930   4.072   2.871
 4451SOL    HW114252   5.830   4.067   2.865
 4451SOL    HW214253   5.957   4.163   2.903
 4452SOL     OW14254   5.609   6.516   5.097
 4452SOL    HW114255   5.542   6.518   5.172
 4452SOL    HW214256   5.695   6.478   5.131
 4453SOL     OW14257   6.582   2.621   0.409
 4453SOL    HW114258   6.536   2.644   0.494
 4453SOL    HW214259   6.528   2.554   0.359
 4454SOL     OW14260   4.905   2.621   0.221
 4454SOL    HW114261   4.891   2.540   0.165
 4454SOL    HW214262   4.990   2.610   0.274
 4455SOL     OW14263   3.365   0.148   6.531
 4455SOL    HW114264   3.465   0.147   6.536
 4455SOL    HW214265   3.327   0.127   6.621
 4456SOL     OW14266   2.382   5.017   2.455
 4456SOL    HW114267   2.459   4.976   2.407
 4456SOL    HW214268   2.394   5.007   2.554
 4457SOL     OW14269   4.113   2.259   0.204
 4457SOL    HW114270   4.193   2.203   0.222
 4457SOL    HW214271   4.137   2.356   0.210
 4458SOL     OW14272   1.256   3.944   6.608
 4458SOL    HW114273   1.179   3.881   6.619
 4458SOL    HW214274   1.334   3.910   6.659
 4459SOL     OW14275   5.632   0.343   3.582
 4459SOL    HW114276   5.629   0.421   3.520
 4459SOL    HW214277   5.707   0.355   3.647
 4460SOL     OW14278   2.694   2.794   5.752
 4460SOL    HW114279   2.756   2.845   5.692
 4460SOL    HW214280   2.633   2.738   5.696
 4461SOL     OW14281   0.842   0.862   2.626
 4461SOL    HW114282   0.895   0.860   2.540
 4461SOL    HW214283   0.786   0.780   2.633
 4462SOL     OW14284   0.071   3.639   1.371
 4462SOL    HW114285   0.133   3.563   1.350
 4462SOL    HW214286   7.017   3.643   1.302
 4463SOL     OW14287   2.710   2.494   6.923
 4463SOL    HW114288   2.616   2.527   6.927
 4463SOL    HW214289   2.711   2.400   6.888
 4464SOL     OW14290   6.151   5.247   6.819
 4464SOL    HW114291   6.146   5.293   6.907
 4464SOL    HW214292   6.059   5.215   6.793
 4465SOL     OW14293   2.480   6.117   3.277
 4465SOL    HW114294   2.453   6.057   3.201
 4465SOL    HW214295   2.447   6.079   3.363
 4466SOL     OW14296   1.382   0.403   2.387
 4466SOL    HW114297   1.423   0.369   2.303
 4466SOL    HW214298   1.411   0.498   2.402
 4467SOL     OW14299   1.082   6.126   3.658
 4467SOL    HW114300   1.068   6.221   3.687
 4467SOL    HW214301   1.005   6.070   3.690
 4468SOL     OW14302   1.082   2.174   6.924
 4468SOL    HW114303   1.007   2.160   6.859
 4468SOL    HW214304   1.096   2.272   6.939
 4469SOL     OW14305   3.425   0.502   1.349
 4469SOL    HW114306   3.359   0.465   1.284
 4469SOL    HW214307   3.517   0.469   1.326
 4470SOL     OW14308   6.200   3.729   1.573
 4470SOL    HW114309   6.125   3.674   1.538
 4470SOL    HW214310   6.167   3.820   1.596
 4471SOL     OW14311   0.515   2.345   0.356
 4471SOL    HW114312   0.611   2.365   0.337
 4471SOL    HW214313   0.495   2.366   0.451
 4472SOL     OW14314   1.859   3.016   4.070
 4472SOL    HW114315   1.891   2.944   4.008
 4472SOL    HW214316   1.764   3.039   4.048
 4473SOL     OW14317   6.596   1.968   3.839
 4473SOL    HW114318   6.508   2.000   3.802
 4473SOL    HW214319   6.649   1.925   3.766
 4474SOL     OW14320   2.907   1.278   1.665
 4474SOL    HW114321   3.000   1.313   1.665
 4474SOL    HW214322   2.885   1.240   1.575
 4475SOL     OW14323   1.530   4.020   2.568
 4475SOL    HW114324   1.557   4.030   2.664
 4475SOL    HW214325   1.579   4.087   2.513
 4476SOL     OW14326   5.263   6.498   3.689
 4476SOL    HW114327   5.246   6.404   3.659
 4476SOL    HW214328   5.207   6.561   3.635
 4477SOL     OW14329   1.835   0.052   5.662
 4477SOL    HW114330   1.930   0.041   5.634
 4477SOL    HW214331   1.827   0.042   5.761
 4478SOL     OW14332   2.735   5.891   2.485
 4478SOL    HW114333   2.830   5.859   2.481
 4478SOL    HW214334   2.693   5.880   2.395
 4479SOL     OW14335   0.745   0.575   0.873
 4479SOL    HW114336   0.663   0.604   0.923
 4479SOL    HW214337   0.819   0.559   0.938
 4480SOL     OW14338   1.830   3.709   4.844
 4480SOL    HW114339   1.858   3.681   4.935
 4480SOL    HW214340   1.818   3.628   4.786
 4481SOL     OW14341   2.588   6.849   5.314
 4481SOL    HW114342   2.503   6.860   5.261
 4481SOL    HW214343   2.660   6.904   5.272
 4482SOL     OW14344   0.636   4.026   4.107
 4482SOL    HW114345   0.664   4.118   4.134
 4482SOL    HW214346   0.592   4.029   4.017
 4483SOL     OW14347   5.834   3.490   1.267
 4483SOL    HW114348   5.787   3.420   1.213
 4483SOL    HW214349   5.933   3.475   1.262
 4484SOL     OW14350   2.998   2.070   5.180
 4484SOL    HW114351   2.901   2.090   5.195
 4484SOL    HW214352   3.040   2.148   5.133
 4485SOL     OW14353   5.166   2.338   6.039
 4485SOL    HW114354   5.209   2.338   5.949
 4485SOL    HW214355   5.068   2.320   6.029
 4486SOL     OW14356   5.760   3.765   4.100
 4486SOL    HW114357   5.739   3.859   4.127
 4486SOL    HW214358   5.678   3.708   4.112
 4487SOL     OW14359   2.460   3.214   6.681
 4487SOL    HW114360   2.428   3.287   6.741
 4487SOL    HW214361   2.385   3.150   6.662
 4488SOL     OW14362   5.850   2.853   5.398
 4488SOL    HW114363   5.760   2.858   5.441
 4488SOL    HW214364   5.840   2.859   5.299
 4489SOL     OW14365   4.895   6.247   4.309
 4489SOL    HW114366   4.940   6.336   4.316
 4489SOL    HW214367   4.910   6.208   4.218
 4490SOL     OW14368   5.713   2.053   2.084
 4490SOL    HW114369   5.690   2.130   2.024
 4490SOL    HW214370   5.706   2.083   2.179
 4491SOL     OW14371   0.828   2.905   3.712
 4491SOL    HW114372   0.921   2.938   3.728
 4491SOL    HW214373   0.824   2.807   3.731
 4492SOL     OW14374   5.222   3.674   1.067
 4492SOL    HW114375   5.203   3.576   1.054
 4492SOL    HW214376   5.299   3.684   1.130
 4493SOL     OW14377   4.836   5.539   5.600
 4493SOL    HW114378   4.833   5.639   5.610
 4493SOL    HW214379   4.840   5.516   5.503
 4494SOL     OW14380   0.338   1.761   6.196
 4494SOL    HW114381   0.347   1.839   6.258
 4494SOL    HW214382   0.245   1.758   6.159
 4495SOL     OW14383   4.934   6.338   3.770
 4495SOL    HW114384   4.964   6.276   3.842
 4495SOL    HW214385   4.953   6.433   3.797
 4496SOL     OW14386   4.653   5.902   0.782
 4496SOL    HW114387   4.640   5.821   0.840
 4496SOL    HW214388   4.566   5.927   0.740
 4497SOL     OW14389   4.426   0.191   0.335
 4497SOL    HW114390   4.370   0.155   0.261
 4497SOL    HW214391   4.520   0.201   0.304
 4498SOL     OW14392   0.416   3.181   6.161
 4498SOL    HW114393   0.434   3.087   6.192
 4498SOL    HW214394   0.371   3.179   6.072
 4499SOL     OW14395   0.146   3.738   3.886
 4499SOL    HW114396   0.064   3.681   3.882
 4499SOL    HW214397   0.227   3.681   3.877
 4500SOL     OW14398   2.902   3.390   3.846
 4500SOL    HW114399   2.944   3.302   3.865
 4500SOL    HW214400   2.820   3.377   3.790
 4501SOL     OW14401   0.458   3.408   5.961
 4501SOL    HW114402   0.456   3.311   5.936
 4501SOL    HW214403   0.516   3.458   5.896
 4502SOL     OW14404   2.060   2.115   6.956
 4502SOL    HW114405   2.053   2.183   0.011
 4502SOL    HW214406   2.049   2.159   6.867
 4503SOL     OW14407   2.775   0.453   2.745
 4503SOL    HW114408   2.721   0.529   2.709
 4503SOL    HW214409   2.810   0.398   2.669
 4504SOL     OW14410   6.053   1.818   4.877
 4504SOL    HW114411   6.132   1.805   4.816
 4504SOL    HW214412   6.035   1.732   4.925
 4505SOL     OW14413   6.660   6.058   3.763
 4505SOL    HW114414   6.606   6.037   3.682
 4505SOL    HW214415   6.660   5.979   3.824
 4506SOL     OW14416   4.723   2.342   4.614
 4506SOL    HW114417   4.778   2.423   4.594
 4506SOL    HW214418   4.626   2.368   4.615
 4507SOL     OW14419   5.140   4.392   1.973
 4507SOL    HW114420   5.165   4.483   2.005
 4507SOL    HW214421   5.076   4.351   2.038
 4508SOL     OW14422   0.777   5.033   5.827
 4508SOL    HW114423   0.765   4.944   5.783
 4508SOL    HW214424   0.812   5.099   5.760
 4509SOL     OW14425   5.363   2.818   3.800
 4509SOL    HW114426   5.284   2.824   3.739
 4509SOL    HW214427   5.436   2.876   3.765
 4510SOL     OW14428   5.692   6.466   5.802
 4510SOL    HW114429   5.678   6.481   5.704
 4510SOL    HW214430   5.763   6.528   5.836
 4511SOL     OW14431   6.831   3.445   6.520
 4511SOL    HW114432   6.904   3.460   6.587
 4511SOL    HW214433   6.862   3.475   6.430
 4512SOL     OW14434   2.314   6.410   5.908
 4512SOL    HW114435   2.232   6.437   5.959
 4512SOL    HW214436   2.353   6.490   5.862
 4513SOL     OW14437   5.257   6.194   0.496
 4513SOL    HW114438   5.338   6.251   0.479
 4513SOL    HW214439   5.203   6.234   0.570
 4514SOL     OW14440   4.656   1.246   4.965
 4514SOL    HW114441   4.754   1.228   4.965
 4514SOL    HW214442   4.638   1.333   5.010
 4515SOL     OW14443   6.806   4.032   5.449
 4515SOL    HW114444   6.829   3.959   5.384
 4515SOL    HW214445   6.727   4.003   5.504
 4516SOL     OW14446   1.506   1.108   6.247
 4516SOL    HW114447   1.575   1.082   6.315
 4516SOL    HW214448   1.451   1.184   6.283
 4517SOL     OW14449   2.323   0.235   6.822
 4517SOL    HW114450   2.268   0.177   6.762
 4517SOL    HW214451   2.270   0.257   6.904
 4518SOL     OW14452   6.530   1.430   3.361
 4518SOL    HW114453   6.455   1.472   3.411
 4518SOL    HW214454   6.613   1.433   3.416
 4519SOL     OW14455   5.730   0.511   1.371
 4519SOL    HW114456   5.631   0.497   1.360
 4519SOL    HW214457   5.775   0.498   1.283
 4520SOL     OW14458   5.297   5.707   3.291
 4520SOL    HW114459   5.336   5.725   3.381
 4520SOL    HW214460   5.201   5.679   3.301
 4521SOL     OW14461   5.085   2.105   4.380
 4521SOL    HW114462   5.163   2.138   4.433
 4521SOL    HW214463   5.026   2.049   4.438
 4522SOL     OW14464   5.536   0.058   3.495
 4522SOL    HW114465   5.586   0.116   3.559
 4522SOL    HW214466   5.590   0.045   3.412
 4523SOL     OW14467   1.194   4.097   7.001
 4523SOL    HW114468   1.140   4.081   6.919
 4523SOL    HW214469   1.263   4.168   6.983
 4524SOL     OW14470   5.311   2.283   5.050
 4524SOL    HW114471   5.389   2.248   5.102
 4524SOL    HW214472   5.313   2.383   5.052
 4525SOL     OW14473   6.215   1.361   3.344
 4525SOL    HW114474   6.257   1.442   3.304
 4525SOL    HW214475   6.228   1.283   3.283
 4526SOL     OW14476   4.682   0.953   0.735
 4526SOL    HW114477   4.607   1.017   0.752
 4526SOL    HW214478   4.695   0.895   0.815
 4527SOL     OW14479   4.290   1.316   3.871
 4527SOL    HW114480   4.384   1.296   3.900
 4527SOL    HW214481   4.237   1.232   3.866
 4528SOL     OW14482   4.629   6.485   6.924
 4528SOL    HW114483   4.658   6.426   7.000
 4528SOL    HW214484   4.709   6.529   6.883
 4529SOL     OW14485   3.578   1.328   3.968
 4529SOL    HW114486   3.617   1.237   3.953
 4529SOL    HW214487   3.616   1.366   4.052
 4530SOL     OW14488   0.175   3.125   5.689
 4530SOL    HW114489   0.185   3.026   5.676
 4530SOL    HW214490   0.210   3.173   5.609
 4531SOL     OW14491   0.373   3.365   3.386
 4531SOL    HW114492   0.364   3.404   3.294
 4531SOL    HW214493   0.458   3.398   3.427
 4532SOL     OW14494   0.332   1.082   2.139
 4532SOL    HW114495   0.232   1.085   2.138
 4532SOL    HW214496   0.368   1.172   2.118
 4533SOL     OW14497   1.249   0.428   2.823
 4533SOL    HW114498   1.190   0.508   2.824
 4533SOL    HW214499   1.264   0.399   2.728
 4534SOL     OW14500   6.245   3.859   4.087
 4534SOL    HW114501   6.331   3.833   4.043
 4534SOL    HW214502   6.222   3.791   4.156
 4535SOL     OW14503   4.593   2.170   2.771
 4535SOL    HW114504   4.651   2.234   2.821
 4535SOL    HW214505   4.599   2.079   2.813
 4536SOL     OW14506   4.426   2.406   4.285
 4536SOL    HW114507   4.389   2.419   4.193
 4536SOL    HW214508   4.510   2.353   4.280
 4537SOL     OW14509   3.707   3.374   6.038
 4537SOL    HW114510   3.647   3.358   5.959
 4537SOL    HW214511   3.656   3.357   6.122
 4538SOL     OW14512   2.561   1.092   4.078
 4538SOL    HW114513   2.564   1.024   4.151
 4538SOL    HW214514   2.653   1.130   4.065
 4539SOL     OW14515   2.423   1.047   4.434
 4539SOL    HW114516   2.480   1.103   4.494
 4539SOL    HW214517   2.481   0.986   4.380
 4540SOL     OW14518   3.503   2.938   4.231
 4540SOL    HW114519   3.492   2.840   4.244
 4540SOL    HW214520   3.504   2.984   4.320
 4541SOL     OW14521   5.903   1.236   6.921
 4541SOL    HW114522   5.836   1.230   6.847
 4541SOL    HW214523   5.981   1.178   6.901
 4542SOL     OW14524   5.987   6.655   1.749
 4542SOL    HW114525   5.896   6.684   1.779
 4542SOL    HW214526   6.009   6.568   1.792
 4543SOL     OW14527   4.967   2.061   0.192
 4543SOL    HW114528   4.953   1.991   0.261
 4543SOL    HW214529   4.988   2.148   0.237
 4544SOL     OW14530   2.539   6.564   5.731
 4544SOL    HW114531   2.588   6.604   5.654
 4544SOL    HW214532   2.570   6.470   5.745
 4545SOL     OW14533   5.549   2.548   4.819
 4545SOL    HW114534   5.602   2.521   4.739
 4545SOL    HW214535   5.526   2.467   4.873
 4546SOL     OW14536   1.190   1.312   6.468
 4546SOL    HW114537   1.198   1.322   6.369
 4546SOL    HW214538   1.278   1.331   6.511
 4547SOL     OW14539   6.469   2.808   3.007
 4547SOL    HW114540   6.396   2.873   3.026
 4547SOL    HW214541   6.479   2.745   3.084
 4548SOL     OW14542   1.348   4.256   4.776
 4548SOL    HW114543   1.437   4.218   4.751
 4548SOL    HW214544   1.347   4.276   4.875
 4549SOL     OW14545   6.228   3.672   2.430
 4549SOL    HW114546   6.313   3.715   2.402
 4549SOL    HW214547   6.183   3.729   2.499
 4550SOL     OW14548   0.933   5.905   2.693
 4550SOL    HW114549   0.987   5.893   2.609
 4550SOL    HW214550   0.848   5.953   2.670
 4551SOL     OW14551   0.004   2.293   5.125
 4551SOL    HW114552   0.074   2.262   5.060
 4551SOL    HW214553   6.968   2.214   5.156
 4552SOL     OW14554   6.651   2.644   6.312
 4552SOL    HW114555   6.691   2.707   6.246
 4552SOL    HW214556   6.608   2.568   6.263
 4553SOL     OW14557   4.017   4.311   0.650
 4553SOL    HW114558   3.950   4.351   0.713
 4553SOL    HW214559   4.108   4.314   0.692
 4554SOL     OW14560   3.837   1.093   1.750
 4554SOL    HW114561   3.791   1.175   1.782
 4554SOL    HW214562   3.933   1.095   1.780
 4555SOL     OW14563   3.241   1.798   5.521
 4555SOL    HW114564   3.276   1.869   5.581
 4555SOL    HW214565   3.225   1.714   5.573
 4556SOL     OW14566   4.692   2.341   3.302
 4556SOL    HW114567   4.768   2.336   3.237
 4556SOL    HW214568   4.623   2.273   3.279
 4557SOL     OW14569   5.276   6.742   5.549
 4557SOL    HW114570   5.326   6.828   5.534
 4557SOL    HW214571   5.198   6.759   5.609
 4558SOL     OW14572   6.730   3.790   5.829
 4558SOL    HW114573   6.713   3.865   5.766
 4558SOL    HW214574   6.716   3.703   5.781
 4559SOL     OW14575   1.163   4.677   0.891
 4559SOL    HW114576   1.152   4.738   0.969
 4559SOL    HW214577   1.091   4.695   0.823
 4560SOL     OW14578   5.360   4.823   3.341
 4560SOL    HW114579   5.409   4.801   3.426
 4560SOL    HW214580   5.353   4.741   3.284
 4561SOL     OW14581   3.117   0.759   1.053
 4561SOL    HW114582   3.094   0.670   1.013
 4561SOL    HW214583   3.148   0.746   1.147
 4562SOL     OW14584   2.940   5.842   4.833
 4562SOL    HW114585   2.990   5.878   4.912
 4562SOL    HW214586   2.887   5.762   4.860
 4563SOL     OW14587   6.785   3.605   0.301
 4563SOL    HW114588   6.808   3.527   0.360
 4563SOL    HW214589   6.788   3.689   0.355
 4564SOL     OW14590   0.491   6.569   1.140
 4564SOL    HW114591   0.493   6.517   1.226
 4564SOL    HW214592   0.483   6.505   1.063
 4565SOL     OW14593   0.190   1.514   5.224
 4565SOL    HW114594   0.263   1.484   5.162
 4565SOL    HW214595   0.116   1.446   5.223
 4566SOL     OW14596   6.460   0.913   0.753
 4566SOL    HW114597   6.555   0.936   0.733
 4566SOL    HW214598   6.440   0.935   0.849
 4567SOL     OW14599   0.880   1.069   6.993
 4567SOL    HW114600   0.974   1.103   6.990
 4567SOL    HW214601   0.842   1.084   0.067
 4568SOL     OW14602   1.177   4.559   5.375
 4568SOL    HW114603   1.206   4.637   5.430
 4568SOL    HW214604   1.220   4.476   5.410
 4569SOL     OW14605   2.022   1.469   3.045
 4569SOL    HW114606   2.062   1.560   3.058
 4569SOL    HW214607   2.095   1.405   3.021
 4570SOL     OW14608   0.417   4.835   3.077
 4570SOL    HW114609   0.428   4.736   3.088
 4570SOL    HW214610   0.329   4.863   3.113
 4571SOL     OW14611   3.689   3.325   5.489
 4571SOL    HW114612   3.716   3.233   5.461
 4571SOL    HW214613   3.589   3.330   5.498
 4572SOL     OW14614   0.969   6.297   6.134
 4572SOL    HW114615   0.906   6.242   6.079
 4572SOL    HW214616   0.918   6.344   6.206
 4573SOL     OW14617   6.214   5.928   0.359
 4573SOL    HW114618   6.251   5.845   0.401
 4573SOL    HW214619   6.115   5.931   0.373
 4574SOL     OW14620   6.741   4.049   1.078
 4574SOL    HW114621   6.679   4.040   1.156
 4574SOL    HW214622   6.747   4.145   1.052
 4575SOL     OW14623   6.837   1.591   6.726
 4575SOL    HW114624   6.846   1.543   6.638
 4575SOL    HW214625   6.768   1.663   6.717
 4576SOL     OW14626   2.508   6.038   6.591
 4576SOL    HW114627   2.483   5.990   6.675
 4576SOL    HW214628   2.436   6.027   6.523
 4577SOL     OW14629   0.471   2.923   3.490
 4577SOL    HW114630   0.550   2.871   3.458
 4577SOL    HW214631   0.502   2.996   3.551
 4578SOL     OW14632   0.196   3.414   3.845
 4578SOL    HW114633   0.228   3.374   3.931
 4578SOL    HW214634   0.099   3.393   3.833
 4579SOL     OW14635   5.403   1.451   3.068
 4579SOL    HW114636   5.492   1.426   3.106
 4579SOL    HW214637   5.411   1.538   3.019
 4580SOL     OW14638   5.421   5.634   6.732
 4580SOL    HW114639   5.387   5.556   6.784
 4580SOL    HW214640   5.344   5.683   6.691
 4581SOL     OW14641   2.907   5.519   3.380
 4581SOL    HW114642   2.993   5.509   3.430
 4581SOL    HW214643   2.922   5.495   3.284
 4582SOL     OW14644   6.035   6.733   4.860
 4582SOL    HW114645   5.945   6.711   4.898
 4582SOL    HW214646   6.072   6.813   4.907
 4583SOL     OW14647   2.830   1.196   4.646
 4583SOL    HW114648   2.903   1.264   4.656
 4583SOL    HW214649   2.852   1.135   4.570
 4584SOL     OW14650   0.468   5.245   5.218
 4584SOL    HW114651   0.465   5.145   5.227
 4584SOL    HW214652   0.376   5.278   5.195
 4585SOL     OW14653   2.533   6.528   3.086
 4585SOL    HW114654   2.487   6.470   3.019
 4585SOL    HW214655   2.491   6.515   3.176
 4586SOL     OW14656   3.780   5.301   0.626
 4586SOL    HW114657   3.745   5.295   0.532
 4586SOL    HW214658   3.704   5.309   0.690
 4587SOL     OW14659   4.364   3.259   1.729
 4587SOL    HW114660   4.432   3.214   1.787
 4587SOL    HW214661   4.303   3.315   1.786
 4588SOL     OW14662   3.762   4.231   5.243
 4588SOL    HW114663   3.671   4.263   5.270
 4588SOL    HW214664   3.801   4.176   5.317
 4589SOL     OW14665   6.157   1.513   1.819
 4589SOL    HW114666   6.231   1.498   1.754
 4589SOL    HW214667   6.069   1.503   1.773
 4590SOL     OW14668   4.402   6.231   2.333
 4590SOL    HW114669   4.377   6.224   2.236
 4590SOL    HW214670   4.373   6.320   2.368
 4591SOL     OW14671   0.339   6.090   4.924
 4591SOL    HW114672   0.383   6.012   4.880
 4591SOL    HW214673   0.374   6.099   5.018
 4592SOL     OW14674   3.862   2.740   1.733
 4592SOL    HW114675   3.920   2.669   1.693
 4592SOL    HW214676   3.919   2.818   1.759
 4593SOL     OW14677   4.182   5.777   4.243
 4593SOL    HW114678   4.100   5.732   4.280
 4593SOL    HW214679   4.195   5.865   4.289
 4594SOL     OW14680   3.671   2.058   1.221
 4594SOL    HW114681   3.585   2.016   1.252
 4594SOL    HW214682   3.724   2.089   1.300
 4595SOL     OW14683   3.329   3.000   5.654
 4595SOL    HW114684   3.394   2.984   5.579
 4595SOL    HW214685   3.357   3.080   5.706
 4596SOL     OW14686   6.339   6.542   2.035
 4596SOL    HW114687   6.272   6.476   2.000
 4596SOL    HW214688   6.315   6.566   2.129
 4597SOL     OW14689   4.886   4.517   0.243
 4597SOL    HW114690   4.879   4.615   0.228
 4597SOL    HW214691   4.928   4.499   0.332
 4598SOL     OW14692   1.777   5.581   6.945
 4598SOL    HW114693   1.852   5.551   6.886
 4598SOL    HW214694   1.710   5.507   6.953
 4599SOL     OW14695   2.043   4.501   0.769
 4599SOL    HW114696   2.060   4.479   0.672
 4599SOL    HW214697   2.071   4.595   0.787
 4600SOL     OW14698   1.997   6.014   6.058
 4600SOL    HW114699   2.052   5.936   6.027
 4600SOL    HW214700   2.033   6.047   6.145
 4601SOL     OW14701   1.571   0.649   5.371
 4601SOL    HW114702   1.534   0.652   5.278
 4601SOL    HW214703   1.518   0.710   5.430
 4602SOL     OW14704   0.993   5.917   0.501
 4602SOL    HW114705   1.073   5.923   0.440
 4602SOL    HW214706   1.024   5.900   0.594
 4603SOL     OW14707   3.690   6.541   1.053
 4603SOL    HW114708   3.716   6.448   1.025
 4603SOL    HW214709   3.753   6.572   1.124
 4604SOL     OW14710   4.862   0.839   1.687
 4604SOL    HW114711   4.942   0.896   1.671
 4604SOL    HW214712   4.784   0.896   1.709
 4605SOL     OW14713   4.817   1.018   3.107
 4605SOL    HW114714   4.776   0.928   3.095
 4605SOL    HW214715   4.815   1.067   3.020
 4606SOL     OW14716   0.379   0.124   1.768
 4606SOL    HW114717   0.279   0.115   1.771
 4606SOL    HW214718   0.408   0.143   1.674
 4607SOL     OW14719   2.550   3.097   0.531
 4607SOL    HW114720   2.526   3.081   0.627
 4607SOL    HW214721   2.621   3.031   0.504
 4608SOL     OW14722   1.547   5.733   3.845
 4608SOL    HW114723   1.539   5.659   3.913
 4608SOL    HW214724   1.499   5.706   3.761
 4609SOL     OW14725   3.743   5.534   5.835
 4609SOL    HW114726   3.764   5.539   5.737
 4609SOL    HW214727   3.749   5.626   5.874
 4610SOL     OW14728   6.472   2.668   0.640
 4610SOL    HW114729   6.541   2.728   0.681
 4610SOL    HW214730   6.381   2.697   0.670
 4611SOL     OW14731   6.069   5.684   6.027
 4611SOL    HW114732   6.137   5.724   5.965
 4611SOL    HW214733   6.115   5.624   6.092
 4612SOL     OW14734   1.290   6.369   0.830
 4612SOL    HW114735   1.317   6.274   0.815
 4612SOL    HW214736   1.346   6.429   0.772
 4613SOL     OW14737   2.808   5.344   2.519
 4613SOL    HW114738   2.865   5.383   2.591
 4613SOL    HW214739   2.712   5.356   2.542
 4614SOL     OW14740   0.845   3.945   5.498
 4614SOL    HW114741   0.880   3.914   5.586
 4614SOL    HW214742   0.894   4.029   5.471
 4615SOL     OW14743   2.087   0.548   0.128
 4615SOL    HW114744   2.065   0.456   0.160
 4615SOL    HW214745   2.135   0.543   0.041
 4616SOL     OW14746   5.939   0.206   6.149
 4616SOL    HW114747   5.898   0.291   6.183
 4616SOL    HW214748   6.028   0.226   6.109
 4617SOL     OW14749   1.301   2.504   2.419
 4617SOL    HW114750   1.228   2.551   2.371
 4617SOL    HW214751   1.376   2.568   2.437
 4618SOL     OW14752   1.954   2.456   5.465
 4618SOL    HW114753   1.860   2.423   5.465
 4618SOL    HW214754   1.969   2.516   5.387
 4619SOL     OW14755   3.831   6.567   3.318
 4619SOL    HW114756   3.843   6.534   3.224
 4619SOL    HW214757   3.738   6.547   3.349
 4620SOL     OW14758   3.189   4.318   6.979
 4620SOL    HW114759   3.285   4.294   6.993
 4620SOL    HW214760   3.132   4.264   0.024
 4621SOL     OW14761   5.576   1.702   3.266
 4621SOL    HW114762   5.516   1.780   3.250
 4621SOL    HW214763   5.522   1.618   3.271
 4622SOL     OW14764   1.059   3.228   0.794
 4622SOL    HW114765   1.081   3.260   0.886
 4622SOL    HW214766   1.041   3.307   0.734
 4623SOL     OW14767   0.220   5.721   0.851
 4623SOL    HW114768   0.315   5.751   0.860
 4623SOL    HW214769   0.217   5.637   0.797
 4624SOL     OW14770   5.281   6.740   2.924
 4624SOL    HW114771   5.239   6.694   3.002
 4624SOL    HW214772   5.330   6.821   2.957
 4625SOL     OW14773   1.978   4.756   6.855
 4625SOL    HW114774   1.942   4.682   6.799
 4625SOL    HW214775   1.977   4.728   6.951
 4626SOL     OW14776   6.024   5.380   1.641
 4626SOL    HW114777   6.055   5.474   1.631
 4626SOL    HW214778   6.102   5.321   1.663
 4627SOL     OW14779   3.694   6.072   4.014
 4627SOL    HW114780   3.622   6.002   4.008
 4627SOL    HW214781   3.783   6.029   4.010
 4628SOL     OW14782   6.059   4.249   3.340
 4628SOL    HW114783   6.144   4.242   3.392
 4628SOL    HW214784   5.997   4.313   3.385
 4629SOL     OW14785   1.981   4.781   5.596
 4629SOL    HW114786   2.061   4.837   5.574
 4629SOL    HW214787   1.904   4.809   5.539
 4630SOL     OW14788   3.706   5.505   3.028
 4630SOL    HW114789   3.636   5.435   3.042
 4630SOL    HW214790   3.667   5.595   3.048
 4631SOL     OW14791   2.329   6.627   3.926
 4631SOL    HW114792   2.404   6.690   3.949
 4631SOL    HW214793   2.289   6.653   3.839
 4632SOL     OW14794   4.582   4.465   3.685
 4632SOL    HW114795   4.626   4.376   3.674
 4632SOL    HW214796   4.563   4.481   3.782
 4633SOL     OW14797   6.022   2.205   3.678
 4633SOL    HW114798   6.073   2.290   3.688
 4633SOL    HW214799   6.040   2.145   3.756
 4634SOL     OW14800   2.221   4.589   6.459
 4634SOL    HW114801   2.206   4.518   6.528
 4634SOL    HW214802   2.181   4.675   6.490
 4635SOL     OW14803   5.815   3.168   2.147
 4635SOL    HW114804   5.842   3.116   2.066
 4635SOL    HW214805   5.810   3.107   2.226
 4636SOL     OW14806   2.368   5.184   0.247
 4636SOL    HW114807   2.307   5.244   0.196
 4636SOL    HW214808   2.441   5.151   0.186
 4637SOL     OW14809   2.179   0.901   0.413
 4637SOL    HW114810   2.181   0.868   0.508
 4637SOL    HW214811   2.142   0.994   0.411
 4638SOL     OW14812   3.580   3.310   6.292
 4638SOL    HW114813   3.562   3.400   6.332
 4638SOL    HW214814   3.533   3.240   6.346
 4639SOL     OW14815   2.185   4.593   5.025
 4639SOL    HW114816   2.276   4.560   5.000
 4639SOL    HW214817   2.119   4.566   4.955
 4640SOL     OW14818   5.227   5.477   3.511
 4640SOL    HW114819   5.246   5.382   3.536
 4640SOL    HW214820   5.154   5.513   3.570
 4641SOL     OW14821   2.998   6.197   4.137
 4641SOL    HW114822   3.056   6.165   4.062
 4641SOL    HW214823   2.994   6.128   4.209
 4642SOL     OW14824   0.778   6.661   5.652
 4642SOL    HW114825   0.850   6.718   5.690
 4642SOL    HW214826   0.768   6.681   5.554
 4643SOL     OW14827   5.648   2.413   1.265
 4643SOL    HW114828   5.710   2.480   1.304
 4643SOL    HW214829   5.687   2.375   1.181
 4644SOL     OW14830   1.606   5.078   4.749
 4644SOL    HW114831   1.650   5.168   4.749
 4644SOL    HW214832   1.583   5.052   4.843
 4645SOL     OW14833   1.503   0.221   4.462
 4645SOL    HW114834   1.570   0.161   4.507
 4645SOL    HW214835   1.439   0.256   4.529
 4646SOL     OW14836   2.793   6.251   3.184
 4646SOL    HW114837   2.713   6.195   3.206
 4646SOL    HW214838   2.829   6.224   3.095
 4647SOL     OW14839   0.942   6.393   3.248
 4647SOL    HW114840   0.873   6.410   3.178
 4647SOL    HW214841   0.908   6.323   3.311
 4648SOL     OW14842   4.495   0.518   1.280
 4648SOL    HW114843   4.421   0.452   1.286
 4648SOL    HW214844   4.547   0.519   1.365
 4649SOL     OW14845   5.087   6.538   6.335
 4649SOL    HW114846   5.021   6.604   6.370
 4649SOL    HW214847   5.093   6.460   6.397
 4650SOL     OW14848   4.157   6.006   3.987
 4650SOL    HW114849   4.253   5.995   4.015
 4650SOL    HW214850   4.118   6.086   4.032
 4651SOL     OW14851   0.141   1.348   1.012
 4651SOL    HW114852   0.109   1.395   1.094
 4651SOL    HW214853   0.240   1.359   1.004
 4652SOL     OW14854   0.385   0.630   4.317
 4652SOL    HW114855   0.308   0.613   4.378
 4652SOL    HW214856   0.412   0.545   4.271
 4653SOL     OW14857   6.302   5.559   6.472
 4653SOL    HW114858   6.337   5.652   6.486
 4653SOL    HW214859   6.211   5.564   6.430
 4654SOL     OW14860   0.229   0.148   0.013
 4654SOL    HW114861   0.212   0.148   0.112
 4654SOL    HW214862   0.314   0.099   7.012
 4655SOL     OW14863   6.817   5.498   1.809
 4655SOL    HW114864   6.816   5.490   1.709
 4655SOL    HW214865   6.748   5.437   1.848
 4656SOL     OW14866   1.238   6.920   3.816
 4656SOL    HW114867   1.147   6.890   3.789
 4656SOL    HW214868   1.232   7.006   3.866
 4657SOL     OW14869   4.725   6.658   1.679
 4657SOL    HW114870   4.631   6.630   1.697
 4657SOL    HW214871   4.766   6.693   1.764
 4658SOL     OW14872   3.678   1.115   1.992
 4658SOL    HW114873   3.685   1.029   2.043
 4658SOL    HW214874   3.631   1.183   2.048
 4659SOL     OW14875   2.406   3.803   6.228
 4659SOL    HW114876   2.474   3.805   6.156
 4659SOL    HW214877   2.451   3.805   6.317
 4660SOL     OW14878   0.781   2.671   5.090
 4660SOL    HW114879   0.702   2.621   5.124
 4660SOL    HW214880   0.850   2.678   5.162
 4661SOL     OW14881   3.856   4.076   5.446
 4661SOL    HW114882   3.812   4.060   5.534
 4661SOL    HW214883   3.941   4.127   5.459
 4662SOL     OW14884   4.966   0.463   5.244
 4662SOL    HW114885   4.925   0.515   5.169
 4662SOL    HW214886   5.040   0.407   5.208
 4663SOL     OW14887   0.560   1.645   2.135
 4663SOL    HW114888   0.644   1.692   2.107
 4663SOL    HW214889   0.508   1.617   2.053
 4664SOL     OW14890   2.115   1.963   0.321
 4664SOL    HW114891   2.140   1.905   0.243
 4664SOL    HW214892   2.015   1.966   0.330
 4665SOL     OW14893   4.166   6.679   0.447
 4665SOL    HW114894   4.195   6.599   0.499
 4665SOL    HW214895   4.070   6.671   0.423
 4666SOL     OW14896   1.699   1.566   0.404
 4666SOL    HW114897   1.650   1.640   0.451
 4666SOL    HW214898   1.787   1.550   0.449
 4667SOL     OW14899   6.457   4.393   1.287
 4667SOL    HW114900   6.429   4.489   1.298
 4667SOL    HW214901   6.459   4.370   1.190
 4668SOL     OW14902   6.513   2.303   3.307
 4668SOL    HW114903   6.435   2.243   3.321
 4668SOL    HW214904   6.597   2.254   3.332
 4669SOL     OW14905   3.145   6.912   0.307
 4669SOL    HW114906   3.173   6.923   0.402
 4669SOL    HW214907   3.130   6.815   0.287
 4670SOL     OW14908   3.484   1.428   5.099
 4670SOL    HW114909   3.521   1.461   5.185
 4670SOL    HW214910   3.389   1.457   5.090
 4671SOL     OW14911   6.823   2.593   2.214
 4671SOL    HW114912   6.835   2.610   2.116
 4671SOL    HW214913   6.911   2.608   2.261
 4672SOL     OW14914   2.551   5.013   6.260
 4672SOL    HW114915   2.637   5.011   6.311
 4672SOL    HW214916   2.497   4.931   6.283
 4673SOL     OW14917   4.977   6.848   0.637
 4673SOL    HW114918   4.902   6.855   0.703
 4673SOL    HW214919   4.999   6.752   0.620
 4674SOL     OW14920   4.848   6.648   6.818
 4674SOL    HW114921   4.947   6.664   6.811
 4674SOL    HW214922   4.809   6.709   6.887
 4675SOL     OW14923   0.760   3.024   6.982
 4675SOL    HW114924   0.717   3.083   6.914
 4675SOL    HW214925   0.782   3.078   0.046
 4676SOL     OW14926   6.845   6.242   3.778
 4676SOL    HW114927   6.786   6.162   3.782
 4676SOL    HW214928   6.789   6.325   3.777
 4677SOL     OW14929   2.577   2.165   1.349
 4677SOL    HW114930   2.572   2.243   1.411
 4677SOL    HW214931   2.654   2.177   1.287
 4678SOL     OW14932   2.180   4.678   2.953
 4678SOL    HW114933   2.239   4.623   2.894
 4678SOL    HW214934   2.161   4.628   3.037
 4679SOL     OW14935   4.358   0.295   1.687
 4679SOL    HW114936   4.355   0.394   1.697
 4679SOL    HW214937   4.329   0.269   1.595
 4680SOL     OW14938   3.840   0.965   6.375
 4680SOL    HW114939   3.845   0.876   6.330
 4680SOL    HW214940   3.918   0.975   6.437
 4681SOL     OW14941   5.212   4.632   0.361
 4681SOL    HW114942   5.230   4.629   0.459
 4681SOL    HW214943   5.241   4.547   0.318
 4682SOL     OW14944   4.761   4.548   5.587
 4682SOL    HW114945   4.676   4.552   5.535
 4682SOL    HW214946   4.796   4.454   5.586
 4683SOL     OW14947   5.849   5.478   2.864
 4683SOL    HW114948   5.924   5.413   2.849
 4683SOL    HW214949   5.766   5.429   2.889
 4684SOL     OW14950   5.026   6.848   5.727
 4684SOL    HW114951   4.989   6.941   5.727
 4684SOL    HW214952   4.953   6.783   5.748
 4685SOL     OW14953   2.208   4.959   6.235
 4685SOL    HW114954   2.267   4.902   6.291
 4685SOL    HW214955   2.200   4.921   6.143
 4686SOL     OW14956   4.176   5.838   6.809
 4686SOL    HW114957   4.116   5.812   6.886
 4686SOL    HW214958   4.165   5.772   6.735
 4687SOL     OW14959   4.746   2.763   4.300
 4687SOL    HW114960   4.832   2.727   4.336
 4687SOL    HW214961   4.742   2.861   4.316
 4688SOL     OW14962   5.989   2.618   5.104
 4688SOL    HW114963   5.961   2.713   5.117
 4688SOL    HW214964   6.088   2.614   5.095
 4689SOL     OW14965   5.823   1.190   0.581
 4689SOL    HW114966   5.776   1.277   0.600
 4689SOL    HW214967   5.761   1.114   0.598
 4690SOL     OW14968   2.253   0.280   0.810
 4690SOL    HW114969   2.181   0.316   0.751
 4690SOL    HW214970   2.329   0.248   0.753
 4691SOL     OW14971   3.193   3.883   0.768
 4691SOL    HW114972   3.275   3.911   0.717
 4691SOL    HW214973   3.210   3.795   0.812
 4692SOL     OW14974   5.587   5.215   3.022
 4692SOL    HW114975   5.600   5.262   2.935
 4692SOL    HW214976   5.625   5.271   3.096
 4693SOL     OW14977   1.321   0.449   3.987
 4693SOL    HW114978   1.379   0.400   4.052
 4693SOL    HW214979   1.227   0.414   3.994
 4694SOL     OW14980   2.065   1.595   0.038
 4694SOL    HW114981   2.121   1.650   0.099
 4694SOL    HW214982   2.113   1.510   0.016
 4695SOL     OW14983   1.251   4.974   0.701
 4695SOL    HW114984   1.305   4.930   0.773
 4695SOL    HW214985   1.169   5.016   0.740
 4696SOL     OW14986   0.531   5.796   5.817
 4696SOL    HW114987   0.542   5.870   5.884
 4696SOL    HW214988   0.470   5.726   5.853
 4697SOL     OW14989   1.242   3.922   2.426
 4697SOL    HW114990   1.173   3.879   2.368
 4697SOL    HW214991   1.332   3.886   2.403
 4698SOL     OW14992   4.303   6.284   3.141
 4698SOL    HW114993   4.284   6.222   3.217
 4698SOL    HW214994   4.281   6.239   3.055
 4699SOL     OW14995   0.579   6.325   2.797
 4699SOL    HW114996   0.657   6.384   2.815
 4699SOL    HW214997   0.581   6.294   2.702
 4700SOL     OW14998   6.354   2.163   2.355
 4700SOL    HW114999   6.444   2.164   2.398
 4700SOL    HW215000   6.363   2.174   2.256
 4701SOL     OW15001   3.749   2.107   0.273
 4701SOL    HW115002   3.680   2.179   0.283
 4701SOL    HW215003   3.808   2.127   0.195
 4702SOL     OW15004   4.524   4.941   0.182
 4702SOL    HW115005   4.450   4.973   0.242
 4702SOL    HW215006   4.612   4.955   0.227
 4703SOL     OW15007   1.499   6.497   3.071
 4703SOL    HW115008   1.423   6.517   3.009
 4703SOL    HW215009   1.517   6.577   3.128
 4704SOL     OW15010   6.301   6.075   6.621
 4704SOL    HW115011   6.250   6.112   6.544
 4704SOL    HW215012   6.240   6.063   6.699
 4705SOL     OW15013   3.983   2.543   1.053
 4705SOL    HW115014   3.906   2.523   0.992
 4705SOL    HW215015   4.030   2.458   1.076
 4706SOL     OW15016   1.695   0.520   0.645
 4706SOL    HW115017   1.737   0.474   0.567
 4706SOL    HW215018   1.598   0.495   0.649
 4707SOL     OW15019   1.103   6.403   1.777
 4707SOL    HW115020   1.016   6.371   1.741
 4707SOL    HW215021   1.170   6.409   1.702
 4708SOL     OW15022   1.632   1.787   5.573
 4708SOL    HW115023   1.623   1.829   5.663
 4708SOL    HW215024   1.565   1.714   5.563
 4709SOL     OW15025   4.909   5.318   5.099
 4709SOL    HW115026   4.916   5.401   5.044
 4709SOL    HW215027   4.833   5.262   5.065
 4710SOL     OW15028   5.340   0.003   6.191
 4710SOL    HW115029   5.386   6.991   6.108
 4710SOL    HW215030   5.407   0.025   6.261
 4711SOL     OW15031   6.238   1.330   1.992
 4711SOL    HW115032   6.189   1.404   1.947
 4711SOL    HW215033   6.273   1.362   2.080
 4712SOL     OW15034   3.454   4.764   6.745
 4712SOL    HW115035   3.360   4.734   6.730
 4712SOL    HW215036   3.509   4.746   6.663
 4713SOL     OW15037   3.835   5.245   1.075
 4713SOL    HW115038   3.862   5.187   0.998
 4713SOL    HW215039   3.902   5.318   1.087
 4714SOL     OW15040   0.407   1.306   6.164
 4714SOL    HW115041   0.375   1.226   6.114
 4714SOL    HW215042   0.357   1.387   6.133
 4715SOL     OW15043   5.751   3.191   1.471
 4715SOL    HW115044   5.851   3.182   1.477
 4715SOL    HW215045   5.725   3.287   1.479
 4716SOL     OW15046   4.242   6.388   5.623
 4716SOL    HW115047   4.318   6.372   5.561
 4716SOL    HW215048   4.275   6.390   5.717
 4717SOL     OW15049   0.682   5.895   5.002
 4717SOL    HW115050   0.714   5.819   5.058
 4717SOL    HW215051   0.729   5.979   5.029
 4718SOL     OW15052   5.170   2.257   1.108
 4718SOL    HW115053   5.262   2.256   1.146
 4718SOL    HW215054   5.122   2.173   1.134
 4719SOL     OW15055   5.008   3.662   2.264
 4719SOL    HW115056   4.977   3.627   2.352
 4719SOL    HW215057   4.993   3.593   2.193
 4720SOL     OW15058   1.934   5.177   5.990
 4720SOL    HW115059   1.988   5.186   5.906
 4720SOL    HW215060   1.867   5.251   5.995
 4721SOL     OW15061   6.361   2.094   1.750
 4721SOL    HW115062   6.403   2.176   1.710
 4721SOL    HW215063   6.433   2.035   1.787
 4722SOL     OW15064   0.907   6.336   6.612
 4722SOL    HW115065   0.818   6.320   6.655
 4722SOL    HW215066   0.976   6.352   6.682
 4723SOL     OW15067   2.846   3.384   5.146
 4723SOL    HW115068   2.754   3.354   5.173
 4723SOL    HW215069   2.914   3.333   5.198
 4724SOL     OW15070   0.035   0.100   4.349
 4724SOL    HW115071   6.986   0.155   4.400
 4724SOL    HW215072   0.110   0.073   4.411
 4725SOL     OW15073   6.430   4.825   0.358
 4725SOL    HW115074   6.442   4.726   0.356
 4725SOL    HW215075   6.502   4.866   0.414
 4726SOL     OW15076   1.481   3.418   6.185
 4726SOL    HW115077   1.414   3.489   6.206
 4726SOL    HW215078   1.568   3.460   6.159
 4727SOL     OW15079   0.499   6.371   1.356
 4727SOL    HW115080   0.509   6.274   1.379
 4727SOL    HW215081   0.475   6.422   1.439
 4728SOL     OW15082   6.467   0.495   2.626
 4728SOL    HW115083   6.487   0.560   2.699
 4728SOL    HW215084   6.519   0.519   2.544
 4729SOL     OW15085   4.770   0.765   0.208
 4729SOL    HW115086   4.822   0.707   0.146
 4729SOL    HW215087   4.820   0.850   0.224
 4730SOL     OW15088   3.323   6.075   5.212
 4730SOL    HW115089   3.350   5.999   5.152
 4730SOL    HW215090   3.356   6.056   5.305
 4731SOL     OW15091   3.152   1.039   0.729
 4731SOL    HW115092   3.146   1.131   0.692
 4731SOL    HW215093   3.112   1.036   0.820
 4732SOL     OW15094   0.557   3.184   5.375
 4732SOL    HW115095   0.598   3.255   5.432
 4732SOL    HW215096   0.571   3.206   5.279
 4733SOL     OW15097   1.086   3.626   3.767
 4733SOL    HW115098   1.103   3.667   3.677
 4733SOL    HW215099   1.084   3.699   3.836
 4734SOL     OW15100   4.589   3.115   0.499
 4734SOL    HW115101   4.592   3.212   0.473
 4734SOL    HW215102   4.521   3.068   0.445
 4735SOL     OW15103   6.783   5.775   4.244
 4735SOL    HW115104   6.714   5.725   4.192
 4735SOL    HW215105   6.737   5.838   4.307
 4736SOL     OW15106   5.395   1.790   5.857
 4736SOL    HW115107   5.384   1.887   5.878
 4736SOL    HW215108   5.491   1.764   5.867
 4737SOL     OW15109   2.707   4.310   0.661
 4737SOL    HW115110   2.791   4.333   0.709
 4737SOL    HW215111   2.640   4.276   0.727
 4738SOL     OW15112   3.055   6.120   3.256
 4738SOL    HW115113   3.051   6.029   3.297
 4738SOL    HW215114   2.967   6.140   3.212
 4739SOL     OW15115   5.146   1.356   3.100
 4739SOL    HW115116   5.146   1.257   3.085
 4739SOL    HW215117   5.238   1.392   3.086
 4740SOL     OW15118   0.241   0.482   0.670
 4740SOL    HW115119   0.204   0.509   0.759
 4740SOL    HW215120   0.325   0.532   0.652
 4741SOL     OW15121   4.556   3.441   1.294
 4741SOL    HW115122   4.506   3.504   1.235
 4741SOL    HW215123   4.504   3.427   1.378
 4742SOL     OW15124   2.576   6.813   1.507
 4742SOL    HW115125   2.546   6.814   1.411
 4742SOL    HW215126   2.660   6.758   1.514
 4743SOL     OW15127   1.551   2.569   5.325
 4743SOL    HW115128   1.513   2.641   5.383
 4743SOL    HW215129   1.598   2.502   5.381
 4744SOL     OW15130   2.566   3.709   5.790
 4744SOL    HW115131   2.568   3.763   5.874
 4744SOL    HW215132   2.660   3.684   5.764
 4745SOL     OW15133   2.285   5.459   5.438
 4745SOL    HW115134   2.267   5.361   5.434
 4745SOL    HW215135   2.382   5.474   5.460
 4746SOL     OW15136   6.142   5.947   2.398
 4746SOL    HW115137   6.076   5.880   2.431
 4746SOL    HW215138   6.233   5.905   2.396
 4747SOL     OW15139   1.521   3.885   6.745
 4747SOL    HW115140   1.558   3.795   6.767
 4747SOL    HW215141   1.593   3.942   6.704
 4748SOL     OW15142   1.523   5.228   0.824
 4748SOL    HW115143   1.495   5.320   0.796
 4748SOL    HW215144   1.500   5.163   0.751
 4749SOL     OW15145   3.036   6.237   5.194
 4749SOL    HW115146   3.121   6.288   5.188
 4749SOL    HW215147   3.006   6.233   5.290
 4750SOL     OW15148   0.388   3.282   4.379
 4750SOL    HW115149   0.474   3.330   4.393
 4750SOL    HW215150   0.319   3.316   4.443
 4751SOL     OW15151   2.466   2.721   0.330
 4751SOL    HW115152   2.409   2.804   0.321
 4751SOL    HW215153   2.485   2.684   0.240
 4752SOL     OW15154   2.740   6.937   0.016
 4752SOL    HW115155   2.825   6.982   0.042
 4752SOL    HW215156   2.666   6.967   0.075
 4753SOL     OW15157   5.647   0.107   4.159
 4753SOL    HW115158   5.606   0.149   4.240
 4753SOL    HW215159   5.745   0.126   4.158
 4754SOL     OW15160   6.024   0.482   5.389
 4754SOL    HW115161   6.048   0.478   5.486
 4754SOL    HW215162   5.934   0.524   5.378
 4755SOL     OW15163   2.920   0.485   0.692
 4755SOL    HW115164   2.968   0.550   0.634
 4755SOL    HW215165   2.847   0.532   0.742
 4756SOL     OW15166   5.793   2.772   1.246
 4756SOL    HW115167   5.815   2.716   1.326
 4756SOL    HW215168   5.735   2.848   1.274
 4757SOL     OW15169   1.391   2.302   2.180
 4757SOL    HW115170   1.490   2.319   2.180
 4757SOL    HW215171   1.350   2.345   2.260
 4758SOL     OW15172   2.973   6.223   4.764
 4758SOL    HW115173   2.917   6.290   4.716
 4758SOL    HW215174   2.981   6.140   4.709
 4759SOL     OW15175   5.841   5.468   4.565
 4759SOL    HW115176   5.891   5.501   4.645
 4759SOL    HW215177   5.777   5.396   4.594
 4760SOL     OW15178   3.636   1.846   0.696
 4760SOL    HW115179   3.695   1.927   0.694
 4760SOL    HW215180   3.569   1.855   0.769
 4761SOL     OW15181   0.575   6.804   6.527
 4761SOL    HW115182   0.497   6.805   6.589
 4761SOL    HW215183   0.647   6.863   6.563
 4762SOL     OW15184   2.403   5.213   2.842
 4762SOL    HW115185   2.447   5.185   2.928
 4762SOL    HW215186   2.358   5.301   2.855
 4763SOL     OW15187   5.820   6.228   3.621
 4763SOL    HW115188   5.888   6.256   3.553
 4763SOL    HW215189   5.868   6.196   3.703
 4764SOL     OW15190   5.080   4.254   5.535
 4764SOL    HW115191   5.160   4.273   5.592
 4764SOL    HW215192   5.110   4.215   5.448
 4765SOL     OW15193   5.311   0.373   4.688
 4765SOL    HW115194   5.212   0.384   4.673
 4765SOL    HW215195   5.359   0.379   4.601
 4766SOL     OW15196   4.661   0.250   3.778
 4766SOL    HW115197   4.631   0.236   3.873
 4766SOL    HW215198   4.588   0.221   3.716
 4767SOL     OW15199   3.869   5.409   6.052
 4767SOL    HW115200   3.802   5.418   6.126
 4767SOL    HW215201   3.833   5.453   5.970
 4768SOL     OW15202   4.157   1.878   4.974
 4768SOL    HW115203   4.069   1.923   4.958
 4768SOL    HW215204   4.229   1.927   4.925
 4769SOL     OW15205   4.752   4.964   0.600
 4769SOL    HW115206   4.710   5.030   0.538
 4769SOL    HW215207   4.683   4.931   0.665
 4770SOL     OW15208   1.192   0.190   4.285
 4770SOL    HW115209   1.162   0.116   4.225
 4770SOL    HW215210   1.262   0.244   4.238
 4771SOL     OW15211   3.442   5.352   5.409
 4771SOL    HW115212   3.493   5.349   5.495
 4771SOL    HW215213   3.497   5.400   5.340
 4772SOL     OW15214   2.618   5.358   1.639
 4772SOL    HW115215   2.662   5.269   1.644
 4772SOL    HW215216   2.677   5.427   1.680
 4773SOL     OW15217   6.320   5.333   4.745
 4773SOL    HW115218   6.363   5.423   4.741
 4773SOL    HW215219   6.224   5.341   4.719
 4774SOL     OW15220   1.112   2.670   1.907
 4774SOL    HW115221   1.159   2.662   1.819
 4774SOL    HW215222   1.015   2.652   1.895
 4775SOL     OW15223   5.293   6.937   2.615
 4775SOL    HW115224   5.235   6.921   2.695
 4775SOL    HW215225   5.298   6.854   2.560
 4776SOL     OW15226   1.169   6.399   4.631
 4776SOL    HW115227   1.129   6.469   4.690
 4776SOL    HW215228   1.128   6.403   4.540
 4777SOL     OW15229   2.852   4.680   1.417
 4777SOL    HW115230   2.892   4.606   1.363
 4777SOL    HW215231   2.753   4.682   1.403
 4778SOL     OW15232   5.592   2.330   2.529
 4778SOL    HW115233   5.572   2.297   2.436
 4778SOL    HW215234   5.688   2.313   2.550
 4779SOL     OW15235   6.746   6.583   2.433
 4779SOL    HW115236   6.795   6.642   2.497
 4779SOL    HW215237   6.758   6.619   2.340
 4780SOL     OW15238   0.155   0.510   0.395
 4780SOL    HW115239   0.063   0.511   0.436
 4780SOL    HW215240   0.224   0.506   0.467
 4781SOL     OW15241   2.856   6.553   1.941
 4781SOL    HW115242   2.763   6.580   1.916
 4781SOL    HW215243   2.916   6.633   1.939
 4782SOL     OW15244   4.599   6.089   0.365
 4782SOL    HW115245   4.647   6.064   0.450
 4782SOL    HW215246   4.604   6.012   0.301
 4783SOL     OW15247   4.519   4.581   6.887
 4783SOL    HW115248   4.566   4.608   6.971
 4783SOL    HW215249   4.586   4.574   6.812
 4784SOL     OW15250   6.301   4.077   6.364
 4784SOL    HW115251   6.204   4.086   6.339
 4784SOL    HW215252   6.323   4.145   6.434
 4785SOL     OW15253   6.086   5.644   1.586
 4785SOL    HW115254   6.174   5.683   1.559
 4785SOL    HW215255   6.035   5.617   1.505
 4786SOL     OW15256   2.531   2.375   1.539
 4786SOL    HW115257   2.447   2.354   1.590
 4786SOL    HW215258   2.605   2.392   1.604
 4787SOL     OW15259   3.357   2.074   3.375
 4787SOL    HW115260   3.291   2.000   3.390
 4787SOL    HW215261   3.349   2.106   3.280
 4788SOL     OW15262   0.997   5.004   5.976
 4788SOL    HW115263   0.920   5.020   5.913
 4788SOL    HW215264   1.043   5.091   5.994
 4789SOL     OW15265   5.856   0.882   0.075
 4789SOL    HW115266   5.878   0.864   6.997
 4789SOL    HW215267   5.779   0.825   0.103
 4790SOL     OW15268   0.406   2.823   5.841
 4790SOL    HW115269   0.465   2.865   5.771
 4790SOL    HW215270   0.458   2.752   5.889
 4791SOL     OW15271   6.228   1.887   1.195
 4791SOL    HW115272   6.141   1.891   1.144
 4791SOL    HW215273   6.288   1.820   1.151
 4792SOL     OW15274   2.110   3.247   2.662
 4792SOL    HW115275   2.086   3.322   2.724
 4792SOL    HW215276   2.122   3.283   2.569
 4793SOL     OW15277   1.842   3.057   5.819
 4793SOL    HW115278   1.875   2.963   5.809
 4793SOL    HW215279   1.851   3.086   5.914
 4794SOL     OW15280   4.514   0.438   3.104
 4794SOL    HW115281   4.434   0.493   3.082
 4794SOL    HW215282   4.590   0.463   3.043
 4795SOL     OW15283   6.651   1.452   2.906
 4795SOL    HW115284   6.606   1.498   2.983
 4795SOL    HW215285   6.741   1.420   2.935
 4796SOL     OW15286   5.181   2.205   6.520
 4796SOL    HW115287   5.123   2.159   6.453
 4796SOL    HW215288   5.174   2.157   6.608
 4797SOL     OW15289   1.808   6.279   5.611
 4797SOL    HW115290   1.873   6.284   5.535
 4797SOL    HW215291   1.857   6.288   5.697
 4798SOL     OW15292   0.308   2.574   5.100
 4798SOL    HW115293   0.276   2.602   5.010
 4798SOL    HW215294   0.263   2.629   5.170
 4799SOL     OW15295   4.804   2.370   6.420
 4799SOL    HW115296   4.788   2.332   6.511
 4799SOL    HW215297   4.824   2.468   6.427
 4800SOL     OW15298   2.359   3.551   5.682
 4800SOL    HW115299   2.403   3.526   5.768
 4800SOL    HW215300   2.412   3.623   5.637
 4801SOL     OW15301   2.762   2.259   1.188
 4801SOL    HW115302   2.753   2.271   1.089
 4801SOL    HW215303   2.742   2.345   1.234
 4802SOL     OW15304   1.080   6.357   2.232
 4802SOL    HW115305   1.173   6.359   2.196
 4802SOL    HW215306   1.073   6.421   2.309
 4803SOL     OW15307   1.384   6.277   1.080
 4803SOL    HW115308   1.467   6.332   1.089
 4803SOL    HW215309   1.336   6.303   0.996
 4804SOL     OW15310   4.872   5.606   6.572
 4804SOL    HW115311   4.876   5.702   6.545
 4804SOL    HW215312   4.962   5.564   6.559
 4805SOL     OW15313   5.912   0.434   1.118
 4805SOL    HW115314   5.902   0.359   1.053
 4805SOL    HW215315   6.008   0.446   1.141
 4806SOL     OW15316   1.033   4.620   3.015
 4806SOL    HW115317   1.068   4.607   2.922
 4806SOL    HW215318   1.108   4.610   3.081
 4807SOL     OW15319   1.259   4.966   0.165
 4807SOL    HW115320   1.235   4.970   0.262
 4807SOL    HW215321   1.354   4.996   0.153
 4808SOL     OW15322   6.319   3.798   6.811
 4808SOL    HW115323   6.408   3.817   6.769
 4808SOL    HW215324   6.331   3.790   6.910
 4809SOL     OW15325   3.788   4.210   6.980
 4809SOL    HW115326   3.785   4.257   0.051
 4809SOL    HW215327   3.709   4.238   6.925
 4810SOL     OW15328   1.114   5.148   2.035
 4810SOL    HW115329   1.119   5.228   2.095
 4810SOL    HW215330   1.146   5.067   2.085
 4811SOL     OW15331   1.847   4.756   2.092
 4811SOL    HW115332   1.837   4.765   1.993
 4811SOL    HW215333   1.760   4.728   2.132
 4812SOL     OW15334   6.964   5.024   4.867
 4812SOL    HW115335   6.969   4.928   4.895
 4812SOL    HW215336   6.868   5.051   4.860
 4813SOL     OW15337   5.453   1.881   0.706
 4813SOL    HW115338   5.482   1.970   0.669
 4813SOL    HW215339   5.531   1.836   0.749
 4814SOL     OW15340   5.741   4.050   0.787
 4814SOL    HW115341   5.735   3.978   0.718
 4814SOL    HW215342   5.768   4.010   0.874
 4815SOL     OW15343   6.010   4.556   3.170
 4815SOL    HW115344   6.028   4.513   3.258
 4815SOL    HW215345   5.933   4.619   3.179
 4816SOL     OW15346   0.449   5.236   1.906
 4816SOL    HW115347   0.403   5.255   1.993
 4816SOL    HW215348   0.385   5.250   1.831
 4817SOL     OW15349   1.455   2.565   6.434
 4817SOL    HW115350   1.355   2.555   6.431
 4817SOL    HW215351   1.487   2.543   6.526
 4818SOL     OW15352   1.113   0.651   4.917
 4818SOL    HW115353   1.182   0.583   4.893
 4818SOL    HW215354   1.152   0.716   4.983
 4819SOL     OW15355   1.161   2.444   6.921
 4819SOL    HW115356   1.222   2.425   6.845
 4819SOL    HW215357   1.206   2.507   6.985
 4820SOL     OW15358   6.832   2.588   1.023
 4820SOL    HW115359   6.743   2.634   1.035
 4820SOL    HW215360   6.899   2.654   0.988
 4821SOL     OW15361   1.463   6.355   2.474
 4821SOL    HW115362   1.527   6.420   2.517
 4821SOL    HW215363   1.510   6.270   2.453
 4822SOL     OW15364   1.523   3.074   4.810
 4822SOL    HW115365   1.581   2.996   4.836
 4822SOL    HW215366   1.530   3.090   4.712
 4823SOL     OW15367   1.574   1.282   4.163
 4823SOL    HW115368   1.572   1.335   4.078
 4823SOL    HW215369   1.513   1.203   4.153
 4824SOL     OW15370   4.571   2.173   5.011
 4824SOL    HW115371   4.554   2.097   4.948
 4824SOL    HW215372   4.537   2.258   4.970
 4825SOL     OW15373   1.418   2.526   4.440
 4825SOL    HW115374   1.422   2.588   4.361
 4825SOL    HW215375   1.509   2.488   4.456
 4826SOL     OW15376   5.556   0.495   0.129
 4826SOL    HW115377   5.523   0.410   0.168
 4826SOL    HW215378   5.480   0.548   0.092
 4827SOL     OW15379   6.381   1.655   0.500
 4827SOL    HW115380   6.398   1.564   0.461
 4827SOL    HW215381   6.383   1.723   0.426
 4828SOL     OW15382   5.196   1.110   0.689
 4828SOL    HW115383   5.166   1.204   0.700
 4828SOL    HW215384   5.121   1.054   0.653
 4829SOL     OW15385   3.185   0.264   5.806
 4829SOL    HW115386   3.229   0.312   5.882
 4829SOL    HW215387   3.198   0.317   5.722
 4830SOL     OW15388   3.589   5.669   3.940
 4830SOL    HW115389   3.523   5.734   3.979
 4830SOL    HW215390   3.591   5.587   3.997
 4831SOL     OW15391   1.656   4.457   5.740
 4831SOL    HW115392   1.592   4.395   5.695
 4831SOL    HW215393   1.607   4.539   5.771
 4832SOL     OW15394   3.496   3.931   3.668
 4832SOL    HW115395   3.442   3.998   3.617
 4832SOL    HW215396   3.445   3.846   3.675
 4833SOL     OW15397   5.996   1.627   3.001
 4833SOL    HW115398   5.928   1.656   3.067
 4833SOL    HW215399   6.000   1.693   2.926
 4834SOL     OW15400   2.779   5.592   2.054
 4834SOL    HW115401   2.817   5.572   2.145
 4834SOL    HW215402   2.823   5.674   2.018
 4835SOL     OW15403   5.589   3.026   5.763
 4835SOL    HW115404   5.646   2.991   5.838
 4835SOL    HW215405   5.617   2.984   5.677
 4836SOL     OW15406   5.109   1.824   4.799
 4836SOL    HW115407   5.080   1.798   4.890
 4836SOL    HW215408   5.161   1.749   4.757
 4837SOL     OW15409   0.166   3.103   3.015
 4837SOL    HW115410   0.116   3.098   2.928
 4837SOL    HW215411   0.144   3.023   3.070
 4838SOL     OW15412   2.544   6.128   0.391
 4838SOL    HW115413   2.578   6.178   0.470
 4838SOL    HW215414   2.484   6.186   0.337
 4839SOL     OW15415   0.885   3.581   6.884
 4839SOL    HW115416   0.969   3.574   6.937
 4839SOL    HW215417   0.889   3.515   6.808
 4840SOL     OW15418   6.577   4.549   5.990
 4840SOL    HW115419   6.668   4.509   5.985
 4840SOL    HW215420   6.523   4.502   6.060
 4841SOL     OW15421   2.544   4.955   3.256
 4841SOL    HW115422   2.604   4.905   3.194
 4841SOL    HW215423   2.469   4.895   3.286
 4842SOL     OW15424   2.685   4.993   3.525
 4842SOL    HW115425   2.641   4.961   3.441
 4842SOL    HW215426   2.721   4.914   3.575
 4843SOL     OW15427   6.523   2.779   1.576
 4843SOL    HW115428   6.497   2.802   1.670
 4843SOL    HW215429   6.499   2.684   1.557
 4844SOL     OW15430   0.261   4.179   5.761
 4844SOL    HW115431   0.341   4.210   5.812
 4844SOL    HW215432   0.283   4.093   5.714
 4845SOL     OW15433   4.784   5.118   6.530
 4845SOL    HW115434   4.733   5.065   6.462
 4845SOL    HW215435   4.808   5.207   6.491
 4846SOL     OW15436   0.284   2.008   3.717
 4846SOL    HW115437   0.377   1.976   3.697
 4846SOL    HW215438   0.219   1.934   3.700
 4847SOL     OW15439   2.370   1.651   5.824
 4847SOL    HW115440   2.343   1.684   5.914
 4847SOL    HW215441   2.394   1.728   5.766
 4848SOL     OW15442   2.747   0.882   4.883
 4848SOL    HW115443   2.713   0.973   4.861
 4848SOL    HW215444   2.824   0.890   4.946
 4849SOL     OW15445   1.654   5.706   1.241
 4849SOL    HW115446   1.746   5.745   1.231
 4849SOL    HW215447   1.585   5.776   1.223
 4850SOL     OW15448   5.033   1.063   1.348
 4850SOL    HW115449   5.107   0.995   1.346
 4850SOL    HW215450   4.964   1.040   1.280
 4851SOL     OW15451   2.898   5.679   5.693
 4851SOL    HW115452   2.898   5.777   5.712
 4851SOL    HW215453   2.976   5.636   5.739
 4852SOL     OW15454   2.532   5.883   5.082
 4852SOL    HW115455   2.566   5.825   5.009
 4852SOL    HW215456   2.488   5.964   5.043
 4853SOL     OW15457   3.870   1.184   3.155
 4853SOL    HW115458   3.828   1.237   3.081
 4853SOL    HW215459   3.909   1.246   3.223
 4854SOL     OW15460   4.953   0.283   2.046
 4854SOL    HW115461   5.029   0.311   1.987
 4854SOL    HW215462   4.867   0.299   1.999
 4855SOL     OW15463   6.235   3.453   5.288
 4855SOL    HW115464   6.248   3.359   5.256
 4855SOL    HW215465   6.220   3.453   5.386
 4856SOL     OW15466   1.315   2.942   2.695
 4856SOL    HW115467   1.409   2.970   2.709
 4856SOL    HW215468   1.284   2.890   2.775
 4857SOL     OW15469   2.917   1.959   3.553
 4857SOL    HW115470   2.924   2.059   3.545
 4857SOL    HW215471   3.008   1.919   3.542
 4858SOL     OW15472   6.982   6.624   5.067
 4858SOL    HW115473   6.940   6.538   5.039
 4858SOL    HW215474   6.928   6.701   5.032
 4859SOL     OW15475   0.526   4.855   1.545
 4859SOL    HW115476   0.583   4.805   1.611
 4859SOL    HW215477   0.535   4.953   1.561
 4860SOL     OW15478   4.150   4.730   0.285
 4860SOL    HW115479   4.163   4.771   0.194
 4860SOL    HW215480   4.157   4.631   0.278
 4861SOL     OW15481   6.031   5.461   6.638
 4861SOL    HW115482   6.055   5.365   6.648
 4861SOL    HW215483   6.084   5.516   6.702
 4862SOL     OW15484   2.421   4.491   5.001
 4862SOL    HW115485   2.440   4.511   4.905
 4862SOL    HW215486   2.489   4.535   5.059
 4863SOL     OW15487   4.971   3.039   2.660
 4863SOL    HW115488   4.934   2.952   2.627
 4863SOL    HW215489   5.040   3.073   2.595
 4864SOL     OW15490   3.789   1.769   1.781
 4864SOL    HW115491   3.808   1.715   1.863
 4864SOL    HW215492   3.696   1.751   1.749
 4865SOL     OW15493   2.584   5.869   4.805
 4865SOL    HW115494   2.625   5.894   4.717
 4865SOL    HW215495   2.501   5.922   4.821
 4866SOL     OW15496   5.858   4.434   0.998
 4866SOL    HW115497   5.934   4.479   1.043
 4866SOL    HW215498   5.802   4.386   1.065
 4867SOL     OW15499   4.490   5.692   3.597
 4867SOL    HW115500   4.544   5.746   3.532
 4867SOL    HW215501   4.545   5.615   3.629
 4868SOL     OW15502   0.226   5.268   1.739
 4868SOL    HW115503   0.235   5.241   1.643
 4868SOL    HW215504   0.130   5.261   1.767
 4869SOL     OW15505   0.192   2.748   0.859
 4869SOL    HW115506   0.275   2.802   0.868
 4869SOL    HW215507   0.176   2.696   0.943
 4870SOL     OW15508   5.043   5.119   1.894
 4870SOL    HW115509   4.969   5.099   1.958
 4870SOL    HW215510   5.006   5.130   1.802
 4871SOL     OW15511   0.104   1.106   4.323
 4871SOL    HW115512   0.068   1.013   4.324
 4871SOL    HW215513   0.199   1.105   4.292
 4872SOL     OW15514   0.746   6.068   4.130
 4872SOL    HW115515   0.780   6.162   4.122
 4872SOL    HW215516   0.822   6.004   4.120
 4873SOL     OW15517   0.138   5.047   3.825
 4873SOL    HW115518   0.207   5.067   3.895
 4873SOL    HW215519   0.182   5.037   3.736
 4874SOL     OW15520   5.915   3.629   2.576
 4874SOL    HW115521   5.995   3.684   2.600
 4874SOL    HW215522   5.931   3.584   2.488
 4875SOL     OW15523   5.258   2.601   1.122
 4875SOL    HW115524   5.168   2.643   1.121
 4875SOL    HW215525   5.257   2.523   1.185
 4876SOL     OW15526   6.268   0.263   4.597
 4876SOL    HW115527   6.345   0.300   4.545
 4876SOL    HW215528   6.279   0.286   4.693
 4877SOL     OW15529   6.667   1.575   0.866
 4877SOL    HW115530   6.569   1.582   0.845
 4877SOL    HW215531   6.707   1.666   0.870
 4878SOL     OW15532   6.146   1.926   2.387
 4878SOL    HW115533   6.101   2.007   2.352
 4878SOL    HW215534   6.245   1.933   2.372
 4879SOL     OW15535   4.367   5.188   3.652
 4879SOL    HW115536   4.308   5.107   3.652
 4879SOL    HW215537   4.421   5.190   3.736
 4880SOL     OW15538   5.361   2.927   6.480
 4880SOL    HW115539   5.312   2.866   6.542
 4880SOL    HW215540   5.408   2.872   6.410
 4881SOL     OW15541   2.337   5.984   0.199
 4881SOL    HW115542   2.387   6.069   0.183
 4881SOL    HW215543   2.277   5.995   0.277
 4882SOL     OW15544   6.302   1.551   4.918
 4882SOL    HW115545   6.323   1.624   4.852
 4882SOL    HW215546   6.383   1.495   4.933
 4883SOL     OW15547   5.297   4.567   2.390
 4883SOL    HW115548   5.311   4.645   2.452
 4883SOL    HW215549   5.368   4.567   2.320
 4884SOL     OW15550   4.206   6.969   0.545
 4884SOL    HW115551   4.300   6.973   0.511
 4884SOL    HW215552   4.187   6.876   0.577
 4885SOL     OW15553   2.931   6.255   2.580
 4885SOL    HW115554   2.835   6.244   2.555
 4885SOL    HW215555   2.937   6.298   2.670
 4886SOL     OW15556   0.251   5.770   6.154
 4886SOL    HW115557   0.155   5.796   6.142
 4886SOL    HW215558   0.292   5.826   6.226
 4887SOL     OW15559   0.273   1.542   2.562
 4887SOL    HW115560   0.350   1.544   2.498
 4887SOL    HW215561   0.187   1.537   2.510
 4888SOL     OW15562   2.117   6.268   4.049
 4888SOL    HW115563   2.114   6.349   4.108
 4888SOL    HW215564   2.207   6.262   4.006
 4889SOL     OW15565   0.226   1.935   6.669
 4889SOL    HW115566   0.252   2.029   6.690
 4889SOL    HW215567   0.299   1.891   6.617
 4890SOL     OW15568   0.421   1.883   4.926
 4890SOL    HW115569   0.452   1.971   4.962
 4890SOL    HW215570   0.347   1.848   4.985
 4891SOL     OW15571   1.352   5.733   6.932
 4891SOL    HW115572   1.422   5.780   6.879
 4891SOL    HW215573   1.299   5.800   6.984
 4892SOL     OW15574   2.625   5.858   2.246
 4892SOL    HW115575   2.573   5.791   2.192
 4892SOL    HW215576   2.626   5.946   2.197
 4893SOL     OW15577   6.296   4.594   6.511
 4893SOL    HW115578   6.221   4.564   6.452
 4893SOL    HW215579   6.272   4.680   6.555
 4894SOL     OW15580   2.528   0.522   1.921
 4894SOL    HW115581   2.550   0.455   1.993
 4894SOL    HW215582   2.450   0.577   1.950
 4895SOL     OW15583   6.954   4.654   1.372
 4895SOL    HW115584   0.008   4.616   1.429
 4895SOL    HW215585   6.993   4.688   1.286
 4896SOL     OW15586   2.726   5.453   2.960
 4896SOL    HW115587   2.745   5.537   2.909
 4896SOL    HW215588   2.743   5.374   2.902
 4897SOL     OW15589   2.789   5.120   6.380
 4897SOL    HW115590   2.889   5.131   6.386
 4897SOL    HW215591   2.748   5.208   6.357
 4898SOL     OW15592   5.972   1.543   4.972
 4898SOL    HW115593   6.000   1.524   4.878
 4898SOL    HW215594   6.038   1.504   5.036
 4899SOL     OW15595   6.619   4.393   2.565
 4899SOL    HW115596   6.625   4.396   2.665
 4899SOL    HW215597   6.648   4.480   2.527
 4900SOL     OW15598   1.959   6.022   5.324
 4900SOL    HW115599   1.996   6.035   5.232
 4900SOL    HW215600   1.983   6.101   5.380
 4901SOL     OW15601   2.292   6.767   5.203
 4901SOL    HW115602   2.204   6.813   5.206
 4901SOL    HW215603   2.285   6.682   5.150
 4902SOL     OW15604   2.166   2.120   4.341
 4902SOL    HW115605   2.154   2.219   4.351
 4902SOL    HW215606   2.133   2.092   4.251
 4903SOL     OW15607   3.304   6.607   6.863
 4903SOL    HW115608   3.259   6.527   6.903
 4903SOL    HW215609   3.393   6.579   6.825
 4904SOL     OW15610   1.744   0.311   3.916
 4904SOL    HW115611   1.735   0.288   3.819
 4904SOL    HW215612   1.708   0.403   3.932
 4905SOL     OW15613   4.225   2.034   2.410
 4905SOL    HW115614   4.144   2.065   2.458
 4905SOL    HW215615   4.297   2.012   2.477
 4906SOL     OW15616   3.404   0.949   6.497
 4906SOL    HW115617   3.327   1.012   6.498
 4906SOL    HW215618   3.458   0.962   6.415
 4907SOL     OW15619   4.241   5.966   2.734
 4907SOL    HW115620   4.203   5.879   2.702
 4907SOL    HW215621   4.258   6.026   2.656
 4908SOL     OW15622   3.746   5.235   6.827
 4908SOL    HW115623   3.815   5.306   6.840
 4908SOL    HW215624   3.742   5.177   6.908
 4909SOL     OW15625   6.293   0.063   6.530
 4909SOL    HW115626   6.345   0.143   6.498
 4909SOL    HW215627   6.303   0.056   6.629
 4910SOL     OW15628   5.632   0.109   5.105
 4910SOL    HW115629   5.659   0.077   5.014
 4910SOL    HW215630   5.600   0.031   5.159
 4911SOL     OW15631   6.836   2.657   5.722
 4911SOL    HW115632   6.825   2.718   5.801
 4911SOL    HW215633   6.773   2.580   5.731
 4912SOL     OW15634   5.276   1.780   1.091
 4912SOL    HW115635   5.233   1.805   1.177
 4912SOL    HW215636   5.223   1.817   1.015
 4913SOL     OW15637   3.670   3.710   3.696
 4913SOL    HW115638   3.733   3.759   3.635
 4913SOL    HW215639   3.592   3.677   3.644
 4914SOL     OW15640   3.628   0.965   4.851
 4914SOL    HW115641   3.621   1.054   4.806
 4914SOL    HW215642   3.635   0.893   4.782
 4915SOL     OW15643   4.770   0.442   4.812
 4915SOL    HW115644   4.773   0.380   4.734
 4915SOL    HW215645   4.701   0.410   4.878
 4916SOL     OW15646   1.628   1.603   2.940
 4916SOL    HW115647   1.683   1.520   2.937
 4916SOL    HW215648   1.657   1.666   2.869
 4917SOL     OW15649   1.862   3.892   0.346
 4917SOL    HW115650   1.929   3.896   0.271
 4917SOL    HW215651   1.774   3.927   0.314
 4918SOL     OW15652   3.171   0.248   2.756
 4918SOL    HW115653   3.255   0.249   2.703
 4918SOL    HW215654   3.099   0.295   2.705
 4919SOL     OW15655   2.438   2.071   1.934
 4919SOL    HW115656   2.459   1.976   1.958
 4919SOL    HW215657   2.520   2.116   1.899
 4920SOL     OW15658   3.972   0.439   6.838
 4920SOL    HW115659   4.032   0.359   6.826
 4920SOL    HW215660   4.024   0.512   6.882
 4921SOL     OW15661   2.220   4.066   1.537
 4921SOL    HW115662   2.244   4.162   1.523
 4921SOL    HW215663   2.156   4.058   1.613
 4922SOL     OW15664   1.003   3.399   4.962
 4922SOL    HW115665   1.040   3.410   4.870
 4922SOL    HW215666   1.064   3.442   5.029
 4923SOL     OW15667   4.573   0.802   1.264
 4923SOL    HW115668   4.549   0.859   1.343
 4923SOL    HW215669   4.516   0.719   1.265
 4924SOL     OW15670   2.212   2.966   5.683
 4924SOL    HW115671   2.157   2.951   5.601
 4924SOL    HW215672   2.308   2.976   5.658
 4925SOL     OW15673   6.545   6.369   0.605
 4925SOL    HW115674   6.631   6.323   0.625
 4925SOL    HW215675   6.487   6.368   0.687
 4926SOL     OW15676   5.257   2.995   1.578
 4926SOL    HW115677   5.243   2.991   1.677
 4926SOL    HW215678   5.169   3.011   1.533
 4927SOL     OW15679   4.007   3.549   3.740
 4927SOL    HW115680   3.945   3.471   3.730
 4927SOL    HW215681   4.030   3.562   3.837
 4928SOL     OW15682   0.272   6.966   6.751
 4928SOL    HW115683   0.299   6.979   6.655
 4928SOL    HW215684   0.206   0.020   6.777
 4929SOL     OW15685   1.034   4.183   5.478
 4929SOL    HW115686   1.016   4.200   5.381
 4929SOL    HW215687   1.084   4.261   5.517
 4930SOL     OW15688   6.379   0.323   1.285
 4930SOL    HW115689   6.373   0.349   1.381
 4930SOL    HW215690   6.470   0.348   1.250
 4931SOL     OW15691   0.903   6.513   0.813
 4931SOL    HW115692   0.936   6.595   0.765
 4931SOL    HW215693   0.977   6.474   0.866
 4932SOL     OW15694   2.309   3.319   1.656
 4932SOL    HW115695   2.388   3.295   1.599
 4932SOL    HW215696   2.340   3.354   1.744
 4933SOL     OW15697   2.393   0.280   4.472
 4933SOL    HW115698   2.405   0.187   4.437
 4933SOL    HW215699   2.372   0.341   4.396
 4934SOL     OW15700   1.278   5.319   4.028
 4934SOL    HW115701   1.230   5.308   4.115
 4934SOL    HW215702   1.355   5.256   4.025
 4935SOL     OW15703   1.333   0.849   0.082
 4935SOL    HW115704   1.237   0.852   0.109
 4935SOL    HW215705   1.354   0.926   0.023
 4936SOL     OW15706   1.838   5.559   2.109
 4936SOL    HW115707   1.901   5.542   2.033
 4936SOL    HW215708   1.750   5.516   2.090
 4937SOL     OW15709   0.462   3.961   5.939
 4937SOL    HW115710   0.372   3.919   5.926
 4937SOL    HW215711   0.452   4.061   5.941
 4938SOL     OW15712   3.608   5.029   1.523
 4938SOL    HW115713   3.679   5.083   1.567
 4938SOL    HW215714   3.578   4.956   1.585
 4939SOL     OW15715   1.326   2.015   3.378
 4939SOL    HW115716   1.401   2.071   3.343
 4939SOL    HW215717   1.243   2.033   3.326
 4940SOL     OW15718   6.736   1.784   5.465
 4940SOL    HW115719   6.739   1.768   5.564
 4940SOL    HW215720   6.657   1.842   5.443
 4941SOL     OW15721   3.936   2.708   5.346
 4941SOL    HW115722   3.993   2.783   5.379
 4941SOL    HW215723   3.991   2.646   5.290
 4942SOL     OW15724   5.115   3.023   4.231
 4942SOL    HW115725   5.186   3.001   4.164
 4942SOL    HW215726   5.156   3.075   4.307
 4943SOL     OW15727   5.180   3.758   6.522
 4943SOL    HW115728   5.280   3.756   6.525
 4943SOL    HW215729   5.150   3.810   6.442
 4944SOL     OW15730   2.523   4.030   1.513
 4944SOL    HW115731   2.428   4.061   1.512
 4944SOL    HW215732   2.584   4.109   1.524
 4945SOL     OW15733   1.344   0.154   4.740
 4945SOL    HW115734   1.265   0.124   4.794
 4945SOL    HW215735   1.425   0.106   4.772
 4946SOL     OW15736   1.043   5.291   0.301
 4946SOL    HW115737   0.996   5.217   0.252
 4946SOL    HW215738   1.114   5.329   0.242
 4947SOL     OW15739   2.550   1.297   1.533
 4947SOL    HW115740   2.634   1.245   1.517
 4947SOL    HW215741   2.574   1.389   1.566
 4948SOL     OW15742   1.950   2.768   3.275
 4948SOL    HW115743   1.990   2.735   3.190
 4948SOL    HW215744   1.938   2.691   3.338
 4949SOL     OW15745   0.448   3.626   5.023
 4949SOL    HW115746   0.479   3.543   4.976
 4949SOL    HW215747   0.505   3.703   4.996
 4950SOL     OW15748   2.200   4.245   5.775
 4950SOL    HW115749   2.206   4.328   5.720
 4950SOL    HW215750   2.153   4.266   5.861
 4951SOL     OW15751   6.362   6.635   4.430
 4951SOL    HW115752   6.397   6.550   4.469
 4951SOL    HW215753   6.280   6.616   4.376
 4952SOL     OW15754   0.961   6.818   6.187
 4952SOL    HW115755   0.953   6.879   6.266
 4952SOL    HW215756   1.047   6.835   6.140
 4953SOL     OW15757   1.525   6.988   3.400
 4953SOL    HW115758   1.511   6.990   3.499
 4953SOL    HW215759   1.590   6.916   3.377
 4954SOL     OW15760   2.686   3.569   6.579
 4954SOL    HW115761   2.745   3.600   6.504
 4954SOL    HW215762   2.600   3.535   6.542
 4955SOL     OW15763   3.200   6.621   0.241
 4955SOL    HW115764   3.102   6.608   0.226
 4955SOL    HW215765   3.227   6.575   0.325
 4956SOL     OW15766   2.641   0.297   5.217
 4956SOL    HW115767   2.653   0.199   5.228
 4956SOL    HW215768   2.731   0.341   5.211
 4957SOL     OW15769   5.191   3.360   0.744
 4957SOL    HW115770   5.105   3.376   0.695
 4957SOL    HW215771   5.251   3.303   0.688
 4958SOL     OW15772   1.795   5.836   6.006
 4958SOL    HW115773   1.869   5.901   6.024
 4958SOL    HW215774   1.816   5.748   6.049
 4959SOL     OW15775   6.221   1.418   1.190
 4959SOL    HW115776   6.211   1.488   1.261
 4959SOL    HW215777   6.238   1.462   1.102
 4960SOL     OW15778   4.331   4.618   4.097
 4960SOL    HW115779   4.388   4.700   4.094
 4960SOL    HW215780   4.253   4.634   4.157
 4961SOL     OW15781   2.814   0.570   5.963
 4961SOL    HW115782   2.805   0.485   6.014
 4961SOL    HW215783   2.728   0.591   5.918
 4962SOL     OW15784   5.530   2.546   1.014
 4962SOL    HW115785   5.460   2.551   1.085
 4962SOL    HW215786   5.620   2.556   1.056
 4963SOL     OW15787   1.500   5.095   0.599
 4963SOL    HW115788   1.422   5.043   0.634
 4963SOL    HW215789   1.475   5.139   0.513
 4964SOL     OW15790   2.538   0.308   4.706
 4964SOL    HW115791   2.481   0.299   4.624
 4964SOL    HW215792   2.479   0.325   4.785
 4965SOL     OW15793   1.284   6.620   2.793
 4965SOL    HW115794   1.301   6.539   2.737
 4965SOL    HW215795   1.204   6.605   2.850
 4966SOL     OW15796   2.852   6.540   5.051
 4966SOL    HW115797   2.830   6.444   5.039
 4966SOL    HW215798   2.916   6.550   5.127
 4967SOL     OW15799   2.817   5.310   5.694
 4967SOL    HW115800   2.882   5.386   5.698
 4967SOL    HW215801   2.726   5.341   5.721
 4968SOL     OW15802   0.312   1.359   3.544
 4968SOL    HW115803   0.316   1.390   3.639
 4968SOL    HW215804   0.364   1.422   3.487
 4969SOL     OW15805   1.033   6.003   2.392
 4969SOL    HW115806   1.114   6.026   2.337
 4969SOL    HW215807   1.024   5.904   2.399
 4970SOL     OW15808   2.300   1.341   1.221
 4970SOL    HW115809   2.308   1.432   1.261
 4970SOL    HW215810   2.291   1.273   1.293
 4971SOL     OW15811   6.455   5.838   3.122
 4971SOL    HW115812   6.532   5.798   3.073
 4971SOL    HW215813   6.481   5.929   3.155
 4972SOL     OW15814   0.613   3.817   0.691
 4972SOL    HW115815   0.655   3.739   0.644
 4972SOL    HW215816   0.578   3.881   0.623
 4973SOL     OW15817   0.686   0.345   1.653
 4973SOL    HW115818   0.739   0.309   1.730
 4973SOL    HW215819   0.719   0.305   1.568
 4974SOL     OW15820   6.096   4.797   0.505
 4974SOL    HW115821   6.001   4.823   0.487
 4974SOL    HW215822   6.157   4.871   0.476
 4975SOL     OW15823   5.545   3.963   0.145
 4975SOL    HW115824   5.463   3.975   0.202
 4975SOL    HW215825   5.544   4.031   0.072
 4976SOL     OW15826   1.339   1.221   4.353
 4976SOL    HW115827   1.397   1.196   4.431
 4976SOL    HW215828   1.296   1.138   4.317
 4977SOL     OW15829   4.145   5.431   6.848
 4977SOL    HW115830   4.055   5.437   6.890
 4977SOL    HW215831   4.200   5.363   6.897
 4978SOL     OW15832   5.474   4.745   4.244
 4978SOL    HW115833   5.422   4.817   4.199
 4978SOL    HW215834   5.413   4.669   4.266
 4979SOL     OW15835   6.876   6.543   6.174
 4979SOL    HW115836   6.823   6.584   6.100
 4979SOL    HW215837   6.815   6.507   6.244
 4980SOL     OW15838   5.574   5.575   2.965
 4980SOL    HW115839   5.492   5.624   2.936
 4980SOL    HW215840   5.602   5.607   3.055
 4981SOL     OW15841   3.584   5.330   2.464
 4981SOL    HW115842   3.651   5.356   2.534
 4981SOL    HW215843   3.633   5.296   2.383
 4982SOL     OW15844   3.082   2.215   6.051
 4982SOL    HW115845   3.021   2.277   6.002
 4982SOL    HW215846   3.166   2.203   5.998
 4983SOL     OW15847   5.781   3.891   5.132
 4983SOL    HW115848   5.869   3.863   5.171
 4983SOL    HW215849   5.796   3.934   5.043
 4984SOL     OW15850   4.931   3.875   2.839
 4984SOL    HW115851   4.935   3.849   2.743
 4984SOL    HW215852   4.957   3.796   2.895
 4985SOL     OW15853   5.830   6.800   3.260
 4985SOL    HW115854   5.899   6.741   3.218
 4985SOL    HW215855   5.796   6.756   3.344
 4986SOL     OW15856   6.670   4.872   0.551
 4986SOL    HW115857   6.638   4.780   0.576
 4986SOL    HW215858   6.629   4.939   0.613
 4987SOL     OW15859   1.192   6.423   2.501
 4987SOL    HW115860   1.288   6.400   2.483
 4987SOL    HW215861   1.138   6.340   2.506
 4988SOL     OW15862   6.065   0.861   2.462
 4988SOL    HW115863   6.097   0.896   2.374
 4988SOL    HW215864   6.006   0.929   2.505
 4989SOL     OW15865   5.318   6.996   1.113
 4989SOL    HW115866   5.241   0.019   1.161
 4989SOL    HW215867   5.297   6.990   1.015
 4990SOL     OW15868   2.963   2.019   6.274
 4990SOL    HW115869   3.036   2.086   6.264
 4990SOL    HW215870   2.951   1.995   6.370
 4991SOL     OW15871   6.352   5.356   4.002
 4991SOL    HW115872   6.413   5.410   3.943
 4991SOL    HW215873   6.340   5.265   3.962
 4992SOL     OW15874   5.250   0.550   2.087
 4992SOL    HW115875   5.324   0.539   2.153
 4992SOL    HW215876   5.165   0.573   2.135
 4993SOL     OW15877   3.939   6.514   4.922
 4993SOL    HW115878   3.844   6.522   4.891
 4993SOL    HW215879   3.961   6.418   4.938
 4994SOL     OW15880   2.244   6.515   4.492
 4994SOL    HW115881   2.238   6.468   4.404
 4994SOL    HW215882   2.270   6.449   4.563
 4995SOL     OW15883   0.638   1.631   5.667
 4995SOL    HW115884   0.653   1.532   5.664
 4995SOL    HW215885   0.708   1.677   5.613
 4996SOL     OW15886   0.195   0.748   2.403
 4996SOL    HW115887   0.096   0.755   2.392
 4996SOL    HW215888   0.226   0.659   2.372
 4997SOL     OW15889   4.325   2.300   1.996
 4997SOL    HW115890   4.255   2.275   1.929
 4997SOL    HW215891   4.327   2.233   2.069
 4998SOL     OW15892   1.625   3.721   4.460
 4998SOL    HW115893   1.564   3.730   4.381
 4998SOL    HW215894   1.597   3.785   4.532
 4999SOL     OW15895   7.016   3.081   4.644
 4999SOL    HW115896   7.010   3.104   4.741
 4999SOL    HW215897   6.935   3.114   4.596
 5000SOL     OW15898   2.871   6.895   3.243
 5000SOL    HW115899   2.957   6.910   3.290
 5000SOL    HW215900   2.813   6.834   3.298
 5001SOL     OW15901   1.075   5.377   2.197
 5001SOL    HW115902   1.146   5.435   2.156
 5001SOL    HW215903   0.986   5.422   2.188
 5002SOL     OW15904   0.451   4.381   2.271
 5002SOL    HW115905   0.499   4.296   2.292
 5002SOL    HW215906   0.510   4.459   2.291
 5003SOL     OW15907   3.454   6.055   2.998
 5003SOL    HW115908   3.445   6.004   3.084
 5003SOL    HW215909   3.377   6.033   2.938
 5004SOL     OW15910   2.512   4.577   5.912
 5004SOL    HW115911   2.578   4.600   5.841
 5004SOL    HW215912   2.504   4.653   5.976
 5005SOL     OW15913   3.132   3.068   6.818
 5005SOL    HW115914   3.039   3.067   6.781
 5005SOL    HW215915   3.139   3.139   6.889
 5006SOL     OW15916   5.331   0.711   1.617
 5006SOL    HW115917   5.391   0.790   1.634
 5006SOL    HW215918   5.244   0.725   1.664
 5007SOL     OW15919   0.433   0.062   1.500
 5007SOL    HW115920   0.362   0.007   1.456
 5007SOL    HW215921   0.523   0.036   1.464
 5008SOL     OW15922   6.116   6.035   1.686
 5008SOL    HW115923   6.136   6.129   1.659
 5008SOL    HW215924   6.058   6.035   1.768
 5009SOL     OW15925   0.394   2.426   6.760
 5009SOL    HW115926   0.335   2.506   6.759
 5009SOL    HW215927   0.424   2.407   6.853
 5010SOL     OW15928   4.069   2.735   0.680
 5010SOL    HW115929   3.982   2.773   0.711
 5010SOL    HW215930   4.091   2.654   0.733
 5011SOL     OW15931   1.448   4.524   1.226
 5011SOL    HW115932   1.480   4.598   1.285
 5011SOL    HW215933   1.462   4.550   1.130
 5012SOL     OW15934   6.233   2.814   4.839
 5012SOL    HW115935   6.264   2.808   4.744
 5012SOL    HW215936   6.147   2.863   4.843
 5013SOL     OW15937   5.245   1.768   6.381
 5013SOL    HW115938   5.288   1.683   6.410
 5013SOL    HW215939   5.277   1.843   6.440
 5014SOL     OW15940   6.035   4.186   0.788
 5014SOL    HW115941   5.937   4.197   0.803
 5014SOL    HW215942   6.051   4.143   0.699
 5015SOL     OW15943   4.923   1.404   5.176
 5015SOL    HW115944   5.021   1.396   5.191
 5015SOL    HW215945   4.897   1.501   5.175
 5016SOL     OW15946   1.992   3.203   5.361
 5016SOL    HW115947   1.947   3.146   5.430
 5016SOL    HW215948   2.042   3.144   5.297
 5017SOL     OW15949   2.187   2.873   1.364
 5017SOL    HW115950   2.143   2.890   1.452
 5017SOL    HW215951   2.244   2.791   1.370
 5018SOL     OW15952   0.985   4.596   2.610
 5018SOL    HW115953   1.015   4.617   2.517
 5018SOL    HW215954   0.889   4.570   2.610
 5019SOL     OW15955   1.497   5.744   5.745
 5019SOL    HW115956   1.497   5.731   5.844
 5019SOL    HW215957   1.590   5.765   5.714
 5020SOL     OW15958   5.833   6.860   6.314
 5020SOL    HW115959   5.808   6.924   6.241
 5020SOL    HW215960   5.846   6.769   6.275
 5021SOL     OW15961   0.971   1.472   0.352
 5021SOL    HW115962   1.058   1.481   0.303
 5021SOL    HW215963   0.966   1.382   0.395
 5022SOL     OW15964   1.968   2.359   1.351
 5022SOL    HW115965   2.028   2.427   1.393
 5022SOL    HW215966   1.957   2.380   1.254
 5023SOL     OW15967   0.342   3.629   1.604
 5023SOL    HW115968   0.253   3.662   1.635
 5023SOL    HW215969   0.354   3.650   1.507
 5024SOL     OW15970   6.392   5.692   1.477
 5024SOL    HW115971   6.365   5.701   1.381
 5024SOL    HW215972   6.398   5.782   1.519
 5025SOL     OW15973   4.344   2.006   3.523
 5025SOL    HW115974   4.267   2.000   3.587
 5025SOL    HW215975   4.339   2.092   3.472
 5026SOL     OW15976   6.607   6.288   5.423
 5026SOL    HW115977   6.660   6.231   5.360
 5026SOL    HW215978   6.603   6.243   5.512
 5027SOL     OW15979   6.139   6.642   1.312
 5027SOL    HW115980   6.192   6.605   1.389
 5027SOL    HW215981   6.132   6.573   1.240
 5028SOL     OW15982   0.747   1.857   2.810
 5028SOL    HW115983   0.791   1.770   2.787
 5028SOL    HW215984   0.786   1.930   2.754
 5029SOL     OW15985   5.953   2.723   2.392
 5029SOL    HW115986   5.950   2.624   2.404
 5029SOL    HW215987   5.874   2.753   2.340
 5030SOL     OW15988   0.331   6.183   6.504
 5030SOL    HW115989   0.398   6.251   6.475
 5030SOL    HW215990   0.244   6.229   6.523
 5031SOL     OW15991   6.473   1.275   5.850
 5031SOL    HW115992   6.533   1.300   5.926
 5031SOL    HW215993   6.458   1.176   5.852
 5032SOL     OW15994   2.275   2.485   5.791
 5032SOL    HW115995   2.299   2.532   5.876
 5032SOL    HW215996   2.230   2.549   5.729
 5033SOL     OW15997   2.185   6.749   5.920
 5033SOL    HW115998   2.117   6.726   5.989
 5033SOL    HW215999   2.241   6.825   5.953
 5034SOL     OW16000   6.114   6.961   3.304
 5034SOL    HW116001   6.015   6.950   3.315
 5034SOL    HW216002   6.151   7.011   3.382
 5035SOL     OW16003   6.915   3.756   6.081
 5035SOL    HW116004   6.880   3.816   6.009
 5035SOL    HW216005   7.004   3.791   6.112
 5036SOL     OW16006   0.276   5.103   6.737
 5036SOL    HW116007   0.209   5.177   6.745
 5036SOL    HW216008   0.260   5.053   6.653
 5037SOL     OW16009   5.156   4.601   1.755
 5037SOL    HW116010   5.081   4.581   1.693
 5037SOL    HW216011   5.190   4.694   1.738
 5038SOL     OW16012   3.174   3.868   5.667
 5038SOL    HW116013   3.115   3.947   5.656
 5038SOL    HW216014   3.228   3.854   5.584
 5039SOL     OW16015   2.147   4.013   5.914
 5039SOL    HW116016   2.081   3.956   5.863
 5039SOL    HW216017   2.164   4.097   5.863
 5040SOL     OW16018   1.228   6.569   6.244
 5040SOL    HW116019   1.248   6.570   6.342
 5040SOL    HW216020   1.228   6.475   6.210
 5041SOL     OW16021   1.140   1.674   2.413
 5041SOL    HW116022   1.179   1.582   2.422
 5041SOL    HW216023   1.056   1.669   2.359
 5042SOL     OW16024   6.369   3.470   0.344
 5042SOL    HW116025   6.361   3.568   0.327
 5042SOL    HW216026   6.333   3.449   0.434
 5043SOL     OW16027   3.309   6.855   6.463
 5043SOL    HW116028   3.404   6.888   6.464
 5043SOL    HW216029   3.248   6.931   6.484
 5044SOL     OW16030   0.546   6.138   0.696
 5044SOL    HW116031   0.447   6.144   0.686
 5044SOL    HW216032   0.582   6.228   0.720
 5045SOL     OW16033   6.047   6.590   6.509
 5045SOL    HW116034   5.985   6.563   6.434
 5045SOL    HW216035   6.091   6.677   6.487
 5046SOL     OW16036   3.390   4.115   2.785
 5046SOL    HW116037   3.369   4.143   2.879
 5046SOL    HW216038   3.305   4.097   2.735
 5047SOL     OW16039   1.098   4.001   2.669
 5047SOL    HW116040   1.002   3.978   2.656
 5047SOL    HW216041   1.152   3.967   2.592
 5048SOL     OW16042   1.240   1.394   2.486
 5048SOL    HW116043   1.185   1.409   2.568
 5048SOL    HW216044   1.325   1.348   2.511
 5049SOL     OW16045   5.236   2.152   6.767
 5049SOL    HW116046   5.161   2.180   6.827
 5049SOL    HW216047   5.307   2.106   6.821
 5050SOL     OW16048   1.938   0.842   1.313
 5050SOL    HW116049   2.026   0.861   1.356
 5050SOL    HW216050   1.901   0.925   1.272
 5051SOL     OW16051   4.236   4.167   1.225
 5051SOL    HW116052   4.154   4.225   1.230
 5051SOL    HW216053   4.306   4.205   1.285
 5052SOL     OW16054   2.438   1.104   5.896
 5052SOL    HW116055   2.350   1.104   5.944
 5052SOL    HW216056   2.512   1.124   5.960
 5053SOL     OW16057   1.717   3.875   3.817
 5053SOL    HW116058   1.646   3.808   3.792
 5053SOL    HW216059   1.768   3.841   3.896
 5054SOL     OW16060   3.374   4.913   4.146
 5054SOL    HW116061   3.339   4.898   4.054
 5054SOL    HW216062   3.363   5.009   4.171
 5055SOL     OW16063   1.342   2.524   5.598
 5055SOL    HW116064   1.426   2.489   5.640
 5055SOL    HW216065   1.328   2.479   5.510
 5056SOL     OW16066   5.564   4.108   6.909
 5056SOL    HW116067   5.596   4.027   6.861
 5056SOL    HW216068   5.508   4.164   6.847
 5057SOL     OW16069   0.435   6.415   3.532
 5057SOL    HW116070   0.354   6.448   3.580
 5057SOL    HW216071   0.496   6.491   3.512
 5058SOL     OW16072   3.355   4.227   5.232
 5058SOL    HW116073   3.257   4.228   5.216
 5058SOL    HW216074   3.393   4.138   5.204
 5059SOL     OW16075   6.739   0.833   2.644
 5059SOL    HW116076   6.837   0.855   2.644
 5059SOL    HW216077   6.688   0.908   2.684
 5060SOL     OW16078   0.610   1.917   5.747
 5060SOL    HW116079   0.594   1.821   5.722
 5060SOL    HW216080   0.523   1.966   5.749
 5061SOL     OW16081   4.608   3.089   1.125
 5061SOL    HW116082   4.517   3.048   1.122
 5061SOL    HW216083   4.616   3.158   1.053
 5062SOL     OW16084   6.225   0.218   2.941
 5062SOL    HW116085   6.235   0.260   3.031
 5062SOL    HW216086   6.170   0.134   2.950
 5063SOL     OW16087   1.044   6.727   2.509
 5063SOL    HW116088   1.082   6.800   2.565
 5063SOL    HW216089   1.096   6.643   2.524
 5064SOL     OW16090   5.191   3.849   0.867
 5064SOL    HW116091   5.217   3.789   0.943
 5064SOL    HW216092   5.266   3.912   0.848
 5065SOL     OW16093   2.521   0.831   4.639
 5065SOL    HW116094   2.545   0.926   4.654
 5065SOL    HW216095   2.452   0.803   4.705
 5066SOL     OW16096   5.236   4.304   2.351
 5066SOL    HW116097   5.327   4.265   2.335
 5066SOL    HW216098   5.244   4.402   2.369
 5067SOL     OW16099   4.706   1.169   1.409
 5067SOL    HW116100   4.755   1.085   1.430
 5067SOL    HW216101   4.712   1.232   1.486
 5068SOL     OW16102   2.797   3.753   0.971
 5068SOL    HW116103   2.874   3.690   0.962
 5068SOL    HW216104   2.777   3.795   0.883
 5069SOL     OW16105   1.691   4.070   5.540
 5069SOL    HW116106   1.691   4.085   5.441
 5069SOL    HW216107   1.786   4.068   5.573
 5070SOL     OW16108   4.986   4.179   4.527
 5070SOL    HW116109   5.023   4.158   4.618
 5070SOL    HW216110   4.887   4.169   4.528
 5071SOL     OW16111   4.663   2.246   4.334
 5071SOL    HW116112   4.671   2.146   4.326
 5071SOL    HW216113   4.671   2.272   4.430
 5072SOL     OW16114   1.155   6.939   1.060
 5072SOL    HW116115   1.110   6.855   1.091
 5072SOL    HW216116   1.086   7.004   1.028
 5073SOL     OW16117   6.985   6.062   2.594
 5073SOL    HW116118   6.897   6.047   2.548
 5073SOL    HW216119   6.991   6.000   2.673
 5074SOL     OW16120   3.027   3.305   0.701
 5074SOL    HW116121   3.011   3.313   0.799
 5074SOL    HW216122   3.088   3.379   0.672
 5075SOL     OW16123   1.323   1.913   6.405
 5075SOL    HW116124   1.241   1.914   6.461
 5075SOL    HW216125   1.398   1.959   6.453
 5076SOL     OW16126   3.875   0.845   0.631
 5076SOL    HW116127   3.933   0.923   0.606
 5076SOL    HW216128   3.917   0.795   0.706
 5077SOL     OW16129   0.661   3.528   5.331
 5077SOL    HW116130   0.673   3.475   5.415
 5077SOL    HW216131   0.566   3.519   5.300
 5078SOL     OW16132   1.466   1.613   3.451
 5078SOL    HW116133   1.489   1.692   3.394
 5078SOL    HW216134   1.430   1.540   3.393
 5079SOL     OW16135   2.082   3.626   5.679
 5079SOL    HW116136   2.169   3.592   5.714
 5079SOL    HW216137   2.046   3.563   5.611
 5080SOL     OW16138   6.276   6.781   6.000
 5080SOL    HW116139   6.341   6.784   6.075
 5080SOL    HW216140   6.211   6.857   6.008
 5081SOL     OW16141   3.777   3.007   4.312
 5081SOL    HW116142   3.718   3.021   4.232
 5081SOL    HW216143   3.873   3.022   4.286
 5082SOL     OW16144   5.117   6.135   6.290
 5082SOL    HW116145   5.138   6.210   6.353
 5082SOL    HW216146   5.029   6.152   6.245
 5083SOL     OW16147   2.593   0.283   3.249
 5083SOL    HW116148   2.626   0.364   3.200
 5083SOL    HW216149   2.601   0.298   3.347
 5084SOL     OW16150   0.881   4.756   4.265
 5084SOL    HW116151   0.885   4.852   4.290
 5084SOL    HW216152   0.922   4.701   4.338
 5085SOL     OW16153   4.960   3.248   6.312
 5085SOL    HW116154   4.910   3.183   6.254
 5085SOL    HW216155   4.981   3.330   6.258
 5086SOL     OW16156   0.110   5.757   3.429
 5086SOL    HW116157   0.048   5.761   3.507
 5086SOL    HW216158   0.145   5.664   3.419
 5087SOL     OW16159   0.232   5.397   3.090
 5087SOL    HW116160   0.266   5.304   3.102
 5087SOL    HW216161   0.213   5.437   3.179
 5088SOL     OW16162   5.908   1.734   4.492
 5088SOL    HW116163   5.924   1.828   4.462
 5088SOL    HW216164   5.993   1.682   4.485
 5089SOL     OW16165   5.283   3.349   3.223
 5089SOL    HW116166   5.363   3.349   3.283
 5089SOL    HW216167   5.311   3.373   3.130
 5090SOL     OW16168   1.780   3.203   3.047
 5090SOL    HW116169   1.793   3.104   3.037
 5090SOL    HW216170   1.825   3.250   2.971
 5091SOL     OW16171   1.636   6.559   2.557
 5091SOL    HW116172   1.672   6.584   2.468
 5091SOL    HW216173   1.654   6.633   2.623
 5092SOL     OW16174   3.231   3.304   1.677
 5092SOL    HW116175   3.190   3.332   1.764
 5092SOL    HW216176   3.175   3.232   1.636
 5093SOL     OW16177   3.287   1.388   1.326
 5093SOL    HW116178   3.371   1.438   1.347
 5093SOL    HW216179   3.276   1.382   1.227
 5094SOL     OW16180   1.200   6.418   5.131
 5094SOL    HW116181   1.137   6.490   5.159
 5094SOL    HW216182   1.273   6.458   5.075
 5095SOL     OW16183   0.341   2.483   4.697
 5095SOL    HW116184   0.264   2.537   4.733
 5095SOL    HW216185   0.416   2.485   4.762
 5096SOL     OW16186   4.249   3.579   0.703
 5096SOL    HW116187   4.194   3.535   0.632
 5096SOL    HW216188   4.196   3.587   0.787
 5097SOL     OW16189   1.486   0.513   6.929
 5097SOL    HW116190   1.488   0.508   6.829
 5097SOL    HW216191   1.417   0.451   6.964
 5098SOL     OW16192   1.454   0.571   1.141
 5098SOL    HW116193   1.542   0.573   1.189
 5098SOL    HW216194   1.380   0.572   1.208
 5099SOL     OW16195   0.746   6.642   6.377
 5099SOL    HW116196   0.822   6.701   6.349
 5099SOL    HW216197   0.678   6.696   6.425
 5100SOL     OW16198   4.351   6.305   4.970
 5100SOL    HW116199   4.434   6.327   4.920
 5100SOL    HW216200   4.278   6.368   4.944
 5101SOL     OW16201   3.865   6.975   0.142
 5101SOL    HW116202   3.772   6.949   0.169
 5101SOL    HW216203   3.922   6.983   0.223
 5102SOL     OW16204   6.391   0.340   5.072
 5102SOL    HW116205   6.381   0.253   5.023
 5102SOL    HW216206   6.376   0.326   5.170
 5103SOL     OW16207   0.229   0.794   3.754
 5103SOL    HW116208   0.199   0.871   3.698
 5103SOL    HW216209   0.320   0.813   3.791
 5104SOL     OW16210   2.294   6.466   2.260
 5104SOL    HW116211   2.262   6.452   2.354
 5104SOL    HW216212   2.244   6.543   2.219
 5105SOL     OW16213   3.687   2.811   6.909
 5105SOL    HW116214   3.591   2.837   6.903
 5105SOL    HW216215   3.744   2.890   6.886
 5106SOL     OW16216   3.590   0.690   1.685
 5106SOL    HW116217   3.507   0.651   1.725
 5106SOL    HW216218   3.634   0.749   1.753
 5107SOL     OW16219   4.239   0.944   0.912
 5107SOL    HW116220   4.275   0.892   0.990
 5107SOL    HW216221   4.198   0.881   0.847
 5108SOL     OW16222   3.095   3.929   3.644
 5108SOL    HW116223   3.169   3.882   3.692
 5108SOL    HW216224   3.092   3.899   3.549
 5109SOL     OW16225   1.146   0.953   0.612
 5109SOL    HW116226   1.223   0.992   0.663
 5109SOL    HW216227   1.157   0.972   0.515
 5110SOL     OW16228   0.633   0.542   6.532
 5110SOL    HW116229   0.609   0.587   6.619
 5110SOL    HW216230   0.559   0.480   6.506
 5111SOL     OW16231   1.393   0.843   5.640
 5111SOL    HW116232   1.445   0.915   5.594
 5111SOL    HW216233   1.306   0.881   5.673
 5112SOL     OW16234   1.053   7.009   2.737
 5112SOL    HW116235   1.135   6.955   2.719
 5112SOL    HW216236   1.077   0.073   2.789
 5113SOL     OW16237   2.279   0.088   2.201
 5113SOL    HW116238   2.325   0.152   2.263
 5113SOL    HW216239   2.194   0.057   2.242
 5114SOL     OW16240   3.663   2.587   0.058
 5114SOL    HW116241   3.583   2.605   0.116
 5114SOL    HW216242   3.694   2.673   0.018
 5115SOL     OW16243   2.466   4.904   4.761
 5115SOL    HW116244   2.401   4.841   4.718
 5115SOL    HW216245   2.522   4.854   4.827
 5116SOL     OW16246   5.437   6.276   6.652
 5116SOL    HW116247   5.454   6.191   6.703
 5116SOL    HW216248   5.503   6.346   6.680
 5117SOL     OW16249   2.056   4.935   4.731
 5117SOL    HW116250   2.061   5.016   4.789
 5117SOL    HW216251   1.963   4.927   4.694
 5118SOL     OW16252   4.422   6.904   0.803
 5118SOL    HW116253   4.414   6.823   0.745
 5118SOL    HW216254   4.359   6.975   0.770
 5119SOL     OW16255   5.218   1.013   1.858
 5119SOL    HW116256   5.155   1.029   1.782
 5119SOL    HW216257   5.193   1.074   1.934
 5120SOL     OW16258   4.950   1.493   3.608
 5120SOL    HW116259   4.903   1.580   3.622
 5120SOL    HW216260   4.885   1.425   3.575
 5121SOL     OW16261   2.419   2.396   0.230
 5121SOL    HW116262   2.494   2.412   0.294
 5121SOL    HW216263   2.399   2.298   0.226
 5122SOL     OW16264   3.449   0.425   3.894
 5122SOL    HW116265   3.351   0.424   3.872
 5122SOL    HW216266   3.468   0.357   3.965
 5123SOL     OW16267   5.834   3.077   4.456
 5123SOL    HW116268   5.911   3.139   4.454
 5123SOL    HW216269   5.753   3.122   4.418
 5124SOL     OW16270   2.687   5.172   5.261
 5124SOL    HW116271   2.762   5.174   5.327
 5124SOL    HW216272   2.654   5.079   5.250
 5125SOL     OW16273   6.292   3.223   4.395
 5125SOL    HW116274   6.211   3.255   4.444
 5125SOL    HW216275   6.267   3.193   4.303
 5126SOL     OW16276   6.428   5.528   5.941
 5126SOL    HW116277   6.399   5.603   5.881
 5126SOL    HW216278   6.431   5.443   5.888
 5127SOL     OW16279   0.028   3.665   0.007
 5127SOL    HW116280   6.952   3.628   0.002
 5127SOL    HW216281   0.094   3.590   0.002
 5128SOL     OW16282   0.065   6.899   0.009
 5128SOL    HW116283   0.100   6.805   0.008
 5128SOL    HW216284   0.141   6.963   0.016
 5129SOL     OW16285   4.798   0.352   2.632
 5129SOL    HW116286   4.805   0.262   2.591
 5129SOL    HW216287   4.841   0.420   2.572
 5130SOL     OW16288   1.772   6.313   4.153
 5130SOL    HW116289   1.833   6.301   4.232
 5130SOL    HW216290   1.697   6.373   4.179
 5131SOL     OW16291   3.027   4.834   3.827
 5131SOL    HW116292   2.960   4.805   3.760
 5131SOL    HW216293   2.991   4.819   3.919
 5132SOL     OW16294   3.305   1.549   5.937
 5132SOL    HW116295   3.396   1.555   5.977
 5132SOL    HW216296   3.278   1.638   5.902
 5133SOL     OW16297   2.813   5.789   6.286
 5133SOL    HW116298   2.734   5.839   6.320
 5133SOL    HW216299   2.891   5.803   6.347
 5134SOL     OW16300   6.854   6.884   2.627
 5134SOL    HW116301   6.832   6.942   2.705
 5134SOL    HW216302   6.890   6.796   2.660
 5135SOL     OW16303   5.954   3.718   3.603
 5135SOL    HW116304   5.937   3.688   3.697
 5135SOL    HW216305   6.042   3.766   3.599
 5136SOL     OW16306   5.933   0.616   5.955
 5136SOL    HW116307   5.920   0.532   5.903
 5136SOL    HW216308   5.941   0.693   5.892
 5137SOL     OW16309   5.348   3.289   4.876
 5137SOL    HW116310   5.435   3.295   4.926
 5137SOL    HW216311   5.307   3.380   4.871
 5138SOL     OW16312   4.015   3.853   4.075
 5138SOL    HW116313   3.992   3.898   3.988
 5138SOL    HW216314   4.004   3.919   4.150
 5139SOL     OW16315   1.062   6.871   4.522
 5139SOL    HW116316   1.005   6.951   4.542
 5139SOL    HW216317   1.147   6.900   4.479
 5140SOL     OW16318   3.252   1.972   5.295
 5140SOL    HW116319   3.159   1.985   5.261
 5140SOL    HW216320   3.250   1.912   5.376
 5141SOL     OW16321   6.740   3.392   1.263
 5141SOL    HW116322   6.670   3.406   1.333
 5141SOL    HW216323   6.696   3.391   1.173
 5142SOL     OW16324   5.370   6.586   5.758
 5142SOL    HW116325   5.350   6.616   5.665
 5142SOL    HW216326   5.422   6.501   5.756
 5143SOL     OW16327   0.873   3.871   5.178
 5143SOL    HW116328   0.858   3.837   5.085
 5143SOL    HW216329   0.788   3.868   5.230
 5144SOL     OW16330   1.842   4.050   5.870
 5144SOL    HW116331   1.868   4.057   5.774
 5144SOL    HW216332   1.786   3.968   5.884
 5145SOL     OW16333   3.951   6.613   5.953
 5145SOL    HW116334   3.897   6.696   5.964
 5145SOL    HW216335   3.903   6.536   5.995
 5146SOL     OW16336   3.727   3.772   5.032
 5146SOL    HW116337   3.747   3.845   4.967
 5146SOL    HW216338   3.696   3.813   5.119
 5147SOL     OW16339   6.414   5.002   3.425
 5147SOL    HW116340   6.328   5.052   3.414
 5147SOL    HW216341   6.437   4.955   3.340
 5148SOL     OW16342   0.652   1.154   1.906
 5148SOL    HW116343   0.741   1.113   1.928
 5148SOL    HW216344   0.595   1.086   1.858
 5149SOL     OW16345   6.071   5.508   4.754
 5149SOL    HW116346   6.146   5.544   4.810
 5149SOL    HW216347   6.028   5.432   4.802
 5150SOL     OW16348   2.131   4.178   4.150
 5150SOL    HW116349   2.173   4.156   4.238
 5150SOL    HW216350   2.150   4.105   4.084
 5151SOL     OW16351   6.596   3.930   1.829
 5151SOL    HW116352   6.519   3.871   1.807
 5151SOL    HW216353   6.671   3.911   1.766
 5152SOL     OW16354   1.796   5.756   6.364
 5152SOL    HW116355   1.708   5.803   6.366
 5152SOL    HW216356   1.828   5.742   6.458
 5153SOL     OW16357   0.786   2.394   0.825
 5153SOL    HW116358   0.773   2.421   0.729
 5153SOL    HW216359   0.736   2.309   0.843
 5154SOL     OW16360   1.486   2.843   6.371
 5154SOL    HW116361   1.527   2.752   6.379
 5154SOL    HW216362   1.455   2.857   6.277
 5155SOL     OW16363   4.124   1.134   1.228
 5155SOL    HW116364   4.068   1.152   1.146
 5155SOL    HW216365   4.098   1.198   1.300
 5156SOL     OW16366   5.852   4.540   4.647
 5156SOL    HW116367   5.921   4.486   4.695
 5156SOL    HW216368   5.885   4.564   4.556
 5157SOL     OW16369   3.366   2.018   2.201
 5157SOL    HW116370   3.422   2.011   2.119
 5157SOL    HW216371   3.425   2.033   2.280
 5158SOL     OW16372   3.389   2.366   0.777
 5158SOL    HW116373   3.391   2.465   0.764
 5158SOL    HW216374   3.408   2.344   0.872
 5159SOL     OW16375   6.038   4.158   6.311
 5159SOL    HW116376   5.990   4.088   6.363
 5159SOL    HW216377   5.971   4.215   6.263
 5160SOL     OW16378   0.192   5.472   3.622
 5160SOL    HW116379   0.135   5.482   3.541
 5160SOL    HW216380   0.285   5.448   3.596
 5161SOL     OW16381   1.020   3.389   0.327
 5161SOL    HW116382   1.114   3.357   0.335
 5161SOL    HW216383   1.019   3.487   0.306
 5162SOL     OW16384   1.094   5.308   2.447
 5162SOL    HW116385   1.158   5.234   2.467
 5162SOL    HW216386   1.074   5.309   2.349
 5163SOL     OW16387   3.524   6.604   0.712
 5163SOL    HW116388   3.541   6.696   0.678
 5163SOL    HW216389   3.479   6.608   0.801
 5164SOL     OW16390   3.178   2.904   6.618
 5164SOL    HW116391   3.169   2.951   6.530
 5164SOL    HW216392   3.159   2.967   6.692
 5165SOL     OW16393   1.028   4.443   6.578
 5165SOL    HW116394   1.069   4.354   6.560
 5165SOL    HW216395   0.947   4.431   6.636
 5166SOL     OW16396   1.527   5.233   2.560
 5166SOL    HW116397   1.453   5.295   2.535
 5166SOL    HW216398   1.496   5.173   2.634
 5167SOL     OW16399   6.700   4.178   4.697
 5167SOL    HW116400   6.792   4.148   4.670
 5167SOL    HW216401   6.705   4.270   4.735
 5168SOL     OW16402   5.075   2.476   3.001
 5168SOL    HW116403   5.030   2.564   2.983
 5168SOL    HW216404   5.169   2.479   2.969
 5169SOL     OW16405   4.497   2.138   3.247
 5169SOL    HW116406   4.486   2.068   3.176
 5169SOL    HW216407   4.541   2.098   3.327
 5170SOL     OW16408   1.513   3.268   5.424
 5170SOL    HW116409   1.454   3.332   5.475
 5170SOL    HW216410   1.606   3.303   5.423
 5171SOL     OW16411   0.085   4.604   5.463
 5171SOL    HW116412   0.087   4.529   5.530
 5171SOL    HW216413   0.166   4.662   5.475
 5172SOL     OW16414   0.964   4.330   3.364
 5172SOL    HW116415   0.980   4.242   3.318
 5172SOL    HW216416   0.899   4.384   3.311
 5173SOL     OW16417   4.256   4.919   5.899
 5173SOL    HW116418   4.326   4.980   5.936
 5173SOL    HW216419   4.290   4.825   5.898
 5174SOL     OW16420   2.132   5.695   4.054
 5174SOL    HW116421   2.060   5.627   4.040
 5174SOL    HW216422   2.089   5.785   4.065
 5175SOL     OW16423   2.772   3.700   0.316
 5175SOL    HW116424   2.701   3.689   0.246
 5175SOL    HW216425   2.831   3.619   0.318
 5176SOL     OW16426   5.066   4.542   6.559
 5176SOL    HW116427   5.012   4.553   6.475
 5176SOL    HW216428   5.066   4.628   6.610
 5177SOL     OW16429   4.539   6.922   1.505
 5177SOL    HW116430   4.495   6.838   1.471
 5177SOL    HW216431   4.543   6.989   1.431
 5178SOL     OW16432   1.416   4.352   2.522
 5178SOL    HW116433   1.349   4.303   2.579
 5178SOL    HW216434   1.403   4.451   2.534
 5179SOL     OW16435   4.704   4.292   4.296
 5179SOL    HW116436   4.722   4.244   4.382
 5179SOL    HW216437   4.614   4.335   4.300
 5180SOL     OW16438   3.634   0.701   1.192
 5180SOL    HW116439   3.611   0.779   1.251
 5180SOL    HW216440   3.702   0.644   1.238
 5181SOL     OW16441   6.015   6.870   1.381
 5181SOL    HW116442   6.030   6.940   1.311
 5181SOL    HW216443   6.064   6.786   1.356
 5182SOL     OW16444   4.268   4.662   2.152
 5182SOL    HW116445   4.295   4.679   2.247
 5182SOL    HW216446   4.253   4.564   2.138
 5183SOL     OW16447   4.112   1.793   2.550
 5183SOL    HW116448   4.203   1.820   2.518
 5183SOL    HW216449   4.043   1.834   2.491
 5184SOL     OW16450   2.225   1.665   3.084
 5184SOL    HW116451   2.302   1.628   3.137
 5184SOL    HW216452   2.257   1.739   3.025
 5185SOL     OW16453   5.515   0.590   2.701
 5185SOL    HW116454   5.542   0.629   2.613
 5185SOL    HW216455   5.438   0.527   2.687
 5186SOL     OW16456   6.506   2.718   5.998
 5186SOL    HW116457   6.473   2.780   6.069
 5186SOL    HW216458   6.521   2.769   5.913
 5187SOL     OW16459   1.340   5.381   5.393
 5187SOL    HW116460   1.337   5.328   5.478
 5187SOL    HW216461   1.355   5.477   5.415
 5188SOL     OW16462   5.903   5.670   1.793
 5188SOL    HW116463   5.962   5.667   1.712
 5188SOL    HW216464   5.900   5.580   1.835
 5189SOL     OW16465   5.155   5.862   0.344
 5189SOL    HW116466   5.148   5.781   0.403
 5189SOL    HW216467   5.180   5.941   0.399
 5190SOL     OW16468   1.143   3.686   3.463
 5190SOL    HW116469   1.197   3.613   3.505
 5190SOL    HW216470   1.170   3.696   3.367
 5191SOL     OW16471   3.652   6.034   2.316
 5191SOL    HW116472   3.649   6.061   2.412
 5191SOL    HW216473   3.567   5.987   2.291
 5192SOL     OW16474   1.486   5.936   1.225
 5192SOL    HW116475   1.423   5.963   1.298
 5192SOL    HW216476   1.553   6.009   1.210
 5193SOL     OW16477   4.670   5.781   5.336
 5193SOL    HW116478   4.594   5.832   5.295
 5193SOL    HW216479   4.633   5.717   5.404
 5194SOL     OW16480   3.480   2.395   6.970
 5194SOL    HW116481   3.539   2.465   7.009
 5194SOL    HW216482   3.386   2.429   6.966
 5195SOL     OW16483   0.070   0.842   4.284
 5195SOL    HW116484   0.026   0.800   4.204
 5195SOL    HW216485   0.120   0.772   4.334
 5196SOL     OW16486   4.396   6.682   2.354
 5196SOL    HW116487   4.452   6.720   2.427
 5196SOL    HW216488   4.366   6.590   2.379
 5197SOL     OW16489   1.626   3.712   6.525
 5197SOL    HW116490   1.546   3.749   6.477
 5197SOL    HW216491   1.623   3.612   6.522
 5198SOL     OW16492   4.466   5.541   3.294
 5198SOL    HW116493   4.449   5.635   3.266
 5198SOL    HW216494   4.397   5.514   3.361
 5199SOL     OW16495   0.877   5.424   0.447
 5199SOL    HW116496   0.875   5.518   0.412
 5199SOL    HW216497   0.962   5.380   0.418
 5200SOL     OW16498   6.898   3.611   5.155
 5200SOL    HW116499   6.900   3.664   5.070
 5200SOL    HW216500   6.916   3.514   5.134
 5201SOL     OW16501   1.187   7.012   3.499
 5201SOL    HW116502   1.189   6.941   3.569
 5201SOL    HW216503   1.129   6.983   3.423
 5202SOL     OW16504   5.923   2.867   6.414
 5202SOL    HW116505   5.931   2.953   6.465
 5202SOL    HW216506   5.830   2.860   6.376
 5203SOL     OW16507   2.036   1.736   6.817
 5203SOL    HW116508   2.034   1.684   6.903
 5203SOL    HW216509   1.944   1.740   6.779
 5204SOL     OW16510   4.171   5.218   0.201
 5204SOL    HW116511   4.109   5.160   0.149
 5204SOL    HW216512   4.131   5.235   0.292
 5205SOL     OW16513   1.990   6.802   0.777
 5205SOL    HW116514   1.919   6.865   0.809
 5205SOL    HW216515   1.967   6.771   0.685
 5206SOL     OW16516   0.308   3.924   5.616
 5206SOL    HW116517   0.290   3.880   5.704
 5206SOL    HW216518   0.220   3.943   5.571
 5207SOL     OW16519   1.144   5.554   4.437
 5207SOL    HW116520   1.102   5.569   4.348
 5207SOL    HW216521   1.180   5.641   4.472
 5208SOL     OW16522   3.985   1.863   0.046
 5208SOL    HW116523   3.977   1.797   6.989
 5208SOL    HW216524   3.911   1.848   0.111
 5209SOL     OW16525   5.732   5.868   3.947
 5209SOL    HW116526   5.689   5.921   3.874
 5209SOL    HW216527   5.831   5.864   3.931
 5210SOL     OW16528   5.829   2.439   5.470
 5210SOL    HW116529   5.911   2.495   5.482
 5210SOL    HW216530   5.838   2.356   5.524
 5211SOL     OW16531   3.845   2.966   4.713
 5211SOL    HW116532   3.823   3.058   4.681
 5211SOL    HW216533   3.936   2.940   4.681
 5212SOL     OW16534   6.208   1.641   0.707
 5212SOL    HW116535   6.149   1.564   0.681
 5212SOL    HW216536   6.287   1.645   0.645
 5213SOL     OW16537   5.007   4.199   6.471
 5213SOL    HW116538   5.085   4.247   6.513
 5213SOL    HW216539   4.929   4.201   6.533
 5214SOL     OW16540   4.849   1.489   6.515
 5214SOL    HW116541   4.899   1.402   6.511
 5214SOL    HW216542   4.914   1.564   6.530
 5215SOL     OW16543   5.426   5.641   3.595
 5215SOL    HW116544   5.349   5.579   3.576
 5215SOL    HW216545   5.394   5.736   3.589
 5216SOL     OW16546   4.197   5.832   2.059
 5216SOL    HW116547   4.125   5.856   1.993
 5216SOL    HW216548   4.192   5.734   2.079
 5217SOL     OW16549   3.859   5.495   4.043
 5217SOL    HW116550   3.899   5.421   3.988
 5217SOL    HW216551   3.781   5.460   4.094
 5218SOL     OW16552   1.245   0.608   3.661
 5218SOL    HW116553   1.145   0.608   3.667
 5218SOL    HW216554   1.278   0.514   3.658
 5219SOL     OW16555   3.360   0.416   5.992
 5219SOL    HW116556   3.419   0.358   6.048
 5219SOL    HW216557   3.278   0.439   6.045
 5220SOL     OW16558   1.732   5.621   2.856
 5220SOL    HW116559   1.633   5.610   2.843
 5220SOL    HW216560   1.779   5.537   2.829
 5221SOL     OW16561   5.499   2.183   4.115
 5221SOL    HW116562   5.491   2.141   4.025
 5221SOL    HW216563   5.407   2.200   4.152
 5222SOL     OW16564   2.180   6.991   3.669
 5222SOL    HW116565   2.220   6.992   3.760
 5222SOL    HW216566   2.092   6.943   3.672
 5223SOL     OW16567   5.602   0.466   0.913
 5223SOL    HW116568   5.573   0.406   0.988
 5223SOL    HW216569   5.675   0.526   0.945
 5224SOL     OW16570   0.947   2.294   4.019
 5224SOL    HW116571   0.866   2.327   4.067
 5224SOL    HW216572   1.026   2.349   4.044
 5225SOL     OW16573   6.738   0.073   2.795
 5225SOL    HW116574   6.641   0.056   2.777
 5225SOL    HW216575   6.750   0.169   2.821
 5226SOL     OW16576   0.822   5.699   5.133
 5226SOL    HW116577   0.784   5.615   5.174
 5226SOL    HW216578   0.921   5.690   5.123
 5227SOL     OW16579   1.525   4.549   3.551
 5227SOL    HW116580   1.538   4.485   3.476
 5227SOL    HW216581   1.488   4.500   3.630
 5228SOL     OW16582   6.483   2.321   1.069
 5228SOL    HW116583   6.438   2.399   1.111
 5228SOL    HW216584   6.582   2.329   1.081
 5229SOL     OW16585   1.339   4.064   0.339
 5229SOL    HW116586   1.241   4.058   0.324
 5229SOL    HW216587   1.387   4.004   0.275
 5230SOL     OW16588   0.077   6.475   1.443
 5230SOL    HW116589   0.141   6.424   1.385
 5230SOL    HW216590   0.090   6.573   1.428
 5231SOL     OW16591   3.953   3.934   4.443
 5231SOL    HW116592   3.989   3.991   4.370
 5231SOL    HW216593   3.884   3.871   4.406
 5232SOL     OW16594   3.269   2.163   5.866
 5232SOL    HW116595   3.216   2.172   5.782
 5232SOL    HW216596   3.356   2.211   5.857
 5233SOL     OW16597   6.024   0.076   1.739
 5233SOL    HW116598   6.107   0.063   1.685
 5233SOL    HW216599   5.958   0.005   1.716
 5234SOL     OW16600   2.710   0.391   6.813
 5234SOL    HW116601   2.773   0.432   6.746
 5234SOL    HW216602   2.626   0.445   6.816
 5235SOL     OW16603   2.106   3.048   1.131
 5235SOL    HW116604   2.171   3.005   1.068
 5235SOL    HW216605   2.089   2.987   1.208
 5236SOL     OW16606   5.983   3.555   2.276
 5236SOL    HW116607   5.990   3.582   2.180
 5236SOL    HW216608   6.043   3.612   2.331
 5237SOL     OW16609   2.633   0.845   5.560
 5237SOL    HW116610   2.598   0.778   5.495
 5237SOL    HW216611   2.725   0.821   5.588
 5238SOL     OW16612   1.774   5.001   0.576
 5238SOL    HW116613   1.850   5.048   0.621
 5238SOL    HW216614   1.689   5.052   0.591
 5239SOL     OW16615   4.022   3.565   4.001
 5239SOL    HW116616   4.063   3.653   4.027
 5239SOL    HW216617   4.033   3.500   4.076
 5240SOL     OW16618   2.780   1.598   6.239
 5240SOL    HW116619   2.748   1.657   6.165
 5240SOL    HW216620   2.870   1.561   6.215
 5241SOL     OW16621   1.331   5.664   6.317
 5241SOL    HW116622   1.246   5.716   6.326
 5241SOL    HW216623   1.311   5.566   6.317
 5242SOL     OW16624   6.700   6.598   5.965
 5242SOL    HW116625   6.637   6.576   6.039
 5242SOL    HW216626   6.688   6.694   5.938
 5243SOL     OW16627   1.152   5.963   1.686
 5243SOL    HW116628   1.078   6.027   1.664
 5243SOL    HW216629   1.192   5.988   1.774
 5244SOL     OW16630   3.896   4.096   5.979
 5244SOL    HW116631   3.822   4.037   6.010
 5244SOL    HW216632   3.874   4.191   6.002
 5245SOL     OW16633   4.176   4.466   0.240
 5245SOL    HW116634   4.112   4.468   0.163
 5245SOL    HW216635   4.146   4.397   0.306
 5246SOL     OW16636   5.637   4.454   2.991
 5246SOL    HW116637   5.677   4.419   2.906
 5246SOL    HW216638   5.666   4.397   3.068
 5247SOL     OW16639   1.292   6.137   0.625
 5247SOL    HW116640   1.266   6.105   0.716
 5247SOL    HW216641   1.243   6.084   0.556
 5248SOL     OW16642   6.226   0.403   4.850
 5248SOL    HW116643   6.142   0.349   4.841
 5248SOL    HW216644   6.269   0.382   4.938
 5249SOL     OW16645   0.900   5.210   5.161
 5249SOL    HW116646   0.845   5.206   5.245
 5249SOL    HW216647   0.922   5.118   5.131
 5250SOL     OW16648   0.210   1.215   5.712
 5250SOL    HW116649   0.218   1.308   5.675
 5250SOL    HW216650   0.162   1.157   5.647
 5251SOL     OW16651   0.365   3.315   1.179
 5251SOL    HW116652   0.455   3.292   1.216
 5251SOL    HW216653   0.374   3.342   1.083
 5252SOL     OW16654   2.084   5.477   0.908
 5252SOL    HW116655   2.162   5.503   0.965
 5252SOL    HW216656   2.026   5.557   0.893
 5253SOL     OW16657   5.983   4.091   5.432
 5253SOL    HW116658   5.952   4.077   5.526
 5253SOL    HW216659   6.002   4.003   5.389
 5254SOL     OW16660   5.811   1.058   3.527
 5254SOL    HW116661   5.884   0.990   3.520
 5254SOL    HW216662   5.845   1.138   3.578
 5255SOL     OW16663   4.720   0.430   5.463
 5255SOL    HW116664   4.789   0.442   5.391
 5255SOL    HW216665   4.730   0.338   5.502
 5256SOL     OW16666   4.567   0.991   3.456
 5256SOL    HW116667   4.664   1.004   3.479
 5256SOL    HW216668   4.558   0.909   3.399
 5257SOL     OW16669   4.274   0.144   1.902
 5257SOL    HW116670   4.175   0.158   1.906
 5257SOL    HW216671   4.314   0.207   1.835
 5258SOL     OW16672   5.310   3.991   1.711
 5258SOL    HW116673   5.301   4.077   1.761
 5258SOL    HW216674   5.394   3.992   1.656
 5259SOL     OW16675   4.434   6.679   1.486
 5259SOL    HW116676   4.436   6.590   1.442
 5259SOL    HW216677   4.428   6.668   1.585
 5260SOL     OW16678   5.727   3.748   1.321
 5260SOL    HW116679   5.794   3.803   1.371
 5260SOL    HW216680   5.769   3.661   1.295
 5261SOL     OW16681   1.733   2.970   6.206
 5261SOL    HW116682   1.642   3.007   6.222
 5261SOL    HW216683   1.795   3.044   6.178
 5262SOL     OW16684   3.107   0.703   2.605
 5262SOL    HW116685   3.174   0.643   2.650
 5262SOL    HW216686   3.155   0.770   2.549
 5263SOL     OW16687   0.939   1.278   5.595
 5263SOL    HW116688   0.903   1.363   5.632
 5263SOL    HW216689   0.869   1.207   5.601
 5264SOL     OW16690   6.780   0.117   2.251
 5264SOL    HW116691   6.796   0.153   2.343
 5264SOL    HW216692   6.710   0.047   2.255
 5265SOL     OW16693   4.930   4.324   2.901
 5265SOL    HW116694   4.862   4.252   2.886
 5265SOL    HW216695   5.004   4.288   2.958
 5266SOL     OW16696   2.642   0.628   2.207
 5266SOL    HW116697   2.628   0.722   2.237
 5266SOL    HW216698   2.556   0.591   2.172
 5267SOL     OW16699   4.760   4.897   5.998
 5267SOL    HW116700   4.735   4.814   5.948
 5267SOL    HW216701   4.751   4.880   6.097
 5268SOL     OW16702   5.893   5.892   6.124
 5268SOL    HW116703   5.959   5.825   6.091
 5268SOL    HW216704   5.911   5.912   6.220
 5269SOL     OW16705   2.442   6.231   4.493
 5269SOL    HW116706   2.386   6.154   4.521
 5269SOL    HW216707   2.457   6.292   4.571
 5270SOL     OW16708   4.981   1.597   1.788
 5270SOL    HW116709   5.009   1.623   1.696
 5270SOL    HW216710   5.060   1.557   1.836
 5271SOL     OW16711   4.510   5.071   4.793
 5271SOL    HW116712   4.542   4.985   4.752
 5271SOL    HW216713   4.470   5.129   4.722
 5272SOL     OW16714   1.925   5.823   3.426
 5272SOL    HW116715   1.884   5.901   3.474
 5272SOL    HW216716   2.016   5.849   3.393
 5273SOL     OW16717   0.396   3.584   3.712
 5273SOL    HW116718   0.478   3.528   3.702
 5273SOL    HW216719   0.329   3.535   3.767
 5274SOL     OW16720   5.837   5.265   2.431
 5274SOL    HW116721   5.747   5.225   2.449
 5274SOL    HW216722   5.859   5.254   2.334
 5275SOL     OW16723   3.547   1.453   6.078
 5275SOL    HW116724   3.566   1.393   6.155
 5275SOL    HW216725   3.568   1.548   6.104
 5276SOL     OW16726   0.945   6.901   1.516
 5276SOL    HW116727   1.027   6.844   1.527
 5276SOL    HW216728   0.870   6.845   1.479
 5277SOL     OW16729   1.294   2.550   3.196
 5277SOL    HW116730   1.293   2.545   3.296
 5277SOL    HW216731   1.225   2.616   3.166
 5278SOL     OW16732   5.228   6.581   4.219
 5278SOL    HW116733   5.326   6.570   4.206
 5278SOL    HW216734   5.180   6.500   4.183
 5279SOL     OW16735   1.485   5.308   6.477
 5279SOL    HW116736   1.555   5.359   6.425
 5279SOL    HW216737   1.516   5.295   6.571
 5280SOL     OW16738   2.523   5.625   5.833
 5280SOL    HW116739   2.552   5.678   5.913
 5280SOL    HW216740   2.582   5.546   5.822
 5281SOL     OW16741   1.268   0.908   3.677
 5281SOL    HW116742   1.262   0.811   3.654
 5281SOL    HW216743   1.291   0.960   3.595
 5282SOL     OW16744   1.483   0.991   2.718
 5282SOL    HW116745   1.555   0.934   2.677
 5282SOL    HW216746   1.396   0.971   2.674
 5283SOL     OW16747   2.972   0.344   2.576
 5283SOL    HW116748   2.972   0.442   2.556
 5283SOL    HW216749   2.965   0.293   2.491
 5284SOL     OW16750   4.853   2.806   2.504
 5284SOL    HW116751   4.766   2.791   2.457
 5284SOL    HW216752   4.924   2.827   2.437
 5285SOL     OW16753   1.480   3.673   4.219
 5285SOL    HW116754   1.426   3.689   4.136
 5285SOL    HW216755   1.432   3.607   4.278
 5286SOL     OW16756   6.630   3.771   1.299
 5286SOL    HW116757   6.552   3.832   1.312
 5286SOL    HW216758   6.607   3.701   1.233
 5287SOL     OW16759   2.464   6.052   1.513
 5287SOL    HW116760   2.394   6.072   1.581
 5287SOL    HW216761   2.467   5.954   1.496
 5288SOL     OW16762   3.884   0.965   2.475
 5288SOL    HW116763   3.879   0.934   2.570
 5288SOL    HW216764   3.918   1.059   2.472
 5289SOL     OW16765   1.480   5.655   6.040
 5289SOL    HW116766   1.383   5.671   6.060
 5289SOL    HW216767   1.534   5.674   6.122
 5290SOL     OW16768   0.720   4.594   6.018
 5290SOL    HW116769   0.752   4.521   6.077
 5290SOL    HW216770   0.639   4.636   6.058
 5291SOL     OW16771   2.845   4.871   6.463
 5291SOL    HW116772   2.845   4.846   6.560
 5291SOL    HW216773   2.821   4.968   6.454
 5292SOL     OW16774   6.190   4.835   6.584
 5292SOL    HW116775   6.098   4.873   6.569
 5292SOL    HW216776   6.256   4.909   6.592
 5293SOL     OW16777   1.656   0.269   4.904
 5293SOL    HW116778   1.614   0.184   4.873
 5293SOL    HW216779   1.628   0.344   4.844
 5294SOL     OW16780   5.692   3.241   4.839
 5294SOL    HW116781   5.661   3.292   4.919
 5294SOL    HW216782   5.637   3.158   4.829
 5295SOL     OW16783   3.994   0.426   2.786
 5295SOL    HW116784   3.955   0.354   2.843
 5295SOL    HW216785   4.092   0.410   2.774
 5296SOL     OW16786   3.255   5.161   6.981
 5296SOL    HW116787   3.192   5.159   6.904
 5296SOL    HW216788   3.321   5.086   6.972
 5297SOL     OW16789   1.845   2.939   0.921
 5297SOL    HW116790   1.839   2.908   0.826
 5297SOL    HW216791   1.894   3.026   0.924
 5298SOL     OW16792   0.687   6.275   0.183
 5298SOL    HW116793   0.670   6.206   0.113
 5298SOL    HW216794   0.748   6.346   0.146
 5299SOL     OW16795   2.512   3.547   0.571
 5299SOL    HW116796   2.605   3.549   0.607
 5299SOL    HW216797   2.467   3.462   0.598
 5300SOL     OW16798   0.965   5.885   1.133
 5300SOL    HW116799   1.043   5.832   1.165
 5300SOL    HW216800   0.992   5.979   1.116
 5301SOL     OW16801   3.510   2.218   6.381
 5301SOL    HW116802   3.419   2.213   6.342
 5301SOL    HW216803   3.547   2.311   6.370
 5302SOL     OW16804   6.213   5.590   3.720
 5302SOL    HW116805   6.253   5.641   3.797
 5302SOL    HW216806   6.157   5.515   3.756
 5303SOL     OW16807   0.405   5.756   3.899
 5303SOL    HW116808   0.357   5.784   3.815
 5303SOL    HW216809   0.438   5.838   3.947
 5304SOL     OW16810   5.511   1.027   0.177
 5304SOL    HW116811   5.507   1.102   0.244
 5304SOL    HW216812   5.566   0.953   0.214
 5305SOL     OW16813   0.761   4.932   2.775
 5305SOL    HW116814   0.819   4.922   2.856
 5305SOL    HW216815   0.676   4.881   2.788
 5306SOL     OW16816   1.032   4.247   4.799
 5306SOL    HW116817   0.998   4.165   4.845
 5306SOL    HW216818   1.131   4.243   4.791
 5307SOL     OW16819   4.346   2.122   0.247
 5307SOL    HW116820   4.429   2.080   0.210
 5307SOL    HW216821   4.367   2.165   0.335
 5308SOL     OW16822   0.938   5.103   3.711
 5308SOL    HW116823   0.901   5.011   3.718
 5308SOL    HW216824   0.893   5.163   3.777
 5309SOL     OW16825   4.396   4.786   1.777
 5309SOL    HW116826   4.352   4.859   1.829
 5309SOL    HW216827   4.379   4.698   1.823
 5310SOL     OW16828   6.519   3.778   2.056
 5310SOL    HW116829   6.426   3.810   2.076
 5310SOL    HW216830   6.568   3.847   2.004
 5311SOL     OW16831   6.626   5.583   6.686
 5311SOL    HW116832   6.599   5.524   6.610
 5311SOL    HW216833   6.548   5.597   6.747
 5312SOL     OW16834   6.986   5.185   1.723
 5312SOL    HW116835   6.900   5.163   1.769
 5312SOL    HW216836   6.972   5.180   1.624
 5313SOL     OW16837   1.493   3.645   5.951
 5313SOL    HW116838   1.445   3.640   5.863
 5313SOL    HW216839   1.426   3.646   6.025
 5314SOL     OW16840   3.085   6.472   0.783
 5314SOL    HW116841   3.070   6.538   0.857
 5314SOL    HW216842   3.004   6.415   0.773
 5315SOL     OW16843   5.073   3.630   1.763
 5315SOL    HW116844   5.036   3.537   1.766
 5315SOL    HW216845   5.171   3.628   1.783
 5316SOL     OW16846   0.815   3.781   4.660
 5316SOL    HW116847   0.850   3.769   4.568
 5316SOL    HW216848   0.755   3.862   4.663
 5317SOL     OW16849   6.292   6.849   4.554
 5317SOL    HW116850   6.362   6.879   4.619
 5317SOL    HW216851   6.323   6.766   4.508
 5318SOL     OW16852   0.396   2.916   6.252
 5318SOL    HW116853   0.333   2.858   6.304
 5318SOL    HW216854   0.485   2.870   6.244
 5319SOL     OW16855   3.622   6.704   0.328
 5319SOL    HW116856   3.569   6.659   0.255
 5319SOL    HW216857   3.616   6.803   0.316
 5320SOL     OW16858   5.420   5.108   0.436
 5320SOL    HW116859   5.334   5.154   0.460
 5320SOL    HW216860   5.475   5.168   0.377
 5321SOL     OW16861   1.359   4.861   4.778
 5321SOL    HW116862   1.291   4.931   4.797
 5321SOL    HW216863   1.448   4.891   4.812
 5322SOL     OW16864   4.876   6.222   6.165
 5322SOL    HW116865   4.860   6.281   6.243
 5322SOL    HW216866   4.806   6.238   6.095
 5323SOL     OW16867   4.040   1.855   6.748
 5323SOL    HW116868   4.103   1.932   6.757
 5323SOL    HW216869   3.947   1.884   6.769
 5324SOL     OW16870   3.743   2.454   0.899
 5324SOL    HW116871   3.749   2.451   0.799
 5324SOL    HW216872   3.729   2.361   0.934
 5325SOL     OW16873   4.664   0.696   4.731
 5325SOL    HW116874   4.728   0.619   4.729
 5325SOL    HW216875   4.664   0.741   4.642
 5326SOL     OW16876   6.946   4.895   3.152
 5326SOL    HW116877   6.874   4.904   3.083
 5326SOL    HW216878   6.905   4.876   3.241
 5327SOL     OW16879   5.585   3.185   5.267
 5327SOL    HW116880   5.544   3.095   5.255
 5327SOL    HW216881   5.519   3.247   5.310
 5328SOL     OW16882   4.358   2.948   5.324
 5328SOL    HW116883   4.392   3.019   5.385
 5328SOL    HW216884   4.433   2.916   5.266
 5329SOL     OW16885   0.190   4.722   0.459
 5329SOL    HW116886   0.156   4.768   0.378
 5329SOL    HW216887   0.229   4.789   0.522
 5330SOL     OW16888   3.618   4.297   5.790
 5330SOL    HW116889   3.630   4.366   5.719
 5330SOL    HW216890   3.687   4.308   5.861
 5331SOL     OW16891   5.348   1.419   0.590
 5331SOL    HW116892   5.364   1.481   0.667
 5331SOL    HW216893   5.257   1.379   0.599
 5332SOL     OW16894   0.731   3.568   1.296
 5332SOL    HW116895   0.678   3.652   1.284
 5332SOL    HW216896   0.687   3.493   1.246
 5333SOL     OW16897   1.008   0.659   3.501
 5333SOL    HW116898   0.981   0.734   3.440
 5333SOL    HW216899   0.999   0.572   3.452
 5334SOL     OW16900   3.956   0.263   4.719
 5334SOL    HW116901   4.034   0.235   4.774
 5334SOL    HW216902   3.987   0.284   4.626
 5335SOL     OW16903   6.248   5.599   2.478
 5335SOL    HW116904   6.309   5.626   2.403
 5335SOL    HW216905   6.218   5.680   2.528
 5336SOL     OW16906   2.611   1.972   3.214
 5336SOL    HW116907   2.567   1.896   3.263
 5336SOL    HW216908   2.585   2.058   3.257
 5337SOL     OW16909   5.363   4.389   1.443
 5337SOL    HW116910   5.415   4.359   1.523
 5337SOL    HW216911   5.289   4.324   1.425
 5338SOL     OW16912   5.943   1.989   6.222
 5338SOL    HW116913   5.950   2.055   6.297
 5338SOL    HW216914   5.872   2.020   6.158
 5339SOL     OW16915   6.750   2.249   4.169
 5339SOL    HW116916   6.835   2.238   4.118
 5339SOL    HW216917   6.771   2.258   4.267
 5340SOL     OW16918   5.282   2.990   0.989
 5340SOL    HW116919   5.330   2.911   0.950
 5340SOL    HW216920   5.246   3.047   0.915
 5341SOL     OW16921   3.117   3.702   6.619
 5341SOL    HW116922   3.179   3.630   6.652
 5341SOL    HW216923   3.091   3.682   6.524
 5342SOL     OW16924   3.192   6.998   3.495
 5342SOL    HW116925   3.092   6.995   3.499
 5342SOL    HW216926   3.222   6.986   3.401
 5343SOL     OW16927   4.135   3.628   4.816
 5343SOL    HW116928   4.081   3.698   4.769
 5343SOL    HW216929   4.228   3.662   4.832
 5344SOL     OW16930   2.421   2.135   2.376
 5344SOL    HW116931   2.516   2.145   2.403
 5344SOL    HW216932   2.411   2.055   2.317
 5345SOL     OW16933   3.667   6.658   1.509
 5345SOL    HW116934   3.630   6.751   1.516
 5345SOL    HW216935   3.601   6.599   1.463
 5346SOL     OW16936   3.046   5.674   4.294
 5346SOL    HW116937   2.980   5.653   4.367
 5346SOL    HW216938   3.000   5.672   4.206
 5347SOL     OW16939   0.483   2.653   1.469
 5347SOL    HW116940   0.452   2.568   1.428
 5347SOL    HW216941   0.438   2.730   1.424
 5348SOL     OW16942   6.679   1.853   1.110
 5348SOL    HW116943   6.663   1.944   1.150
 5348SOL    HW216944   6.719   1.863   1.019
 5349SOL     OW16945   1.761   2.750   0.217
 5349SOL    HW116946   1.701   2.762   0.138
 5349SOL    HW216947   1.771   2.653   0.237
 5350SOL     OW16948   1.641   0.067   5.281
 5350SOL    HW116949   1.559   0.010   5.274
 5350SOL    HW216950   1.616   0.163   5.267
 5351SOL     OW16951   6.866   5.103   2.555
 5351SOL    HW116952   6.873   5.063   2.647
 5351SOL    HW216953   6.944   5.164   2.540
 5352SOL     OW16954   2.683   4.661   3.462
 5352SOL    HW116955   2.602   4.606   3.440
 5352SOL    HW216956   2.723   4.697   3.378
 5353SOL     OW16957   4.152   4.771   3.903
 5353SOL    HW116958   4.198   4.698   3.954
 5353SOL    HW216959   4.055   4.774   3.929
 5354SOL     OW16960   2.745   5.325   1.939
 5354SOL    HW116961   2.719   5.418   1.966
 5354SOL    HW216962   2.843   5.322   1.919
 5355SOL     OW16963   6.794   4.188   3.896
 5355SOL    HW116964   6.837   4.168   3.808
 5355SOL    HW216965   6.718   4.251   3.882
 5356SOL     OW16966   6.043   4.857   1.898
 5356SOL    HW116967   6.027   4.809   1.811
 5356SOL    HW216968   6.043   4.791   1.973
 5357SOL     OW16969   3.880   6.117   0.636
 5357SOL    HW116970   3.917   6.082   0.551
 5357SOL    HW216971   3.953   6.123   0.704
 5358SOL     OW16972   4.689   1.217   0.426
 5358SOL    HW116973   4.590   1.206   0.426
 5358SOL    HW216974   4.713   1.307   0.463
 5359SOL     OW16975   1.123   1.695   5.603
 5359SOL    HW116976   1.140   1.723   5.509
 5359SOL    HW216977   1.178   1.615   5.625
 5360SOL     OW16978   3.556   0.050   5.029
 5360SOL    HW116979   3.583   6.974   5.052
 5360SOL    HW216980   3.560   0.062   4.929
 5361SOL     OW16981   2.828   1.155   5.500
 5361SOL    HW116982   2.741   1.153   5.550
 5361SOL    HW216983   2.899   1.195   5.558
 5362SOL     OW16984   6.716   6.027   3.392
 5362SOL    HW116985   6.784   6.077   3.446
 5362SOL    HW216986   6.715   5.931   3.420
 5363SOL     OW16987   0.304   0.917   6.944
 5363SOL    HW116988   0.223   0.882   6.897
 5363SOL    HW216989   0.340   0.995   6.894
 5364SOL     OW16990   0.155   6.540   2.020
 5364SOL    HW116991   0.164   6.504   1.927
 5364SOL    HW216992   0.077   6.496   2.065
 5365SOL     OW16993   3.633   3.488   0.045
 5365SOL    HW116994   3.687   3.483   6.979
 5365SOL    HW216995   3.617   3.584   0.069
 5366SOL     OW16996   5.010   5.767   1.994
 5366SOL    HW116997   5.031   5.865   1.984
 5366SOL    HW216998   5.079   5.725   2.053
 5367SOL     OW16999   0.710   6.680   0.939
 5367SOL    HW117000   0.651   6.659   1.017
 5367SOL    HW217001   0.775   6.605   0.925
 5368SOL     OW17002   5.511   0.094   2.669
 5368SOL    HW117003   5.434   0.036   2.645
 5368SOL    HW217004   5.588   0.037   2.697
 5369SOL     OW17005   2.530   0.313   2.112
 5369SOL    HW117006   2.602   0.280   2.173
 5369SOL    HW217007   2.443   0.316   2.162
 5370SOL     OW17008   4.470   2.881   1.676
 5370SOL    HW117009   4.381   2.837   1.686
 5370SOL    HW217010   4.484   2.946   1.751
 5371SOL     OW17011   0.802   3.587   5.070
 5371SOL    HW117012   0.846   3.498   5.055
 5371SOL    HW217013   0.732   3.577   5.141
 5372SOL     OW17014   1.955   6.394   4.361
 5372SOL    HW117015   2.023   6.447   4.310
 5372SOL    HW217016   2.002   6.324   4.416
 5373SOL     OW17017   3.731   6.895   4.541
 5373SOL    HW117018   3.710   6.839   4.460
 5373SOL    HW217019   3.811   6.857   4.587
 5374SOL     OW17020   1.632   4.353   6.871
 5374SOL    HW117021   1.682   4.279   6.917
 5374SOL    HW217022   1.666   4.363   6.778
 5375SOL     OW17023   1.143   5.250   5.068
 5375SOL    HW117024   1.186   5.179   5.012
 5375SOL    HW217025   1.062   5.213   5.113
 5376SOL     OW17026   1.886   2.757   1.142
 5376SOL    HW117027   1.888   2.801   1.053
 5376SOL    HW217028   1.865   2.825   1.213
 5377SOL     OW17029   0.308   6.509   2.506
 5377SOL    HW117030   0.244   6.436   2.529
 5377SOL    HW217031   0.259   6.584   2.462
 5378SOL     OW17032   6.533   0.074   1.880
 5378SOL    HW117033   6.519   6.994   1.863
 5378SOL    HW217034   6.507   0.097   1.974
 5379SOL     OW17035   1.243   4.526   5.116
 5379SOL    HW117036   1.222   4.530   5.214
 5379SOL    HW217037   1.209   4.440   5.078
 5380SOL     OW17038   2.232   1.268   2.944
 5380SOL    HW117039   2.223   1.200   3.017
 5380SOL    HW217040   2.313   1.247   2.889
 5381SOL     OW17041   6.498   5.033   2.338
 5381SOL    HW117042   6.433   4.963   2.309
 5381SOL    HW217043   6.581   5.026   2.284
 5382SOL     OW17044   3.228   1.080   2.169
 5382SOL    HW117045   3.303   1.030   2.211
 5382SOL    HW217046   3.164   1.016   2.126
 5383SOL     OW17047   2.334   2.324   5.561
 5383SOL    HW117048   2.294   2.383   5.491
 5383SOL    HW217049   2.318   2.362   5.651
 5384SOL     OW17050   6.026   6.899   5.208
 5384SOL    HW117051   6.107   6.949   5.238
 5384SOL    HW217052   5.964   6.886   5.286
 5385SOL     OW17053   3.318   3.230   4.213
 5385SOL    HW117054   3.352   3.139   4.188
 5385SOL    HW217055   3.310   3.236   4.312
 5386SOL     OW17056   5.090   1.046   4.722
 5386SOL    HW117057   5.176   1.066   4.770
 5386SOL    HW217058   5.065   0.950   4.736
 5387SOL     OW17059   2.497   0.015   3.313
 5387SOL    HW117060   2.404   7.002   3.336
 5387SOL    HW217061   2.508   0.111   3.342
 5388SOL     OW17062   6.822   1.144   3.813
 5388SOL    HW117063   6.758   1.199   3.760
 5388SOL    HW217064   6.885   1.204   3.862
 5389SOL     OW17065   4.575   1.099   3.037
 5389SOL    HW117066   4.579   1.196   3.015
 5389SOL    HW217067   4.664   1.069   3.071
 5390SOL     OW17068   4.792   4.004   3.035
 5390SOL    HW117069   4.723   4.062   2.991
 5390SOL    HW217070   4.827   3.938   2.969
 5391SOL     OW17071   2.533   1.793   0.861
 5391SOL    HW117072   2.592   1.717   0.833
 5391SOL    HW217073   2.514   1.851   0.782
 5392SOL     OW17074   5.199   3.404   1.005
 5392SOL    HW117075   5.244   3.396   0.916
 5392SOL    HW217076   5.107   3.364   0.999
 5393SOL     OW17077   4.666   6.893   6.649
 5393SOL    HW117078   4.579   6.859   6.684
 5393SOL    HW217079   4.723   6.816   6.621
 5394SOL     OW17080   6.781   4.563   6.916
 5394SOL    HW117081   6.747   4.653   6.941
 5394SOL    HW217082   6.717   4.519   6.854
 5395SOL     OW17083   5.127   1.327   1.281
 5395SOL    HW117084   5.044   1.290   1.322
 5395SOL    HW217085   5.168   1.259   1.221
 5396SOL     OW17086   4.377   4.514   1.854
 5396SOL    HW117087   4.330   4.475   1.775
 5396SOL    HW217088   4.411   4.441   1.913
 5397SOL     OW17089   0.520   3.013   1.411
 5397SOL    HW117090   0.595   2.964   1.367
 5397SOL    HW217091   0.529   3.111   1.393
 5398SOL     OW17092   3.882   1.984   3.647
 5398SOL    HW117093   3.784   1.980   3.667
 5398SOL    HW217094   3.897   1.971   3.549
 5399SOL     OW17095   2.966   5.654   0.845
 5399SOL    HW117096   2.881   5.618   0.806
 5399SOL    HW217097   3.009   5.717   0.780
 5400SOL     OW17098   2.397   4.095   0.012
 5400SOL    HW117099   2.458   4.088   6.951
 5400SOL    HW217100   2.314   4.042   7.013
 5401SOL     OW17101   6.372   3.878   1.314
 5401SOL    HW117102   6.331   3.809   1.255
 5401SOL    HW217103   6.339   3.866   1.407
 5402SOL     OW17104   2.989   5.266   1.834
 5402SOL    HW117105   3.018   5.171   1.843
 5402SOL    HW217106   3.020   5.303   1.746
 5403SOL     OW17107   5.494   3.169   6.274
 5403SOL    HW117108   5.512   3.256   6.229
 5403SOL    HW217109   5.429   3.182   6.349
 5404SOL     OW17110   0.887   0.575   2.273
 5404SOL    HW117111   0.895   0.553   2.370
 5404SOL    HW217112   0.843   0.498   2.225
 5405SOL     OW17113   5.941   6.278   0.154
 5405SOL    HW117114   6.028   6.311   0.119
 5405SOL    HW217115   5.902   6.345   0.217
 5406SOL     OW17116   2.527   6.991   6.566
 5406SOL    HW117117   2.542   0.002   6.661
 5406SOL    HW217118   2.612   6.955   6.528
 5407SOL     OW17119   4.244   2.583   1.412
 5407SOL    HW117120   4.226   2.680   1.424
 5407SOL    HW217121   4.331   2.559   1.454
 5408SOL     OW17122   3.498   1.129   5.844
 5408SOL    HW117123   3.541   1.053   5.891
 5408SOL    HW217124   3.407   1.101   5.812
 5409SOL     OW17125   6.011   1.963   4.177
 5409SOL    HW117126   6.007   2.057   4.143
 5409SOL    HW217127   6.060   1.960   4.264
 5410SOL     OW17128   1.610   3.347   0.507
 5410SOL    HW117129   1.559   3.339   0.593
 5410SOL    HW217130   1.704   3.374   0.527
 5411SOL     OW17131   6.234   5.130   5.540
 5411SOL    HW117132   6.237   5.193   5.617
 5411SOL    HW217133   6.307   5.062   5.550
 5412SOL     OW17134   4.309   0.458   0.164
 5412SOL    HW117135   4.353   0.414   0.086
 5412SOL    HW217136   4.373   0.523   0.206
 5413SOL     OW17137   0.481   0.294   1.260
 5413SOL    HW117138   0.432   0.207   1.252
 5413SOL    HW217139   0.420   0.369   1.238
 5414SOL     OW17140   6.486   2.993   5.556
 5414SOL    HW117141   6.578   2.968   5.528
 5414SOL    HW217142   6.445   3.052   5.486
 5415SOL     OW17143   1.506   6.516   1.549
 5415SOL    HW117144   1.530   6.611   1.529
 5415SOL    HW217145   1.537   6.493   1.641
 5416SOL     OW17146   3.842   4.981   6.450
 5416SOL    HW117147   3.839   5.069   6.404
 5416SOL    HW217148   3.937   4.949   6.453
 5417SOL     OW17149   4.630   6.968   4.699
 5417SOL    HW117150   4.593   6.960   4.792
 5417SOL    HW217151   4.655   6.878   4.665
 5418SOL     OW17152   4.964   0.215   4.371
 5418SOL    HW117153   4.989   0.180   4.281
 5418SOL    HW217154   4.961   0.140   4.437
 5419SOL     OW17155   2.890   5.621   0.493
 5419SOL    HW117156   2.949   5.692   0.532
 5419SOL    HW217157   2.800   5.660   0.472
 5420SOL     OW17158   1.838   2.722   2.160
 5420SOL    HW117159   1.925   2.713   2.209
 5420SOL    HW217160   1.774   2.775   2.216
 5421SOL     OW17161   2.295   4.200   3.030
 5421SOL    HW117162   2.284   4.202   2.930
 5421SOL    HW217163   2.228   4.136   3.069
 5422SOL     OW17164   0.980   6.087   5.863
 5422SOL    HW117165   0.983   6.110   5.766
 5422SOL    HW217166   1.055   6.025   5.885
 5423SOL     OW17167   5.517   3.674   6.945
 5423SOL    HW117168   5.609   3.705   6.970
 5423SOL    HW217169   5.509   3.576   6.963
 5424SOL     OW17170   5.848   3.404   3.953
 5424SOL    HW117171   5.893   3.367   4.034
 5424SOL    HW217172   5.759   3.359   3.941
 5425SOL     OW17173   5.250   1.486   3.952
 5425SOL    HW117174   5.171   1.456   3.899
 5425SOL    HW217175   5.244   1.584   3.969
 5426SOL     OW17176   0.077   5.362   3.949
 5426SOL    HW117177   0.168   5.364   3.989
 5426SOL    HW217178   0.084   5.343   3.851
 5427SOL     OW17179   5.190   5.017   1.183
 5427SOL    HW117180   5.266   5.076   1.155
 5427SOL    HW217181   5.104   5.058   1.153
 5428SOL     OW17182   6.984   0.329   1.935
 5428SOL    HW117183   7.016   0.364   1.847
 5428SOL    HW217184   0.039   0.276   1.979
 5429SOL     OW17185   1.211   1.140   5.490
 5429SOL    HW117186   1.128   1.181   5.530
 5429SOL    HW217187   1.251   1.204   5.424
 5430SOL     OW17188   1.210   2.746   5.438
 5430SOL    HW117189   1.280   2.686   5.477
 5430SOL    HW217190   1.206   2.831   5.490
 5431SOL     OW17191   3.657   5.488   6.234
 5431SOL    HW117192   3.600   5.410   6.209
 5431SOL    HW217193   3.684   5.480   6.330
 5432SOL     OW17194   4.261   6.374   5.896
 5432SOL    HW117195   4.259   6.455   5.954
 5432SOL    HW217196   4.352   6.335   5.896
 5433SOL     OW17197   6.988   1.332   3.592
 5433SOL    HW117198   6.998   1.288   3.503
 5433SOL    HW217199   0.039   1.295   3.655
 5434SOL     OW17200   4.184   0.832   4.718
 5434SOL    HW117201   4.160   0.900   4.787
 5434SOL    HW217202   4.100   0.785   4.687
 5435SOL     OW17203   6.199   1.642   1.363
 5435SOL    HW117204   6.193   1.717   1.297
 5435SOL    HW217205   6.218   1.679   1.453
 5436SOL     OW17206   5.555   4.154   4.595
 5436SOL    HW117207   5.533   4.092   4.520
 5436SOL    HW217208   5.582   4.102   4.675
 5437SOL     OW17209   2.302   5.149   5.382
 5437SOL    HW117210   2.340   5.185   5.297
 5437SOL    HW217211   2.375   5.144   5.451
 5438SOL     OW17212   6.088   3.840   2.848
 5438SOL    HW117213   6.022   3.908   2.880
 5438SOL    HW217214   6.133   3.797   2.927
 5439SOL     OW17215   6.980   2.334   0.344
 5439SOL    HW117216   0.058   2.310   0.326
 5439SOL    HW217217   6.928   2.250   0.358
 5440SOL     OW17218   0.553   0.026   2.750
 5440SOL    HW117219   0.552   0.057   2.654
 5440SOL    HW217220   0.526   0.102   2.809
 5441SOL     OW17221   4.830   3.173   3.363
 5441SOL    HW117222   4.808   3.110   3.289
 5441SOL    HW217223   4.927   3.162   3.389
 5442SOL     OW17224   3.292   6.540   3.157
 5442SOL    HW117225   3.360   6.473   3.129
 5442SOL    HW217226   3.238   6.503   3.233
 5443SOL     OW17227   2.593   6.516   3.661
 5443SOL    HW117228   2.686   6.492   3.631
 5443SOL    HW217229   2.568   6.605   3.623
 5444SOL     OW17230   0.691   0.361   3.652
 5444SOL    HW117231   0.657   0.427   3.586
 5444SOL    HW217232   0.631   0.361   3.733
 5445SOL     OW17233   6.387   4.370   4.001
 5445SOL    HW117234   6.341   4.459   3.993
 5445SOL    HW217235   6.486   4.384   4.001
 5446SOL     OW17236   5.617   5.162   4.939
 5446SOL    HW117237   5.585   5.174   5.033
 5446SOL    HW217238   5.691   5.094   4.937
 5447SOL     OW17239   1.288   1.861   0.837
 5447SOL    HW117240   1.216   1.831   0.775
 5447SOL    HW217241   1.295   1.798   0.914
 5448SOL     OW17242   5.607   3.894   4.776
 5448SOL    HW117243   5.636   3.810   4.730
 5448SOL    HW217244   5.685   3.937   4.820
 5449SOL     OW17245   1.458   1.865   6.836
 5449SOL    HW117246   1.542   1.852   6.782
 5449SOL    HW217247   1.482   1.885   6.931
 5450SOL     OW17248   2.192   0.854   1.904
 5450SOL    HW117249   2.160   0.784   1.968
 5450SOL    HW217250   2.214   0.813   1.816
 5451SOL     OW17251   1.805   5.366   3.227
 5451SOL    HW117252   1.757   5.450   3.253
 5451SOL    HW217253   1.744   5.287   3.241
 5452SOL     OW17254   2.182   3.987   6.899
 5452SOL    HW117255   2.251   3.937   6.846
 5452SOL    HW217256   2.094   3.982   6.851
 5453SOL     OW17257   5.004   4.408   1.191
 5453SOL    HW117258   5.100   4.437   1.195
 5453SOL    HW217259   4.984   4.350   1.270
 5454SOL     OW17260   6.212   4.398   5.534
 5454SOL    HW117261   6.128   4.446   5.512
 5454SOL    HW217262   6.191   4.320   5.594
 5455SOL     OW17263   6.366   2.292   2.026
 5455SOL    HW117264   6.427   2.222   2.062
 5455SOL    HW217265   6.360   2.368   2.091
 5456SOL     OW17266   2.511   6.930   0.207
 5456SOL    HW117267   2.464   6.881   0.134
 5456SOL    HW217268   2.558   6.865   0.266
 5457SOL     OW17269   0.322   2.441   1.052
 5457SOL    HW117270   0.382   2.361   1.043
 5457SOL    HW217271   0.347   2.509   0.983
 5458SOL     OW17272   0.126   4.231   0.552
 5458SOL    HW117273   0.042   4.188   0.584
 5458SOL    HW217274   0.104   4.317   0.504
 5459SOL     OW17275   2.758   4.040   6.644
 5459SOL    HW117276   2.720   4.071   6.557
 5459SOL    HW217277   2.845   4.086   6.661
 5460SOL     OW17278   4.055   0.003   3.415
 5460SOL    HW117279   4.093   0.070   3.478
 5460SOL    HW217280   3.957   0.019   3.404
 5461SOL     OW17281   0.313   0.629   5.795
 5461SOL    HW117282   0.342   0.577   5.876
 5461SOL    HW217283   0.292   0.566   5.721
 5462SOL     OW17284   6.915   6.640   1.158
 5462SOL    HW117285   7.005   6.620   1.119
 5462SOL    HW217286   6.883   6.561   1.211
 5463SOL     OW17287   0.139   1.269   0.748
 5463SOL    HW117288   0.188   1.327   0.683
 5463SOL    HW217289   0.126   1.319   0.834
 5464SOL     OW17290   0.231   0.744   4.519
 5464SOL    HW117291   0.301   0.734   4.590
 5464SOL    HW217292   0.160   0.675   4.533
 5465SOL     OW17293   4.870   0.652   4.421
 5465SOL    HW117294   4.799   0.692   4.363
 5465SOL    HW217295   4.839   0.564   4.456
 5466SOL     OW17296   5.453   3.162   4.656
 5466SOL    HW117297   5.439   3.063   4.668
 5466SOL    HW217298   5.403   3.212   4.727
 5467SOL     OW17299   4.841   4.035   3.523
 5467SOL    HW117300   4.821   3.998   3.432
 5467SOL    HW217301   4.848   3.961   3.589
 5468SOL     OW17302   6.516   2.720   3.753
 5468SOL    HW117303   6.583   2.666   3.701
 5468SOL    HW217304   6.442   2.749   3.692
 5469SOL     OW17305   2.883   5.939   5.802
 5469SOL    HW117306   2.946   5.934   5.879
 5469SOL    HW217307   2.790   5.950   5.837
 5470SOL     OW17308   3.359   5.448   3.357
 5470SOL    HW117309   3.424   5.524   3.346
 5470SOL    HW217310   3.406   5.362   3.338
 5471SOL     OW17311   5.842   6.725   2.669
 5471SOL    HW117312   5.796   6.752   2.584
 5471SOL    HW217313   5.941   6.740   2.660
 5472SOL     OW17314   3.730   3.929   6.320
 5472SOL    HW117315   3.716   4.027   6.325
 5472SOL    HW217316   3.795   3.908   6.246
 5473SOL     OW17317   0.760   3.238   2.323
 5473SOL    HW117318   0.751   3.206   2.228
 5473SOL    HW217319   0.839   3.193   2.366
 5474SOL     OW17320   1.128   4.621   3.922
 5474SOL    HW117321   1.157   4.717   3.923
 5474SOL    HW217322   1.104   4.594   3.829
 5475SOL     OW17323   2.322   2.948   0.989
 5475SOL    HW117324   2.281   2.858   0.973
 5475SOL    HW217325   2.417   2.936   1.017
 5476SOL     OW17326   2.635   4.296   5.810
 5476SOL    HW117327   2.634   4.205   5.768
 5476SOL    HW217328   2.543   4.334   5.811
 5477SOL     OW17329   2.000   4.578   2.740
 5477SOL    HW117330   2.074   4.622   2.791
 5477SOL    HW217331   1.995   4.481   2.766
 5478SOL     OW17332   3.223   6.038   4.510
 5478SOL    HW117333   3.126   6.019   4.526
 5478SOL    HW217334   3.279   5.971   4.560
 5479SOL     OW17335   5.531   1.464   6.137
 5479SOL    HW117336   5.608   1.410   6.171
 5479SOL    HW217337   5.549   1.561   6.152
 5480SOL     OW17338   6.033   4.877   3.423
 5480SOL    HW117339   6.008   4.813   3.351
 5480SOL    HW217340   6.088   4.952   3.385
 5481SOL     OW17341   4.332   1.825   4.056
 5481SOL    HW117342   4.386   1.858   3.978
 5481SOL    HW217343   4.234   1.829   4.032
 5482SOL     OW17344   3.609   4.335   1.737
 5482SOL    HW117345   3.590   4.430   1.762
 5482SOL    HW217346   3.525   4.281   1.749
 5483SOL     OW17347   0.137   1.595   5.468
 5483SOL    HW117348   0.215   1.579   5.529
 5483SOL    HW217349   0.166   1.582   5.373
 5484SOL     OW17350   3.965   1.489   4.150
 5484SOL    HW117351   4.055   1.490   4.106
 5484SOL    HW217352   3.976   1.461   4.246
 5485SOL     OW17353   3.833   0.028   4.828
 5485SOL    HW117354   3.882   0.093   4.771
 5485SOL    HW217355   3.743   0.009   4.787
 5486SOL     OW17356   2.217   6.310   5.252
 5486SOL    HW117357   2.287   6.273   5.313
 5486SOL    HW217358   2.189   6.239   5.186
 5487SOL     OW17359   4.815   2.252   6.990
 5487SOL    HW117360   4.777   2.338   0.008
 5487SOL    HW217361   4.890   2.222   0.031
 5488SOL     OW17362   6.208   0.472   1.127
 5488SOL    HW117363   6.258   0.399   1.173
 5488SOL    HW217364   6.218   0.462   1.028
 5489SOL     OW17365   0.197   4.535   1.318
 5489SOL    HW117366   0.192   4.435   1.324
 5489SOL    HW217367   0.241   4.561   1.232
 5490SOL     OW17368   3.310   0.555   2.414
 5490SOL    HW117369   3.352   0.624   2.473
 5490SOL    HW217370   3.275   0.598   2.331
 5491SOL     OW17371   0.900   2.990   0.380
 5491SOL    HW117372   0.918   2.892   0.368
 5491SOL    HW217373   0.840   3.021   0.306
 5492SOL     OW17374   0.646   3.726   6.459
 5492SOL    HW117375   0.639   3.632   6.492
 5492SOL    HW217376   0.602   3.734   6.370
 5493SOL     OW17377   3.287   4.148   3.999
 5493SOL    HW117378   3.285   4.129   4.097
 5493SOL    HW217379   3.237   4.076   3.950
 5494SOL     OW17380   0.877   3.983   6.009
 5494SOL    HW117381   0.920   4.073   6.003
 5494SOL    HW217382   0.898   3.942   6.098
 5495SOL     OW17383   5.673   1.403   0.662
 5495SOL    HW117384   5.575   1.415   0.653
 5495SOL    HW217385   5.717   1.492   0.675
 5496SOL     OW17386   4.194   0.777   3.443
 5496SOL    HW117387   4.243   0.802   3.360
 5496SOL    HW217388   4.260   0.750   3.514
 5497SOL     OW17389   6.843   0.656   4.969
 5497SOL    HW117390   6.772   0.710   5.015
 5497SOL    HW217391   6.827   0.656   4.871
 5498SOL     OW17392   6.785   5.630   1.349
 5498SOL    HW117393   6.830   5.627   1.260
 5498SOL    HW217394   6.836   5.690   1.411
 5499SOL     OW17395   1.002   0.381   4.306
 5499SOL    HW117396   1.087   0.328   4.304
 5499SOL    HW217397   1.012   0.462   4.249
 5500SOL     OW17398   0.875   0.659   0.191
 5500SOL    HW117399   0.933   0.579   0.170
 5500SOL    HW217400   0.863   0.714   0.108
 5501SOL     OW17401   3.286   1.606   6.667
 5501SOL    HW117402   3.341   1.625   6.749
 5501SOL    HW217403   3.346   1.580   6.592
 5502SOL     OW17404   4.514   3.820   0.170
 5502SOL    HW117405   4.549   3.732   0.139
 5502SOL    HW217406   4.578   3.892   0.144
 5503SOL     OW17407   6.808   4.308   1.070
 5503SOL    HW117408   6.782   4.404   1.077
 5503SOL    HW217409   6.898   4.295   1.111
 5504SOL     OW17410   4.557   1.430   5.463
 5504SOL    HW117411   4.610   1.507   5.428
 5504SOL    HW217412   4.459   1.448   5.447
 5505SOL     OW17413   1.746   5.299   4.027
 5505SOL    HW117414   1.736   5.269   4.122
 5505SOL    HW217415   1.780   5.223   3.972
 5506SOL     OW17416   0.331   3.648   0.636
 5506SOL    HW117417   0.264   3.618   0.703
 5506SOL    HW217418   0.419   3.605   0.656
 5507SOL     OW17419   4.278   1.193   4.878
 5507SOL    HW117420   4.202   1.128   4.885
 5507SOL    HW217421   4.361   1.145   4.851
 5508SOL     OW17422   1.492   1.146   0.483
 5508SOL    HW117423   1.493   1.053   0.445
 5508SOL    HW217424   1.551   1.205   0.428
 5509SOL     OW17425   0.271   5.949   6.363
 5509SOL    HW117426   0.176   5.965   6.335
 5509SOL    HW217427   0.315   6.036   6.385
 5510SOL     OW17428   4.592   5.308   6.725
 5510SOL    HW117429   4.648   5.323   6.643
 5510SOL    HW217430   4.503   5.272   6.697
 5511SOL     OW17431   0.943   0.019   3.994
 5511SOL    HW117432   0.847   0.009   3.968
 5511SOL    HW217433   0.984   6.946   4.004
 5512SOL     OW17434   4.825   2.253   0.638
 5512SOL    HW117435   4.778   2.341   0.625
 5512SOL    HW217436   4.869   2.252   0.728
 5513SOL     OW17437   3.581   5.316   5.668
 5513SOL    HW117438   3.493   5.326   5.714
 5513SOL    HW217439   3.646   5.382   5.705
 5514SOL     OW17440   3.516   0.454   4.607
 5514SOL    HW117441   3.605   0.426   4.642
 5514SOL    HW217442   3.454   0.376   4.608
 5515SOL     OW17443   0.811   5.718   1.543
 5515SOL    HW117444   0.843   5.718   1.638
 5515SOL    HW217445   0.744   5.791   1.531
 5516SOL     OW17446   1.850   3.085   5.539
 5516SOL    HW117447   1.877   3.057   5.631
 5516SOL    HW217448   1.759   3.049   5.519
 5517SOL     OW17449   2.079   3.464   2.162
 5517SOL    HW117450   2.029   3.540   2.203
 5517SOL    HW217451   2.124   3.495   2.078
 5518SOL     OW17452   5.853   5.814   6.640
 5518SOL    HW117453   5.817   5.876   6.710
 5518SOL    HW217454   5.810   5.725   6.649
 5519SOL     OW17455   5.420   3.360   3.013
 5519SOL    HW117456   5.417   3.458   2.995
 5519SOL    HW217457   5.444   3.312   2.929
 5520SOL     OW17458   6.228   6.541   2.336
 5520SOL    HW117459   6.240   6.479   2.414
 5520SOL    HW217460   6.249   6.634   2.364
 5521SOL     OW17461   4.860   6.266   2.442
 5521SOL    HW117462   4.886   6.172   2.465
 5521SOL    HW217463   4.794   6.265   2.368
 5522SOL     OW17464   6.325   4.594   0.611
 5522SOL    HW117465   6.266   4.603   0.531
 5522SOL    HW217466   6.272   4.557   0.687
 5523SOL     OW17467   4.079   1.829   1.850
 5523SOL    HW117468   3.980   1.835   1.840
 5523SOL    HW217469   4.105   1.859   1.942
 5524SOL     OW17470   4.475   0.196   4.822
 5524SOL    HW117471   4.521   0.256   4.887
 5524SOL    HW217472   4.541   0.134   4.780
 5525SOL     OW17473   0.504   2.170   0.163
 5525SOL    HW117474   0.410   2.135   0.169
 5525SOL    HW217475   0.515   2.247   0.226
 5526SOL     OW17476   4.897   5.190   2.893
 5526SOL    HW117477   4.890   5.139   2.979
 5526SOL    HW217478   4.991   5.222   2.881
 5527SOL     OW17479   4.905   3.624   3.804
 5527SOL    HW117480   4.929   3.527   3.809
 5527SOL    HW217481   4.890   3.659   3.897
 5528SOL     OW17482   1.894   0.843   0.620
 5528SOL    HW117483   1.885   0.926   0.565
 5528SOL    HW217484   1.859   0.765   0.569
 5529SOL     OW17485   3.316   6.869   5.197
 5529SOL    HW117486   3.401   6.889   5.149
 5529SOL    HW217487   3.326   6.785   5.251
 5530SOL     OW17488   6.026   1.821   0.805
 5530SOL    HW117489   5.940   1.775   0.785
 5530SOL    HW217490   6.102   1.771   0.762
 5531SOL     OW17491   3.808   3.444   1.986
 5531SOL    HW117492   3.753   3.360   1.982
 5531SOL    HW217493   3.780   3.498   2.066
 5532SOL     OW17494   1.046   3.264   1.227
 5532SOL    HW117495   1.100   3.219   1.156
 5532SOL    HW217496   0.959   3.294   1.189
 5533SOL     OW17497   3.767   1.777   3.114
 5533SOL    HW117498   3.778   1.780   3.213
 5533SOL    HW217499   3.679   1.734   3.092
 5534SOL     OW17500   1.047   1.926   7.004
 5534SOL    HW117501   0.952   1.903   6.985
 5534SOL    HW217502   1.065   2.021   6.977
 5535SOL     OW17503   1.142   1.224   3.156
 5535SOL    HW117504   1.115   1.301   3.213
 5535SOL    HW217505   1.183   1.257   3.071
 5536SOL     OW17506   4.221   0.699   4.360
 5536SOL    HW117507   4.313   0.691   4.398
 5536SOL    HW217508   4.155   0.659   4.423
 5537SOL     OW17509   3.171   1.247   2.384
 5537SOL    HW117510   3.182   1.186   2.463
 5537SOL    HW217511   3.183   1.195   2.300
 5538SOL     OW17512   3.595   5.730   4.916
 5538SOL    HW117513   3.673   5.667   4.908
 5538SOL    HW217514   3.583   5.757   5.011
 5539SOL     OW17515   1.244   4.246   2.046
 5539SOL    HW117516   1.332   4.218   2.084
 5539SOL    HW217517   1.244   4.344   2.030
 5540SOL     OW17518   4.765   4.562   4.173
 5540SOL    HW117519   4.678   4.546   4.220
 5540SOL    HW217520   4.827   4.487   4.193
 5541SOL     OW17521   4.720   0.360   6.753
 5541SOL    HW117522   4.802   0.412   6.775
 5541SOL    HW217523   4.733   0.264   6.776
 5542SOL     OW17524   4.292   3.394   5.928
 5542SOL    HW117525   4.233   3.366   6.003
 5542SOL    HW217526   4.375   3.436   5.964
 5543SOL     OW17527   4.348   3.936   6.395
 5543SOL    HW117528   4.372   3.987   6.312
 5543SOL    HW217529   4.261   3.969   6.431
 5544SOL     OW17530   4.960   5.412   6.867
 5544SOL    HW117531   4.928   5.489   6.812
 5544SOL    HW217532   4.930   5.327   6.826
 5545SOL     OW17533   4.385   0.461   2.766
 5545SOL    HW117534   4.402   0.365   2.742
 5545SOL    HW217535   4.316   0.499   2.703
 5546SOL     OW17536   0.266   4.719   4.389
 5546SOL    HW117537   0.306   4.804   4.423
 5546SOL    HW217538   0.173   4.737   4.357
 5547SOL     OW17539   3.248   6.848   5.567
 5547SOL    HW117540   3.169   6.898   5.530
 5547SOL    HW217541   3.220   6.755   5.589
 5548SOL     OW17542   6.172   2.551   5.706
 5548SOL    HW117543   6.095   2.589   5.654
 5548SOL    HW217544   6.258   2.580   5.665
 5549SOL     OW17545   4.164   4.801   0.004
 5549SOL    HW117546   4.200   4.708   7.010
 5549SOL    HW217547   4.221   4.865   6.970
 5550SOL     OW17548   2.954   5.507   2.676
 5550SOL    HW117549   3.049   5.480   2.660
 5550SOL    HW217550   2.948   5.607   2.678
 5551SOL     OW17551   1.800   0.950   2.813
 5551SOL    HW117552   1.772   0.996   2.897
 5551SOL    HW217553   1.893   0.978   2.789
 5552SOL     OW17554   0.032   1.301   6.974
 5552SOL    HW117555   0.068   1.263   6.888
 5552SOL    HW217556   0.094   1.373   7.006
 5553SOL     OW17557   3.865   6.660   0.415
 5553SOL    HW117558   3.851   6.635   0.511
 5553SOL    HW217559   3.777   6.659   0.367
 5554SOL     OW17560   2.771   1.721   5.801
 5554SOL    HW117561   2.750   1.638   5.748
 5554SOL    HW217562   2.771   1.800   5.740
 5555SOL     OW17563   0.816   4.894   3.854
 5555SOL    HW117564   0.887   4.948   3.899
 5555SOL    HW217565   0.790   4.817   3.913
 5556SOL     OW17566   0.450   2.839   4.071
 5556SOL    HW117567   0.484   2.766   4.130
 5556SOL    HW217568   0.359   2.867   4.101
 5557SOL     OW17569   3.267   4.938   3.898
 5557SOL    HW117570   3.183   4.897   3.862
 5557SOL    HW217571   3.262   5.037   3.890
 5558SOL     OW17572   4.878   3.424   5.435
 5558SOL    HW117573   4.908   3.460   5.347
 5558SOL    HW217574   4.807   3.355   5.420
 5559SOL     OW17575   2.656   6.928   2.461
 5559SOL    HW117576   2.720   6.899   2.390
 5559SOL    HW217577   2.694   7.004   2.512
 5560SOL     OW17578   0.558   6.691   2.887
 5560SOL    HW117579   0.643   6.694   2.939
 5560SOL    HW217580   0.578   6.671   2.791
 5561SOL     OW17581   2.138   2.250   3.761
 5561SOL    HW117582   2.154   2.309   3.840
 5561SOL    HW217583   2.055   2.196   3.776
 5562SOL     OW17584   1.902   2.101   6.648
 5562SOL    HW117585   1.987   2.153   6.642
 5562SOL    HW217586   1.912   2.014   6.600
 5563SOL     OW17587   4.543   6.150   2.557
 5563SOL    HW117588   4.499   6.189   2.476
 5563SOL    HW217589   4.550   6.221   2.628
 5564SOL     OW17590   5.071   1.913   1.217
 5564SOL    HW117591   5.014   1.869   1.147
 5564SOL    HW217592   5.013   1.945   1.292
 5565SOL     OW17593   4.757   2.162   5.932
 5565SOL    HW117594   4.725   2.068   5.939
 5565SOL    HW217595   4.810   2.185   6.014
 5566SOL     OW17596   0.776   5.715   1.254
 5566SOL    HW117597   0.849   5.782   1.241
 5566SOL    HW217598   0.771   5.689   1.351
 5567SOL     OW17599   0.919   5.081   0.607
 5567SOL    HW117600   0.888   5.077   0.702
 5567SOL    HW217601   0.846   5.050   0.547
 5568SOL     OW17602   4.466   2.487   1.557
 5568SOL    HW117603   4.470   2.388   1.572
 5568SOL    HW217604   4.520   2.533   1.628
 5569SOL     OW17605   4.057   1.766   2.186
 5569SOL    HW117606   4.139   1.710   2.191
 5569SOL    HW217607   4.082   1.860   2.162
 5570SOL     OW17608   6.324   4.762   4.647
 5570SOL    HW117609   6.382   4.840   4.622
 5570SOL    HW217610   6.382   4.684   4.670
 5571SOL     OW17611   0.242   6.337   0.477
 5571SOL    HW117612   0.311   6.313   0.409
 5571SOL    HW217613   0.151   6.316   0.441
 5572SOL     OW17614   2.992   2.779   6.400
 5572SOL    HW117615   2.933   2.852   6.367
 5572SOL    HW217616   2.974   2.762   6.497
 5573SOL     OW17617   0.991   2.765   0.590
 5573SOL    HW117618   1.041   2.850   0.575
 5573SOL    HW217619   1.004   2.734   0.684
 5574SOL     OW17620   6.878   1.168   4.520
 5574SOL    HW117621   6.903   1.141   4.613
 5574SOL    HW217622   6.960   1.173   4.464
 5575SOL     OW17623   1.568   0.732   1.649
 5575SOL    HW117624   1.541   0.828   1.645
 5575SOL    HW217625   1.653   0.724   1.701
 5576SOL     OW17626   6.316   5.367   1.747
 5576SOL    HW117627   6.320   5.267   1.745
 5576SOL    HW217628   6.311   5.398   1.842
 5577SOL     OW17629   2.187   3.591   5.156
 5577SOL    HW117630   2.128   3.537   5.096
 5577SOL    HW217631   2.248   3.530   5.207
 5578SOL     OW17632   3.179   3.000   0.289
 5578SOL    HW117633   3.223   2.937   0.225
 5578SOL    HW217634   3.112   2.951   0.345
 5579SOL     OW17635   5.355   4.116   5.880
 5579SOL    HW117636   5.454   4.098   5.880
 5579SOL    HW217637   5.320   4.108   5.973
 5580SOL     OW17638   4.618   1.650   0.559
 5580SOL    HW117639   4.698   1.642   0.619
 5580SOL    HW217640   4.535   1.653   0.615
 5581SOL     OW17641   2.698   0.289   0.491
 5581SOL    HW117642   2.641   0.282   0.409
 5581SOL    HW217643   2.715   0.386   0.511
 5582SOL     OW17644   3.508   3.912   4.326
 5582SOL    HW117645   3.504   3.895   4.424
 5582SOL    HW217646   3.597   3.881   4.291
 5583SOL     OW17647   4.088   6.842   2.807
 5583SOL    HW117648   4.079   6.875   2.713
 5583SOL    HW217649   4.175   6.874   2.845
 5584SOL     OW17650   5.506   4.291   3.608
 5584SOL    HW117651   5.427   4.282   3.547
 5584SOL    HW217652   5.500   4.224   3.681
 5585SOL     OW17653   5.769   0.463   3.907
 5585SOL    HW117654   5.700   0.391   3.904
 5585SOL    HW217655   5.857   0.426   3.880
 5586SOL     OW17656   1.730   1.825   6.364
 5586SOL    HW117657   1.817   1.803   6.320
 5586SOL    HW217658   1.655   1.804   6.301
 5587SOL     OW17659   3.487   0.250   2.684
 5587SOL    HW117660   3.527   0.159   2.694
 5587SOL    HW217661   3.526   0.311   2.753
 5588SOL     OW17662   1.638   6.650   4.778
 5588SOL    HW117663   1.686   6.737   4.772
 5588SOL    HW217664   1.553   6.656   4.726
 5589SOL     OW17665   5.022   3.270   5.620
 5589SOL    HW117666   4.954   3.306   5.556
 5589SOL    HW217667   5.039   3.174   5.600
 5590SOL     OW17668   6.757   5.754   3.462
 5590SOL    HW117669   6.706   5.745   3.548
 5590SOL    HW217670   6.730   5.680   3.400
 5591SOL     OW17671   5.825   0.428   0.088
 5591SOL    HW117672   5.905   0.478   0.122
 5591SOL    HW217673   5.742   0.474   0.117
 5592SOL     OW17674   2.019   3.482   3.984
 5592SOL    HW117675   1.924   3.459   3.965
 5592SOL    HW217676   2.077   3.403   3.965
 5593SOL     OW17677   0.337   2.260   5.867
 5593SOL    HW117678   0.262   2.323   5.888
 5593SOL    HW217679   0.390   2.296   5.790
 5594SOL     OW17680   2.501   0.856   6.827
 5594SOL    HW117681   2.598   0.879   6.840
 5594SOL    HW217682   2.491   0.806   6.741
 5595SOL     OW17683   6.265   0.773   5.815
 5595SOL    HW117684   6.213   0.764   5.730
 5595SOL    HW217685   6.362   0.782   5.794
 5596SOL     OW17686   6.182   0.082   2.312
 5596SOL    HW117687   6.152   0.138   2.390
 5596SOL    HW217688   6.116   0.091   2.238
 5597SOL     OW17689   5.411   2.063   5.920
 5597SOL    HW117690   5.343   2.118   5.870
 5597SOL    HW217691   5.417   2.095   6.014
 5598SOL     OW17692   5.116   1.994   4.130
 5598SOL    HW117693   5.039   1.930   4.123
 5598SOL    HW217694   5.106   2.048   4.213
 5599SOL     OW17695   5.764   4.242   1.861
 5599SOL    HW117696   5.763   4.315   1.794
 5599SOL    HW217697   5.676   4.238   1.909
 5600SOL     OW17698   2.678   6.973   3.077
 5600SOL    HW117699   2.747   6.945   3.144
 5600SOL    HW217700   2.601   7.016   3.125
 5601SOL     OW17701   5.301   2.990   5.781
 5601SOL    HW117702   5.391   2.950   5.768
 5601SOL    HW217703   5.299   3.081   5.740
 5602SOL     OW17704   0.024   1.617   3.543
 5602SOL    HW117705   6.988   1.652   3.466
 5602SOL    HW217706   0.015   1.518   3.547
 5603SOL     OW17707   4.495   2.584   5.162
 5603SOL    HW117708   4.444   2.544   5.085
 5603SOL    HW217709   4.517   2.679   5.141
 5604SOL     OW17710   0.470   0.400   4.183
 5604SOL    HW117711   0.563   0.366   4.200
 5604SOL    HW217712   0.421   0.335   4.125
 5605SOL     OW17713   0.928   0.095   4.563
 5605SOL    HW117714   0.894   0.178   4.518
 5605SOL    HW217715   0.911   0.101   4.661
 5606SOL     OW17716   4.682   1.677   0.154
 5606SOL    HW117717   4.687   1.753   0.090
 5606SOL    HW217718   4.773   1.659   0.191
 5607SOL     OW17719   6.013   2.585   3.381
 5607SOL    HW117720   5.974   2.624   3.464
 5607SOL    HW217721   6.062   2.501   3.404
 5608SOL     OW17722   6.277   0.170   3.367
 5608SOL    HW117723   6.241   0.204   3.279
 5608SOL    HW217724   6.365   0.213   3.385
 5609SOL     OW17725   4.633   6.339   0.186
 5609SOL    HW117726   4.647   6.419   0.243
 5609SOL    HW217727   4.652   6.256   0.239
 5610SOL     OW17728   5.859   4.152   6.793
 5610SOL    HW117729   5.821   4.215   6.861
 5610SOL    HW217730   5.785   4.113   6.738
 5611SOL     OW17731   0.466   4.420   1.710
 5611SOL    HW117732   0.370   4.393   1.701
 5611SOL    HW217733   0.490   4.484   1.638
 5612SOL     OW17734   2.925   2.840   0.217
 5612SOL    HW117735   2.996   2.808   0.154
 5612SOL    HW217736   2.950   2.815   0.310
 5613SOL     OW17737   0.193   5.387   4.354
 5613SOL    HW117738   0.276   5.418   4.308
 5613SOL    HW217739   0.161   5.457   4.417
 5614SOL     OW17740   6.170   1.778   4.369
 5614SOL    HW117741   6.218   1.836   4.303
 5614SOL    HW217742   6.167   1.824   4.457
 5615SOL     OW17743   0.502   2.096   2.495
 5615SOL    HW117744   0.582   2.108   2.436
 5615SOL    HW217745   0.456   2.010   2.472
 5616SOL     OW17746   2.116   1.682   4.409
 5616SOL    HW117747   2.188   1.751   4.406
 5616SOL    HW217748   2.062   1.694   4.493
 5617SOL     OW17749   1.937   5.315   5.080
 5617SOL    HW117750   1.918   5.351   5.172
 5617SOL    HW217751   1.901   5.378   5.011
 5618SOL     OW17752   6.594   5.270   3.774
 5618SOL    HW117753   6.618   5.231   3.685
 5618SOL    HW217754   6.576   5.368   3.764
 5619SOL     OW17755   3.278   2.956   3.656
 5619SOL    HW117756   3.320   3.043   3.628
 5619SOL    HW217757   3.349   2.888   3.672
 5620SOL     OW17758   4.150   3.638   5.895
 5620SOL    HW117759   4.210   3.589   5.832
 5620SOL    HW217760   4.189   3.635   5.987
 5621SOL     OW17761   1.890   3.143   6.083
 5621SOL    HW117762   1.892   3.241   6.104
 5621SOL    HW217763   1.975   3.101   6.113
 5622SOL     OW17764   4.199   5.657   4.968
 5622SOL    HW117765   4.174   5.753   4.981
 5622SOL    HW217766   4.252   5.648   4.883
 5623SOL     OW17767   4.864   6.630   4.094
 5623SOL    HW117768   4.809   6.585   4.025
 5623SOL    HW217769   4.881   6.725   4.067
 5624SOL     OW17770   0.427   5.122   3.505
 5624SOL    HW117771   0.435   5.222   3.502
 5624SOL    HW217772   0.331   5.096   3.513
 5625SOL     OW17773   0.850   5.906   4.716
 5625SOL    HW117774   0.924   5.969   4.691
 5625SOL    HW217775   0.836   5.908   4.815
 5626SOL     OW17776   1.866   4.525   4.284
 5626SOL    HW117777   1.880   4.437   4.238
 5626SOL    HW217778   1.865   4.598   4.216
 5627SOL     OW17779   0.892   5.887   6.411
 5627SOL    HW117780   0.845   5.844   6.335
 5627SOL    HW217781   0.832   5.954   6.455
 5628SOL     OW17782   2.660   3.295   0.749
 5628SOL    HW117783   2.564   3.278   0.729
 5628SOL    HW217784   2.668   3.345   0.835
 5629SOL     OW17785   3.907   3.594   1.060
 5629SOL    HW117786   3.876   3.689   1.062
 5629SOL    HW217787   3.872   3.546   1.141
 5630SOL     OW17788   1.657   4.000   6.109
 5630SOL    HW117789   1.662   3.923   6.046
 5630SOL    HW217790   1.727   4.068   6.085
 5631SOL     OW17791   4.662   0.938   2.070
 5631SOL    HW117792   4.756   0.959   2.042
 5631SOL    HW217793   4.662   0.903   2.163
 5632SOL     OW17794   5.003   1.069   6.000
 5632SOL    HW117795   5.016   1.029   6.091
 5632SOL    HW217796   4.956   1.004   5.941
 5633SOL     OW17797   0.592   5.032   4.482
 5633SOL    HW117798   0.596   4.935   4.458
 5633SOL    HW217799   0.497   5.062   4.488
 5634SOL     OW17800   2.603   5.388   5.447
 5634SOL    HW117801   2.582   5.366   5.352
 5634SOL    HW217802   2.684   5.446   5.451
 5635SOL     OW17803   2.949   0.016   6.718
 5635SOL    HW117804   2.894   0.021   6.801
 5635SOL    HW217805   3.040   6.999   6.740
 5636SOL     OW17806   5.864   1.331   5.706
 5636SOL    HW117807   5.830   1.363   5.618
 5636SOL    HW217808   5.836   1.394   5.778
 5637SOL     OW17809   5.770   6.418   4.414
 5637SOL    HW117810   5.814   6.488   4.358
 5637SOL    HW217811   5.756   6.454   4.506
 5638SOL     OW17812   5.309   6.098   1.713
 5638SOL    HW117813   5.323   6.180   1.768
 5638SOL    HW217814   5.212   6.081   1.701
 5639SOL     OW17815   1.683   0.328   1.621
 5639SOL    HW117816   1.708   0.382   1.701
 5639SOL    HW217817   1.590   0.292   1.633
 5640SOL     OW17818   2.595   6.739   2.936
 5640SOL    HW117819   2.577   6.820   2.991
 5640SOL    HW217820   2.580   6.657   2.992
 5641SOL     OW17821   0.443   4.563   5.636
 5641SOL    HW117822   0.431   4.516   5.549
 5641SOL    HW217823   0.509   4.512   5.692
 5642SOL     OW17824   0.396   5.217   6.155
 5642SOL    HW117825   0.454   5.257   6.084
 5642SOL    HW217826   0.427   5.125   6.176
 5643SOL     OW17827   3.371   1.091   4.727
 5643SOL    HW117828   3.434   1.151   4.776
 5643SOL    HW217829   3.285   1.084   4.778
 5644SOL     OW17830   5.291   1.747   4.253
 5644SOL    HW117831   5.269   1.841   4.228
 5644SOL    HW217832   5.314   1.742   4.350
 5645SOL     OW17833   5.755   4.337   2.677
 5645SOL    HW117834   5.840   4.326   2.626
 5645SOL    HW217835   5.713   4.247   2.691
 5646SOL     OW17836   1.201   5.457   3.806
 5646SOL    HW117837   1.248   5.411   3.881
 5646SOL    HW217838   1.111   5.488   3.837
 5647SOL     OW17839   6.526   6.199   6.538
 5647SOL    HW117840   6.508   6.297   6.552
 5647SOL    HW217841   6.455   6.145   6.584
 5648SOL     OW17842   1.830   1.079   3.045
 5648SOL    HW117843   1.925   1.063   3.072
 5648SOL    HW217844   1.779   1.117   3.122
 5649SOL     OW17845   1.327   0.365   5.047
 5649SOL    HW117846   1.353   0.430   4.976
 5649SOL    HW217847   1.351   0.272   5.018
 5650SOL     OW17848   0.035   4.898   1.255
 5650SOL    HW117849   0.031   4.945   1.167
 5650SOL    HW217850   0.124   4.913   1.297
 5651SOL     OW17851   0.514   2.001   1.482
 5651SOL    HW117852   0.454   2.028   1.407
 5651SOL    HW217853   0.603   2.046   1.470
 5652SOL     OW17854   4.821   5.971   2.361
 5652SOL    HW117855   4.758   5.954   2.437
 5652SOL    HW217856   4.865   5.886   2.335
 5653SOL     OW17857   0.109   6.368   6.492
 5653SOL    HW117858   0.028   6.311   6.494
 5653SOL    HW217859   0.095   6.444   6.428
 5654SOL     OW17860   0.546   0.329   6.237
 5654SOL    HW117861   0.538   0.326   6.337
 5654SOL    HW217862   0.468   0.380   6.200
 5655SOL     OW17863   1.025   2.822   4.437
 5655SOL    HW117864   1.059   2.913   4.460
 5655SOL    HW217865   0.925   2.821   4.447
 5656SOL     OW17866   3.149   5.285   0.875
 5656SOL    HW117867   3.204   5.213   0.917
 5656SOL    HW217868   3.209   5.348   0.827
 5657SOL     OW17869   4.813   6.752   1.411
 5657SOL    HW117870   4.834   6.838   1.364
 5657SOL    HW217871   4.753   6.770   1.489
 5658SOL     OW17872   2.978   6.793   6.139
 5658SOL    HW117873   2.925   6.801   6.223
 5658SOL    HW217874   3.028   6.878   6.123
 5659SOL     OW17875   2.942   3.466   2.958
 5659SOL    HW117876   2.934   3.544   3.020
 5659SOL    HW217877   2.919   3.495   2.865
 5660SOL     OW17878   5.491   0.427   6.881
 5660SOL    HW117879   5.547   0.422   6.964
 5660SOL    HW217880   5.536   0.486   6.814
 5661SOL     OW17881   6.858   5.244   5.678
 5661SOL    HW117882   6.942   5.298   5.673
 5661SOL    HW217883   6.859   5.189   5.762
 5662SOL     OW17884   2.565   5.146   4.169
 5662SOL    HW117885   2.474   5.118   4.139
 5662SOL    HW217886   2.560   5.179   4.263
 5663SOL     OW17887   1.022   4.020   6.791
 5663SOL    HW117888   0.945   3.956   6.787
 5663SOL    HW217889   1.047   4.049   6.699
 5664SOL     OW17890   0.093   3.916   3.692
 5664SOL    HW117891   0.109   3.860   3.773
 5664SOL    HW217892   0.072   3.857   3.615
 5665SOL     OW17893   1.633   1.334   6.739
 5665SOL    HW117894   1.721   1.296   6.767
 5665SOL    HW217895   1.626   1.331   6.639
 5666SOL     OW17896   4.850   6.104   1.174
 5666SOL    HW117897   4.758   6.066   1.184
 5666SOL    HW217898   4.872   6.113   1.077
 5667SOL     OW17899   0.539   4.810   3.771
 5667SOL    HW117900   0.630   4.827   3.808
 5667SOL    HW217901   0.536   4.837   3.675
 5668SOL     OW17902   5.687   2.115   6.498
 5668SOL    HW117903   5.784   2.141   6.497
 5668SOL    HW217904   5.631   2.198   6.501
 5669SOL     OW17905   0.350   3.672   6.363
 5669SOL    HW117906   0.416   3.686   6.289
 5669SOL    HW217907   0.340   3.574   6.382
 5670SOL     OW17908   0.048   3.093   3.564
 5670SOL    HW117909   0.134   3.143   3.572
 5670SOL    HW217910   0.033   3.038   3.646
 5671SOL     OW17911   1.132   0.093   6.532
 5671SOL    HW117912   1.135   0.167   6.465
 5671SOL    HW217913   1.137   0.132   6.624
 5672SOL     OW17914   4.411   4.907   6.391
 5672SOL    HW117915   4.419   4.813   6.424
 5672SOL    HW217916   4.314   4.930   6.379
 5673SOL     OW17917   0.809   0.267   1.887
 5673SOL    HW117918   0.884   0.312   1.937
 5673SOL    HW217919   0.735   0.247   1.951
 5674SOL     OW17920   6.870   3.628   2.313
 5674SOL    HW117921   6.805   3.551   2.314
 5674SOL    HW217922   6.864   3.678   2.399
 5675SOL     OW17923   4.063   2.530   5.719
 5675SOL    HW117924   4.066   2.446   5.773
 5675SOL    HW217925   4.062   2.609   5.780
 5676SOL     OW17926   2.145   1.287   1.688
 5676SOL    HW117927   2.136   1.240   1.776
 5676SOL    HW217928   2.195   1.372   1.701
 5677SOL     OW17929   0.836   2.091   3.447
 5677SOL    HW117930   0.767   2.164   3.452
 5677SOL    HW217931   0.893   2.094   3.529
 5678SOL     OW17932   3.395   6.459   2.789
 5678SOL    HW117933   3.459   6.528   2.822
 5678SOL    HW217934   3.308   6.469   2.837
 5679SOL     OW17935   1.774   0.063   4.181
 5679SOL    HW117936   1.781   0.056   4.281
 5679SOL    HW217937   1.822   0.145   4.150
 5680SOL     OW17938   1.649   5.609   0.856
 5680SOL    HW117939   1.661   5.701   0.817
 5680SOL    HW217940   1.586   5.557   0.798
 5681SOL     OW17941   1.604   3.451   6.537
 5681SOL    HW117942   1.527   3.419   6.592
 5681SOL    HW217943   1.659   3.373   6.507
 5682SOL     OW17944   2.331   4.490   6.097
 5682SOL    HW117945   2.379   4.519   6.014
 5682SOL    HW217946   2.235   4.518   6.092
 5683SOL     OW17947   4.509   2.034   6.422
 5683SOL    HW117948   4.606   2.016   6.405
 5683SOL    HW217949   4.477   1.975   6.496
 5684SOL     OW17950   4.076   3.328   4.847
 5684SOL    HW117951   4.083   3.428   4.854
 5684SOL    HW217952   4.090   3.288   4.937
 5685SOL     OW17953   0.995   4.616   1.516
 5685SOL    HW117954   0.907   4.574   1.494
 5685SOL    HW217955   1.057   4.604   1.438
 5686SOL     OW17956   3.323   0.698   0.112
 5686SOL    HW117957   3.413   0.740   0.116
 5686SOL    HW217958   3.329   0.602   0.136
 5687SOL     OW17959   6.504   3.756   5.006
 5687SOL    HW117960   6.489   3.703   5.090
 5687SOL    HW217961   6.418   3.795   4.975
 5688SOL     OW17962   6.259   1.619   0.173
 5688SOL    HW117963   6.349   1.660   0.162
 5688SOL    HW217964   6.265   1.539   0.232
 5689SOL     OW17965   4.065   1.315   6.973
 5689SOL    HW117966   4.055   1.387   0.024
 5689SOL    HW217967   4.127   1.346   6.901
 5690SOL     OW17968   2.976   6.341   1.058
 5690SOL    HW117969   3.038   6.328   1.135
 5690SOL    HW217970   3.005   6.422   1.006
 5691SOL     OW17971   2.993   6.289   2.308
 5691SOL    HW117972   3.023   6.372   2.261
 5691SOL    HW217973   3.015   6.297   2.406
 5692SOL     OW17974   6.784   2.190   5.983
 5692SOL    HW117975   6.738   2.102   5.976
 5692SOL    HW217976   6.758   2.234   6.069
 5693SOL     OW17977   5.215   2.897   2.111
 5693SOL    HW117978   5.314   2.906   2.122
 5693SOL    HW217979   5.192   2.906   2.014
 5694SOL     OW17980   0.488   0.974   3.686
 5694SOL    HW117981   0.403   0.989   3.636
 5694SOL    HW217982   0.544   1.057   3.681
 5695SOL     OW17983   1.362   2.289   3.097
 5695SOL    HW117984   1.344   2.382   3.130
 5695SOL    HW217985   1.409   2.294   3.009
 5696SOL     OW17986   1.590   0.342   3.126
 5696SOL    HW117987   1.632   0.325   3.036
 5696SOL    HW217988   1.530   0.421   3.120
 5697SOL     OW17989   6.263   1.989   0.922
 5697SOL    HW117990   6.251   2.003   1.020
 5697SOL    HW217991   6.173   1.983   0.878
 5698SOL     OW17992   0.312   2.556   2.444
 5698SOL    HW117993   0.305   2.646   2.403
 5698SOL    HW217994   0.383   2.503   2.397
 5699SOL     OW17995   6.688   2.132   3.399
 5699SOL    HW117996   6.735   2.127   3.487
 5699SOL    HW217997   6.724   2.061   3.338
 5700SOL     OW17998   6.652   6.249   4.795
 5700SOL    HW117999   6.615   6.157   4.778
 5700SOL    HW218000   6.576   6.313   4.810
 5701SOL     OW18001   1.139   5.699   3.508
 5701SOL    HW118002   1.138   5.623   3.443
 5701SOL    HW218003   1.198   5.772   3.474
 5702SOL     OW18004   1.885   0.009   5.944
 5702SOL    HW118005   1.928   0.060   6.018
 5702SOL    HW218006   1.867   6.933   5.973
 5703SOL     OW18007   4.805   4.434   0.559
 5703SOL    HW118008   4.888   4.402   0.512
 5703SOL    HW218009   4.811   4.533   0.573
 5704SOL     OW18010   3.875   5.502   2.444
 5704SOL    HW118011   3.829   5.579   2.400
 5704SOL    HW218012   3.915   5.442   2.374
 5705SOL     OW18013   6.148   1.156   0.191
 5705SOL    HW118014   6.217   1.123   0.126
 5705SOL    HW218015   6.083   1.215   0.143
 5706SOL     OW18016   1.475   1.443   0.842
 5706SOL    HW118017   1.445   1.349   0.860
 5706SOL    HW218018   1.420   1.482   0.768
 5707SOL     OW18019   0.783   6.754   0.247
 5707SOL    HW118020   0.701   6.728   0.196
 5707SOL    HW218021   0.772   6.729   0.344
 5708SOL     OW18022   5.314   6.884   1.483
 5708SOL    HW118023   5.284   6.788   1.478
 5708SOL    HW218024   5.377   6.903   1.408
 5709SOL     OW18025   1.062   6.401   3.685
 5709SOL    HW118026   1.073   6.434   3.591
 5709SOL    HW218027   0.994   6.457   3.732
 5710SOL     OW18028   2.310   3.393   5.396
 5710SOL    HW118029   2.363   3.451   5.458
 5710SOL    HW218030   2.215   3.423   5.397
 5711SOL     OW18031   5.455   0.603   2.997
 5711SOL    HW118032   5.436   0.590   2.900
 5711SOL    HW218033   5.494   0.519   3.035
 5712SOL     OW18034   0.614   6.445   5.751
 5712SOL    HW118035   0.674   6.496   5.690
 5712SOL    HW218036   0.527   6.427   5.705
 5713SOL     OW18037   1.437   2.038   0.977
 5713SOL    HW118038   1.383   1.998   0.903
 5713SOL    HW218039   1.512   1.977   1.000
 5714SOL     OW18040   1.443   6.433   0.284
 5714SOL    HW118041   1.494   6.377   0.218
 5714SOL    HW218042   1.381   6.375   0.336
 5715SOL     OW18043   1.443   5.846   3.442
 5715SOL    HW118044   1.389   5.926   3.467
 5715SOL    HW218045   1.513   5.873   3.376
 5716SOL     OW18046   1.093   3.579   5.479
 5716SOL    HW118047   1.032   3.530   5.417
 5716SOL    HW218048   1.051   3.586   5.570
 5717SOL     OW18049   1.639   5.577   0.276
 5717SOL    HW118050   1.603   5.516   0.206
 5717SOL    HW218051   1.718   5.626   0.240
 5718SOL     OW18052   1.329   4.100   6.241
 5718SOL    HW118053   1.232   4.089   6.262
 5718SOL    HW218054   1.384   4.042   6.302
 5719SOL     OW18055   2.535   1.505   6.217
 5719SOL    HW118056   2.630   1.532   6.224
 5719SOL    HW218057   2.528   1.423   6.160
 5720SOL     OW18058   1.046   4.840   4.652
 5720SOL    HW118059   0.971   4.905   4.660
 5720SOL    HW218060   1.086   4.822   4.742
 5721SOL     OW18061   0.764   3.628   0.557
 5721SOL    HW118062   0.778   3.537   0.517
 5721SOL    HW218063   0.839   3.688   0.529
 5722SOL     OW18064   5.624   1.747   5.356
 5722SOL    HW118065   5.707   1.702   5.325
 5722SOL    HW218066   5.545   1.690   5.332
 5723SOL     OW18067   4.067   3.929   0.184
 5723SOL    HW118068   4.163   3.934   0.157
 5723SOL    HW218069   4.058   3.948   0.281
 5724SOL     OW18070   3.880   2.423   5.323
 5724SOL    HW118071   3.945   2.462   5.258
 5724SOL    HW218072   3.807   2.489   5.340
 5725SOL     OW18073   5.105   6.115   3.373
 5725SOL    HW118074   5.054   6.045   3.423
 5725SOL    HW218075   5.186   6.075   3.332
 5726SOL     OW18076   6.349   3.305   3.377
 5726SOL    HW118077   6.283   3.261   3.439
 5726SOL    HW218078   6.439   3.263   3.388
 5727SOL     OW18079   6.950   3.550   3.516
 5727SOL    HW118080   7.014   3.511   3.450
 5727SOL    HW218081   6.856   3.535   3.485
 5728SOL     OW18082   4.443   1.616   6.139
 5728SOL    HW118083   4.524   1.628   6.197
 5728SOL    HW218084   4.390   1.538   6.172
 5729SOL     OW18085   1.164   1.277   0.882
 5729SOL    HW118086   1.164   1.291   0.783
 5729SOL    HW218087   1.083   1.322   0.922
 5730SOL     OW18088   4.261   5.634   5.618
 5730SOL    HW118089   4.218   5.680   5.696
 5730SOL    HW218090   4.345   5.588   5.649
 5731SOL     OW18091   2.141   6.522   4.142
 5731SOL    HW118092   2.206   6.546   4.070
 5731SOL    HW218093   2.076   6.597   4.154
 5732SOL     OW18094   6.530   4.328   5.146
 5732SOL    HW118095   6.445   4.377   5.164
 5732SOL    HW218096   6.518   4.231   5.170
 5733SOL     OW18097   3.498   0.352   5.597
 5733SOL    HW118098   3.513   0.274   5.657
 5733SOL    HW218099   3.550   0.431   5.630
 5734SOL     OW18100   1.253   6.678   6.491
 5734SOL    HW118101   1.193   6.635   6.558
 5734SOL    HW218102   1.348   6.654   6.509
 5735SOL     OW18103   3.267   1.463   2.611
 5735SOL    HW118104   3.351   1.434   2.566
 5735SOL    HW218105   3.206   1.505   2.544
 5736SOL     OW18106   5.505   4.664   0.495
 5736SOL    HW118107   5.536   4.581   0.449
 5736SOL    HW218108   5.479   4.732   0.427
 5737SOL     OW18109   5.540   6.174   0.636
 5737SOL    HW118110   5.478   6.103   0.668
 5737SOL    HW218111   5.551   6.168   0.537
 5738SOL     OW18112   3.694   1.695   6.778
 5738SOL    HW118113   3.694   1.675   6.680
 5738SOL    HW218114   3.743   1.622   6.826
 5739SOL     OW18115   1.208   6.967   5.687
 5739SOL    HW118116   1.278   6.904   5.723
 5739SOL    HW218117   1.134   6.914   5.646
 5740SOL     OW18118   4.492   3.680   1.178
 5740SOL    HW118119   4.509   3.645   1.086
 5740SOL    HW218120   4.577   3.719   1.215
 5741SOL     OW18121   0.115   3.919   4.101
 5741SOL    HW118122   0.206   3.960   4.112
 5741SOL    HW218123   0.120   3.845   4.034
 5742SOL     OW18124   4.536   6.426   3.186
 5742SOL    HW118125   4.447   6.393   3.155
 5742SOL    HW218126   4.525   6.515   3.230
 5743SOL     OW18127   3.249   5.681   5.399
 5743SOL    HW118128   3.185   5.757   5.383
 5743SOL    HW218129   3.273   5.639   5.312
 5744SOL     OW18130   5.426   0.822   2.283
 5744SOL    HW118131   5.364   0.898   2.304
 5744SOL    HW218132   5.413   0.794   2.188
 5745SOL     OW18133   2.607   0.686   4.039
 5745SOL    HW118134   2.551   0.631   3.978
 5745SOL    HW218135   2.695   0.705   3.996
 5746SOL     OW18136   4.741   6.717   1.962
 5746SOL    HW118137   4.802   6.766   2.024
 5746SOL    HW218138   4.654   6.700   2.007
 5747SOL     OW18139   0.830   5.405   1.713
 5747SOL    HW118140   0.866   5.492   1.747
 5747SOL    HW218141   0.859   5.331   1.773
 5748SOL     OW18142   1.852   0.204   0.745
 5748SOL    HW118143   1.811   0.209   0.653
 5748SOL    HW218144   1.943   0.165   0.739
 5749SOL     OW18145   1.658   6.624   5.068
 5749SOL    HW118146   1.689   6.694   5.132
 5749SOL    HW218147   1.646   6.665   4.978
 5750SOL     OW18148   6.083   6.012   5.542
 5750SOL    HW118149   6.170   5.971   5.569
 5750SOL    HW218150   6.027   6.029   5.624
 5751SOL     OW18151   2.358   2.731   5.046
 5751SOL    HW118152   2.266   2.704   5.015
 5751SOL    HW218153   2.372   2.828   5.024
 5752SOL     OW18154   5.409   0.117   0.565
 5752SOL    HW118155   5.384   0.212   0.542
 5752SOL    HW218156   5.367   0.055   0.499
 5753SOL     OW18157   3.068   3.980   4.489
 5753SOL    HW118158   3.120   4.066   4.486
 5753SOL    HW218159   3.066   3.945   4.583
 5754SOL     OW18160   1.016   5.596   1.441
 5754SOL    HW118161   1.099   5.597   1.496
 5754SOL    HW218162   0.942   5.639   1.492
 5755SOL     OW18163   1.606   2.071   6.149
 5755SOL    HW118164   1.568   2.046   6.060
 5755SOL    HW218165   1.693   2.118   6.136
 5756SOL     OW18166   0.269   0.606   2.881
 5756SOL    HW118167   0.325   0.689   2.870
 5756SOL    HW218168   0.296   0.538   2.813
 5757SOL     OW18169   0.877   5.795   4.399
 5757SOL    HW118170   0.840   5.842   4.480
 5757SOL    HW218171   0.860   5.851   4.318
 5758SOL     OW18172   2.568   1.488   2.916
 5758SOL    HW118173   2.571   1.579   2.956
 5758SOL    HW218174   2.649   1.475   2.858
 5759SOL     OW18175   4.595   0.941   0.393
 5759SOL    HW118176   4.636   0.850   0.403
 5759SOL    HW218177   4.658   1.010   0.429
 5760SOL     OW18178   6.382   2.045   1.389
 5760SOL    HW118179   6.457   2.089   1.340
 5760SOL    HW218180   6.351   1.965   1.338
 5761SOL     OW18181   5.809   5.139   5.657
 5761SOL    HW118182   5.868   5.212   5.693
 5761SOL    HW218183   5.845   5.108   5.570
 5762SOL     OW18184   4.710   4.507   0.904
 5762SOL    HW118185   4.720   4.593   0.854
 5762SOL    HW218186   4.632   4.514   0.966
 5763SOL     OW18187   5.731   6.186   1.059
 5763SOL    HW118188   5.644   6.140   1.073
 5763SOL    HW218189   5.715   6.284   1.042
 5764SOL     OW18190   4.434   4.936   4.418
 5764SOL    HW118191   4.374   4.891   4.485
 5764SOL    HW218192   4.527   4.940   4.454
 5765SOL     OW18193   6.065   3.504   0.273
 5765SOL    HW118194   5.986   3.443   0.265
 5765SOL    HW218195   6.099   3.503   0.367
 5766SOL     OW18196   1.627   2.096   5.127
 5766SOL    HW118197   1.565   2.019   5.140
 5766SOL    HW218198   1.697   2.095   5.198
 5767SOL     OW18199   2.489   0.192   0.647
 5767SOL    HW118200   2.569   0.219   0.594
 5767SOL    HW218201   2.511   0.110   0.700
 5768SOL     OW18202   0.547   6.885   3.698
 5768SOL    HW118203   0.471   6.922   3.644
 5768SOL    HW218204   0.512   6.819   3.764
 5769SOL     OW18205   2.597   5.528   4.534
 5769SOL    HW118206   2.669   5.460   4.548
 5769SOL    HW218207   2.581   5.576   4.621
 5770SOL     OW18208   6.747   6.546   6.439
 5770SOL    HW118209   6.763   6.475   6.509
 5770SOL    HW218210   6.724   6.632   6.484
 5771SOL     OW18211   1.503   6.869   4.197
 5771SOL    HW118212   1.581   6.915   4.239
 5771SOL    HW218213   1.529   6.836   4.106
 5772SOL     OW18214   5.595   1.028   0.614
 5772SOL    HW118215   5.588   0.933   0.645
 5772SOL    HW218216   5.532   1.085   0.667
 5773SOL     OW18217   4.461   0.969   3.705
 5773SOL    HW118218   4.514   0.974   3.621
 5773SOL    HW218219   4.505   1.024   3.776
 5774SOL     OW18220   3.219   0.252   4.226
 5774SOL    HW118221   3.127   0.234   4.262
 5774SOL    HW218222   3.220   0.234   4.128
 5775SOL     OW18223   1.131   0.337   2.347
 5775SOL    HW118224   1.127   0.283   2.431
 5775SOL    HW218225   1.219   0.384   2.342
 5776SOL     OW18226   0.575   6.616   3.953
 5776SOL    HW118227   0.495   6.670   3.927
 5776SOL    HW218228   0.614   6.654   4.037
 5777SOL     OW18229   0.347   0.486   4.933
 5777SOL    HW118230   0.386   0.544   5.005
 5777SOL    HW218231   0.258   0.522   4.905
 5778SOL     OW18232   1.620   0.480   0.334
 5778SOL    HW118233   1.708   0.432   0.331
 5778SOL    HW218234   1.633   0.576   0.306
 5779SOL     OW18235   4.735   2.332   0.980
 5779SOL    HW118236   4.655   2.317   0.922
 5779SOL    HW218237   4.817   2.300   0.933
 5780SOL     OW18238   6.111   5.985   3.989
 5780SOL    HW118239   6.039   5.974   4.058
 5780SOL    HW218240   6.201   5.971   4.032
 5781SOL     OW18241   0.295   5.028   4.440
 5781SOL    HW118242   0.318   5.123   4.464
 5781SOL    HW218243   0.256   5.025   4.348
 5782SOL     OW18244   1.941   1.459   0.529
 5782SOL    HW118245   1.976   1.539   0.480
 5782SOL    HW218246   1.990   1.448   0.615
 5783SOL     OW18247   1.178   0.913   1.574
 5783SOL    HW118248   1.201   0.959   1.488
 5783SOL    HW218249   1.260   0.867   1.609
 5784SOL     OW18250   0.057   6.475   5.614
 5784SOL    HW118251   0.141   6.488   5.561
 5784SOL    HW218252   6.995   6.486   5.554
 5785SOL     OW18253   2.276   1.974   0.525
 5785SOL    HW118254   2.239   2.028   0.600
 5785SOL    HW218255   2.207   1.966   0.453
 5786SOL     OW18256   0.382   4.149   0.583
 5786SOL    HW118257   0.358   4.052   0.577
 5786SOL    HW218258   0.302   4.205   0.564
 5787SOL     OW18259   2.474   1.387   4.481
 5787SOL    HW118260   2.522   1.320   4.538
 5787SOL    HW218261   2.540   1.451   4.441
 5788SOL     OW18262   2.668   1.568   1.497
 5788SOL    HW118263   2.636   1.661   1.481
 5788SOL    HW218264   2.763   1.559   1.465
 5789SOL     OW18265   3.584   5.012   0.306
 5789SOL    HW118266   3.622   4.925   0.274
 5789SOL    HW218267   3.500   4.995   0.357
 5790SOL     OW18268   1.503   4.108   5.004
 5790SOL    HW118269   1.491   4.190   5.059
 5790SOL    HW218270   1.541   4.133   4.915
 5791SOL     OW18271   4.106   1.075   2.274
 5791SOL    HW118272   4.149   1.083   2.364
 5791SOL    HW218273   4.030   1.140   2.267
 5792SOL     OW18274   6.109   3.184   2.284
 5792SOL    HW118275   6.031   3.173   2.345
 5792SOL    HW218276   6.166   3.102   2.288
 5793SOL     OW18277   5.372   1.263   3.912
 5793SOL    HW118278   5.321   1.349   3.917
 5793SOL    HW218279   5.362   1.214   3.998
 5794SOL     OW18280   2.886   1.373   0.178
 5794SOL    HW118281   2.900   1.390   0.080
 5794SOL    HW218282   2.899   1.275   0.197
 5795SOL     OW18283   6.722   6.619   0.353
 5795SOL    HW118284   6.707   6.713   0.323
 5795SOL    HW218285   6.808   6.613   0.403
 5796SOL     OW18286   4.087   1.635   6.908
 5796SOL    HW118287   4.083   1.712   6.844
 5796SOL    HW218288   4.176   1.635   6.955
 5797SOL     OW18289   4.902   2.500   6.038
 5797SOL    HW118290   4.814   2.546   6.029
 5797SOL    HW218291   4.960   2.524   5.960
 5798SOL     OW18292   0.724   4.477   5.352
 5798SOL    HW118293   0.790   4.532   5.403
 5798SOL    HW218294   0.668   4.425   5.416
 5799SOL     OW18295   0.243   0.447   2.388
 5799SOL    HW118296   0.263   0.463   2.291
 5799SOL    HW218297   0.155   0.401   2.397
 5800SOL     OW18298   6.257   6.250   1.983
 5800SOL    HW118299   6.280   6.238   1.887
 5800SOL    HW218300   6.280   6.167   2.034
 5801SOL     OW18301   1.999   2.302   3.167
 5801SOL    HW118302   2.034   2.210   3.182
 5801SOL    HW218303   2.067   2.369   3.197
 5802SOL     OW18304   1.105   4.802   1.821
 5802SOL    HW118305   1.046   4.855   1.759
 5802SOL    HW218306   1.080   4.821   1.915
 5803SOL     OW18307   2.229   4.688   2.220
 5803SOL    HW118308   2.154   4.754   2.228
 5803SOL    HW218309   2.206   4.620   2.151
 5804SOL     OW18310   0.675   5.092   4.101
 5804SOL    HW118311   0.592   5.040   4.120
 5804SOL    HW218312   0.718   5.057   4.017
 5805SOL     OW18313   2.726   3.833   6.863
 5805SOL    HW118314   2.728   3.889   6.781
 5805SOL    HW218315   2.796   3.762   6.857
 5806SOL     OW18316   6.909   5.825   5.021
 5806SOL    HW118317   6.858   5.749   5.062
 5806SOL    HW218318   6.858   5.910   5.033
 5807SOL     OW18319   0.776   3.892   2.352
 5807SOL    HW118320   0.707   3.942   2.404
 5807SOL    HW218321   0.733   3.825   2.293
 5808SOL     OW18322   5.974   5.316   4.922
 5808SOL    HW118323   5.929   5.375   4.988
 5808SOL    HW218324   6.031   5.249   4.971
 5809SOL     OW18325   5.768   1.285   4.726
 5809SOL    HW118326   5.827   1.234   4.663
 5809SOL    HW218327   5.672   1.275   4.698
 5810SOL     OW18328   3.438   1.806   4.575
 5810SOL    HW118329   3.369   1.828   4.644
 5810SOL    HW218330   3.529   1.815   4.616
 5811SOL     OW18331   3.103   0.583   5.825
 5811SOL    HW118332   3.018   0.558   5.778
 5811SOL    HW218333   3.180   0.539   5.779
 5812SOL     OW18334   6.571   2.446   4.109
 5812SOL    HW118335   6.610   2.383   4.176
 5812SOL    HW218336   6.631   2.525   4.099
 5813SOL     OW18337   2.003   1.880   0.723
 5813SOL    HW118338   2.084   1.846   0.769
 5813SOL    HW218339   1.949   1.936   0.787
 5814SOL     OW18340   6.307   4.698   1.302
 5814SOL    HW118341   6.263   4.753   1.372
 5814SOL    HW218342   6.262   4.714   1.214
 5815SOL     OW18343   4.212   2.244   4.326
 5815SOL    HW118344   4.262   2.158   4.339
 5815SOL    HW218345   4.275   2.321   4.339
 5816SOL     OW18346   4.562   5.360   6.984
 5816SOL    HW118347   4.580   5.330   6.890
 5816SOL    HW218348   4.648   5.363   0.018
 5817SOL     OW18349   5.667   3.983   6.191
 5817SOL    HW118350   5.662   3.897   6.243
 5817SOL    HW218351   5.736   4.042   6.232
 5818SOL     OW18352   6.459   6.012   4.811
 5818SOL    HW118353   6.420   5.983   4.897
 5818SOL    HW218354   6.392   6.003   4.738
 5819SOL     OW18355   4.018   6.787   6.884
 5819SOL    HW118356   4.012   6.883   6.912
 5819SOL    HW218357   4.017   6.782   6.784
 5820SOL     OW18358   3.828   5.685   3.817
 5820SOL    HW118359   3.875   5.618   3.874
 5820SOL    HW218360   3.734   5.696   3.850
 5821SOL     OW18361   0.052   6.746   1.369
 5821SOL    HW118362   7.001   6.758   1.441
 5821SOL    HW218363   0.019   6.791   1.285
 5822SOL     OW18364   0.909   2.474   2.122
 5822SOL    HW118365   0.896   2.535   2.043
 5822SOL    HW218366   0.985   2.508   2.177
 5823SOL     OW18367   1.641   1.238   5.588
 5823SOL    HW118368   1.574   1.181   5.541
 5823SOL    HW218369   1.644   1.329   5.545
 5824SOL     OW18370   6.539   5.378   2.780
 5824SOL    HW118371   6.616   5.406   2.722
 5824SOL    HW218372   6.558   5.289   2.821
 5825SOL     OW18373   2.018   1.798   5.642
 5825SOL    HW118374   2.051   1.709   5.613
 5825SOL    HW218375   2.071   1.870   5.597
 5826SOL     OW18376   0.067   4.944   5.290
 5826SOL    HW118377   0.015   4.866   5.253
 5826SOL    HW218378   0.099   4.921   5.382
 5827SOL     OW18379   1.926   4.680   4.833
 5827SOL    HW118380   1.970   4.770   4.834
 5827SOL    HW218381   1.934   4.640   4.742
 5828SOL     OW18382   6.348   2.552   1.178
 5828SOL    HW118383   6.310   2.639   1.210
 5828SOL    HW218384   6.285   2.509   1.114
 5829SOL     OW18385   1.756   0.529   3.236
 5829SOL    HW118386   1.708   0.462   3.179
 5829SOL    HW218387   1.851   0.500   3.247
 5830SOL     OW18388   5.265   6.731   5.281
 5830SOL    HW118389   5.258   6.821   5.237
 5830SOL    HW218390   5.256   6.742   5.380
 5831SOL     OW18391   7.009   1.015   5.114
 5831SOL    HW118392   7.003   1.103   5.162
 5831SOL    HW218393   0.079   1.008   5.068
 5832SOL     OW18394   3.097   4.860   6.323
 5832SOL    HW118395   3.186   4.858   6.368
 5832SOL    HW218396   3.025   4.844   6.391
 5833SOL     OW18397   3.810   3.640   4.752
 5833SOL    HW118398   3.718   3.660   4.787
 5833SOL    HW218399   3.853   3.571   4.810
 5834SOL     OW18400   0.130   3.352   0.064
 5834SOL    HW118401   0.062   3.335   7.011
 5834SOL    HW218402   0.089   3.337   0.154
 5835SOL     OW18403   4.827   3.025   3.941
 5835SOL    HW118404   4.758   2.989   3.879
 5835SOL    HW218405   4.917   3.017   3.899
 5836SOL     OW18406   2.845   6.780   2.781
 5836SOL    HW118407   2.786   6.765   2.860
 5836SOL    HW218408   2.882   6.872   2.782
 5837SOL     OW18409   4.072   4.235   5.487
 5837SOL    HW118410   4.048   4.284   5.571
 5837SOL    HW218411   4.092   4.301   5.414
 5838SOL     OW18412   3.182   2.432   6.722
 5838SOL    HW118413   3.251   2.492   6.681
 5838SOL    HW218414   3.094   2.448   6.678
 5839SOL     OW18415   0.505   2.406   2.319
 5839SOL    HW118416   0.558   2.354   2.252
 5839SOL    HW218417   0.564   2.429   2.397
 5840SOL     OW18418   0.851   5.304   6.231
 5840SOL    HW118419   0.807   5.338   6.314
 5840SOL    HW218420   0.949   5.319   6.237
 5841SOL     OW18421   5.215   1.622   2.649
 5841SOL    HW118422   5.210   1.693   2.720
 5841SOL    HW218423   5.134   1.626   2.592
 5842SOL     OW18424   4.341   3.051   1.352
 5842SOL    HW118425   4.344   3.029   1.254
 5842SOL    HW218426   4.434   3.046   1.389
 5843SOL     OW18427   2.162   3.871   2.895
 5843SOL    HW118428   2.079   3.925   2.886
 5843SOL    HW218429   2.196   3.876   2.989
 5844SOL     OW18430   1.579   6.541   6.226
 5844SOL    HW118431   1.550   6.467   6.287
 5844SOL    HW218432   1.567   6.629   6.273
 5845SOL     OW18433   0.614   0.491   2.231
 5845SOL    HW118434   0.630   0.544   2.148
 5845SOL    HW218435   0.590   0.552   2.307
 5846SOL     OW18436   0.439   2.330   4.159
 5846SOL    HW118437   0.526   2.364   4.194
 5846SOL    HW218438   0.440   2.331   4.059
 5847SOL     OW18439   2.287   2.284   1.654
 5847SOL    HW118440   2.310   2.202   1.601
 5847SOL    HW218441   2.187   2.292   1.660
 5848SOL     OW18442   2.255   5.184   3.432
 5848SOL    HW118443   2.176   5.241   3.456
 5848SOL    HW218444   2.321   5.239   3.379
 5849SOL     OW18445   0.178   0.164   6.392
 5849SOL    HW118446   0.142   0.190   6.482
 5849SOL    HW218447   0.200   0.247   6.340
 5850SOL     OW18448   0.075   2.809   1.654
 5850SOL    HW118449   0.104   2.733   1.596
 5850SOL    HW218450   6.993   2.816   1.652
 5851SOL     OW18451   5.460   4.083   3.267
 5851SOL    HW118452   5.454   4.013   3.338
 5851SOL    HW218453   5.465   4.039   3.177
 5852SOL     OW18454   6.566   6.081   3.180
 5852SOL    HW118455   6.635   6.052   3.246
 5852SOL    HW218456   6.542   6.177   3.198
 5853SOL     OW18457   3.609   5.896   4.393
 5853SOL    HW118458   3.708   5.878   4.387
 5853SOL    HW218459   3.586   5.975   4.337
 5854SOL     OW18460   5.824   4.884   6.162
 5854SOL    HW118461   5.780   4.899   6.074
 5854SOL    HW218462   5.883   4.803   6.156
 5855SOL     OW18463   6.970   1.458   4.397
 5855SOL    HW118464   0.040   1.429   4.436
 5855SOL    HW218465   6.899   1.392   4.424
 5856SOL     OW18466   1.740   5.949   4.088
 5856SOL    HW118467   1.657   5.948   4.032
 5856SOL    HW218468   1.717   5.985   4.179
 5857SOL     OW18469   6.348   2.181   5.749
 5857SOL    HW118470   6.389   2.223   5.667
 5857SOL    HW218471   6.255   2.215   5.760
 5858SOL     OW18472   2.192   2.550   2.603
 5858SOL    HW118473   2.204   2.601   2.518
 5858SOL    HW218474   2.210   2.453   2.586
 5859SOL     OW18475   5.261   5.941   2.157
 5859SOL    HW118476   5.270   6.041   2.154
 5859SOL    HW218477   5.294   5.902   2.071
 5860SOL     OW18478   1.323   4.372   1.606
 5860SOL    HW118479   1.260   4.305   1.646
 5860SOL    HW218480   1.300   4.463   1.640
 5861SOL     OW18481   4.379   1.528   4.690
 5861SOL    HW118482   4.463   1.474   4.682
 5861SOL    HW218483   4.315   1.480   4.751
 5862SOL     OW18484   5.165   4.864   1.988
 5862SOL    HW118485   5.123   4.947   1.950
 5862SOL    HW218486   5.235   4.830   1.925
 5863SOL     OW18487   3.159   1.093   4.883
 5863SOL    HW118488   3.154   0.993   4.887
 5863SOL    HW218489   3.080   1.132   4.930
 5864SOL     OW18490   4.125   3.719   1.677
 5864SOL    HW118491   4.209   3.686   1.632
 5864SOL    HW218492   4.148   3.758   1.766
 5865SOL     OW18493   6.038   0.449   5.103
 5865SOL    HW118494   6.073   0.486   5.189
 5865SOL    HW218495   5.939   0.433   5.112
 5866SOL     OW18496   4.187   4.746   1.128
 5866SOL    HW118497   4.229   4.661   1.095
 5866SOL    HW218498   4.141   4.793   1.052
 5867SOL     OW18499   0.844   3.952   0.754
 5867SOL    HW118500   0.811   4.042   0.727
 5867SOL    HW218501   0.769   3.886   0.747
 5868SOL     OW18502   0.504   0.965   5.106
 5868SOL    HW118503   0.463   0.968   5.014
 5868SOL    HW218504   0.553   1.050   5.123
 5869SOL     OW18505   2.389   6.350   4.261
 5869SOL    HW118506   2.295   6.323   4.242
 5869SOL    HW218507   2.416   6.318   4.352
 5870SOL     OW18508   5.130   6.224   4.808
 5870SOL    HW118509   5.205   6.183   4.755
 5870SOL    HW218510   5.083   6.152   4.860
 5871SOL     OW18511   3.818   3.262   1.235
 5871SOL    HW118512   3.841   3.237   1.141
 5871SOL    HW218513   3.897   3.249   1.294
 5872SOL     OW18514   3.958   5.746   1.647
 5872SOL    HW118515   3.862   5.763   1.625
 5872SOL    HW218516   4.015   5.818   1.607
 5873SOL     OW18517   2.979   2.124   1.305
 5873SOL    HW118518   3.005   2.159   1.395
 5873SOL    HW218519   2.889   2.160   1.280
 5874SOL     OW18520   3.768   4.404   0.188
 5874SOL    HW118521   3.678   4.446   0.206
 5874SOL    HW218522   3.797   4.354   0.269
 5875SOL     OW18523   3.987   1.422   6.648
 5875SOL    HW118524   4.080   1.443   6.677
 5875SOL    HW218525   3.926   1.428   6.727
 5876SOL     OW18526   3.214   3.268   0.236
 5876SOL    HW118527   3.205   3.182   0.286
 5876SOL    HW218528   3.126   3.315   0.235
 5877SOL     OW18529   0.321   0.214   0.599
 5877SOL    HW118530   0.255   0.147   0.633
 5877SOL    HW218531   0.292   0.306   0.624
 5878SOL     OW18532   5.390   5.441   3.868
 5878SOL    HW118533   5.358   5.363   3.814
 5878SOL    HW218534   5.466   5.412   3.925
 5879SOL     OW18535   1.937   3.407   6.246
 5879SOL    HW118536   1.871   3.336   6.272
 5879SOL    HW218537   1.909   3.494   6.285
 5880SOL     OW18538   4.863   4.683   6.930
 5880SOL    HW118539   4.812   4.704   7.013
 5880SOL    HW218540   4.852   4.757   6.864
 5881SOL     OW18541   1.492   0.064   1.675
 5881SOL    HW118542   1.559   0.065   1.750
 5881SOL    HW218543   1.400   0.055   1.714
 5882SOL     OW18544   0.842   6.642   5.973
 5882SOL    HW118545   0.812   6.548   5.991
 5882SOL    HW218546   0.860   6.689   6.059
 5883SOL     OW18547   0.873   1.472   0.035
 5883SOL    HW118548   0.954   1.480   6.994
 5883SOL    HW218549   0.902   1.451   0.128
 5884SOL     OW18550   4.948   1.226   4.965
 5884SOL    HW118551   4.959   1.293   5.038
 5884SOL    HW218552   4.984   1.264   4.880
 5885SOL     OW18553   0.202   5.489   2.420
 5885SOL    HW118554   0.135   5.563   2.426
 5885SOL    HW218555   0.155   5.402   2.405
 5886SOL     OW18556   1.471   2.141   4.045
 5886SOL    HW118557   1.541   2.131   4.115
 5886SOL    HW218558   1.400   2.204   4.077
 5887SOL     OW18559   2.172   2.106   1.872
 5887SOL    HW118560   2.191   2.182   1.810
 5887SOL    HW218561   2.256   2.080   1.919
 5888SOL     OW18562   2.171   0.033   1.365
 5888SOL    HW118563   2.224   0.020   1.281
 5888SOL    HW218564   2.152   0.130   1.378
 5889SOL     OW18565   5.960   1.724   6.215
 5889SOL    HW118566   6.034   1.711   6.282
 5889SOL    HW218567   5.931   1.820   6.216
 5890SOL     OW18568   2.317   6.938   3.073
 5890SOL    HW118569   2.254   6.885   3.130
 5890SOL    HW218570   2.339   0.007   3.119
 5891SOL     OW18571   2.556   4.144   1.034
 5891SOL    HW118572   2.585   4.052   1.059
 5891SOL    HW218573   2.559   4.154   0.934
 5892SOL     OW18574   0.607   5.021   1.872
 5892SOL    HW118575   0.633   4.979   1.959
 5892SOL    HW218576   0.576   5.114   1.888
 5893SOL     OW18577   2.221   4.921   2.020
 5893SOL    HW118578   2.146   4.956   2.075
 5893SOL    HW218579   2.307   4.933   2.069
 5894SOL     OW18580   0.681   5.880   5.319
 5894SOL    HW118581   0.718   5.832   5.240
 5894SOL    HW218582   0.693   5.823   5.401
 5895SOL     OW18583   6.159   3.999   3.266
 5895SOL    HW118584   6.161   4.096   3.239
 5895SOL    HW218585   6.148   3.993   3.365
 5896SOL     OW18586   4.871   1.527   0.597
 5896SOL    HW118587   4.794   1.471   0.628
 5896SOL    HW218588   4.885   1.512   0.499
 5897SOL     OW18589   4.281   0.725   1.086
 5897SOL    HW118590   4.371   0.704   1.048
 5897SOL    HW218591   4.292   0.764   1.178
 5898SOL     OW18592   2.512   0.748   5.257
 5898SOL    HW118593   2.602   0.709   5.276
 5898SOL    HW218594   2.484   0.723   5.164
 5899SOL     OW18595   5.877   6.114   6.564
 5899SOL    HW118596   5.898   6.154   6.475
 5899SOL    HW218597   5.792   6.155   6.600
 5900SOL     OW18598   6.866   4.975   2.796
 5900SOL    HW118599   6.940   4.922   2.835
 5900SOL    HW218600   6.822   5.030   2.868
 5901SOL     OW18601   2.779   0.833   0.762
 5901SOL    HW118602   2.854   0.815   0.697
 5901SOL    HW218603   2.817   0.851   0.852
 5902SOL     OW18604   5.385   3.557   5.920
 5902SOL    HW118605   5.357   3.467   5.887
 5902SOL    HW218606   5.312   3.623   5.902
 5903SOL     OW18607   4.614   3.968   6.758
 5903SOL    HW118608   4.595   3.988   6.662
 5903SOL    HW218609   4.707   3.935   6.768
 5904SOL     OW18610   1.131   4.426   1.034
 5904SOL    HW118611   1.161   4.423   1.129
 5904SOL    HW218612   1.190   4.488   0.983
 5905SOL     OW18613   6.518   0.592   3.446
 5905SOL    HW118614   6.533   0.577   3.348
 5905SOL    HW218615   6.588   0.543   3.498
 5906SOL     OW18616   4.992   2.026   4.622
 5906SOL    HW118617   5.035   1.952   4.674
 5906SOL    HW218618   4.960   2.097   4.685
 5907SOL     OW18619   1.453   6.528   0.642
 5907SOL    HW118620   1.505   6.573   0.714
 5907SOL    HW218621   1.385   6.592   0.605
 5908SOL     OW18622   6.619   3.758   0.157
 5908SOL    HW118623   6.632   3.723   0.064
 5908SOL    HW218624   6.661   3.694   0.222
 5909SOL     OW18625   6.216   5.212   6.378
 5909SOL    HW118626   6.293   5.218   6.441
 5909SOL    HW218627   6.249   5.215   6.284
 5910SOL     OW18628   0.872   4.671   1.202
 5910SOL    HW118629   0.838   4.693   1.294
 5910SOL    HW218630   0.881   4.572   1.193
 5911SOL     OW18631   6.418   5.040   6.604
 5911SOL    HW118632   6.480   5.016   6.678
 5911SOL    HW218633   6.377   5.129   6.623
 5912SOL     OW18634   5.878   3.379   6.711
 5912SOL    HW118635   5.958   3.327   6.743
 5912SOL    HW218636   5.796   3.343   6.755
 5913SOL     OW18637   3.163   3.005   6.357
 5913SOL    HW118638   3.112   3.088   6.382
 5913SOL    HW218639   3.100   2.927   6.356
 5914SOL     OW18640   3.061   5.469   6.076
 5914SOL    HW118641   2.983   5.463   6.137
 5914SOL    HW218642   3.106   5.557   6.087
 5915SOL     OW18643   6.088   4.423   1.932
 5915SOL    HW118644   6.045   4.501   1.980
 5915SOL    HW218645   6.033   4.341   1.948
 5916SOL     OW18646   4.500   5.958   5.599
 5916SOL    HW118647   4.591   5.924   5.620
 5916SOL    HW218648   4.492   5.973   5.500
 5917SOL     OW18649   3.797   3.194   4.537
 5917SOL    HW118650   3.738   3.272   4.557
 5917SOL    HW218651   3.762   3.145   4.457
 5918SOL     OW18652   2.319   3.812   5.343
 5918SOL    HW118653   2.400   3.787   5.396
 5918SOL    HW218654   2.345   3.875   5.271
 5919SOL     OW18655   2.983   2.565   0.550
 5919SOL    HW118656   3.024   2.496   0.609
 5919SOL    HW218657   2.898   2.528   0.511
 5920SOL     OW18658   3.608   6.958   0.259
 5920SOL    HW118659   3.577   6.918   0.173
 5920SOL    HW218660   3.531   7.001   0.305
 5921SOL     OW18661   3.435   5.710   5.600
 5921SOL    HW118662   3.362   5.693   5.534
 5921SOL    HW218663   3.520   5.670   5.567
 5922SOL     OW18664   6.922   5.557   3.957
 5922SOL    HW118665   7.004   5.500   3.958
 5922SOL    HW218666   6.949   5.653   3.969
 5923SOL     OW18667   5.186   0.470   1.217
 5923SOL    HW118668   5.131   0.507   1.292
 5923SOL    HW218669   5.128   0.456   1.137
 5924SOL     OW18670   5.839   2.011   4.677
 5924SOL    HW118671   5.931   2.005   4.637
 5924SOL    HW218672   5.819   1.926   4.726
 5925SOL     OW18673   4.104   5.695   3.331
 5925SOL    HW118674   4.167   5.743   3.269
 5925SOL    HW218675   4.094   5.748   3.416
 5926SOL     OW18676   3.612   5.063   2.334
 5926SOL    HW118677   3.684   4.994   2.340
 5926SOL    HW218678   3.525   5.023   2.361
 5927SOL     OW18679   1.506   4.318   3.390
 5927SOL    HW118680   1.455   4.252   3.445
 5927SOL    HW218681   1.602   4.289   3.384
 5928SOL     OW18682   3.153   0.613   1.537
 5928SOL    HW118683   3.226   0.679   1.521
 5928SOL    HW218684   3.065   0.661   1.541
 5929SOL     OW18685   0.678   6.396   5.996
 5929SOL    HW118686   0.630   6.419   5.911
 5929SOL    HW218687   0.684   6.296   6.003
 5930SOL     OW18688   6.700   1.149   2.999
 5930SOL    HW118689   6.632   1.170   3.068
 5930SOL    HW218690   6.767   1.224   2.995
 5931SOL     OW18691   5.902   5.335   3.474
 5931SOL    HW118692   5.968   5.289   3.534
 5931SOL    HW218693   5.814   5.342   3.521
 5932SOL     OW18694   2.557   6.544   1.207
 5932SOL    HW118695   2.551   6.445   1.198
 5932SOL    HW218696   2.640   6.568   1.257
 5933SOL     OW18697   0.530   5.785   2.942
 5933SOL    HW118698   0.528   5.882   2.970
 5933SOL    HW218699   0.438   5.757   2.913
 5934SOL     OW18700   3.974   3.449   4.316
 5934SOL    HW118701   4.033   3.478   4.391
 5934SOL    HW218702   3.882   3.486   4.329
 5935SOL     OW18703   4.070   3.241   5.130
 5935SOL    HW118704   4.145   3.255   5.194
 5935SOL    HW218705   3.993   3.301   5.156
 5936SOL     OW18706   3.774   3.589   0.578
 5936SOL    HW118707   3.743   3.664   0.518
 5936SOL    HW218708   3.724   3.506   0.555
 5937SOL     OW18709   0.359   4.693   2.392
 5937SOL    HW118710   0.379   4.632   2.469
 5937SOL    HW218711   0.260   4.695   2.376
 5938SOL     OW18712   1.419   5.625   4.194
 5938SOL    HW118713   1.394   5.549   4.253
 5938SOL    HW218714   1.477   5.592   4.119
 5939SOL     OW18715   3.422   0.136   3.419
 5939SOL    HW118716   3.367   0.088   3.488
 5939SOL    HW218717   3.497   0.184   3.465
 5940SOL     OW18718   4.277   5.605   1.398
 5940SOL    HW118719   4.230   5.519   1.414
 5940SOL    HW218720   4.336   5.626   1.475
 5941SOL     OW18721   6.095   3.112   1.868
 5941SOL    HW118722   6.048   3.126   1.780
 5941SOL    HW218723   6.119   3.200   1.907
 5942SOL     OW18724   4.982   2.854   6.635
 5942SOL    HW118725   4.993   2.897   6.545
 5942SOL    HW218726   5.050   2.892   6.698
 5943SOL     OW18727   3.383   5.449   0.816
 5943SOL    HW118728   3.395   5.411   0.908
 5943SOL    HW218729   3.335   5.537   0.823
 5944SOL     OW18730   5.743   2.125   1.313
 5944SOL    HW118731   5.676   2.191   1.346
 5944SOL    HW218732   5.756   2.136   1.214
 5945SOL     OW18733   6.619   5.319   5.499
 5945SOL    HW118734   6.542   5.256   5.503
 5945SOL    HW218735   6.693   5.285   5.558
 5946SOL     OW18736   3.750   3.048   5.383
 5946SOL    HW118737   3.810   2.997   5.321
 5946SOL    HW218738   3.679   2.987   5.419
 5947SOL     OW18739   3.990   2.946   1.837
 5947SOL    HW118740   3.946   3.026   1.795
 5947SOL    HW218741   3.961   2.938   1.932
 5948SOL     OW18742   3.851   4.830   3.569
 5948SOL    HW118743   3.893   4.831   3.660
 5948SOL    HW218744   3.917   4.864   3.502
 5949SOL     OW18745   3.840   3.556   1.391
 5949SOL    HW118746   3.904   3.488   1.426
 5949SOL    HW218747   3.862   3.646   1.429
 5950SOL     OW18748   5.606   3.312   5.809
 5950SOL    HW118749   5.632   3.325   5.905
 5950SOL    HW218750   5.575   3.218   5.796
 5951SOL     OW18751   0.226   5.612   4.792
 5951SOL    HW118752   0.199   5.700   4.832
 5951SOL    HW218753   0.324   5.597   4.809
 5952SOL     OW18754   5.711   5.691   4.453
 5952SOL    HW118755   5.756   5.615   4.499
 5952SOL    HW218756   5.773   5.770   4.450
 5953SOL     OW18757   6.418   2.647   5.644
 5953SOL    HW118758   6.470   2.700   5.711
 5953SOL    HW218759   6.428   2.688   5.553
 5954SOL     OW18760   0.094   4.414   5.682
 5954SOL    HW118761   0.007   4.364   5.672
 5954SOL    HW218762   0.167   4.350   5.706
 5955SOL     OW18763   5.469   5.801   2.574
 5955SOL    HW118764   5.417   5.761   2.649
 5955SOL    HW218765   5.548   5.850   2.610
 5956SOL     OW18766   3.698   1.710   6.480
 5956SOL    HW118767   3.768   1.663   6.426
 5956SOL    HW218768   3.719   1.807   6.484
 5957SOL     OW18769   4.335   0.344   5.641
 5957SOL    HW118770   4.299   0.435   5.659
 5957SOL    HW218771   4.318   0.319   5.546
 5958SOL     OW18772   6.427   5.640   2.747
 5958SOL    HW118773   6.350   5.621   2.686
 5958SOL    HW218774   6.450   5.558   2.800
 5959SOL     OW18775   3.896   2.100   4.922
 5959SOL    HW118776   3.892   2.092   4.823
 5959SOL    HW218777   3.978   2.150   4.949
 5960SOL     OW18778   4.011   6.429   4.649
 5960SOL    HW118779   3.988   6.471   4.561
 5960SOL    HW218780   3.990   6.332   4.645
 5961SOL     OW18781   5.060   1.332   3.834
 5961SOL    HW118782   5.083   1.235   3.840
 5961SOL    HW218783   5.025   1.352   3.742
 5962SOL     OW18784   4.943   6.130   1.573
 5962SOL    HW118785   4.996   6.143   1.489
 5962SOL    HW218786   4.865   6.071   1.554
 5963SOL     OW18787   3.225   3.322   4.457
 5963SOL    HW118788   3.294   3.309   4.528
 5963SOL    HW218789   3.205   3.419   4.447
 5964SOL     OW18790   0.404   5.024   5.743
 5964SOL    HW118791   0.464   4.953   5.705
 5964SOL    HW218792   0.444   5.114   5.727
 5965SOL     OW18793   1.602   2.219   6.394
 5965SOL    HW118794   1.679   2.282   6.393
 5965SOL    HW218795   1.603   2.163   6.312
 5966SOL     OW18796   2.661   6.096   5.247
 5966SOL    HW118797   2.670   6.041   5.163
 5966SOL    HW218798   2.693   6.189   5.229
 5967SOL     OW18799   4.219   6.319   1.187
 5967SOL    HW118800   4.286   6.337   1.259
 5967SOL    HW218801   4.214   6.221   1.169
 5968SOL     OW18802   4.531   1.132   2.455
 5968SOL    HW118803   4.566   1.113   2.547
 5968SOL    HW218804   4.591   1.199   2.411
 5969SOL     OW18805   6.757   1.060   6.163
 5969SOL    HW118806   6.785   0.976   6.117
 5969SOL    HW218807   6.717   1.037   6.252
 5970SOL     OW18808   0.406   4.524   2.610
 5970SOL    HW118809   0.399   4.425   2.597
 5970SOL    HW218810   0.428   4.543   2.706
 5971SOL     OW18811   1.612   0.834   3.323
 5971SOL    HW118812   1.602   0.923   3.278
 5971SOL    HW218813   1.522   0.799   3.349
 5972SOL     OW18814   5.281   6.631   0.093
 5972SOL    HW118815   5.363   6.582   0.063
 5972SOL    HW218816   5.298   6.674   0.181
 5973SOL     OW18817   1.727   4.546   2.333
 5973SOL    HW118818   1.801   4.521   2.270
 5973SOL    HW218819   1.641   4.552   2.282
 5974SOL     OW18820   5.611   4.473   6.577
 5974SOL    HW118821   5.553   4.505   6.502
 5974SOL    HW218822   5.655   4.387   6.550
 5975SOL     OW18823   3.207   2.261   0.405
 5975SOL    HW118824   3.157   2.240   0.489
 5975SOL    HW218825   3.280   2.195   0.392
 5976SOL     OW18826   3.180   3.647   4.615
 5976SOL    HW118827   3.084   3.675   4.615
 5976SOL    HW218828   3.222   3.670   4.527
 5977SOL     OW18829   1.732   4.530   1.567
 5977SOL    HW118830   1.693   4.439   1.554
 5977SOL    HW218831   1.818   4.523   1.618
 5978SOL     OW18832   4.872   5.321   3.666
 5978SOL    HW118833   4.939   5.270   3.613
 5978SOL    HW218834   4.781   5.309   3.627
 5979SOL     OW18835   6.516   6.743   2.746
 5979SOL    HW118836   6.566   6.688   2.812
 5979SOL    HW218837   6.456   6.807   2.795
 5980SOL     OW18838   4.041   3.642   6.984
 5980SOL    HW118839   4.119   3.686   6.940
 5980SOL    HW218840   3.993   3.709   0.023
 5981SOL     OW18841   6.492   0.765   1.959
 5981SOL    HW118842   6.498   0.694   2.029
 5981SOL    HW218843   6.557   0.746   1.886
 5982SOL     OW18844   6.344   2.548   0.258
 5982SOL    HW118845   6.328   2.450   0.272
 5982SOL    HW218846   6.280   2.601   0.314
 5983SOL     OW18847   1.519   0.760   4.510
 5983SOL    HW118848   1.594   0.798   4.456
 5983SOL    HW218849   1.483   0.831   4.571
 5984SOL     OW18850   6.348   6.588   5.077
 5984SOL    HW118851   6.424   6.551   5.130
 5984SOL    HW218852   6.377   6.671   5.031
 5985SOL     OW18853   6.255   3.434   3.797
 5985SOL    HW118854   6.302   3.365   3.743
 5985SOL    HW218855   6.157   3.429   3.780
 5986SOL     OW18856   3.670   3.982   3.892
 5986SOL    HW118857   3.686   3.891   3.931
 5986SOL    HW218858   3.596   3.977   3.825
 5987SOL     OW18859   4.122   0.866   5.343
 5987SOL    HW118860   4.170   0.780   5.358
 5987SOL    HW218861   4.034   0.848   5.299
 5988SOL     OW18862   4.477   0.207   5.169
 5988SOL    HW118863   4.405   0.138   5.161
 5988SOL    HW218864   4.549   0.174   5.230
 5989SOL     OW18865   2.812   5.812   6.922
 5989SOL    HW118866   2.781   5.906   6.911
 5989SOL    HW218867   2.898   5.799   6.872
 5990SOL     OW18868   3.760   4.688   0.534
 5990SOL    HW118869   3.720   4.748   0.603
 5990SOL    HW218870   3.738   4.593   0.556
 5991SOL     OW18871   3.932   5.408   5.615
 5991SOL    HW118872   4.015   5.451   5.652
 5991SOL    HW218873   3.958   5.326   5.564
 5992SOL     OW18874   3.478   0.768   3.559
 5992SOL    HW118875   3.558   0.740   3.507
 5992SOL    HW218876   3.482   0.729   3.651
 5993SOL     OW18877   3.247   6.461   5.466
 5993SOL    HW118878   3.334   6.416   5.486
 5993SOL    HW218879   3.208   6.496   5.550
 5994SOL     OW18880   6.317   1.732   1.879
 5994SOL    HW118881   6.326   1.776   1.790
 5994SOL    HW218882   6.222   1.740   1.910
 5995SOL     OW18883   6.101   4.528   2.750
 5995SOL    HW118884   6.194   4.564   2.752
 5995SOL    HW218885   6.036   4.601   2.766
 5996SOL     OW18886   0.723   6.001   0.859
 5996SOL    HW118887   0.717   6.065   0.935
 5996SOL    HW218888   0.664   6.032   0.784
 5997SOL     OW18889   1.451   5.901   2.604
 5997SOL    HW118890   1.418   5.895   2.510
 5997SOL    HW218891   1.409   5.980   2.649
 5998SOL     OW18892   6.126   2.012   1.676
 5998SOL    HW118893   6.105   1.914   1.678
 5998SOL    HW218894   6.212   2.029   1.724
 5999SOL     OW18895   1.690   1.938   2.634
 5999SOL    HW118896   1.663   2.028   2.599
 5999SOL    HW218897   1.686   1.939   2.734
 6000SOL     OW18898   3.505   6.841   1.939
 6000SOL    HW118899   3.497   6.933   1.978
 6000SOL    HW218900   3.440   6.831   1.864
 6001SOL     OW18901   0.446   4.056   6.394
 6001SOL    HW118902   0.472   4.102   6.309
 6001SOL    HW218903   0.503   3.975   6.407
 6002SOL     OW18904   6.897   0.473   0.961
 6002SOL    HW118905   6.872   0.378   0.944
 6002SOL    HW218906   6.839   0.533   0.906
 6003SOL     OW18907   6.884   1.960   4.302
 6003SOL    HW118908   6.916   2.055   4.309
 6003SOL    HW218909   6.863   1.939   4.207
 6004SOL     OW18910   0.025   4.514   3.031
 6004SOL    HW118911   6.982   4.584   2.993
 6004SOL    HW218912   0.101   4.499   2.968
 6005SOL     OW18913   4.895   5.056   4.615
 6005SOL    HW118914   4.953   5.117   4.667
 6005SOL    HW218915   4.952   4.985   4.572
 6006SOL     OW18916   3.100   6.760   6.742
 6006SOL    HW118917   3.004   6.769   6.769
 6006SOL    HW218918   3.155   6.734   6.821
 6007SOL     OW18919   4.982   3.374   4.525
 6007SOL    HW118920   4.946   3.448   4.581
 6007SOL    HW218921   5.081   3.382   4.517
 6008SOL     OW18922   2.288   5.524   6.048
 6008SOL    HW118923   2.238   5.576   5.980
 6008SOL    HW218924   2.373   5.571   6.072
 6009SOL     OW18925   4.158   0.644   5.084
 6009SOL    HW118926   4.082   0.684   5.033
 6009SOL    HW218927   4.138   0.547   5.102
 6010SOL     OW18928   1.349   4.145   3.056
 6010SOL    HW118929   1.407   4.141   2.975
 6010SOL    HW218930   1.360   4.061   3.109
 6011SOL     OW18931   4.742   2.693   3.063
 6011SOL    HW118932   4.747   2.662   2.968
 6011SOL    HW218933   4.653   2.669   3.101
 6012SOL     OW18934   6.486   1.382   7.000
 6012SOL    HW118935   6.402   1.394   6.947
 6012SOL    HW218936   6.499   1.461   0.042
 6013SOL     OW18937   5.488   2.077   2.925
 6013SOL    HW118938   5.470   1.979   2.921
 6013SOL    HW218939   5.572   2.094   2.976
 6014SOL     OW18940   4.062   2.462   0.764
 6014SOL    HW118941   4.095   2.446   0.671
 6014SOL    HW218942   3.963   2.450   0.768
 6015SOL     OW18943   5.535   2.198   5.177
 6015SOL    HW118944   5.592   2.277   5.157
 6015SOL    HW218945   5.579   2.141   5.246
 6016SOL     OW18946   0.105   1.849   6.422
 6016SOL    HW118947   0.132   1.940   6.454
 6016SOL    HW218948   0.029   1.857   6.357
 6017SOL     OW18949   6.341   4.665   2.746
 6017SOL    HW118950   6.315   4.667   2.843
 6017SOL    HW218951   6.348   4.758   2.711
 6018SOL     OW18952   3.235   1.508   0.232
 6018SOL    HW118953   3.180   1.438   0.277
 6018SOL    HW218954   3.291   1.556   0.299
 6019SOL     OW18955   6.054   1.604   4.192
 6019SOL    HW118956   5.958   1.613   4.216
 6019SOL    HW218957   6.110   1.657   4.255
 6020SOL     OW18958   2.090   5.332   1.693
 6020SOL    HW118959   2.147   5.258   1.657
 6020SOL    HW218960   2.055   5.386   1.618
 6021SOL     OW18961   3.818   0.714   2.352
 6021SOL    HW118962   3.723   0.686   2.341
 6021SOL    HW218963   3.824   0.814   2.355
 6022SOL     OW18964   4.572   1.460   5.165
 6022SOL    HW118965   4.568   1.397   5.242
 6022SOL    HW218966   4.573   1.554   5.199
 6023SOL     OW18967   5.946   1.838   2.539
 6023SOL    HW118968   6.010   1.865   2.467
 6023SOL    HW218969   5.855   1.826   2.498
 6024SOL     OW18970   0.651   4.011   3.599
 6024SOL    HW118971   0.580   3.961   3.549
 6024SOL    HW218972   0.711   4.056   3.533
 6025SOL     OW18973   3.533   1.732   2.009
 6025SOL    HW118974   3.629   1.707   2.020
 6025SOL    HW218975   3.476   1.674   2.068
 6026SOL     OW18976   6.768   4.491   4.174
 6026SOL    HW118977   6.770   4.392   4.171
 6026SOL    HW218978   6.753   4.527   4.081
 6027SOL     OW18979   1.507   4.238   5.655
 6027SOL    HW118980   1.497   4.201   5.747
 6027SOL    HW218981   1.572   4.182   5.603
 6028SOL     OW18982   1.003   3.826   0.590
 6028SOL    HW118983   1.024   3.892   0.518
 6028SOL    HW218984   0.940   3.869   0.656
 6029SOL     OW18985   1.904   6.218   4.991
 6029SOL    HW118986   1.889   6.221   4.893
 6029SOL    HW218987   1.818   6.198   5.037
 6030SOL     OW18988   3.582   6.653   3.082
 6030SOL    HW118989   3.484   6.674   3.071
 6030SOL    HW218990   3.593   6.555   3.101
 6031SOL     OW18991   4.005   5.271   3.961
 6031SOL    HW118992   4.098   5.274   3.997
 6031SOL    HW218993   4.004   5.304   3.866
 6032SOL     OW18994   2.101   3.143   3.187
 6032SOL    HW118995   2.193   3.179   3.204
 6032SOL    HW218996   2.088   3.132   3.088
 6033SOL     OW18997   2.941   1.773   2.536
 6033SOL    HW118998   2.880   1.742   2.462
 6033SOL    HW218999   2.888   1.823   2.604
 6034SOL     OW19000   1.567   5.664   4.832
 6034SOL    HW119001   1.661   5.695   4.817
 6034SOL    HW219002   1.560   5.623   4.922
 6035SOL     OW19003   0.070   0.589   3.111
 6035SOL    HW119004   0.135   0.558   3.181
 6035SOL    HW219005   0.121   0.630   3.035
 6036SOL     OW19006   6.622   6.408   4.167
 6036SOL    HW119007   6.523   6.405   4.151
 6036SOL    HW219008   6.653   6.318   4.198
 6037SOL     OW19009   4.438   4.630   5.635
 6037SOL    HW119010   4.351   4.659   5.595
 6037SOL    HW219011   4.510   4.693   5.607
 6038SOL     OW19012   1.358   2.998   6.082
 6038SOL    HW119013   1.392   2.962   5.995
 6038SOL    HW219014   1.264   3.028   6.071
 6039SOL     OW19015   3.551   2.865   2.578
 6039SOL    HW119016   3.536   2.767   2.569
 6039SOL    HW219017   3.610   2.883   2.657
 6040SOL     OW19018   0.707   2.335   6.328
 6040SOL    HW119019   0.646   2.400   6.372
 6040SOL    HW219020   0.676   2.317   6.234
 6041SOL     OW19021   1.915   0.959   4.863
 6041SOL    HW119022   1.969   1.014   4.927
 6041SOL    HW219023   1.959   0.960   4.773
 6042SOL     OW19024   5.133   5.410   2.056
 6042SOL    HW119025   5.175   5.495   2.088
 6042SOL    HW219026   5.183   5.332   2.095
 6043SOL     OW19027   0.585   4.175   5.502
 6043SOL    HW119028   0.516   4.152   5.434
 6043SOL    HW219029   0.589   4.104   5.572
 6044SOL     OW19030   1.552   2.586   1.489
 6044SOL    HW119031   1.535   2.561   1.394
 6044SOL    HW219032   1.627   2.530   1.526
 6045SOL     OW19033   6.199   5.750   1.267
 6045SOL    HW119034   6.198   5.761   1.168
 6045SOL    HW219035   6.164   5.833   1.311
 6046SOL     OW19036   2.917   1.664   0.307
 6046SOL    HW119037   2.982   1.738   0.286
 6046SOL    HW219038   2.897   1.614   0.223
 6047SOL     OW19039   6.361   1.867   2.139
 6047SOL    HW119040   6.327   1.831   2.052
 6047SOL    HW219041   6.404   1.793   2.191
 6048SOL     OW19042   4.423   6.420   3.580
 6048SOL    HW119043   4.443   6.518   3.568
 6048SOL    HW219044   4.374   6.386   3.501
 6049SOL     OW19045   5.273   3.896   5.704
 6049SOL    HW119046   5.221   3.839   5.767
 6049SOL    HW219047   5.328   3.962   5.757
 6050SOL     OW19048   3.116   4.726   5.222
 6050SOL    HW119049   3.064   4.811   5.215
 6050SOL    HW219050   3.058   4.649   5.197
 6051SOL     OW19051   2.017   1.265   3.720
 6051SOL    HW119052   2.061   1.197   3.779
 6051SOL    HW219053   2.083   1.336   3.695
 6052SOL     OW19054   6.363   6.395   0.311
 6052SOL    HW119055   6.372   6.438   0.221
 6052SOL    HW219056   6.391   6.459   0.382
 6053SOL     OW19057   3.606   0.623   6.178
 6053SOL    HW119058   3.563   0.584   6.259
 6053SOL    HW219059   3.536   0.641   6.109
 6054SOL     OW19060   3.013   4.231   0.559
 6054SOL    HW119061   2.993   4.311   0.616
 6054SOL    HW219062   2.929   4.200   0.515
 6055SOL     OW19063   5.678   1.424   5.516
 6055SOL    HW119064   5.589   1.454   5.550
 6055SOL    HW219065   5.704   1.478   5.436
 6056SOL     OW19066   5.177   3.499   4.806
 6056SOL    HW119067   5.084   3.485   4.769
 6056SOL    HW219068   5.171   3.552   4.890
 6057SOL     OW19069   5.583   3.189   4.412
 6057SOL    HW119070   5.556   3.103   4.369
 6057SOL    HW219071   5.532   3.200   4.498
 6058SOL     OW19072   5.004   2.889   2.279
 6058SOL    HW119073   4.922   2.860   2.229
 6058SOL    HW219074   5.084   2.875   2.221
 6059SOL     OW19075   4.776   5.690   5.090
 6059SOL    HW119076   4.755   5.711   5.185
 6059SOL    HW219077   4.720   5.746   5.030
 6060SOL     OW19078   3.114   4.116   6.470
 6060SOL    HW119079   3.158   4.064   6.544
 6060SOL    HW219080   3.184   4.165   6.419
 6061SOL     OW19081   4.405   1.690   0.724
 6061SOL    HW119082   4.322   1.710   0.671
 6061SOL    HW219083   4.380   1.658   0.815
 6062SOL     OW19084   1.591   1.059   4.647
 6062SOL    HW119085   1.630   1.079   4.557
 6062SOL    HW219086   1.631   1.120   4.715
 6063SOL     OW19087   3.650   1.144   6.988
 6063SOL    HW119088   3.634   1.226   0.026
 6063SOL    HW219089   3.563   1.103   6.964
 6064SOL     OW19090   2.641   6.114   2.173
 6064SOL    HW119091   2.552   6.134   2.216
 6064SOL    HW219092   2.670   6.193   2.120
 6065SOL     OW19093   6.005   6.839   2.113
 6065SOL    HW119094   6.029   6.750   2.152
 6065SOL    HW219095   5.911   6.836   2.078
 6066SOL     OW19096   4.220   1.696   0.234
 6066SOL    HW119097   4.210   1.607   0.190
 6066SOL    HW219098   4.312   1.705   0.272
 6067SOL     OW19099   5.702   1.866   6.362
 6067SOL    HW119100   5.733   1.912   6.279
 6067SOL    HW219101   5.678   1.935   6.431
 6068SOL     OW19102   5.650   2.988   4.852
 6068SOL    HW119103   5.704   2.947   4.778
 6068SOL    HW219104   5.647   2.925   4.929
 6069SOL     OW19105   0.099   3.125   4.936
 6069SOL    HW119106   0.172   3.111   5.003
 6069SOL    HW219107   0.039   3.045   4.934
 6070SOL     OW19108   2.309   1.665   6.398
 6070SOL    HW119109   2.385   1.729   6.386
 6070SOL    HW219110   2.313   1.595   6.327
 6071SOL     OW19111   5.239   5.065   4.402
 6071SOL    HW119112   5.281   5.054   4.492
 6071SOL    HW219113   5.183   4.985   4.381
 6072SOL     OW19114   7.015   0.543   2.125
 6072SOL    HW119115   7.013   0.628   2.072
 6072SOL    HW219116   6.989   0.467   2.066
 6073SOL     OW19117   6.609   4.022   0.181
 6073SOL    HW119118   6.609   3.924   0.162
 6073SOL    HW219119   6.702   4.053   0.200
 6074SOL     OW19120   1.043   6.772   4.019
 6074SOL    HW119121   1.125   6.721   3.995
 6074SOL    HW219122   0.967   6.743   3.960
 6075SOL     OW19123   6.717   2.480   6.656
 6075SOL    HW119124   6.801   2.489   6.601
 6075SOL    HW219125   6.654   2.419   6.609
 6076SOL     OW19126   2.745   6.041   4.962
 6076SOL    HW119127   2.673   5.984   4.923
 6076SOL    HW219128   2.818   6.054   4.895
 6077SOL     OW19129   4.530   5.531   2.241
 6077SOL    HW119130   4.554   5.519   2.337
 6077SOL    HW219131   4.606   5.577   2.193
 6078SOL     OW19132   3.844   4.756   1.785
 6078SOL    HW119133   3.759   4.711   1.812
 6078SOL    HW219134   3.826   4.815   1.706
 6079SOL     OW19135   2.968   3.459   5.962
 6079SOL    HW119136   2.946   3.405   5.881
 6079SOL    HW219137   3.003   3.548   5.934
 6080SOL     OW19138   6.964   1.547   1.609
 6080SOL    HW119139   6.890   1.614   1.615
 6080SOL    HW219140   0.030   1.592   1.576
 6081SOL     OW19141   5.947   3.214   4.797
 6081SOL    HW119142   5.997   3.274   4.859
 6081SOL    HW219143   5.850   3.215   4.821
 6082SOL     OW19144   3.471   1.253   2.826
 6082SOL    HW119145   3.408   1.309   2.880
 6082SOL    HW219146   3.478   1.290   2.733
 6083SOL     OW19147   0.598   5.898   6.288
 6083SOL    HW119148   0.619   5.975   6.348
 6083SOL    HW219149   0.516   5.851   6.321
 6084SOL     OW19150   0.693   5.676   4.005
 6084SOL    HW119151   0.636   5.600   4.036
 6084SOL    HW219152   0.653   5.715   3.922
 6085SOL     OW19153   0.521   4.301   6.964
 6085SOL    HW119154   0.605   4.309   7.017
 6085SOL    HW219155   0.532   4.346   6.876
 6086SOL     OW19156   3.104   1.593   4.925
 6086SOL    HW119157   3.152   1.543   4.997
 6086SOL    HW219158   3.059   1.673   4.965
 6087SOL     OW19159   4.420   5.575   0.090
 6087SOL    HW119160   4.468   5.495   0.052
 6087SOL    HW219161   4.388   5.633   0.015
 6088SOL     OW19162   6.281   6.579   4.698
 6088SOL    HW119163   6.217   6.518   4.745
 6088SOL    HW219164   6.244   6.672   4.697
 6089SOL     OW19165   0.396   3.672   1.341
 6089SOL    HW119166   0.375   3.575   1.328
 6089SOL    HW219167   0.415   3.715   1.252
 6090SOL     OW19168   2.118   6.096   6.298
 6090SOL    HW119169   2.167   6.180   6.320
 6090SOL    HW219170   2.068   6.064   6.379
 6091SOL     OW19171   1.775   1.668   2.234
 6091SOL    HW119172   1.817   1.589   2.191
 6091SOL    HW219173   1.719   1.639   2.311
 6092SOL     OW19174   2.884   0.381   3.469
 6092SOL    HW119175   2.918   0.351   3.380
 6092SOL    HW219176   2.788   0.356   3.479
 6093SOL     OW19177   1.252   3.025   2.993
 6093SOL    HW119178   1.193   2.973   3.054
 6093SOL    HW219179   1.346   2.996   3.005
 6094SOL     OW19180   3.960   0.398   0.837
 6094SOL    HW119181   3.874   0.443   0.813
 6094SOL    HW219182   4.016   0.387   0.754
 6095SOL     OW19183   4.640   3.382   6.465
 6095SOL    HW119184   4.662   3.316   6.537
 6095SOL    HW219185   4.723   3.408   6.417
 6096SOL     OW19186   5.980   0.585   3.403
 6096SOL    HW119187   5.938   0.539   3.325
 6096SOL    HW219188   6.080   0.580   3.395
 6097SOL     OW19189   1.676   6.966   1.890
 6097SOL    HW119190   1.670   6.951   1.989
 6097SOL    HW219191   1.727   6.891   1.848
 6098SOL     OW19192   1.151   2.345   6.298
 6098SOL    HW119193   1.165   2.342   6.397
 6098SOL    HW219194   1.239   2.341   6.252
 6099SOL     OW19195   0.077   5.971   0.487
 6099SOL    HW119196   0.061   5.993   0.391
 6099SOL    HW219197   0.156   5.909   0.495
 6100SOL     OW19198   5.238   3.295   6.724
 6100SOL    HW119199   5.203   3.388   6.739
 6100SOL    HW219200   5.167   3.240   6.681
 6101SOL     OW19201   6.334   2.114   5.157
 6101SOL    HW119202   6.322   2.147   5.251
 6101SOL    HW219203   6.286   2.175   5.094
 6102SOL     OW19204   3.787   0.721   3.906
 6102SOL    HW119205   3.787   0.820   3.923
 6102SOL    HW219206   3.720   0.699   3.835
 6103SOL     OW19207   0.506   1.864   2.904
 6103SOL    HW119208   0.600   1.848   2.876
 6103SOL    HW219209   0.451   1.782   2.886
 6104SOL     OW19210   6.075   2.283   5.741
 6104SOL    HW119211   6.118   2.372   5.725
 6104SOL    HW219212   6.009   2.291   5.817
 6105SOL     OW19213   2.252   0.198   5.820
 6105SOL    HW119214   2.169   0.222   5.769
 6105SOL    HW219215   2.245   0.234   5.913
 6106SOL     OW19216   1.333   4.158   5.339
 6106SOL    HW119217   1.408   4.099   5.369
 6106SOL    HW219218   1.252   4.101   5.322
 6107SOL     OW19219   2.394   4.737   4.108
 6107SOL    HW119220   2.364   4.803   4.039
 6107SOL    HW219221   2.452   4.784   4.175
 6108SOL     OW19222   0.635   2.508   3.134
 6108SOL    HW119223   0.681   2.534   3.048
 6108SOL    HW219224   0.543   2.546   3.135
 6109SOL     OW19225   4.817   3.065   6.156
 6109SOL    HW119226   4.844   3.027   6.067
 6109SOL    HW219227   4.725   3.035   6.179
 6110SOL     OW19228   3.824   3.070   6.943
 6110SOL    HW119229   3.923   3.079   6.958
 6110SOL    HW219230   3.775   3.103   0.006
 6111SOL     OW19231   1.699   4.485   2.729
 6111SOL    HW119232   1.647   4.412   2.774
 6111SOL    HW219233   1.750   4.446   2.652
 6112SOL     OW19234   3.733   1.000   3.702
 6112SOL    HW119235   3.807   0.933   3.694
 6112SOL    HW219236   3.693   1.018   3.612
 6113SOL     OW19237   0.497   1.165   5.679
 6113SOL    HW119238   0.397   1.155   5.688
 6113SOL    HW219239   0.540   1.141   5.766
 6114SOL     OW19240   4.869   4.880   1.054
 6114SOL    HW119241   4.887   4.979   1.054
 6114SOL    HW219242   4.903   4.840   0.969
 6115SOL     OW19243   5.383   6.339   2.980
 6115SOL    HW119244   5.450   6.265   2.977
 6115SOL    HW219245   5.379   6.377   3.073
 6116SOL     OW19246   2.801   1.034   1.052
 6116SOL    HW119247   2.786   0.935   1.057
 6116SOL    HW219248   2.718   1.083   1.079
 6117SOL     OW19249   6.162   0.281   6.043
 6117SOL    HW119250   6.224   0.231   6.103
 6117SOL    HW219251   6.206   0.365   6.012
 6118SOL     OW19252   0.213   0.323   1.452
 6118SOL    HW119253   0.149   0.256   1.488
 6118SOL    HW219254   0.195   0.337   1.355
 6119SOL     OW19255   0.943   3.703   4.419
 6119SOL    HW119256   0.975   3.609   4.435
 6119SOL    HW219257   1.011   3.754   4.367
 6120SOL     OW19258   4.357   6.919   3.721
 6120SOL    HW119259   4.333   6.937   3.816
 6120SOL    HW219260   4.451   6.949   3.703
 6121SOL     OW19261   0.213   2.901   4.602
 6121SOL    HW119262   0.136   2.961   4.625
 6121SOL    HW219263   0.296   2.933   4.648
 6122SOL     OW19264   3.634   6.938   1.555
 6122SOL    HW119265   3.634   6.990   1.469
 6122SOL    HW219266   3.579   6.987   1.623
 6123SOL     OW19267   6.845   0.390   6.644
 6123SOL    HW119268   6.871   0.466   6.703
 6123SOL    HW219269   6.860   0.303   6.692
 6124SOL     OW19270   3.266   0.494   5.575
 6124SOL    HW119271   3.353   0.445   5.575
 6124SOL    HW219272   3.245   0.526   5.483
 6125SOL     OW19273   3.418   5.720   0.603
 6125SOL    HW119274   3.357   5.737   0.681
 6125SOL    HW219275   3.363   5.705   0.521
 6126SOL     OW19276   6.199   6.986   4.177
 6126SOL    HW119277   6.147   6.948   4.253
 6126SOL    HW219278   6.227   0.062   4.199
 6127SOL     OW19279   2.603   0.893   2.909
 6127SOL    HW119280   2.520   0.869   2.860
 6127SOL    HW219281   2.640   0.979   2.873
 6128SOL     OW19282   6.609   3.358   0.515
 6128SOL    HW119283   6.697   3.326   0.549
 6128SOL    HW219284   6.605   3.344   0.416
 6129SOL     OW19285   6.239   4.674   2.996
 6129SOL    HW119286   6.318   4.658   3.055
 6129SOL    HW219287   6.155   4.657   3.047
 6130SOL     OW19288   5.594   1.794   3.797
 6130SOL    HW119289   5.570   1.757   3.708
 6130SOL    HW219290   5.653   1.729   3.845
 6131SOL     OW19291   6.346   1.213   5.341
 6131SOL    HW119292   6.317   1.228   5.435
 6131SOL    HW219293   6.266   1.185   5.286
 6132SOL     OW19294   5.327   1.425   0.326
 6132SOL    HW119295   5.383   1.504   0.304
 6132SOL    HW219296   5.324   1.413   0.425
 6133SOL     OW19297   1.246   2.667   2.777
 6133SOL    HW119298   1.216   2.601   2.708
 6133SOL    HW219299   1.343   2.653   2.797
 6134SOL     OW19300   3.660   4.329   0.476
 6134SOL    HW119301   3.652   4.293   0.568
 6134SOL    HW219302   3.713   4.266   0.420
 6135SOL     OW19303   0.531   6.852   1.714
 6135SOL    HW119304   0.620   6.888   1.740
 6135SOL    HW219305   0.467   6.927   1.698
 6136SOL     OW19306   0.633   2.545   2.509
 6136SOL    HW119307   0.614   2.614   2.440
 6136SOL    HW219308   0.721   2.565   2.554
 6137SOL     OW19309   5.382   1.890   5.138
 6137SOL    HW119310   5.398   1.980   5.098
 6137SOL    HW219311   5.399   1.819   5.069
 6138SOL     OW19312   3.864   6.317   2.454
 6138SOL    HW119313   3.905   6.260   2.382
 6138SOL    HW219314   3.783   6.362   2.418
 6139SOL     OW19315   1.651   2.698   4.940
 6139SOL    HW119316   1.674   2.778   4.885
 6139SOL    HW219317   1.597   2.635   4.885
 6140SOL     OW19318   0.273   6.031   1.747
 6140SOL    HW119319   0.346   5.964   1.764
 6140SOL    HW219320   0.230   6.056   1.833
 6141SOL     OW19321   5.782   5.871   5.538
 6141SOL    HW119322   5.777   5.952   5.479
 6141SOL    HW219323   5.712   5.806   5.510
 6142SOL     OW19324   6.827   5.183   0.889
 6142SOL    HW119325   6.753   5.118   0.871
 6142SOL    HW219326   6.793   5.276   0.874
 6143SOL     OW19327   6.397   4.540   0.297
 6143SOL    HW119328   6.393   4.444   0.325
 6143SOL    HW219329   6.304   4.579   0.300
 6144SOL     OW19330   5.833   4.907   2.556
 6144SOL    HW119331   5.834   4.985   2.618
 6144SOL    HW219332   5.918   4.905   2.504
 6145SOL     OW19333   4.749   5.947   4.290
 6145SOL    HW119334   4.768   5.854   4.321
 6145SOL    HW219335   4.792   6.012   4.353
 6146SOL     OW19336   4.262   1.320   3.454
 6146SOL    HW119337   4.280   1.394   3.519
 6146SOL    HW219338   4.348   1.283   3.421
 6147SOL     OW19339   1.323   4.117   4.269
 6147SOL    HW119340   1.244   4.077   4.315
 6147SOL    HW219341   1.359   4.193   4.324
 6148SOL     OW19342   6.939   0.258   4.619
 6148SOL    HW119343   7.001   0.225   4.691
 6148SOL    HW219344   6.850   0.278   4.659
 6149SOL     OW19345   3.122   4.870   3.039
 6149SOL    HW119346   3.176   4.896   2.959
 6149SOL    HW219347   3.074   4.950   3.075
 6150SOL     OW19348   4.062   4.850   6.683
 6150SOL    HW119349   3.973   4.891   6.705
 6150SOL    HW219350   4.134   4.896   6.735
 6151SOL     OW19351   6.078   3.939   4.532
 6151SOL    HW119352   6.041   3.868   4.473
 6151SOL    HW219353   6.071   4.028   4.487
 6152SOL     OW19354   5.616   4.911   5.165
 6152SOL    HW119355   5.584   4.980   5.229
 6152SOL    HW219356   5.716   4.910   5.165
 6153SOL     OW19357   4.917   4.116   1.855
 6153SOL    HW119358   4.862   4.141   1.935
 6153SOL    HW219359   4.960   4.027   1.872
 6154SOL     OW19360   5.676   1.338   2.775
 6154SOL    HW119361   5.655   1.241   2.767
 6154SOL    HW219362   5.608   1.382   2.835
 6155SOL     OW19363   1.869   1.923   5.047
 6155SOL    HW119364   1.858   2.005   5.103
 6155SOL    HW219365   1.891   1.845   5.106
 6156SOL     OW19366   4.503   4.487   2.424
 6156SOL    HW119367   4.476   4.581   2.401
 6156SOL    HW219368   4.549   4.487   2.513
 6157SOL     OW19369   1.246   1.433   4.507
 6157SOL    HW119370   1.276   1.346   4.468
 6157SOL    HW219371   1.305   1.506   4.473
 6158SOL     OW19372   4.613   0.801   5.751
 6158SOL    HW119373   4.586   0.705   5.754
 6158SOL    HW219374   4.563   0.852   5.821
 6159SOL     OW19375   4.627   2.589   1.101
 6159SOL    HW119376   4.641   2.563   1.197
 6159SOL    HW219377   4.656   2.514   1.041
 6160SOL     OW19378   5.000   6.600   0.098
 6160SOL    HW119379   4.934   6.675   0.103
 6160SOL    HW219380   5.092   6.637   0.083
 6161SOL     OW19381   5.783   2.025   5.835
 6161SOL    HW119382   5.795   2.121   5.808
 6161SOL    HW219383   5.790   1.967   5.755
 6162SOL     OW19384   0.993   5.572   3.942
 6162SOL    HW119385   0.905   5.554   3.897
 6162SOL    HW219386   0.982   5.565   4.041
 6163SOL     OW19387   5.011   6.053   1.873
 6163SOL    HW119388   4.998   6.084   1.778
 6163SOL    HW219389   4.994   6.129   1.935
 6164SOL     OW19390   2.515   3.203   1.507
 6164SOL    HW119391   2.521   3.120   1.452
 6164SOL    HW219392   2.592   3.263   1.485
 6165SOL     OW19393   3.999   0.080   6.042
 6165SOL    HW119394   3.947   7.017   6.071
 6165SOL    HW219395   4.032   0.130   6.123
 6166SOL     OW19396   4.055   1.106   5.462
 6166SOL    HW119397   3.965   1.142   5.440
 6166SOL    HW219398   4.076   1.029   5.402
 6167SOL     OW19399   0.081   4.563   2.616
 6167SOL    HW119400   0.044   4.611   2.537
 6167SOL    HW219401   0.174   4.533   2.597
 6168SOL     OW19402   0.475   3.365   0.632
 6168SOL    HW119403   0.384   3.325   0.641
 6168SOL    HW219404   0.517   3.336   0.546
 6169SOL     OW19405   1.107   3.619   2.081
 6169SOL    HW119406   1.079   3.524   2.065
 6169SOL    HW219407   1.084   3.674   2.001
 6170SOL     OW19408   0.878   3.216   5.098
 6170SOL    HW119409   0.937   3.266   5.035
 6170SOL    HW219410   0.905   3.119   5.098
 6171SOL     OW19411   0.682   1.830   0.218
 6171SOL    HW119412   0.722   1.920   0.233
 6171SOL    HW219413   0.584   1.839   0.205
 6172SOL     OW19414   1.141   3.223   2.848
 6172SOL    HW119415   1.185   3.226   2.759
 6172SOL    HW219416   1.193   3.162   2.909
 6173SOL     OW19417   6.738   5.572   3.256
 6173SOL    HW119418   6.699   5.524   3.178
 6173SOL    HW219419   6.836   5.583   3.242
 6174SOL     OW19420   4.937   5.289   4.278
 6174SOL    HW119421   5.032   5.315   4.297
 6174SOL    HW219422   4.931   5.190   4.265
 6175SOL     OW19423   3.921   0.595   4.110
 6175SOL    HW119424   3.875   0.654   4.043
 6175SOL    HW219425   3.856   0.569   4.181
 6176SOL     OW19426   4.884   3.979   5.316
 6176SOL    HW119427   4.971   3.991   5.365
 6176SOL    HW219428   4.836   3.900   5.353
 6177SOL     OW19429   5.408   1.935   1.966
 6177SOL    HW119430   5.493   1.977   1.936
 6177SOL    HW219431   5.346   1.925   1.888
 6178SOL     OW19432   5.250   3.945   2.446
 6178SOL    HW119433   5.177   3.926   2.380
 6178SOL    HW219434   5.338   3.918   2.408
 6179SOL     OW19435   6.426   4.707   2.234
 6179SOL    HW119436   6.517   4.687   2.270
 6179SOL    HW219437   6.357   4.671   2.296
 6180SOL     OW19438   2.694   4.900   1.239
 6180SOL    HW119439   2.644   4.987   1.245
 6180SOL    HW219440   2.791   4.919   1.219
 6181SOL     OW19441   4.750   6.382   6.349
 6181SOL    HW119442   4.706   6.384   6.439
 6181SOL    HW219443   4.734   6.469   6.302
 6182SOL     OW19444   4.528   3.517   6.054
 6182SOL    HW119445   4.618   3.556   6.074
 6182SOL    HW219446   4.461   3.555   6.119
 6183SOL     OW19447   1.653   2.004   2.003
 6183SOL    HW119448   1.702   2.013   2.090
 6183SOL    HW219449   1.669   2.085   1.946
 6184SOL     OW19450   3.268   6.864   5.989
 6184SOL    HW119451   3.358   6.824   5.972
 6184SOL    HW219452   3.252   6.872   6.087
 6185SOL     OW19453   1.381   4.549   6.248
 6185SOL    HW119454   1.361   4.517   6.340
 6185SOL    HW219455   1.425   4.476   6.196
 6186SOL     OW19456   6.039   1.153   1.200
 6186SOL    HW119457   6.104   1.227   1.184
 6186SOL    HW219458   6.085   1.065   1.187
 6187SOL     OW19459   4.983   3.084   4.529
 6187SOL    HW119460   4.935   3.167   4.557
 6187SOL    HW219461   5.061   3.109   4.471
 6188SOL     OW19462   1.686   1.885   5.938
 6188SOL    HW119463   1.784   1.864   5.938
 6188SOL    HW219464   1.634   1.801   5.956
 6189SOL     OW19465   3.743   4.959   3.082
 6189SOL    HW119466   3.721   4.987   3.175
 6189SOL    HW219467   3.774   5.038   3.029
 6190SOL     OW19468   0.284   3.235   5.456
 6190SOL    HW119469   0.265   3.334   5.457
 6190SOL    HW219470   0.382   3.220   5.447
 6191SOL     OW19471   2.853   2.990   6.322
 6191SOL    HW119472   2.884   3.085   6.316
 6191SOL    HW219473   2.754   2.987   6.330
 6192SOL     OW19474   2.546   1.924   6.782
 6192SOL    HW119475   2.480   1.911   6.856
 6192SOL    HW219476   2.515   1.997   6.721
 6193SOL     OW19477   4.248   6.085   1.069
 6193SOL    HW119478   4.187   6.022   1.022
 6193SOL    HW219479   4.320   6.116   1.007
 6194SOL     OW19480   6.325   0.420   6.314
 6194SOL    HW119481   6.248   0.362   6.288
 6194SOL    HW219482   6.343   0.410   6.412
 6195SOL     OW19483   5.469   6.353   4.682
 6195SOL    HW119484   5.380   6.358   4.636
 6195SOL    HW219485   5.456   6.349   4.781
 6196SOL     OW19486   4.700   4.200   2.498
 6196SOL    HW119487   4.661   4.230   2.411
 6196SOL    HW219488   4.700   4.100   2.502
 6197SOL     OW19489   2.670   5.203   2.249
 6197SOL    HW119490   2.721   5.249   2.322
 6197SOL    HW219491   2.711   5.225   2.160
 6198SOL     OW19492   4.153   6.352   0.522
 6198SOL    HW119493   4.243   6.332   0.484
 6198SOL    HW219494   4.083   6.328   0.455
 6199SOL     OW19495   0.942   1.187   0.469
 6199SOL    HW119496   0.877   1.226   0.535
 6199SOL    HW219497   1.018   1.145   0.518
 6200SOL     OW19498   1.035   2.220   4.492
 6200SOL    HW119499   0.968   2.250   4.559
 6200SOL    HW219500   1.120   2.271   4.505
 6201SOL     OW19501   1.035   3.440   4.401
 6201SOL    HW119502   1.115   3.379   4.393
 6201SOL    HW219503   0.983   3.414   4.483
 6202SOL     OW19504   5.914   1.478   1.692
 6202SOL    HW119505   5.911   1.429   1.605
 6202SOL    HW219506   5.842   1.444   1.753
 6203SOL     OW19507   5.505   5.346   1.859
 6203SOL    HW119508   5.562   5.427   1.864
 6203SOL    HW219509   5.563   5.264   1.868
 6204SOL     OW19510   0.858   6.062   5.158
 6204SOL    HW119511   0.823   6.007   5.233
 6204SOL    HW219512   0.950   6.095   5.181
 6205SOL     OW19513   6.115   4.382   1.366
 6205SOL    HW119514   6.038   4.427   1.410
 6205SOL    HW219515   6.177   4.346   1.436
 6206SOL     OW19516   5.258   1.249   2.812
 6206SOL    HW119517   5.295   1.180   2.749
 6206SOL    HW219518   5.330   1.314   2.835
 6207SOL     OW19519   1.395   6.502   4.975
 6207SOL    HW119520   1.490   6.504   5.007
 6207SOL    HW219521   1.392   6.476   4.879
 6208SOL     OW19522   3.155   2.212   5.640
 6208SOL    HW119523   3.232   2.250   5.590
 6208SOL    HW219524   3.104   2.150   5.581
 6209SOL     OW19525   3.626   5.600   0.457
 6209SOL    HW119526   3.723   5.607   0.482
 6209SOL    HW219527   3.572   5.654   0.522
 6210SOL     OW19528   5.396   3.907   3.007
 6210SOL    HW119529   5.304   3.933   2.977
 6210SOL    HW219530   5.409   3.809   2.993
 6211SOL     OW19531   3.391   6.614   5.288
 6211SOL    HW119532   3.336   6.553   5.345
 6211SOL    HW219533   3.436   6.562   5.216
 6212SOL     OW19534   2.192   4.558   4.229
 6212SOL    HW119535   2.245   4.629   4.276
 6212SOL    HW219536   2.230   4.543   4.138
 6213SOL     OW19537   4.417   6.792   6.704
 6213SOL    HW119538   4.362   6.739   6.638
 6213SOL    HW219539   4.363   6.810   6.786
 6214SOL     OW19540   5.888   5.657   5.657
 6214SOL    HW119541   5.867   5.677   5.753
 6214SOL    HW219542   5.854   5.732   5.600
 6215SOL     OW19543   3.886   2.933   6.215
 6215SOL    HW119544   3.863   2.949   6.119
 6215SOL    HW219545   3.984   2.949   6.229
 6216SOL     OW19546   6.053   2.258   2.038
 6216SOL    HW119547   6.152   2.261   2.056
 6216SOL    HW219548   6.009   2.196   2.102
 6217SOL     OW19549   1.047   4.584   2.357
 6217SOL    HW119550   1.134   4.602   2.310
 6217SOL    HW219551   1.025   4.487   2.352
 6218SOL     OW19552   3.842   6.315   6.864
 6218SOL    HW119553   3.889   6.394   6.905
 6218SOL    HW219554   3.755   6.300   6.911
 6219SOL     OW19555   1.467   0.882   4.841
 6219SOL    HW119556   1.471   0.951   4.769
 6219SOL    HW219557   1.552   0.882   4.892
 6220SOL     OW19558   3.377   1.250   6.219
 6220SOL    HW119559   3.354   1.249   6.122
 6220SOL    HW219560   3.450   1.184   6.237
 6221SOL     OW19561   6.501   6.826   6.715
 6221SOL    HW119562   6.429   6.890   6.685
 6221SOL    HW219563   6.462   6.759   6.777
 6222SOL     OW19564   6.737   0.293   2.479
 6222SOL    HW119565   6.782   0.296   2.568
 6222SOL    HW219566   6.687   0.378   2.464
 6223SOL     OW19567   1.698   5.630   3.399
 6223SOL    HW119568   1.780   5.681   3.423
 6223SOL    HW219569   1.638   5.624   3.479
 6224SOL     OW19570   3.869   1.592   5.740
 6224SOL    HW119571   3.880   1.629   5.648
 6224SOL    HW219572   3.907   1.656   5.806
 6225SOL     OW19573   4.101   2.404   6.378
 6225SOL    HW119574   4.022   2.431   6.433
 6225SOL    HW219575   4.171   2.475   6.384
 6226SOL     OW19576   1.398   1.239   3.878
 6226SOL    HW119577   1.397   1.175   3.955
 6226SOL    HW219578   1.481   1.296   3.884
 6227SOL     OW19579   3.351   4.897   5.202
 6227SOL    HW119580   3.261   4.855   5.203
 6227SOL    HW219581   3.382   4.913   5.296
 6228SOL     OW19582   0.689   2.329   3.350
 6228SOL    HW119583   0.607   2.277   3.372
 6228SOL    HW219584   0.674   2.381   3.266
 6229SOL     OW19585   0.230   2.860   5.261
 6229SOL    HW119586   0.154   2.859   5.325
 6229SOL    HW219587   0.315   2.837   5.310
 6230SOL     OW19588   1.526   2.099   3.218
 6230SOL    HW119589   1.476   2.156   3.153
 6230SOL    HW219590   1.613   2.144   3.241
 6231SOL     OW19591   5.125   5.575   0.700
 6231SOL    HW119592   5.117   5.558   0.799
 6231SOL    HW219593   5.221   5.587   0.677
 6232SOL     OW19594   6.293   1.400   0.343
 6232SOL    HW119595   6.311   1.362   0.434
 6232SOL    HW219596   6.293   1.326   0.276
 6233SOL     OW19597   0.032   3.110   1.569
 6233SOL    HW119598   0.128   3.134   1.557
 6233SOL    HW219599   0.023   3.049   1.648
 6234SOL     OW19600   0.058   0.189   5.354
 6234SOL    HW119601   0.108   0.108   5.386
 6234SOL    HW219602   0.037   0.178   5.257
 6235SOL     OW19603   0.293   0.702   2.000
 6235SOL    HW119604   0.334   0.659   1.919
 6235SOL    HW219605   0.202   0.736   1.977
 6236SOL     OW19606   0.053   4.472   0.414
 6236SOL    HW119607   0.110   4.554   0.404
 6236SOL    HW219608   6.975   4.496   0.400
 6237SOL     OW19609   3.134   6.800   0.010
 6237SOL    HW119610   3.195   6.879   0.003
 6237SOL    HW219611   3.164   6.741   0.085
 6238SOL     OW19612   4.541   6.707   3.271
 6238SOL    HW119613   4.640   6.713   3.262
 6238SOL    HW219614   4.515   6.724   3.366
 6239SOL     OW19615   3.397   0.746   1.472
 6239SOL    HW119616   3.440   0.665   1.432
 6239SOL    HW219617   3.437   0.764   1.562
 6240SOL     OW19618   2.963   3.571   4.993
 6240SOL    HW119619   2.950   3.525   4.906
 6240SOL    HW219620   2.911   3.524   5.065
 6241SOL     OW19621   3.988   0.203   4.108
 6241SOL    HW119622   4.068   0.261   4.090
 6241SOL    HW219623   3.976   0.139   4.032
 6242SOL     OW19624   2.987   0.944   3.832
 6242SOL    HW119625   3.009   0.925   3.928
 6242SOL    HW219626   2.916   1.013   3.827
 6243SOL     OW19627   6.833   0.707   5.652
 6243SOL    HW119628   6.790   0.773   5.714
 6243SOL    HW219629   6.930   0.731   5.640
 6244SOL     OW19630   4.879   3.902   3.286
 6244SOL    HW119631   4.836   3.912   3.196
 6244SOL    HW219632   4.964   3.850   3.277
 6245SOL     OW19633   1.051   5.182   1.573
 6245SOL    HW119634   1.027   5.229   1.489
 6245SOL    HW219635   0.979   5.196   1.641
 6246SOL     OW19636   0.639   0.650   4.420
 6246SOL    HW119637   0.631   0.558   4.459
 6246SOL    HW219638   0.548   0.689   4.407
 6247SOL     OW19639   1.736   6.256   3.306
 6247SOL    HW119640   1.831   6.250   3.335
 6247SOL    HW219641   1.680   6.193   3.360
 6248SOL     OW19642   3.324   4.007   0.145
 6248SOL    HW119643   3.369   3.955   0.217
 6248SOL    HW219644   3.318   4.103   0.171
 6249SOL     OW19645   0.310   2.880   1.265
 6249SOL    HW119646   0.365   2.917   1.340
 6249SOL    HW219647   0.215   2.908   1.276
 6250SOL     OW19648   6.835   6.575   0.845
 6250SOL    HW119649   6.739   6.603   0.839
 6250SOL    HW219650   6.850   6.527   0.931
 6251SOL     OW19651   3.599   5.631   4.586
 6251SOL    HW119652   3.630   5.710   4.533
 6251SOL    HW219653   3.572   5.558   4.523
 6252SOL     OW19654   2.968   5.194   0.368
 6252SOL    HW119655   3.006   5.185   0.460
 6252SOL    HW219656   3.041   5.184   0.300
 6253SOL     OW19657   2.437   5.255   5.166
 6253SOL    HW119658   2.526   5.236   5.207
 6253SOL    HW219659   2.424   5.198   5.085
 6254SOL     OW19660   0.426   6.596   1.559
 6254SOL    HW119661   0.404   6.647   1.476
 6254SOL    HW219662   0.458   6.659   1.630
 6255SOL     OW19663   2.142   2.403   0.602
 6255SOL    HW119664   2.179   2.315   0.634
 6255SOL    HW219665   2.118   2.395   0.505
 6256SOL     OW19666   4.136   4.943   2.458
 6256SOL    HW119667   4.083   4.902   2.532
 6256SOL    HW219668   4.082   5.017   2.416
 6257SOL     OW19669   3.891   3.297   0.415
 6257SOL    HW119670   3.869   3.245   0.498
 6257SOL    HW219671   3.908   3.233   0.340
 6258SOL     OW19672   3.036   0.180   5.048
 6258SOL    HW119673   3.129   0.148   5.069
 6258SOL    HW219674   3.020   0.173   4.950
 6259SOL     OW19675   2.018   0.945   6.253
 6259SOL    HW119676   2.026   1.008   6.331
 6259SOL    HW219677   1.947   0.877   6.273
 6260SOL     OW19678   1.783   0.544   0.913
 6260SOL    HW119679   1.740   0.460   0.946
 6260SOL    HW219680   1.769   0.553   0.815
 6261SOL     OW19681   4.639   6.684   1.163
 6261SOL    HW119682   4.682   6.727   1.242
 6261SOL    HW219683   4.554   6.732   1.141
 6262SOL     OW19684   0.811   5.966   2.214
 6262SOL    HW119685   0.713   5.945   2.218
 6262SOL    HW219686   0.845   5.979   2.307
 6263SOL     OW19687   0.250   6.330   5.339
 6263SOL    HW119688   0.184   6.404   5.325
 6263SOL    HW219689   0.206   6.242   5.318
 6264SOL     OW19690   1.248   0.064   1.291
 6264SOL    HW119691   1.219   0.020   1.206
 6264SOL    HW219692   1.287   0.154   1.270
 6265SOL     OW19693   3.845   2.824   0.805
 6265SOL    HW119694   3.759   2.776   0.825
 6265SOL    HW219695   3.886   2.856   0.891
 6266SOL     OW19696   4.144   6.777   3.548
 6266SOL    HW119697   4.133   6.861   3.495
 6266SOL    HW219698   4.232   6.778   3.594
 6267SOL     OW19699   1.227   6.751   5.283
 6267SOL    HW119700   1.245   6.715   5.374
 6267SOL    HW219701   1.129   6.749   5.264
 6268SOL     OW19702   3.024   0.915   2.043
 6268SOL    HW119703   3.025   0.851   2.120
 6268SOL    HW219704   3.095   0.889   1.977
 6269SOL     OW19705   5.580   6.649   1.278
 6269SOL    HW119706   5.554   6.740   1.245
 6269SOL    HW219707   5.672   6.653   1.317
 6270SOL     OW19708   0.419   6.246   0.266
 6270SOL    HW119709   0.508   6.256   0.223
 6270SOL    HW219710   0.390   6.150   0.260
 6271SOL     OW19711   6.273   2.774   6.720
 6271SOL    HW119712   6.321   2.721   6.650
 6271SOL    HW219713   6.282   2.872   6.699
 6272SOL     OW19714   0.716   0.658   0.420
 6272SOL    HW119715   0.785   0.683   0.488
 6272SOL    HW219716   0.762   0.622   0.338
 6273SOL     OW19717   0.399   5.841   3.239
 6273SOL    HW119718   0.489   5.871   3.207
 6273SOL    HW219719   0.403   5.819   3.336
 6274SOL     OW19720   2.635   0.081   4.802
 6274SOL    HW119721   2.630   0.176   4.771
 6274SOL    HW219722   2.726   0.045   4.785
 6275SOL     OW19723   2.154   6.100   0.834
 6275SOL    HW119724   2.093   6.179   0.824
 6275SOL    HW219725   2.222   6.101   0.761
 6276SOL     OW19726   3.529   5.512   3.713
 6276SOL    HW119727   3.539   5.574   3.791
 6276SOL    HW219728   3.611   5.456   3.704
 6277SOL     OW19729   5.144   1.927   0.894
 6277SOL    HW119730   5.217   1.993   0.875
 6277SOL    HW219731   5.141   1.859   0.821
 6278SOL     OW19732   4.001   0.696   5.931
 6278SOL    HW119733   4.096   0.674   5.955
 6278SOL    HW219734   4.000   0.764   5.858
 6279SOL     OW19735   4.048   6.031   0.439
 6279SOL    HW119736   4.096   5.957   0.486
 6279SOL    HW219737   4.110   6.076   0.374
 6280SOL     OW19738   0.427   1.139   6.767
 6280SOL    HW119739   0.504   1.197   6.795
 6280SOL    HW219740   0.344   1.194   6.763
 6281SOL     OW19741   6.232   5.001   3.674
 6281SOL    HW119742   6.294   5.007   3.596
 6281SOL    HW219743   6.146   5.047   3.652
 6282SOL     OW19744   6.146   3.092   5.159
 6282SOL    HW119745   6.074   3.134   5.104
 6282SOL    HW219746   6.226   3.073   5.101
 6283SOL     OW19747   0.989   4.631   4.488
 6283SOL    HW119748   0.974   4.697   4.561
 6283SOL    HW219749   1.078   4.647   4.445
 6284SOL     OW19750   1.213   5.651   6.676
 6284SOL    HW119751   1.265   5.612   6.600
 6284SOL    HW219752   1.276   5.682   6.747
 6285SOL     OW19753   1.603   3.404   3.412
 6285SOL    HW119754   1.639   3.366   3.497
 6285SOL    HW219755   1.573   3.329   3.353
 6286SOL     OW19756   6.349   3.500   4.031
 6286SOL    HW119757   6.391   3.414   4.058
 6286SOL    HW219758   6.299   3.488   3.945
 6287SOL     OW19759   4.128   5.034   5.226
 6287SOL    HW119760   4.118   5.081   5.138
 6287SOL    HW219761   4.152   4.938   5.210
 6288SOL     OW19762   4.589   4.719   1.376
 6288SOL    HW119763   4.592   4.814   1.409
 6288SOL    HW219764   4.665   4.703   1.313
 6289SOL     OW19765   2.728   4.681   6.618
 6289SOL    HW119766   2.645   4.625   6.621
 6289SOL    HW219767   2.805   4.626   6.585
 6290SOL     OW19768   6.224   5.516   6.166
 6290SOL    HW119769   6.186   5.425   6.178
 6290SOL    HW219770   6.283   5.518   6.085
 6291SOL     OW19771   4.073   3.231   3.482
 6291SOL    HW119772   4.082   3.227   3.383
 6291SOL    HW219773   4.101   3.322   3.514
 6292SOL     OW19774   1.969   2.227   4.668
 6292SOL    HW119775   2.035   2.260   4.599
 6292SOL    HW219776   1.989   2.131   4.689
 6293SOL     OW19777   4.492   1.455   0.426
 6293SOL    HW119778   4.483   1.475   0.329
 6293SOL    HW219779   4.550   1.524   0.470
 6294SOL     OW19780   4.326   0.282   3.216
 6294SOL    HW119781   4.397   0.348   3.188
 6294SOL    HW219782   4.303   0.298   3.312
 6295SOL     OW19783   5.341   4.814   4.878
 6295SOL    HW119784   5.337   4.803   4.978
 6295SOL    HW219785   5.379   4.731   4.837
 6296SOL     OW19786   0.321   4.366   6.095
 6296SOL    HW119787   0.252   4.394   6.163
 6296SOL    HW219788   0.284   4.292   6.039
 6297SOL     OW19789   6.434   0.239   5.480
 6297SOL    HW119790   6.390   0.322   5.446
 6297SOL    HW219791   6.367   0.165   5.484
 6298SOL     OW19792   6.723   4.924   6.205
 6298SOL    HW119793   6.782   4.893   6.131
 6298SOL    HW219794   6.688   4.846   6.256
 6299SOL     OW19795   5.606   2.750   1.950
 6299SOL    HW119796   5.583   2.673   2.009
 6299SOL    HW219797   5.689   2.794   1.984
 6300SOL     OW19798   4.482   0.849   6.867
 6300SOL    HW119799   4.561   0.874   6.811
 6300SOL    HW219800   4.452   0.757   6.844
 6301SOL     OW19801   3.133   0.000   6.218
 6301SOL    HW119802   3.107   0.035   6.308
 6301SOL    HW219803   3.185   0.071   6.169
 6302SOL     OW19804   2.379   1.587   5.426
 6302SOL    HW119805   2.425   1.551   5.345
 6302SOL    HW219806   2.398   1.685   5.434
 6303SOL     OW19807   0.276   6.162   6.043
 6303SOL    HW119808   0.287   6.238   6.107
 6303SOL    HW219809   0.241   6.196   5.956
 6304SOL     OW19810   3.797   1.463   3.299
 6304SOL    HW119811   3.719   1.524   3.311
 6304SOL    HW219812   3.805   1.438   3.202
 6305SOL     OW19813   5.937   5.987   0.154
 6305SOL    HW119814   5.988   5.964   0.072
 6305SOL    HW219815   5.943   6.086   0.170
 6306SOL     OW19816   0.297   3.380   4.105
 6306SOL    HW119817   0.315   3.312   4.176
 6306SOL    HW219818   0.348   3.463   4.125
 6307SOL     OW19819   3.528   3.046   3.991
 6307SOL    HW119820   3.535   3.010   4.084
 6307SOL    HW219821   3.615   3.032   3.944
 6308SOL     OW19822   0.775   2.280   5.733
 6308SOL    HW119823   0.790   2.364   5.680
 6308SOL    HW219824   0.805   2.201   5.679
 6309SOL     OW19825   0.220   0.289   4.047
 6309SOL    HW119826   0.227   0.381   4.008
 6309SOL    HW219827   0.275   0.225   3.993
 6310SOL     OW19828   2.234   6.207   3.029
 6310SOL    HW119829   2.225   6.116   2.988
 6310SOL    HW219830   2.321   6.248   3.000
 6311SOL     OW19831   4.828   1.010   6.964
 6311SOL    HW119832   4.781   1.071   0.011
 6311SOL    HW219833   4.862   0.930   7.014
 6312SOL     OW19834   1.633   6.795   6.350
 6312SOL    HW119835   1.580   6.878   6.365
 6312SOL    HW219836   1.731   6.816   6.358
 6313SOL     OW19837   5.612   6.708   3.052
 6313SOL    HW119838   5.631   6.774   3.125
 6313SOL    HW219839   5.600   6.617   3.092
 6314SOL     OW19840   3.589   0.290   1.545
 6314SOL    HW119841   3.662   0.352   1.575
 6314SOL    HW219842   3.570   0.225   1.618
 6315SOL     OW19843   2.133   1.986   4.702
 6315SOL    HW119844   2.224   2.009   4.737
 6315SOL    HW219845   2.086   1.928   4.768
 6316SOL     OW19846   5.028   1.507   6.024
 6316SOL    HW119847   4.989   1.588   6.068
 6316SOL    HW219848   5.127   1.511   6.025
 6317SOL     OW19849   5.162   4.002   2.926
 6317SOL    HW119850   5.072   3.963   2.902
 6317SOL    HW219851   5.151   4.067   3.001
 6318SOL     OW19852   4.512   0.210   6.971
 6318SOL    HW119853   4.470   0.205   0.044
 6318SOL    HW219854   4.537   0.305   6.951
 6319SOL     OW19855   6.015   2.209   4.434
 6319SOL    HW119856   6.045   2.290   4.385
 6319SOL    HW219857   5.915   2.205   4.433
 6320SOL     OW19858   0.270   0.063   3.712
 6320SOL    HW119859   0.185   0.113   3.690
 6320SOL    HW219860   0.247   6.988   3.742
 6321SOL     OW19861   4.946   3.768   0.037
 6321SOL    HW119862   4.887   3.831   0.087
 6321SOL    HW219863   5.042   3.791   0.054
 6322SOL     OW19864   2.913   1.259   0.624
 6322SOL    HW119865   2.913   1.161   0.604
 6322SOL    HW219866   2.927   1.273   0.722
 6323SOL     OW19867   1.910   2.495   1.069
 6323SOL    HW119868   1.855   2.478   0.987
 6323SOL    HW219869   1.876   2.576   1.117
 6324SOL     OW19870   4.045   1.474   0.647
 6324SOL    HW119871   4.081   1.445   0.735
 6324SOL    HW219872   4.088   1.560   0.620
 6325SOL     OW19873   2.292   2.677   3.115
 6325SOL    HW119874   2.373   2.625   3.087
 6325SOL    HW219875   2.305   2.711   3.208
 6326SOL     OW19876   5.087   5.585   5.731
 6326SOL    HW119877   4.996   5.558   5.699
 6326SOL    HW219878   5.148   5.506   5.730
 6327SOL     OW19879   0.036   1.308   3.897
 6327SOL    HW119880   0.011   1.373   3.969
 6327SOL    HW219881   0.129   1.327   3.865
 6328SOL     OW19882   4.594   3.572   0.102
 6328SOL    HW119883   4.498   3.544   0.103
 6328SOL    HW219884   4.644   3.519   0.171
 6329SOL     OW19885   0.568   2.859   5.118
 6329SOL    HW119886   0.665   2.837   5.111
 6329SOL    HW219887   0.532   2.881   5.027
 6330SOL     OW19888   5.424   0.220   2.404
 6330SOL    HW119889   5.455   0.148   2.465
 6330SOL    HW219890   5.386   0.296   2.457
 6331SOL     OW19891   6.488   2.908   4.525
 6331SOL    HW119892   6.496   2.965   4.607
 6331SOL    HW219893   6.402   2.856   4.529
 6332SOL     OW19894   1.206   2.571   1.599
 6332SOL    HW119895   1.285   2.571   1.537
 6332SOL    HW219896   1.210   2.490   1.657
 6333SOL     OW19897   4.906   6.741   6.406
 6333SOL    HW119898   4.834   6.689   6.452
 6333SOL    HW219899   4.891   6.738   6.307
 6334SOL     OW19900   2.780   1.453   2.131
 6334SOL    HW119901   2.699   1.429   2.077
 6334SOL    HW219902   2.752   1.470   2.226
 6335SOL     OW19903   4.900   1.069   0.649
 6335SOL    HW119904   4.813   1.024   0.667
 6335SOL    HW219905   4.913   1.144   0.714
 6336SOL     OW19906   0.010   4.132   6.577
 6336SOL    HW119907   0.096   4.149   6.625
 6336SOL    HW219908   6.959   4.098   6.641
 6337SOL     OW19909   4.052   6.132   4.760
 6337SOL    HW119910   3.968   6.134   4.706
 6337SOL    HW219911   4.127   6.096   4.704
 6338SOL     OW19912   3.098   1.560   4.482
 6338SOL    HW119913   3.160   1.614   4.426
 6338SOL    HW219914   3.139   1.471   4.503
 6339SOL     OW19915   1.177   3.687   3.189
 6339SOL    HW119916   1.244   3.622   3.151
 6339SOL    HW219917   1.108   3.707   3.120
 6340SOL     OW19918   2.460   3.294   1.135
 6340SOL    HW119919   2.383   3.341   1.091
 6340SOL    HW219920   2.431   3.261   1.225
 6341SOL     OW19921   0.906   3.462   3.556
 6341SOL    HW119922   0.896   3.435   3.652
 6341SOL    HW219923   1.002   3.452   3.528
 6342SOL     OW19924   3.462   1.314   0.471
 6342SOL    HW119925   3.442   1.242   0.404
 6342SOL    HW219926   3.556   1.346   0.458
 6343SOL     OW19927   3.863   6.478   6.639
 6343SOL    HW119928   3.887   6.441   6.729
 6343SOL    HW219929   3.833   6.404   6.580
 6344SOL     OW19930   5.920   2.203   4.024
 6344SOL    HW119931   5.839   2.149   4.050
 6344SOL    HW219932   5.890   2.289   3.983
 6345SOL     OW19933   4.903   3.039   1.739
 6345SOL    HW119934   4.848   3.027   1.821
 6345SOL    HW219935   4.861   3.108   1.680
 6346SOL     OW19936   6.648   4.433   4.885
 6346SOL    HW119937   6.580   4.489   4.838
 6346SOL    HW219938   6.619   4.419   4.980
 6347SOL     OW19939   2.535   1.789   1.929
 6347SOL    HW119940   2.606   1.856   1.906
 6347SOL    HW219941   2.569   1.697   1.910
 6348SOL     OW19942   0.970   2.324   6.067
 6348SOL    HW119943   1.006   2.315   6.160
 6348SOL    HW219944   1.030   2.383   6.013
 6349SOL     OW19945   1.383   0.381   0.230
 6349SOL    HW119946   1.470   0.419   0.261
 6349SOL    HW219947   1.308   0.424   0.280
 6350SOL     OW19948   0.815   5.133   2.588
 6350SOL    HW119949   0.896   5.185   2.617
 6350SOL    HW219950   0.801   5.056   2.651
 6351SOL     OW19951   6.624   4.412   3.856
 6351SOL    HW119952   6.659   4.500   3.887
 6351SOL    HW219953   6.637   4.405   3.757
 6352SOL     OW19954   2.636   0.350   3.885
 6352SOL    HW119955   2.564   0.419   3.873
 6352SOL    HW219956   2.634   0.317   3.980
 6353SOL     OW19957   2.481   5.554   0.527
 6353SOL    HW119958   2.534   5.565   0.443
 6353SOL    HW219959   2.473   5.457   0.550
 6354SOL     OW19960   3.627   6.052   2.590
 6354SOL    HW119961   3.583   6.140   2.608
 6354SOL    HW219962   3.651   6.009   2.677
 6355SOL     OW19963   3.032   5.827   0.585
 6355SOL    HW119964   3.091   5.858   0.510
 6355SOL    HW219965   3.002   5.905   0.639
 6356SOL     OW19966   5.622   5.221   0.303
 6356SOL    HW119967   5.597   5.145   0.243
 6356SOL    HW219968   5.667   5.185   0.385
 6357SOL     OW19969   5.664   2.289   1.959
 6357SOL    HW119970   5.651   2.353   2.035
 6357SOL    HW219971   5.686   2.340   1.876
 6358SOL     OW19972   0.899   2.524   0.075
 6358SOL    HW119973   0.992   2.523   0.038
 6358SOL    HW219974   0.833   2.523   7.017
 6359SOL     OW19975   6.087   6.221   0.684
 6359SOL    HW119976   6.061   6.315   0.708
 6359SOL    HW219977   6.160   6.224   0.615
 6360SOL     OW19978   0.471   3.568   4.226
 6360SOL    HW119979   0.559   3.612   4.238
 6360SOL    HW219980   0.423   3.564   4.313
 6361SOL     OW19981   0.387   0.977   0.823
 6361SOL    HW119982   0.452   0.981   0.748
 6361SOL    HW219983   0.294   0.974   0.787
 6362SOL     OW19984   1.568   6.259   0.117
 6362SOL    HW119985   1.641   6.261   0.186
 6362SOL    HW219986   1.583   6.183   0.054
 6363SOL     OW19987   2.815   4.811   4.043
 6363SOL    HW119988   2.744   4.765   3.990
 6363SOL    HW219989   2.801   4.793   4.141
 6364SOL     OW19990   2.282   2.476   5.344
 6364SOL    HW119991   2.250   2.437   5.258
 6364SOL    HW219992   2.339   2.555   5.326
 6365SOL     OW19993   5.632   5.911   5.078
 6365SOL    HW119994   5.626   5.882   4.983
 6365SOL    HW219995   5.554   5.971   5.100
 6366SOL     OW19996   6.803   6.768   4.909
 6366SOL    HW119997   6.774   6.688   4.857
 6366SOL    HW219998   6.811   6.847   4.848
 6367SOL     OW19999   3.292   1.941   2.610
 6367SOL    HW120000   3.218   1.978   2.555
 6367SOL    HW220001   3.255   1.904   2.695
 6368SOL     OW20002   4.178   4.707   4.319
 6368SOL    HW120003   4.216   4.709   4.411
 6368SOL    HW220004   4.114   4.783   4.307
 6369SOL     OW20005   2.049   6.734   4.454
 6369SOL    HW120006   2.112   6.659   4.477
 6369SOL    HW220007   2.052   6.803   4.527
 6370SOL     OW20008   5.252   4.125   3.537
 6370SOL    HW120009   5.298   4.044   3.499
 6370SOL    HW220010   5.187   4.160   3.470
 6371SOL     OW20011   5.569   3.849   1.635
 6371SOL    HW120012   5.614   3.938   1.622
 6371SOL    HW220013   5.622   3.779   1.587
 6372SOL     OW20014   0.560   1.366   1.743
 6372SOL    HW120015   0.545   1.338   1.649
 6372SOL    HW220016   0.612   1.295   1.791
 6373SOL     OW20017   5.979   4.008   2.231
 6373SOL    HW120018   5.988   4.066   2.150
 6373SOL    HW220019   5.939   3.921   2.206
 6374SOL     OW20020   4.414   2.642   0.320
 6374SOL    HW120021   4.507   2.676   0.307
 6374SOL    HW220022   4.415   2.572   0.392
 6375SOL     OW20023   0.874   2.618   1.790
 6375SOL    HW120024   0.815   2.693   1.762
 6375SOL    HW220025   0.850   2.535   1.740
 6376SOL     OW20026   3.820   1.728   5.488
 6376SOL    HW120027   3.788   1.733   5.393
 6376SOL    HW220028   3.786   1.807   5.539
 6377SOL     OW20029   6.694   1.247   5.616
 6377SOL    HW120030   6.751   1.281   5.691
 6377SOL    HW220031   6.707   1.305   5.536
 6378SOL     OW20032   4.886   5.627   3.074
 6378SOL    HW120033   4.828   5.562   3.025
 6378SOL    HW220034   4.871   5.719   3.039
 6379SOL     OW20035   0.926   4.579   5.485
 6379SOL    HW120036   1.005   4.561   5.427
 6379SOL    HW220037   0.934   4.670   5.526
 6380SOL     OW20038   6.712   3.121   4.125
 6380SOL    HW120039   6.654   3.089   4.199
 6380SOL    HW220040   6.808   3.101   4.146
 6381SOL     OW20041   4.400   3.024   0.345
 6381SOL    HW120042   4.332   2.999   0.414
 6381SOL    HW220043   4.394   2.962   0.268
 6382SOL     OW20044   3.481   1.928   1.353
 6382SOL    HW120045   3.433   1.874   1.284
 6382SOL    HW220046   3.414   1.979   1.408
 6383SOL     OW20047   1.671   2.346   2.166
 6383SOL    HW120048   1.707   2.407   2.096
 6383SOL    HW220049   1.740   2.332   2.237
 6384SOL     OW20050   5.550   3.114   1.967
 6384SOL    HW120051   5.650   3.106   1.967
 6384SOL    HW220052   5.519   3.142   1.877
 6385SOL     OW20053   6.800   3.833   1.695
 6385SOL    HW120054   6.850   3.835   1.608
 6385SOL    HW220055   6.849   3.774   1.760
 6386SOL     OW20056   2.050   3.549   0.092
 6386SOL    HW120057   2.052   3.541   0.192
 6386SOL    HW220058   1.961   3.585   0.064
 6387SOL     OW20059   5.958   1.409   0.332
 6387SOL    HW120060   5.963   1.493   0.277
 6387SOL    HW220061   6.047   1.389   0.371
 6388SOL     OW20062   6.057   4.694   2.116
 6388SOL    HW120063   6.121   4.672   2.190
 6388SOL    HW220064   5.973   4.642   2.128
 6389SOL     OW20065   1.339   6.849   1.421
 6389SOL    HW120066   1.272   6.822   1.490
 6389SOL    HW220067   1.304   6.927   1.369
 6390SOL     OW20068   6.317   0.485   5.902
 6390SOL    HW120069   6.415   0.467   5.897
 6390SOL    HW220070   6.299   0.580   5.875
 6391SOL     OW20071   1.466   1.397   6.315
 6391SOL    HW120072   1.563   1.419   6.312
 6391SOL    HW220073   1.412   1.481   6.311
 6392SOL     OW20074   3.056   6.335   3.609
 6392SOL    HW120075   2.994   6.309   3.682
 6392SOL    HW220076   3.145   6.292   3.623
 6393SOL     OW20077   5.743   5.983   1.557
 6393SOL    HW120078   5.731   6.048   1.482
 6393SOL    HW220079   5.795   6.026   1.630
 6394SOL     OW20080   1.536   4.261   1.252
 6394SOL    HW120081   1.507   4.225   1.164
 6394SOL    HW220082   1.492   4.350   1.268
 6395SOL     OW20083   6.980   3.385   2.461
 6395SOL    HW120084   6.971   3.391   2.560
 6395SOL    HW220085   0.044   3.434   2.431
 6396SOL     OW20086   6.144   3.675   5.648
 6396SOL    HW120087   6.132   3.588   5.600
 6396SOL    HW220088   6.232   3.675   5.695
 6397SOL     OW20089   6.074   0.975   2.155
 6397SOL    HW120090   6.159   0.929   2.129
 6397SOL    HW220091   6.033   1.017   2.074
 6398SOL     OW20092   1.142   6.715   1.582
 6398SOL    HW120093   1.168   6.619   1.571
 6398SOL    HW220094   1.155   6.742   1.678
 6399SOL     OW20095   1.654   0.099   0.087
 6399SOL    HW120096   1.558   0.101   0.115
 6399SOL    HW220097   1.712   0.085   0.167
 6400SOL     OW20098   2.132   5.115   2.866
 6400SOL    HW120099   2.217   5.136   2.817
 6400SOL    HW220100   2.081   5.200   2.882
 6401SOL     OW20101   5.217   5.037   3.461
 6401SOL    HW120102   5.227   5.009   3.557
 6401SOL    HW220103   5.274   4.979   3.403
 6402SOL     OW20104   2.069   3.505   3.688
 6402SOL    HW120105   2.111   3.454   3.613
 6402SOL    HW220106   2.096   3.464   3.775
 6403SOL     OW20107   5.704   6.464   5.488
 6403SOL    HW120108   5.781   6.406   5.515
 6403SOL    HW220109   5.714   6.491   5.392
 6404SOL     OW20110   3.972   1.463   2.409
 6404SOL    HW120111   3.968   1.563   2.417
 6404SOL    HW220112   4.064   1.432   2.435
 6405SOL     OW20113   4.608   1.562   3.703
 6405SOL    HW120114   4.535   1.510   3.658
 6405SOL    HW220115   4.629   1.520   3.791
 6406SOL     OW20116   1.487   3.254   2.337
 6406SOL    HW120117   1.429   3.285   2.261
 6406SOL    HW220118   1.583   3.272   2.316
 6407SOL     OW20119   1.779   6.534   3.360
 6407SOL    HW120120   1.859   6.510   3.415
 6407SOL    HW220121   1.738   6.450   3.324
 6408SOL     OW20122   6.021   0.770   0.840
 6408SOL    HW120123   6.018   0.854   0.787
 6408SOL    HW220124   6.087   0.707   0.799
 6409SOL     OW20125   0.193   4.903   3.201
 6409SOL    HW120126   0.222   4.876   3.293
 6409SOL    HW220127   0.103   4.864   3.182
 6410SOL     OW20128   2.042   0.790   6.806
 6410SOL    HW120129   2.117   0.813   6.868
 6410SOL    HW220130   2.013   0.872   6.756
 6411SOL     OW20131   1.115   3.120   2.148
 6411SOL    HW120132   1.101   3.065   2.230
 6411SOL    HW220133   1.160   3.206   2.172
 6412SOL     OW20134   2.590   0.594   0.024
 6412SOL    HW120135   2.634   0.520   0.074
 6412SOL    HW220136   2.523   0.556   6.977
 6413SOL     OW20137   3.979   4.805   4.652
 6413SOL    HW120138   4.010   4.831   4.744
 6413SOL    HW220139   3.915   4.729   4.659
 6414SOL     OW20140   6.436   6.449   6.614
 6414SOL    HW120141   6.500   6.443   6.691
 6414SOL    HW220142   6.346   6.416   6.643
 6415SOL     OW20143   1.600   3.111   4.004
 6415SOL    HW120144   1.585   3.051   3.925
 6415SOL    HW220145   1.611   3.205   3.972
 6416SOL     OW20146   2.770   6.813   6.521
 6416SOL    HW120147   2.789   6.747   6.593
 6416SOL    HW220148   2.843   6.882   6.519
 6417SOL     OW20149   5.127   2.349   0.573
 6417SOL    HW120150   5.202   2.291   0.605
 6417SOL    HW220151   5.065   2.368   0.649
 6418SOL     OW20152   5.252   4.139   2.650
 6418SOL    HW120153   5.250   4.087   2.565
 6418SOL    HW220154   5.200   4.090   2.720
 6419SOL     OW20155   0.219   5.309   5.137
 6419SOL    HW120156   0.161   5.230   5.161
 6419SOL    HW220157   0.177   5.358   5.061
 6420SOL     OW20158   1.750   1.714   3.842
 6420SOL    HW120159   1.814   1.645   3.875
 6420SOL    HW220160   1.679   1.671   3.788
 6421SOL     OW20161   5.177   0.598   0.860
 6421SOL    HW120162   5.190   0.648   0.946
 6421SOL    HW220163   5.126   0.514   0.879
 6422SOL     OW20164   6.598   1.339   5.361
 6422SOL    HW120165   6.513   1.289   5.348
 6422SOL    HW220166   6.603   1.415   5.296
 6423SOL     OW20167   4.676   5.215   4.938
 6423SOL    HW120168   4.606   5.152   4.904
 6423SOL    HW220169   4.632   5.300   4.968
 6424SOL     OW20170   1.241   3.601   4.656
 6424SOL    HW120171   1.329   3.580   4.699
 6424SOL    HW220172   1.212   3.693   4.684
 6425SOL     OW20173   0.176   5.666   2.682
 6425SOL    HW120174   0.201   5.594   2.616
 6425SOL    HW220175   0.228   5.653   2.766
 6426SOL     OW20176   5.373   5.161   3.895
 6426SOL    HW120177   5.304   5.134   3.962
 6426SOL    HW220178   5.334   5.156   3.803
 6427SOL     OW20179   2.895   3.700   3.133
 6427SOL    HW120180   2.841   3.735   3.057
 6427SOL    HW220181   2.951   3.774   3.170
 6428SOL     OW20182   5.488   3.416   0.034
 6428SOL    HW120183   5.417   3.428   0.102
 6428SOL    HW220184   5.572   3.461   0.064
 6429SOL     OW20185   1.204   0.465   5.462
 6429SOL    HW120186   1.165   0.498   5.548
 6429SOL    HW220187   1.152   0.504   5.386
 6430SOL     OW20188   6.525   0.794   4.644
 6430SOL    HW120189   6.501   0.879   4.598
 6430SOL    HW220190   6.500   0.799   4.741
 6431SOL     OW20191   4.504   5.067   2.940
 6431SOL    HW120192   4.579   5.001   2.929
 6431SOL    HW220193   4.520   5.123   3.021
 6432SOL     OW20194   3.659   4.193   6.271
 6432SOL    HW120195   3.741   4.250   6.267
 6432SOL    HW220196   3.595   4.222   6.200
 6433SOL     OW20197   3.463   5.346   0.054
 6433SOL    HW120198   3.410   5.264   0.032
 6433SOL    HW220199   3.457   5.410   6.995
 6434SOL     OW20200   2.516   6.679   5.986
 6434SOL    HW120201   2.527   6.622   5.904
 6434SOL    HW220202   2.549   6.771   5.968
 6435SOL     OW20203   6.403   0.108   0.866
 6435SOL    HW120204   6.478   0.162   0.828
 6435SOL    HW220205   6.440   0.037   0.927
 6436SOL     OW20206   0.928   3.436   3.137
 6436SOL    HW120207   1.009   3.398   3.182
 6436SOL    HW220208   0.850   3.375   3.153
 6437SOL     OW20209   1.339   2.122   5.973
 6437SOL    HW120210   1.361   2.194   6.039
 6437SOL    HW220211   1.246   2.134   5.940
 6438SOL     OW20212   1.424   4.823   6.330
 6438SOL    HW120213   1.330   4.791   6.319
 6438SOL    HW220214   1.484   4.773   6.268
 6439SOL     OW20215   6.063   0.862   3.163
 6439SOL    HW120216   6.119   0.890   3.085
 6439SOL    HW220217   6.093   0.912   3.245
 6440SOL     OW20218   2.859   0.736   6.168
 6440SOL    HW120219   2.863   0.683   6.083
 6440SOL    HW220220   2.946   0.784   6.182
 6441SOL     OW20221   0.068   1.278   1.946
 6441SOL    HW120222   0.150   1.228   1.919
 6441SOL    HW220223   0.021   1.228   2.020
 6442SOL     OW20224   2.390   2.009   4.814
 6442SOL    HW120225   2.435   1.922   4.794
 6442SOL    HW220226   2.459   2.082   4.820
 6443SOL     OW20227   3.479   2.355   6.110
 6443SOL    HW120228   3.527   2.267   6.107
 6443SOL    HW220229   3.512   2.408   6.188
 6444SOL     OW20230   6.639   2.641   4.602
 6444SOL    HW120231   6.597   2.731   4.591
 6444SOL    HW220232   6.601   2.578   4.534
 6445SOL     OW20233   4.114   3.311   3.207
 6445SOL    HW120234   4.208   3.277   3.206
 6445SOL    HW220235   4.115   3.411   3.209
 6446SOL     OW20236   0.969   2.181   0.251
 6446SOL    HW120237   0.882   2.163   0.206
 6446SOL    HW220238   1.036   2.112   0.224
 6447SOL     OW20239   6.357   4.365   1.876
 6447SOL    HW120240   6.265   4.376   1.913
 6447SOL    HW220241   6.404   4.453   1.876
 6448SOL     OW20242   5.240   5.167   1.635
 6448SOL    HW120243   5.192   5.235   1.579
 6448SOL    HW220244   5.266   5.207   1.722
 6449SOL     OW20245   2.751   4.973   2.014
 6449SOL    HW120246   2.835   4.958   1.962
 6449SOL    HW220247   2.750   4.911   2.093
 6450SOL     OW20248   1.470   3.862   0.173
 6450SOL    HW120249   1.416   3.881   0.091
 6450SOL    HW220250   1.445   3.771   0.208
 6451SOL     OW20251   2.857   2.009   5.784
 6451SOL    HW120252   2.903   2.073   5.723
 6451SOL    HW220253   2.925   1.962   5.840
 6452SOL     OW20254   5.029   3.549   2.549
 6452SOL    HW120255   4.969   3.628   2.564
 6452SOL    HW220256   5.001   3.475   2.610
 6453SOL     OW20257   2.829   0.012   1.514
 6453SOL    HW120258   2.744   0.062   1.497
 6453SOL    HW220259   2.824   6.986   1.603
 6454SOL     OW20260   0.259   1.784   2.045
 6454SOL    HW120261   0.261   1.686   2.022
 6454SOL    HW220262   0.353   1.817   2.056
 6455SOL     OW20263   6.721   3.920   3.563
 6455SOL    HW120264   6.778   3.944   3.484
 6455SOL    HW220265   6.669   3.836   3.542
 6456SOL     OW20266   1.087   0.617   2.933
 6456SOL    HW120267   1.110   0.614   3.030
 6456SOL    HW220268   1.025   0.693   2.915
 6457SOL     OW20269   4.871   6.447   1.934
 6457SOL    HW120270   4.841   6.424   1.841
 6457SOL    HW220271   4.815   6.522   1.969
 6458SOL     OW20272   1.464   5.177   5.257
 6458SOL    HW120273   1.550   5.228   5.257
 6458SOL    HW220274   1.390   5.235   5.292
 6459SOL     OW20275   6.013   2.486   2.540
 6459SOL    HW120276   6.019   2.543   2.622
 6459SOL    HW220277   6.102   2.443   2.522
 6460SOL     OW20278   5.520   6.154   5.869
 6460SOL    HW120279   5.489   6.066   5.904
 6460SOL    HW220280   5.607   6.178   5.912
 6461SOL     OW20281   3.174   5.113   0.216
 6461SOL    HW120282   3.196   5.134   0.121
 6461SOL    HW220283   3.223   5.030   0.244
 6462SOL     OW20284   0.604   3.107   4.576
 6462SOL    HW120285   0.607   3.206   4.566
 6462SOL    HW220286   0.541   3.083   4.650
 6463SOL     OW20287   5.301   6.754   0.653
 6463SOL    HW120288   5.304   6.655   0.666
 6463SOL    HW220289   5.238   6.776   0.579
 6464SOL     OW20290   1.432   6.094   5.077
 6464SOL    HW120291   1.358   6.027   5.087
 6464SOL    HW220292   1.446   6.141   5.164
 6465SOL     OW20293   6.691   2.486   2.548
 6465SOL    HW120294   6.638   2.425   2.606
 6465SOL    HW220295   6.787   2.484   2.577
 6466SOL     OW20296   6.877   1.908   6.660
 6466SOL    HW120297   6.953   1.857   6.620
 6466SOL    HW220298   6.913   1.990   6.705
 6467SOL     OW20299   4.505   0.698   0.874
 6467SOL    HW120300   4.504   0.681   0.775
 6467SOL    HW220301   4.525   0.612   0.922
 6468SOL     OW20302   3.539   6.209   1.524
 6468SOL    HW120303   3.597   6.215   1.605
 6468SOL    HW220304   3.530   6.299   1.482
 6469SOL     OW20305   3.320   2.146   4.072
 6469SOL    HW120306   3.363   2.139   4.162
 6469SOL    HW220307   3.220   2.146   4.084
 6470SOL     OW20308   6.180   2.570   6.901
 6470SOL    HW120309   6.091   2.594   6.941
 6470SOL    HW220310   6.218   2.651   6.855
 6471SOL     OW20311   0.784   6.465   5.214
 6471SOL    HW120312   0.842   6.437   5.291
 6471SOL    HW220313   0.739   6.552   5.236
 6472SOL     OW20314   6.120   5.995   2.918
 6472SOL    HW120315   6.115   5.911   2.972
 6472SOL    HW220316   6.203   5.994   2.862
 6473SOL     OW20317   1.864   2.082   5.280
 6473SOL    HW120318   1.943   2.141   5.298
 6473SOL    HW220319   1.866   2.004   5.342
 6474SOL     OW20320   3.715   5.598   5.538
 6474SOL    HW120321   3.810   5.566   5.540
 6474SOL    HW220322   3.664   5.544   5.471
 6475SOL     OW20323   5.680   4.996   3.693
 6475SOL    HW120324   5.673   5.086   3.737
 6475SOL    HW220325   5.664   5.006   3.595
 6476SOL     OW20326   4.566   3.008   6.256
 6476SOL    HW120327   4.534   3.044   6.343
 6476SOL    HW220328   4.562   3.081   6.187
 6477SOL     OW20329   6.529   5.107   0.643
 6477SOL    HW120330   6.505   5.075   0.735
 6477SOL    HW220331   6.583   5.191   0.649
 6478SOL     OW20332   3.116   6.544   2.267
 6478SOL    HW120333   3.098   6.589   2.179
 6478SOL    HW220334   3.044   6.568   2.332
 6479SOL     OW20335   3.076   4.996   4.198
 6479SOL    HW120336   3.140   4.919   4.198
 6479SOL    HW220337   3.057   5.023   4.104
 6480SOL     OW20338   2.251   1.373   6.983
 6480SOL    HW120339   2.222   1.351   6.890
 6480SOL    HW220340   2.350   1.375   6.988
 6481SOL     OW20341   3.249   2.645   1.729
 6481SOL    HW120342   3.324   2.582   1.711
 6481SOL    HW220343   3.281   2.739   1.716
 6482SOL     OW20344   6.527   2.063   5.939
 6482SOL    HW120345   6.470   1.994   5.983
 6482SOL    HW220346   6.472   2.113   5.872
 6483SOL     OW20347   0.712   6.388   3.889
 6483SOL    HW120348   0.626   6.439   3.883
 6483SOL    HW220349   0.727   6.360   3.984
 6484SOL     OW20350   2.608   1.779   3.013
 6484SOL    HW120351   2.699   1.767   2.975
 6484SOL    HW220352   2.609   1.853   3.080
 6485SOL     OW20353   1.770   5.687   4.225
 6485SOL    HW120354   1.772   5.772   4.172
 6485SOL    HW220355   1.821   5.616   4.176
 6486SOL     OW20356   0.947   5.289   2.873
 6486SOL    HW120357   0.985   5.376   2.841
 6486SOL    HW220358   0.859   5.305   2.918
 6487SOL     OW20359   1.055   6.560   4.832
 6487SOL    HW120360   0.977   6.500   4.850
 6487SOL    HW220361   1.098   6.585   4.919
 6488SOL     OW20362   4.101   5.913   4.954
 6488SOL    HW120363   4.155   5.969   5.017
 6488SOL    HW220364   4.097   5.958   4.865
 6489SOL     OW20365   3.077   3.588   6.381
 6489SOL    HW120366   2.978   3.604   6.383
 6489SOL    HW220367   3.096   3.508   6.323
 6490SOL     OW20368   2.819   1.596   6.509
 6490SOL    HW120369   2.919   1.598   6.514
 6490SOL    HW220370   2.791   1.609   6.414
 6491SOL     OW20371   2.961   1.018   1.785
 6491SOL    HW120372   2.951   1.115   1.762
 6491SOL    HW220373   2.975   1.008   1.883
 6492SOL     OW20374   3.888   3.365   5.300
 6492SOL    HW120375   3.865   3.456   5.267
 6492SOL    HW220376   3.831   3.342   5.379
 6493SOL     OW20377   1.343   4.435   6.526
 6493SOL    HW120378   1.391   4.348   6.515
 6493SOL    HW220379   1.397   4.495   6.585
 6494SOL     OW20380   6.944   6.584   2.662
 6494SOL    HW120381   0.025   6.568   2.667
 6494SOL    HW220382   6.899   6.499   2.635
 6495SOL     OW20383   6.605   0.630   4.234
 6495SOL    HW120384   6.520   0.636   4.286
 6495SOL    HW220385   6.600   0.553   4.170
 6496SOL     OW20386   5.709   6.661   1.777
 6496SOL    HW120387   5.721   6.568   1.743
 6496SOL    HW220388   5.617   6.671   1.816
 6497SOL     OW20389   1.177   0.494   0.852
 6497SOL    HW120390   1.171   0.557   0.774
 6497SOL    HW220391   1.131   0.408   0.829
 6498SOL     OW20392   0.809   3.701   3.946
 6498SOL    HW120393   0.896   3.751   3.942
 6498SOL    HW220394   0.738   3.756   3.903
 6499SOL     OW20395   5.444   3.714   4.432
 6499SOL    HW120396   5.471   3.671   4.518
 6499SOL    HW220397   5.404   3.645   4.371
 6500SOL     OW20398   0.083   4.072   2.250
 6500SOL    HW120399   0.107   4.145   2.186
 6500SOL    HW220400   0.166   4.031   2.287
 6501SOL     OW20401   0.141   1.333   1.405
 6501SOL    HW120402   0.081   1.316   1.484
 6501SOL    HW220403   0.143   1.253   1.346
 6502SOL     OW20404   6.802   3.237   1.532
 6502SOL    HW120405   6.897   3.216   1.555
 6502SOL    HW220406   6.800   3.303   1.456
 6503SOL     OW20407   5.384   1.071   3.725
 6503SOL    HW120408   5.395   1.132   3.804
 6503SOL    HW220409   5.461   1.007   3.722
 6504SOL     OW20410   4.451   6.219   0.030
 6504SOL    HW120411   4.467   6.289   0.099
 6504SOL    HW220412   4.538   6.190   7.009
 6505SOL     OW20413   4.304   6.790   6.199
 6505SOL    HW120414   4.228   6.790   6.264
 6505SOL    HW220415   4.310   6.880   6.156
 6506SOL     OW20416   7.009   3.290   3.359
 6506SOL    HW120417   0.083   3.300   3.319
 6506SOL    HW220418   7.011   3.220   3.429
 6507SOL     OW20419   2.836   5.520   6.238
 6507SOL    HW120420   2.819   5.619   6.241
 6507SOL    HW220421   2.749   5.472   6.230
 6508SOL     OW20422   1.702   0.369   2.878
 6508SOL    HW120423   1.740   0.278   2.859
 6508SOL    HW220424   1.634   0.392   2.809
 6509SOL     OW20425   4.819   1.723   5.035
 6509SOL    HW120426   4.906   1.770   5.042
 6509SOL    HW220427   4.779   1.711   5.126
 6510SOL     OW20428   4.914   5.025   0.063
 6510SOL    HW120429   4.999   4.983   0.029
 6510SOL    HW220430   4.925   5.124   0.065
 6511SOL     OW20431   4.035   1.172   5.194
 6511SOL    HW120432   4.134   1.189   5.190
 6511SOL    HW220433   3.997   1.218   5.274
 6512SOL     OW20434   3.325   6.690   2.555
 6512SOL    HW120435   3.232   6.726   2.543
 6512SOL    HW220436   3.333   6.602   2.508
 6513SOL     OW20437   2.030   5.996   4.072
 6513SOL    HW120438   1.931   6.008   4.063
 6513SOL    HW220439   2.075   6.085   4.071
 6514SOL     OW20440   5.783   0.359   4.581
 6514SOL    HW120441   5.872   0.338   4.540
 6514SOL    HW220442   5.783   0.326   4.676
 6515SOL     OW20443   1.319   3.600   2.330
 6515SOL    HW120444   1.351   3.623   2.422
 6515SOL    HW220445   1.331   3.679   2.270
 6516SOL     OW20446   6.554   3.249   1.417
 6516SOL    HW120447   6.623   3.203   1.473
 6516SOL    HW220448   6.504   3.315   1.473
 6517SOL     OW20449   0.125   1.879   0.990
 6517SOL    HW120450   0.092   1.973   0.985
 6517SOL    HW220451   0.114   1.845   1.084
 6518SOL     OW20452   0.171   0.251   2.090
 6518SOL    HW120453   0.241   0.323   2.091
 6518SOL    HW220454   0.134   0.239   2.182
 6519SOL     OW20455   0.500   1.422   2.883
 6519SOL    HW120456   0.466   1.358   2.953
 6519SOL    HW220457   0.594   1.448   2.905
 6520SOL     OW20458   6.872   5.442   6.834
 6520SOL    HW120459   6.818   5.492   6.767
 6520SOL    HW220460   6.815   5.420   6.913
 6521SOL     OW20461   1.998   2.824   3.849
 6521SOL    HW120462   2.018   2.726   3.845
 6521SOL    HW220463   1.904   2.840   3.821
 6522SOL     OW20464   2.477   4.474   5.515
 6522SOL    HW120465   2.490   4.429   5.426
 6522SOL    HW220466   2.380   4.476   5.538
 6523SOL     OW20467   3.751   0.286   6.903
 6523SOL    HW120468   3.740   0.192   6.871
 6523SOL    HW220469   3.836   0.324   6.867
 6524SOL     OW20470   2.824   2.652   1.532
 6524SOL    HW120471   2.741   2.707   1.524
 6524SOL    HW220472   2.901   2.711   1.555
 6525SOL     OW20473   2.004   5.057   3.338
 6525SOL    HW120474   2.074   5.119   3.372
 6525SOL    HW220475   2.043   4.999   3.265
 6526SOL     OW20476   0.856   0.529   1.121
 6526SOL    HW120477   0.805   0.576   1.193
 6526SOL    HW220478   0.929   0.474   1.163
 6527SOL     OW20479   0.054   2.042   0.360
 6527SOL    HW120480   0.084   2.029   0.455
 6527SOL    HW220481   6.972   2.043   0.356
 6528SOL     OW20482   6.279   1.747   5.522
 6528SOL    HW120483   6.326   1.664   5.491
 6528SOL    HW220484   6.320   1.779   5.607
 6529SOL     OW20485   1.141   0.655   2.329
 6529SOL    HW120486   1.085   0.596   2.271
 6529SOL    HW220487   1.233   0.662   2.290
 6530SOL     OW20488   0.289   1.825   0.762
 6530SOL    HW120489   0.227   1.825   0.841
 6530SOL    HW220490   0.370   1.771   0.784
 6531SOL     OW20491   4.765   3.714   5.356
 6531SOL    HW120492   4.725   3.657   5.427
 6531SOL    HW220493   4.778   3.660   5.273
 6532SOL     OW20494   1.868   1.046   1.132
 6532SOL    HW120495   1.789   1.107   1.133
 6532SOL    HW220496   1.952   1.099   1.146
 6533SOL     OW20497   4.371   6.276   0.391
 6533SOL    HW120498   4.360   6.321   0.302
 6533SOL    HW220499   4.421   6.190   0.379
 6534SOL     OW20500   4.871   5.019   2.065
 6534SOL    HW120501   4.875   5.075   2.148
 6534SOL    HW220502   4.776   5.007   2.038
 6535SOL     OW20503   5.946   4.278   4.511
 6535SOL    HW120504   5.914   4.275   4.606
 6535SOL    HW220505   5.947   4.372   4.480
 6536SOL     OW20506   0.408   1.532   5.091
 6536SOL    HW120507   0.479   1.491   5.034
 6536SOL    HW220508   0.442   1.546   5.183
 6537SOL     OW20509   6.640   4.848   5.095
 6537SOL    HW120510   6.672   4.841   5.189
 6537SOL    HW220511   6.715   4.830   5.032
 6538SOL     OW20512   0.996   3.594   5.756
 6538SOL    HW120513   0.914   3.551   5.793
 6538SOL    HW220514   1.074   3.575   5.817
 6539SOL     OW20515   4.493   0.671   0.214
 6539SOL    HW120516   4.459   0.764   0.210
 6539SOL    HW220517   4.588   0.671   0.246
 6540SOL     OW20518   3.322   2.838   5.956
 6540SOL    HW120519   3.319   2.865   5.860
 6540SOL    HW220520   3.238   2.867   6.001
 6541SOL     OW20521   5.358   2.523   5.622
 6541SOL    HW120522   5.353   2.425   5.605
 6541SOL    HW220523   5.367   2.539   5.721
 6542SOL     OW20524   1.231   3.014   4.506
 6542SOL    HW120525   1.234   2.928   4.557
 6542SOL    HW220526   1.264   2.998   4.413
 6543SOL     OW20527   3.656   2.723   5.743
 6543SOL    HW120528   3.712   2.692   5.665
 6543SOL    HW220529   3.561   2.695   5.729
 6544SOL     OW20530   1.286   6.173   2.683
 6544SOL    HW120531   1.343   6.250   2.714
 6544SOL    HW220532   1.201   6.209   2.645
 6545SOL     OW20533   4.091   0.306   0.253
 6545SOL    HW120534   3.999   0.328   0.221
 6545SOL    HW220535   4.156   0.373   0.218
 6546SOL     OW20536   3.985   3.843   5.999
 6546SOL    HW120537   3.966   3.934   5.961
 6546SOL    HW220538   4.019   3.783   5.926
 6547SOL     OW20539   4.753   0.816   6.241
 6547SOL    HW120540   4.703   0.896   6.207
 6547SOL    HW220541   4.827   0.846   6.301
 6548SOL     OW20542   1.673   2.990   0.329
 6548SOL    HW120543   1.610   2.966   0.403
 6548SOL    HW220544   1.712   2.907   0.290
 6549SOL     OW20545   4.259   0.181   2.182
 6549SOL    HW120546   4.216   0.109   2.236
 6549SOL    HW220547   4.293   0.143   2.096
 6550SOL     OW20548   0.390   6.791   3.900
 6550SOL    HW120549   0.383   6.834   3.990
 6550SOL    HW220550   0.298   6.767   3.867
 6551SOL     OW20551   2.427   3.642   1.656
 6551SOL    HW120552   2.343   3.635   1.603
 6551SOL    HW220553   2.420   3.585   1.738
 6552SOL     OW20554   2.349   6.849   0.869
 6552SOL    HW120555   2.313   6.759   0.895
 6552SOL    HW220556   2.286   6.920   0.900
 6553SOL     OW20557   0.806   2.233   3.038
 6553SOL    HW120558   0.793   2.323   3.079
 6553SOL    HW220559   0.741   2.222   2.963
 6554SOL     OW20560   2.585   0.668   4.427
 6554SOL    HW120561   2.606   0.576   4.460
 6554SOL    HW220562   2.585   0.732   4.504
 6555SOL     OW20563   5.733   1.946   3.604
 6555SOL    HW120564   5.655   2.008   3.605
 6555SOL    HW220565   5.720   1.875   3.673
 6556SOL     OW20566   6.278   3.222   3.007
 6556SOL    HW120567   6.372   3.248   2.987
 6556SOL    HW220568   6.243   3.164   2.933
 6557SOL     OW20569   2.604   0.527   3.133
 6557SOL    HW120570   2.654   0.613   3.142
 6557SOL    HW220571   2.506   0.543   3.148
 6558SOL     OW20572   5.972   5.633   0.618
 6558SOL    HW120573   5.984   5.686   0.534
 6558SOL    HW220574   5.950   5.695   0.693
 6559SOL     OW20575   6.923   3.602   6.313
 6559SOL    HW120576   6.950   3.661   6.389
 6559SOL    HW220577   6.936   3.651   6.226
 6560SOL     OW20578   3.911   4.818   1.185
 6560SOL    HW120579   3.990   4.814   1.124
 6560SOL    HW220580   3.940   4.795   1.278
 6561SOL     OW20581   3.611   4.633   1.178
 6561SOL    HW120582   3.511   4.637   1.179
 6561SOL    HW220583   3.645   4.621   1.271
 6562SOL     OW20584   5.634   2.036   0.940
 6562SOL    HW120585   5.535   2.052   0.939
 6562SOL    HW220586   5.652   1.938   0.948
 6563SOL     OW20587   4.994   6.679   6.120
 6563SOL    HW120588   5.077   6.697   6.066
 6563SOL    HW220589   5.016   6.619   6.197
 6564SOL     OW20590   6.315   3.386   1.518
 6564SOL    HW120591   6.240   3.396   1.584
 6564SOL    HW220592   6.367   3.471   1.515
 6565SOL     OW20593   6.172   6.471   2.694
 6565SOL    HW120594   6.253   6.423   2.660
 6565SOL    HW220595   6.193   6.568   2.706
 6566SOL     OW20596   3.409   5.954   2.498
 6566SOL    HW120597   3.350   6.030   2.525
 6566SOL    HW220598   3.504   5.977   2.517
 6567SOL     OW20599   5.057   1.122   2.078
 6567SOL    HW120600   5.041   1.121   2.176
 6567SOL    HW220601   4.999   1.053   2.034
 6568SOL     OW20602   3.862   1.695   2.878
 6568SOL    HW120603   3.859   1.756   2.957
 6568SOL    HW220604   3.773   1.691   2.835
 6569SOL     OW20605   2.375   2.801   6.566
 6569SOL    HW120606   2.339   2.815   6.474
 6569SOL    HW220607   2.474   2.786   6.560
 6570SOL     OW20608   2.903   1.104   2.852
 6570SOL    HW120609   2.872   1.028   2.910
 6570SOL    HW220610   2.979   1.151   2.897
 6571SOL     OW20611   2.747   5.031   2.598
 6571SOL    HW120612   2.793   4.949   2.633
 6571SOL    HW220613   2.786   5.056   2.510
 6572SOL     OW20614   7.005   4.578   3.879
 6572SOL    HW120615   6.995   4.509   3.807
 6572SOL    HW220616   0.079   4.570   3.919
 6573SOL     OW20617   0.744   1.336   3.443
 6573SOL    HW120618   0.705   1.423   3.416
 6573SOL    HW220619   0.843   1.346   3.455
 6574SOL     OW20620   2.546   5.492   3.153
 6574SOL    HW120621   2.605   5.487   3.072
 6574SOL    HW220622   2.574   5.422   3.219
 6575SOL     OW20623   0.406   6.534   3.195
 6575SOL    HW120624   0.380   6.531   3.098
 6575SOL    HW220625   0.374   6.450   3.240
 6576SOL     OW20626   3.291   6.298   0.796
 6576SOL    HW120627   3.213   6.359   0.807
 6576SOL    HW220628   3.276   6.214   0.848
 6577SOL     OW20629   1.508   1.931   3.562
 6577SOL    HW120630   1.468   1.926   3.654
 6577SOL    HW220631   1.439   1.962   3.497
 6578SOL     OW20632   1.239   6.161   1.887
 6578SOL    HW120633   1.218   6.234   1.822
 6578SOL    HW220634   1.159   6.142   1.943
 6579SOL     OW20635   6.767   2.798   3.820
 6579SOL    HW120636   6.678   2.806   3.776
 6579SOL    HW220637   6.755   2.774   3.916
 6580SOL     OW20638   0.765   2.115   0.101
 6580SOL    HW120639   0.666   2.123   0.117
 6580SOL    HW220640   0.784   2.124   0.003
 6581SOL     OW20641   2.020   1.086   0.827
 6581SOL    HW120642   2.027   1.049   0.734
 6581SOL    HW220643   1.996   1.013   0.890
 6582SOL     OW20644   0.003   0.578   2.656
 6582SOL    HW120645   0.077   0.643   2.673
 6582SOL    HW220646   6.995   0.580   2.560
 6583SOL     OW20647   4.614   6.204   5.306
 6583SOL    HW120648   4.697   6.188   5.253
 6583SOL    HW220649   4.638   6.238   5.397
 6584SOL     OW20650   3.961   2.125   0.446
 6584SOL    HW120651   4.034   2.059   0.430
 6584SOL    HW220652   3.882   2.101   0.390
 6585SOL     OW20653   6.257   6.029   0.120
 6585SOL    HW120654   6.242   5.997   0.214
 6585SOL    HW220655   6.200   5.977   0.057
 6586SOL     OW20656   6.670   1.582   5.793
 6586SOL    HW120657   6.630   1.541   5.711
 6586SOL    HW220658   6.644   1.678   5.799
 6587SOL     OW20659   1.375   4.844   6.609
 6587SOL    HW120660   1.282   4.876   6.595
 6587SOL    HW220661   1.417   4.823   6.520
 6588SOL     OW20662   0.474   3.139   2.157
 6588SOL    HW120663   0.473   3.059   2.097
 6588SOL    HW220664   0.410   3.208   2.122
 6589SOL     OW20665   4.415   0.873   1.984
 6589SOL    HW120666   4.384   0.779   1.999
 6589SOL    HW220667   4.500   0.888   2.035
 6590SOL     OW20668   0.729   0.558   6.100
 6590SOL    HW120669   0.696   0.534   6.191
 6590SOL    HW220670   0.820   0.600   6.108
 6591SOL     OW20671   5.298   6.127   3.996
 6591SOL    HW120672   5.290   6.054   4.064
 6591SOL    HW220673   5.302   6.215   4.043
 6592SOL     OW20674   5.110   6.255   2.882
 6592SOL    HW120675   5.191   6.279   2.936
 6592SOL    HW220676   5.038   6.223   2.944
 6593SOL     OW20677   2.646   2.393   2.154
 6593SOL    HW120678   2.704   2.369   2.232
 6593SOL    HW220679   2.672   2.337   2.075
 6594SOL     OW20680   3.534   1.322   5.548
 6594SOL    HW120681   3.561   1.391   5.615
 6594SOL    HW220682   3.447   1.348   5.506
 6595SOL     OW20683   1.387   3.818   6.373
 6595SOL    HW120684   1.463   3.883   6.366
 6595SOL    HW220685   1.326   3.847   6.446
 6596SOL     OW20686   3.392   6.564   3.778
 6596SOL    HW120687   3.382   6.657   3.741
 6596SOL    HW220688   3.459   6.513   3.724
 6597SOL     OW20689   2.086   5.321   2.138
 6597SOL    HW120690   2.058   5.331   2.042
 6597SOL    HW220691   2.176   5.280   2.142
 6598SOL     OW20692   1.968   4.965   3.616
 6598SOL    HW120693   1.876   4.969   3.656
 6598SOL    HW220694   1.962   4.982   3.518
 6599SOL     OW20695   4.536   5.870   6.595
 6599SOL    HW120696   4.614   5.838   6.649
 6599SOL    HW220697   4.550   5.846   6.499
 6600SOL     OW20698   3.815   6.530   4.463
 6600SOL    HW120699   3.818   6.602   4.394
 6600SOL    HW220700   3.755   6.457   4.432
 6601SOL     OW20701   0.946   1.902   3.836
 6601SOL    HW120702   0.987   1.826   3.888
 6601SOL    HW220703   0.869   1.867   3.782
 6602SOL     OW20704   1.675   0.334   1.318
 6602SOL    HW120705   1.672   0.338   1.418
 6602SOL    HW220706   1.702   0.422   1.281
 6603SOL     OW20707   0.745   3.091   3.937
 6603SOL    HW120708   0.724   3.035   3.858
 6603SOL    HW220709   0.763   3.185   3.908
 6604SOL     OW20710   1.799   6.766   1.728
 6604SOL    HW120711   1.885   6.812   1.706
 6604SOL    HW220712   1.739   6.767   1.648
 6605SOL     OW20713   5.609   5.650   2.406
 6605SOL    HW120714   5.659   5.592   2.470
 6605SOL    HW220715   5.544   5.707   2.456
 6606SOL     OW20716   6.591   5.067   2.593
 6606SOL    HW120717   6.549   5.072   2.502
 6606SOL    HW220718   6.684   5.104   2.589
 6607SOL     OW20719   0.579   4.883   3.512
 6607SOL    HW120720   0.556   4.978   3.494
 6607SOL    HW220721   0.618   4.842   3.429
 6608SOL     OW20722   0.014   6.185   0.003
 6608SOL    HW120723   6.989   6.274   7.003
 6608SOL    HW220724   0.021   6.135   6.935
 6609SOL     OW20725   5.422   1.151   6.852
 6609SOL    HW120726   5.409   1.235   6.905
 6609SOL    HW220727   5.514   1.151   6.812
 6610SOL     OW20728   2.387   6.635   0.252
 6610SOL    HW120729   2.478   6.598   0.269
 6610SOL    HW220730   2.387   6.684   0.164
 6611SOL     OW20731   4.813   2.719   3.328
 6611SOL    HW120732   4.721   2.709   3.365
 6611SOL    HW220733   4.809   2.720   3.228
 6612SOL     OW20734   0.141   2.467   6.094
 6612SOL    HW120735   0.050   2.452   6.055
 6612SOL    HW220736   0.183   2.547   6.052
 6613SOL     OW20737   6.073   6.521   5.745
 6613SOL    HW120738   6.107   6.539   5.652
 6613SOL    HW220739   6.086   6.425   5.767
 6614SOL     OW20740   4.453   6.335   6.791
 6614SOL    HW120741   4.411   6.269   6.853
 6614SOL    HW220742   4.535   6.373   6.833
 6615SOL     OW20743   1.358   5.584   1.517
 6615SOL    HW120744   1.323   5.504   1.567
 6615SOL    HW220745   1.433   5.625   1.568
 6616SOL     OW20746   4.731   0.200   6.300
 6616SOL    HW120747   4.664   0.139   6.342
 6616SOL    HW220748   4.796   0.230   6.370
 6617SOL     OW20749   4.132   5.967   3.529
 6617SOL    HW120750   4.111   6.056   3.490
 6617SOL    HW220751   4.229   5.963   3.553
 6618SOL     OW20752   1.467   1.773   2.506
 6618SOL    HW120753   1.397   1.775   2.578
 6618SOL    HW220754   1.529   1.851   2.517
 6619SOL     OW20755   4.983   0.335   3.946
 6619SOL    HW120756   4.956   0.407   3.882
 6619SOL    HW220757   5.080   0.341   3.965
 6620SOL     OW20758   2.042   3.389   5.032
 6620SOL    HW120759   1.974   3.337   5.085
 6620SOL    HW220760   2.029   3.369   4.935
 6621SOL     OW20761   3.699   2.769   5.233
 6621SOL    HW120762   3.787   2.748   5.276
 6621SOL    HW220763   3.706   2.753   5.134
 6622SOL     OW20764   6.264   5.797   1.985
 6622SOL    HW120765   6.291   5.737   1.910
 6622SOL    HW220766   6.205   5.747   2.048
 6623SOL     OW20767   3.342   3.608   5.105
 6623SOL    HW120768   3.435   3.579   5.083
 6623SOL    HW220769   3.305   3.662   5.029
 6624SOL     OW20770   0.649   3.829   5.336
 6624SOL    HW120771   0.641   3.730   5.347
 6624SOL    HW220772   0.728   3.862   5.388
 6625SOL     OW20773   5.116   1.817   5.102
 6625SOL    HW120774   5.070   1.867   5.028
 6625SOL    HW220775   5.212   1.846   5.107
 6626SOL     OW20776   3.264   0.109   5.530
 6626SOL    HW120777   3.298   0.018   5.503
 6626SOL    HW220778   3.295   0.129   5.623
 6627SOL     OW20779   1.669   6.647   3.951
 6627SOL    HW120780   1.701   6.742   3.953
 6627SOL    HW220781   1.748   6.586   3.946
 6628SOL     OW20782   5.761   4.664   4.215
 6628SOL    HW120783   5.815   4.709   4.144
 6628SOL    HW220784   5.673   4.710   4.224
 6629SOL     OW20785   4.892   5.732   6.142
 6629SOL    HW120786   4.958   5.723   6.067
 6629SOL    HW220787   4.898   5.653   6.202
 6630SOL     OW20788   3.585   2.374   1.393
 6630SOL    HW120789   3.661   2.431   1.364
 6630SOL    HW220790   3.613   2.278   1.395
 6631SOL     OW20791   2.284   5.847   4.263
 6631SOL    HW120792   2.310   5.939   4.233
 6631SOL    HW220793   2.267   5.790   4.182
 6632SOL     OW20794   0.815   1.048   1.183
 6632SOL    HW120795   0.811   1.030   1.281
 6632SOL    HW220796   0.833   0.964   1.133
 6633SOL     OW20797   2.126   5.258   6.210
 6633SOL    HW120798   2.084   5.348   6.219
 6633SOL    HW220799   2.081   5.208   6.135
 6634SOL     OW20800   4.940   1.993   4.987
 6634SOL    HW120801   4.939   2.088   4.955
 6634SOL    HW220802   4.918   1.991   5.084
 6635SOL     OW20803   4.700   4.768   3.828
 6635SOL    HW120804   4.722   4.725   3.740
 6635SOL    HW220805   4.647   4.703   3.884
 6636SOL     OW20806   4.480   1.731   0.322
 6636SOL    HW120807   4.540   1.737   0.401
 6636SOL    HW220808   4.532   1.703   0.242
 6637SOL     OW20809   1.769   6.800   6.727
 6637SOL    HW120810   1.763   6.709   6.768
 6637SOL    HW220811   1.850   6.805   6.668
 6638SOL     OW20812   2.947   3.211   3.063
 6638SOL    HW120813   2.929   3.304   3.033
 6638SOL    HW220814   2.932   3.204   3.162
 6639SOL     OW20815   3.942   4.056   6.766
 6639SOL    HW120816   3.900   4.124   6.826
 6639SOL    HW220817   4.026   4.021   6.809
 6640SOL     OW20818   0.238   1.780   5.103
 6640SOL    HW120819   0.273   1.688   5.120
 6640SOL    HW220820   0.164   1.776   5.036
 6641SOL     OW20821   3.408   1.697   0.101
 6641SOL    HW120822   3.339   1.626   0.115
 6641SOL    HW220823   3.470   1.699   0.179
 6642SOL     OW20824   3.025   5.432   6.438
 6642SOL    HW120825   3.038   5.333   6.440
 6642SOL    HW220826   2.947   5.455   6.379
 6643SOL     OW20827   6.207   6.285   0.067
 6643SOL    HW120828   6.278   6.355   0.061
 6643SOL    HW220829   6.248   6.197   0.092
 6644SOL     OW20830   2.408   5.721   2.399
 6644SOL    HW120831   2.375   5.627   2.410
 6644SOL    HW220832   2.506   5.719   2.378
 6645SOL     OW20833   5.400   3.566   0.738
 6645SOL    HW120834   5.335   3.500   0.776
 6645SOL    HW220835   5.377   3.583   0.642
 6646SOL     OW20836   4.686   1.200   5.313
 6646SOL    HW120837   4.652   1.243   5.397
 6646SOL    HW220838   4.754   1.259   5.270
 6647SOL     OW20839   4.303   6.804   0.258
 6647SOL    HW120840   4.359   6.736   0.211
 6647SOL    HW220841   4.241   6.758   0.322
 6648SOL     OW20842   2.980   6.861   4.585
 6648SOL    HW120843   2.890   6.884   4.546
 6648SOL    HW220844   2.973   6.859   4.685
 6649SOL     OW20845   6.049   1.924   5.933
 6649SOL    HW120846   5.973   1.936   5.997
 6649SOL    HW220847   6.062   2.008   5.880
 6650SOL     OW20848   3.824   1.767   4.619
 6650SOL    HW120849   3.885   1.689   4.631
 6650SOL    HW220850   3.731   1.741   4.645
 6651SOL     OW20851   1.654   1.119   5.968
 6651SOL    HW120852   1.613   1.078   6.049
 6651SOL    HW220853   1.666   1.217   5.983
 6652SOL     OW20854   0.533   4.822   6.640
 6652SOL    HW120855   0.467   4.751   6.667
 6652SOL    HW220856   0.487   4.889   6.581
 6653SOL     OW20857   4.341   3.003   1.098
 6653SOL    HW120858   4.290   3.021   1.014
 6653SOL    HW220859   4.350   2.904   1.110
 6654SOL     OW20860   1.862   5.504   2.393
 6654SOL    HW120861   1.856   5.515   2.294
 6654SOL    HW220862   1.782   5.545   2.436
 6655SOL     OW20863   6.765   6.350   2.636
 6655SOL    HW120864   6.764   6.374   2.733
 6655SOL    HW220865   6.709   6.269   2.621
 6656SOL     OW20866   5.606   2.493   3.056
 6656SOL    HW120867   5.637   2.510   3.150
 6656SOL    HW220868   5.663   2.423   3.014
 6657SOL     OW20869   6.111   3.417   4.928
 6657SOL    HW120870   6.098   3.470   4.844
 6657SOL    HW220871   6.208   3.396   4.940
 6658SOL     OW20872   5.228   6.759   5.932
 6658SOL    HW120873   5.163   6.793   5.864
 6658SOL    HW220874   5.288   6.691   5.890
 6659SOL     OW20875   1.810   2.941   1.311
 6659SOL    HW120876   1.869   3.004   1.362
 6659SOL    HW220877   1.733   2.914   1.369
 6660SOL     OW20878   1.268   5.013   1.484
 6660SOL    HW120879   1.192   5.071   1.513
 6660SOL    HW220880   1.321   5.061   1.414
 6661SOL     OW20881   2.454   0.274   5.437
 6661SOL    HW120882   2.491   0.298   5.347
 6661SOL    HW220883   2.529   0.258   5.501
 6662SOL     OW20884   2.004   0.740   0.312
 6662SOL    HW120885   2.041   0.672   0.248
 6662SOL    HW220886   2.079   0.787   0.359
 6663SOL     OW20887   6.473   6.426   4.854
 6663SOL    HW120888   6.410   6.469   4.920
 6663SOL    HW220889   6.437   6.438   4.762
 6664SOL     OW20890   2.110   0.029   0.936
 6664SOL    HW120891   2.081   6.994   1.016
 6664SOL    HW220892   2.168   0.105   0.966
 6665SOL     OW20893   1.770   6.855   5.172
 6665SOL    HW120894   1.867   6.844   5.195
 6665SOL    HW220895   1.724   6.904   5.246
 6666SOL     OW20896   6.339   5.930   5.590
 6666SOL    HW120897   6.345   6.005   5.657
 6666SOL    HW220898   6.429   5.889   5.578
 6667SOL     OW20899   6.818   6.495   5.514
 6667SOL    HW120900   6.731   6.519   5.556
 6667SOL    HW220901   6.802   6.435   5.436
 6668SOL     OW20902   6.354   6.360   0.799
 6668SOL    HW120903   6.260   6.394   0.793
 6668SOL    HW220904   6.356   6.275   0.852
 6669SOL     OW20905   3.023   2.078   1.902
 6669SOL    HW120906   3.032   2.093   1.804
 6669SOL    HW220907   2.979   2.157   1.945
 6670SOL     OW20908   3.000   1.185   6.013
 6670SOL    HW120909   3.020   1.175   6.110
 6670SOL    HW220910   3.086   1.194   5.962
 6671SOL     OW20911   5.113   6.678   6.767
 6671SOL    HW120912   5.206   6.660   6.799
 6671SOL    HW220913   5.116   6.723   6.678
 6672SOL     OW20914   0.317   2.218   0.727
 6672SOL    HW120915   0.324   2.306   0.681
 6672SOL    HW220916   0.361   2.224   0.817
 6673SOL     OW20917   4.771   4.077   3.885
 6673SOL    HW120918   4.801   4.017   3.811
 6673SOL    HW220919   4.818   4.051   3.970
 6674SOL     OW20920   6.854   3.838   0.432
 6674SOL    HW120921   6.854   3.853   0.531
 6674SOL    HW220922   6.878   3.923   0.385
 6675SOL     OW20923   6.230   2.796   0.292
 6675SOL    HW120924   6.271   2.806   0.201
 6675SOL    HW220925   6.288   2.841   0.359
 6676SOL     OW20926   0.615   3.397   4.575
 6676SOL    HW120927   0.690   3.440   4.624
 6676SOL    HW220928   0.644   3.374   4.482
 6677SOL     OW20929   0.517   1.526   6.632
 6677SOL    HW120930   0.528   1.457   6.559
 6677SOL    HW220931   0.594   1.519   6.695
 6678SOL     OW20932   2.970   4.418   0.770
 6678SOL    HW120933   3.051   4.414   0.828
 6678SOL    HW220934   2.920   4.502   0.788
 6679SOL     OW20935   3.821   0.388   3.916
 6679SOL    HW120936   3.760   0.460   3.882
 6679SOL    HW220937   3.873   0.422   3.994
 6680SOL     OW20938   4.233   6.634   6.567
 6680SOL    HW120939   4.215   6.610   6.663
 6680SOL    HW220940   4.193   6.564   6.508
 6681SOL     OW20941   4.756   6.162   0.848
 6681SOL    HW120942   4.853   6.180   0.830
 6681SOL    HW220943   4.734   6.069   0.817
 6682SOL     OW20944   2.312   4.844   0.075
 6682SOL    HW120945   2.325   4.862   0.172
 6682SOL    HW220946   2.250   4.767   0.063
 6683SOL     OW20947   5.850   3.179   5.169
 6683SOL    HW120948   5.873   3.276   5.156
 6683SOL    HW220949   5.760   3.172   5.211
 6684SOL     OW20950   4.114   6.589   2.519
 6684SOL    HW120951   4.033   6.551   2.564
 6684SOL    HW220952   4.114   6.689   2.529
 6685SOL     OW20953   4.881   2.790   5.675
 6685SOL    HW120954   4.905   2.857   5.745
 6685SOL    HW220955   4.790   2.753   5.694
 6686SOL     OW20956   5.499   5.694   4.017
 6686SOL    HW120957   5.583   5.741   3.987
 6686SOL    HW220958   5.460   5.644   3.940
 6687SOL     OW20959   0.616   2.720   2.286
 6687SOL    HW120960   0.590   2.699   2.191
 6687SOL    HW220961   0.697   2.778   2.286
 6688SOL     OW20962   3.742   5.259   1.344
 6688SOL    HW120963   3.759   5.260   1.246
 6688SOL    HW220964   3.799   5.188   1.387
 6689SOL     OW20965   4.797   4.272   5.621
 6689SOL    HW120966   4.895   4.266   5.601
 6689SOL    HW220967   4.761   4.180   5.637
 6690SOL     OW20968   0.497   7.013   1.011
 6690SOL    HW120969   0.452   6.927   0.990
 6690SOL    HW220970   0.596   6.997   1.020
 6691SOL     OW20971   2.054   0.378   2.484
 6691SOL    HW120972   2.011   0.431   2.558
 6691SOL    HW220973   2.119   0.313   2.523
 6692SOL     OW20974   3.984   3.880   3.155
 6692SOL    HW120975   4.064   3.849   3.103
 6692SOL    HW220976   3.999   3.862   3.253
 6693SOL     OW20977   4.429   2.470   4.906
 6693SOL    HW120978   4.433   2.437   4.812
 6693SOL    HW220979   4.333   2.478   4.934
 6694SOL     OW20980   4.201   6.138   1.795
 6694SOL    HW120981   4.191   6.235   1.774
 6694SOL    HW220982   4.137   6.086   1.738
 6695SOL     OW20983   2.647   2.096   6.419
 6695SOL    HW120984   2.726   2.066   6.473
 6695SOL    HW220985   2.644   2.045   6.333
 6696SOL     OW20986   3.697   3.373   3.995
 6696SOL    HW120987   3.636   3.370   4.075
 6696SOL    HW220988   3.704   3.468   3.963
 6697SOL     OW20989   4.671   1.976   2.960
 6697SOL    HW120990   4.700   1.887   2.925
 6697SOL    HW220991   4.594   1.965   3.023
 6698SOL     OW20992   2.869   3.271   1.262
 6698SOL    HW120993   2.851   3.346   1.324
 6698SOL    HW220994   2.848   3.299   1.168
 6699SOL     OW20995   2.078   6.673   5.655
 6699SOL    HW120996   2.085   6.706   5.749
 6699SOL    HW220997   2.158   6.616   5.634
 6700SOL     OW20998   6.814   1.891   1.518
 6700SOL    HW120999   6.846   1.866   1.426
 6700SOL    HW221000   6.784   1.986   1.518
 6701SOL     OW21001   5.249   5.395   1.789
 6701SOL    HW121002   5.195   5.427   1.866
 6701SOL    HW221003   5.346   5.396   1.813
 6702SOL     OW21004   2.068   2.745   1.831
 6702SOL    HW121005   2.040   2.662   1.879
 6702SOL    HW221006   2.035   2.742   1.737
 6703SOL     OW21007   6.641   0.246   0.738
 6703SOL    HW121008   6.695   0.285   0.812
 6703SOL    HW221009   6.624   0.316   0.668
 6704SOL     OW21010   4.057   2.172   3.245
 6704SOL    HW121011   4.091   2.194   3.153
 6704SOL    HW221012   4.104   2.229   3.312
 6705SOL     OW21013   5.898   2.339   0.483
 6705SOL    HW121014   5.909   2.382   0.573
 6705SOL    HW221015   5.802   2.314   0.470
 6706SOL     OW21016   0.955   5.834   0.873
 6706SOL    HW121017   0.879   5.893   0.842
 6706SOL    HW221018   0.958   5.834   0.973
 6707SOL     OW21019   5.522   6.346   3.384
 6707SOL    HW121020   5.542   6.258   3.429
 6707SOL    HW221021   5.545   6.421   3.446
 6708SOL     OW21022   5.729   5.252   1.628
 6708SOL    HW121023   5.669   5.192   1.575
 6708SOL    HW221024   5.788   5.304   1.566
 6709SOL     OW21025   1.194   5.497   2.839
 6709SOL    HW121026   1.152   5.491   2.929
 6709SOL    HW221027   1.124   5.517   2.771
 6710SOL     OW21028   3.854   0.722   6.245
 6710SOL    HW121029   3.769   0.681   6.212
 6710SOL    HW221030   3.902   0.656   6.303
 6711SOL     OW21031   4.881   6.247   5.785
 6711SOL    HW121032   4.807   6.247   5.853
 6711SOL    HW221033   4.943   6.323   5.804
 6712SOL     OW21034   5.431   3.753   1.255
 6712SOL    HW121035   5.400   3.717   1.343
 6712SOL    HW221036   5.531   3.746   1.249
 6713SOL     OW21037   0.908   0.923   3.448
 6713SOL    HW121038   0.811   0.931   3.427
 6713SOL    HW221039   0.925   0.955   3.541
 6714SOL     OW21040   6.821   1.414   6.213
 6714SOL    HW121041   6.920   1.428   6.222
 6714SOL    HW221042   6.784   1.382   6.300
 6715SOL     OW21043   1.719   0.558   1.202
 6715SOL    HW121044   1.796   0.560   1.139
 6715SOL    HW221045   1.695   0.652   1.229
 6716SOL     OW21046   0.242   5.683   1.858
 6716SOL    HW121047   0.319   5.743   1.839
 6716SOL    HW221048   0.232   5.616   1.784
 6717SOL     OW21049   3.250   3.143   6.145
 6717SOL    HW121050   3.343   3.134   6.110
 6717SOL    HW221051   3.239   3.087   6.227
 6718SOL     OW21052   4.613   0.119   0.942
 6718SOL    HW121053   4.575   0.207   0.915
 6718SOL    HW221054   4.553   0.045   0.911
 6719SOL     OW21055   2.311   6.808   0.502
 6719SOL    HW121056   2.296   6.906   0.513
 6719SOL    HW221057   2.357   6.791   0.414
 6720SOL     OW21058   2.067   0.743   3.621
 6720SOL    HW121059   1.971   0.720   3.605
 6720SOL    HW221060   2.094   0.818   3.561
 6721SOL     OW21061   0.222   6.547   0.660
 6721SOL    HW121062   0.304   6.516   0.709
 6721SOL    HW221063   0.205   6.485   0.584
 6722SOL     OW21064   6.809   2.132   0.434
 6722SOL    HW121065   6.745   2.065   0.395
 6722SOL    HW221066   6.780   2.155   0.527
 6723SOL     OW21067   1.428   0.092   5.034
 6723SOL    HW121068   1.458   0.049   4.949
 6723SOL    HW221069   1.501   0.087   5.102
 6724SOL     OW21070   2.299   3.085   6.335
 6724SOL    HW121071   2.225   3.086   6.268
 6724SOL    HW221072   2.369   3.018   6.308
 6725SOL     OW21073   6.636   2.457   1.785
 6725SOL    HW121074   6.672   2.497   1.700
 6725SOL    HW221075   6.537   2.445   1.778
 6726SOL     OW21076   0.437   2.885   3.808
 6726SOL    HW121077   0.456   2.856   3.902
 6726SOL    HW221078   0.354   2.840   3.776
 6727SOL     OW21079   0.200   4.893   5.538
 6727SOL    HW121080   0.299   4.899   5.524
 6727SOL    HW221081   0.174   4.950   5.616
 6728SOL     OW21082   3.842   2.059   2.848
 6728SOL    HW121083   3.862   2.154   2.827
 6728SOL    HW221084   3.852   2.043   2.946
 6729SOL     OW21085   0.264   1.393   0.541
 6729SOL    HW121086   0.361   1.373   0.523
 6729SOL    HW221087   0.208   1.360   0.465
 6730SOL     OW21088   2.120   6.676   1.044
 6730SOL    HW121089   2.139   6.691   1.141
 6730SOL    HW221090   2.093   6.762   1.001
 6731SOL     OW21091   1.580   6.653   0.853
 6731SOL    HW121092   1.552   6.627   0.945
 6731SOL    HW221093   1.677   6.628   0.840
 6732SOL     OW21094   5.952   4.097   4.737
 6732SOL    HW121095   6.044   4.104   4.775
 6732SOL    HW221096   5.953   4.038   4.657
 6733SOL     OW21097   3.680   5.958   6.363
 6733SOL    HW121098   3.695   5.991   6.456
 6733SOL    HW221099   3.767   5.931   6.322
 6734SOL     OW21100   6.010   2.676   5.533
 6734SOL    HW121101   6.084   2.719   5.481
 6734SOL    HW221102   5.922   2.717   5.508
 6735SOL     OW21103   6.057   3.587   4.666
 6735SOL    HW121104   5.998   3.617   4.591
 6735SOL    HW221105   6.124   3.659   4.686
 6736SOL     OW21106   2.763   3.327   6.627
 6736SOL    HW121107   2.744   3.422   6.601
 6736SOL    HW221108   2.746   3.315   6.725
 6737SOL     OW21109   1.767   3.306   0.958
 6737SOL    HW121110   1.728   3.239   1.021
 6737SOL    HW221111   1.866   3.291   0.950
 6738SOL     OW21112   1.964   5.996   3.779
 6738SOL    HW121113   1.915   5.909   3.771
 6738SOL    HW221114   1.904   6.063   3.823
 6739SOL     OW21115   5.757   6.449   4.023
 6739SOL    HW121116   5.663   6.471   4.050
 6739SOL    HW221117   5.794   6.380   4.084
 6740SOL     OW21118   6.888   0.121   5.583
 6740SOL    HW121119   6.936   0.149   5.500
 6740SOL    HW221120   6.794   0.095   5.560
 6741SOL     OW21121   3.492   2.937   5.436
 6741SOL    HW121122   3.509   2.985   5.350
 6741SOL    HW221123   3.495   2.838   5.420
 6742SOL     OW21124   5.921   5.655   3.135
 6742SOL    HW121125   6.001   5.714   3.139
 6742SOL    HW221126   5.900   5.634   3.039
 6743SOL     OW21127   3.756   4.667   6.403
 6743SOL    HW121128   3.834   4.675   6.465
 6743SOL    HW221129   3.753   4.746   6.342
 6744SOL     OW21130   6.863   5.604   5.617
 6744SOL    HW121131   6.798   5.563   5.682
 6744SOL    HW221132   6.898   5.533   5.556
 6745SOL     OW21133   6.980   6.438   3.433
 6745SOL    HW121134   0.052   6.472   3.462
 6745SOL    HW221135   6.908   6.492   3.478
 6746SOL     OW21136   0.435   0.157   3.943
 6746SOL    HW121137   0.396   0.118   3.859
 6746SOL    HW221138   0.532   0.130   3.950
 6747SOL     OW21139   5.909   1.148   6.495
 6747SOL    HW121140   5.857   1.091   6.431
 6747SOL    HW221141   6.007   1.130   6.483
 6748SOL     OW21142   3.995   1.309   2.813
 6748SOL    HW121143   4.010   1.397   2.770
 6748SOL    HW221144   4.071   1.290   2.876
 6749SOL     OW21145   3.752   4.304   0.846
 6749SOL    HW121146   3.657   4.328   0.823
 6749SOL    HW221147   3.777   4.347   0.933
 6750SOL     OW21148   3.641   2.087   4.039
 6750SOL    HW121149   3.580   2.163   4.065
 6750SOL    HW221150   3.635   2.073   3.940
 6751SOL     OW21151   5.017   0.170   3.396
 6751SOL    HW121152   5.094   0.123   3.439
 6751SOL    HW221153   5.028   0.269   3.405
 6752SOL     OW21154   2.247   6.733   2.817
 6752SOL    HW121155   2.241   6.659   2.884
 6752SOL    HW221156   2.331   6.785   2.832
 6753SOL     OW21157   3.043   1.564   6.151
 6753SOL    HW121158   3.057   1.545   6.053
 6753SOL    HW221159   3.126   1.541   6.201
 6754SOL     OW21160   6.699   0.874   0.463
 6754SOL    HW121161   6.748   0.947   0.417
 6754SOL    HW221162   6.617   0.851   0.411
 6755SOL     OW21163   4.066   2.559   1.650
 6755SOL    HW121164   4.094   2.541   1.556
 6755SOL    HW221165   3.999   2.491   1.679
 6756SOL     OW21166   3.621   6.816   5.109
 6756SOL    HW121167   3.626   6.737   5.049
 6756SOL    HW221168   3.699   6.817   5.171
 6757SOL     OW21169   2.988   2.040   0.296
 6757SOL    HW121170   3.023   2.133   0.286
 6757SOL    HW221171   3.037   1.979   0.233
 6758SOL     OW21172   5.980   2.221   1.779
 6758SOL    HW121173   5.995   2.225   1.878
 6758SOL    HW221174   6.037   2.149   1.740
 6759SOL     OW21175   0.978   3.949   2.943
 6759SOL    HW121176   0.956   3.852   2.935
 6759SOL    HW221177   1.048   3.973   2.876
 6760SOL     OW21178   0.036   3.240   2.060
 6760SOL    HW121179   6.980   3.307   2.062
 6760SOL    HW221180   7.017   3.150   2.038
 6761SOL     OW21181   6.315   2.638   5.035
 6761SOL    HW121182   6.283   2.713   4.977
 6761SOL    HW221183   6.345   2.562   4.977
 6762SOL     OW21184   0.799   4.128   4.546
 6762SOL    HW121185   0.746   4.085   4.473
 6762SOL    HW221186   0.757   4.108   4.634
 6763SOL     OW21187   6.631   5.798   3.896
 6763SOL    HW121188   6.621   5.739   3.975
 6763SOL    HW221189   6.650   5.743   3.815
 6764SOL     OW21190   1.949   5.803   1.607
 6764SOL    HW121191   1.984   5.843   1.692
 6764SOL    HW221192   2.014   5.820   1.533
 6765SOL     OW21193   5.668   4.885   3.956
 6765SOL    HW121194   5.643   4.922   3.867
 6765SOL    HW221195   5.748   4.826   3.947
 6766SOL     OW21196   5.087   6.074   5.705
 6766SOL    HW121197   5.014   6.125   5.750
 6766SOL    HW221198   5.164   6.135   5.686
 6767SOL     OW21199   2.527   0.998   1.410
 6767SOL    HW121200   2.437   1.039   1.397
 6767SOL    HW221201   2.525   0.940   1.491
 6768SOL     OW21202   1.813   0.442   5.202
 6768SOL    HW121203   1.725   0.395   5.194
 6768SOL    HW221204   1.799   0.541   5.195
 6769SOL     OW21205   3.334   0.792   6.737
 6769SOL    HW121206   3.364   0.844   6.657
 6769SOL    HW221207   3.251   0.833   6.774
 6770SOL     OW21208   7.014   1.056   2.073
 6770SOL    HW121209   0.005   1.029   1.977
 6770SOL    HW221210   6.951   0.995   2.119
 6771SOL     OW21211   4.982   2.053   3.357
 6771SOL    HW121212   4.968   1.978   3.423
 6771SOL    HW221213   5.006   2.136   3.407
 6772SOL     OW21214   3.977   2.060   2.584
 6772SOL    HW121215   3.889   2.066   2.537
 6772SOL    HW221216   3.963   2.024   2.676
 6773SOL     OW21217   6.156   5.088   2.626
 6773SOL    HW121218   6.099   5.044   2.696
 6773SOL    HW221219   6.162   5.186   2.644
 6774SOL     OW21220   1.146   3.237   5.348
 6774SOL    HW121221   1.152   3.276   5.256
 6774SOL    HW221222   1.155   3.137   5.343
 6775SOL     OW21223   2.336   2.532   1.810
 6775SOL    HW121224   2.346   2.444   1.763
 6775SOL    HW221225   2.407   2.541   1.879
 6776SOL     OW21226   5.081   4.148   0.101
 6776SOL    HW121227   5.091   4.248   0.106
 6776SOL    HW221228   5.005   4.125   0.041
 6777SOL     OW21229   4.395   4.546   0.598
 6777SOL    HW121230   4.352   4.491   0.669
 6777SOL    HW221231   4.400   4.492   0.513
 6778SOL     OW21232   6.331   5.439   2.002
 6778SOL    HW121233   6.408   5.438   2.066
 6778SOL    HW221234   6.251   5.479   2.047
 6779SOL     OW21235   5.827   5.578   6.898
 6779SOL    HW121236   5.775   5.596   6.814
 6779SOL    HW221237   5.774   5.515   6.955
 6780SOL     OW21238   1.053   2.607   2.303
 6780SOL    HW121239   1.122   2.657   2.251
 6780SOL    HW221240   0.974   2.667   2.320
 6781SOL     OW21241   6.557   1.716   3.673
 6781SOL    HW121242   6.561   1.644   3.742
 6781SOL    HW221243   6.491   1.785   3.701
 6782SOL     OW21244   0.045   0.857   2.930
 6782SOL    HW121245   6.981   0.834   2.984
 6782SOL    HW221246   0.018   0.877   2.836
 6783SOL     OW21247   6.093   1.934   5.455
 6783SOL    HW121248   6.162   1.864   5.474
 6783SOL    HW221249   6.139   2.020   5.429
 6784SOL     OW21250   2.090   3.178   0.335
 6784SOL    HW121251   2.171   3.120   0.340
 6784SOL    HW221252   2.031   3.160   0.413
 6785SOL     OW21253   6.071   5.402   4.099
 6785SOL    HW121254   6.168   5.424   4.094
 6785SOL    HW221255   6.044   5.391   4.195
 6786SOL     OW21256   1.707   2.524   0.328
 6786SOL    HW121257   1.742   2.431   0.309
 6786SOL    HW221258   1.743   2.555   0.416
 6787SOL     OW21259   2.098   2.642   0.739
 6787SOL    HW121260   2.101   2.553   0.692
 6787SOL    HW221261   2.113   2.628   0.837
 6788SOL     OW21262   1.181   3.797   1.396
 6788SOL    HW121263   1.260   3.770   1.451
 6788SOL    HW221264   1.097   3.764   1.439
 6789SOL     OW21265   0.394   5.393   2.750
 6789SOL    HW121266   0.377   5.304   2.792
 6789SOL    HW221267   0.369   5.466   2.814
 6790SOL     OW21268   0.206   3.492   0.890
 6790SOL    HW121269   0.302   3.475   0.915
 6790SOL    HW221270   0.171   3.569   0.943
 6791SOL     OW21271   4.174   2.173   1.821
 6791SOL    HW121272   4.210   2.162   1.728
 6791SOL    HW221273   4.074   2.169   1.819
 6792SOL     OW21274   6.550   6.198   5.087
 6792SOL    HW121275   6.552   6.203   4.987
 6792SOL    HW221276   6.483   6.128   5.114
 6793SOL     OW21277   1.943   2.121   0.588
 6793SOL    HW121278   1.967   2.025   0.599
 6793SOL    HW221279   1.898   2.155   0.671
 6794SOL     OW21280   4.451   1.172   6.127
 6794SOL    HW121281   4.406   1.262   6.130
 6794SOL    HW221282   4.425   1.120   6.208
 6795SOL     OW21283   2.488   6.802   1.234
 6795SOL    HW121284   2.512   6.705   1.231
 6795SOL    HW221285   2.555   6.855   1.183
 6796SOL     OW21286   6.948   6.879   2.363
 6796SOL    HW121287   6.908   6.857   2.452
 6796SOL    HW221288   6.973   6.976   2.362
 6797SOL     OW21289   6.462   2.285   1.566
 6797SOL    HW121290   6.415   2.223   1.503
 6797SOL    HW221291   6.461   2.378   1.530
 6798SOL     OW21292   5.069   0.283   2.290
 6798SOL    HW121293   5.013   0.332   2.223
 6798SOL    HW221294   5.144   0.236   2.243
 6799SOL     OW21295   6.823   6.471   1.938
 6799SOL    HW121296   6.853   6.460   2.032
 6799SOL    HW221297   6.742   6.530   1.935
 6800SOL     OW21298   2.106   3.747   1.923
 6800SOL    HW121299   2.164   3.665   1.923
 6800SOL    HW221300   2.142   3.813   1.988
 6801SOL     OW21301   1.085   6.788   3.360
 6801SOL    HW121302   1.017   6.847   3.316
 6801SOL    HW221303   1.177   6.817   3.332
 6802SOL     OW21304   3.093   6.014   1.253
 6802SOL    HW121305   3.141   6.102   1.258
 6802SOL    HW221306   3.019   6.021   1.187
 6803SOL     OW21307   4.579   2.949   5.778
 6803SOL    HW121308   4.594   2.851   5.786
 6803SOL    HW221309   4.508   2.978   5.842
 6804SOL     OW21310   3.338   5.304   3.672
 6804SOL    HW121311   3.382   5.275   3.587
 6804SOL    HW221312   3.379   5.389   3.704
 6805SOL     OW21313   6.934   4.810   6.043
 6805SOL    HW121314   6.957   4.717   6.072
 6805SOL    HW221315   7.011   4.871   6.061
 6806SOL     OW21316   5.636   0.643   3.699
 6806SOL    HW121317   5.599   0.610   3.613
 6806SOL    HW221318   5.715   0.587   3.725
 6807SOL     OW21319   3.325   3.399   0.985
 6807SOL    HW121320   3.399   3.353   0.935
 6807SOL    HW221321   3.332   3.377   1.082
 6808SOL     OW21322   6.631   2.399   5.061
 6808SOL    HW121323   6.658   2.487   5.022
 6808SOL    HW221324   6.607   2.411   5.157
 6809SOL     OW21325   0.814   2.949   1.334
 6809SOL    HW121326   0.879   2.898   1.391
 6809SOL    HW221327   0.834   3.047   1.340
 6810SOL     OW21328   1.321   0.952   2.489
 6810SOL    HW121329   1.293   1.019   2.419
 6810SOL    HW221330   1.252   0.948   2.561
 6811SOL     OW21331   6.047   3.712   1.226
 6811SOL    HW121332   6.002   3.754   1.305
 6811SOL    HW221333   6.024   3.764   1.143
 6812SOL     OW21334   2.924   3.647   3.813
 6812SOL    HW121335   2.973   3.688   3.890
 6812SOL    HW221336   2.907   3.550   3.832
 6813SOL     OW21337   5.224   2.663   2.468
 6813SOL    HW121338   5.310   2.618   2.493
 6813SOL    HW221339   5.242   2.760   2.450
 6814SOL     OW21340   3.352   1.776   6.368
 6814SOL    HW121341   3.434   1.760   6.312
 6814SOL    HW221342   3.276   1.802   6.308
 6815SOL     OW21343   3.355   6.784   1.507
 6815SOL    HW121344   3.283   6.721   1.538
 6815SOL    HW221345   3.367   6.857   1.573
 6816SOL     OW21346   6.750   0.029   6.413
 6816SOL    HW121347   6.683   7.013   6.347
 6816SOL    HW221348   6.782   0.120   6.385
 6817SOL     OW21349   2.511   2.539   3.034
 6817SOL    HW121350   2.587   2.478   3.055
 6817SOL    HW221351   2.490   2.534   2.937
 6818SOL     OW21352   2.398   6.196   2.304
 6818SOL    HW121353   2.384   6.282   2.255
 6818SOL    HW221354   2.402   6.214   2.402
 6819SOL     OW21355   5.278   1.714   3.621
 6819SOL    HW121356   5.338   1.648   3.577
 6819SOL    HW221357   5.184   1.699   3.590
 6820SOL     OW21358   2.410   5.310   2.218
 6820SOL    HW121359   2.500   5.271   2.240
 6820SOL    HW221360   2.355   5.314   2.301
 6821SOL     OW21361   3.579   2.012   4.939
 6821SOL    HW121362   3.634   2.090   4.968
 6821SOL    HW221363   3.486   2.022   4.974
 6822SOL     OW21364   5.314   2.476   6.266
 6822SOL    HW121365   5.247   2.539   6.307
 6822SOL    HW221366   5.280   2.445   6.177
 6823SOL     OW21367   4.365   3.161   5.531
 6823SOL    HW121368   4.308   3.158   5.614
 6823SOL    HW221369   4.321   3.218   5.462
 6824SOL     OW21370   0.980   2.068   6.300
 6824SOL    HW121371   1.047   2.141   6.291
 6824SOL    HW221372   0.974   2.040   6.396
 6825SOL     OW21373   5.123   6.351   1.461
 6825SOL    HW121374   5.064   6.430   1.479
 6825SOL    HW221375   5.214   6.369   1.498
 6826SOL     OW21376   1.874   3.372   3.251
 6826SOL    HW121377   1.847   3.308   3.179
 6826SOL    HW221378   1.813   3.361   3.329
 6827SOL     OW21379   4.457   5.668   5.879
 6827SOL    HW121380   4.488   5.604   5.809
 6827SOL    HW221381   4.359   5.687   5.867
 6828SOL     OW21382   3.049   1.892   1.673
 6828SOL    HW121383   3.138   1.906   1.717
 6828SOL    HW221384   3.035   1.794   1.658
 6829SOL     OW21385   4.445   6.570   4.603
 6829SOL    HW121386   4.425   6.523   4.517
 6829SOL    HW221387   4.531   6.621   4.594
 6830SOL     OW21388   5.137   1.315   3.454
 6830SOL    HW121389   5.092   1.278   3.373
 6830SOL    HW221390   5.077   1.383   3.497
 6831SOL     OW21391   1.379   0.567   6.675
 6831SOL    HW121392   1.319   0.516   6.612
 6831SOL    HW221393   1.329   0.644   6.713
 6832SOL     OW21394   2.820   4.308   1.064
 6832SOL    HW121395   2.891   4.268   1.007
 6832SOL    HW221396   2.800   4.246   1.141
 6833SOL     OW21397   3.194   4.560   6.255
 6833SOL    HW121398   3.153   4.574   6.165
 6833SOL    HW221399   3.143   4.612   6.324
 6834SOL     OW21400   4.774   6.584   0.965
 6834SOL    HW121401   4.869   6.572   0.994
 6834SOL    HW221402   4.724   6.633   1.037
 6835SOL     OW21403   4.073   0.369   4.472
 6835SOL    HW121404   4.085   0.438   4.543
 6835SOL    HW221405   4.157   0.360   4.419
 6836SOL     OW21406   2.541   5.271   0.561
 6836SOL    HW121407   2.630   5.310   0.541
 6836SOL    HW221408   2.547   5.171   0.561
 6837SOL     OW21409   0.493   1.957   2.136
 6837SOL    HW121410   0.593   1.955   2.135
 6837SOL    HW221411   0.461   1.982   2.227
 6838SOL     OW21412   3.274   6.458   0.431
 6838SOL    HW121413   3.336   6.392   0.473
 6838SOL    HW221414   3.246   6.526   0.499
 6839SOL     OW21415   5.362   1.009   6.635
 6839SOL    HW121416   5.379   1.074   6.708
 6839SOL    HW221417   5.263   0.992   6.628
 6840SOL     OW21418   3.641   0.754   4.665
 6840SOL    HW121419   3.584   0.793   4.593
 6840SOL    HW221420   3.645   0.654   4.654
 6841SOL     OW21421   4.071   4.428   6.869
 6841SOL    HW121422   4.005   4.421   6.794
 6841SOL    HW221423   4.027   4.465   6.950
 6842SOL     OW21424   2.202   4.482   1.139
 6842SOL    HW121425   2.281   4.440   1.185
 6842SOL    HW221426   2.231   4.518   1.050
 6843SOL     OW21427   5.831   6.660   1.322
 6843SOL    HW121428   5.871   6.750   1.342
 6843SOL    HW221429   5.892   6.589   1.358
 6844SOL     OW21430   5.370   0.816   4.143
 6844SOL    HW121431   5.289   0.794   4.088
 6844SOL    HW221432   5.441   0.747   4.127
 6845SOL     OW21433   6.481   3.326   2.765
 6845SOL    HW121434   6.417   3.402   2.754
 6845SOL    HW221435   6.525   3.332   2.855
 6846SOL     OW21436   3.668   3.040   6.707
 6846SOL    HW121437   3.718   3.052   6.793
 6846SOL    HW221438   3.733   3.021   6.633
 6847SOL     OW21439   0.177   3.095   4.338
 6847SOL    HW121440   0.261   3.150   4.340
 6847SOL    HW221441   0.181   3.025   4.409
 6848SOL     OW21442   4.806   5.113   3.875
 6848SOL    HW121443   4.747   5.061   3.813
 6848SOL    HW221444   4.823   5.204   3.836
 6849SOL     OW21445   4.607   5.094   5.409
 6849SOL    HW121446   4.508   5.085   5.396
 6849SOL    HW221447   4.650   5.004   5.402
 6850SOL     OW21448   5.387   3.257   2.443
 6850SOL    HW121449   5.305   3.203   2.460
 6850SOL    HW221450   5.458   3.200   2.404
 6851SOL     OW21451   0.119   1.280   3.341
 6851SOL    HW121452   0.169   1.227   3.272
 6851SOL    HW221453   0.177   1.291   3.422
 6852SOL     OW21454   2.548   4.677   1.217
 6852SOL    HW121455   2.576   4.773   1.214
 6852SOL    HW221456   2.475   4.665   1.285
 6853SOL     OW21457   5.576   4.624   6.909
 6853SOL    HW121458   5.576   4.545   6.971
 6853SOL    HW221459   5.663   4.627   6.859
 6854SOL     OW21460   5.217   1.074   5.697
 6854SOL    HW121461   5.197   1.171   5.683
 6854SOL    HW221462   5.171   1.019   5.627
 6855SOL     OW21463   4.274   6.402   4.145
 6855SOL    HW121464   4.279   6.335   4.071
 6855SOL    HW221465   4.225   6.483   4.113
 6856SOL     OW21466   6.678   2.869   5.179
 6856SOL    HW121467   6.767   2.827   5.164
 6856SOL    HW221468   6.623   2.862   5.096
 6857SOL     OW21469   2.143   2.185   6.672
 6857SOL    HW121470   2.180   2.220   6.586
 6857SOL    HW221471   2.194   2.103   6.699
 6858SOL     OW21472   4.092   3.439   2.319
 6858SOL    HW121473   4.044   3.397   2.396
 6858SOL    HW221474   4.089   3.377   2.240
 6859SOL     OW21475   0.970   1.465   0.909
 6859SOL    HW121476   0.980   1.562   0.928
 6859SOL    HW221477   0.896   1.427   0.965
 6860SOL     OW21478   6.913   5.208   1.425
 6860SOL    HW121479   6.964   5.242   1.346
 6860SOL    HW221480   6.877   5.117   1.404
 6861SOL     OW21481   3.953   4.544   0.058
 6861SOL    HW121482   3.925   4.640   0.051
 6861SOL    HW221483   3.880   4.491   0.101
 6862SOL     OW21484   1.132   5.240   6.020
 6862SOL    HW121485   1.230   5.223   6.006
 6862SOL    HW221486   1.120   5.310   6.091
 6863SOL     OW21487   5.529   6.805   5.925
 6863SOL    HW121488   5.485   6.761   5.847
 6863SOL    HW221489   5.538   6.903   5.907
 6864SOL     OW21490   2.240   4.746   4.665
 6864SOL    HW121491   2.195   4.656   4.662
 6864SOL    HW221492   2.175   4.813   4.701
 6865SOL     OW21493   1.082   6.075   4.603
 6865SOL    HW121494   1.015   6.136   4.560
 6865SOL    HW221495   1.165   6.126   4.623
 6866SOL     OW21496   5.561   5.605   3.228
 6866SOL    HW121497   5.614   5.655   3.297
 6866SOL    HW221498   5.471   5.581   3.266
 6867SOL     OW21499   2.233   4.020   2.337
 6867SOL    HW121500   2.275   4.106   2.368
 6867SOL    HW221501   2.177   3.982   2.411
 6868SOL     OW21502   1.801   6.205   6.595
 6868SOL    HW121503   1.718   6.222   6.647
 6868SOL    HW221504   1.833   6.290   6.555
 6869SOL     OW21505   4.833   1.156   6.439
 6869SOL    HW121506   4.924   1.156   6.481
 6869SOL    HW221507   4.837   1.208   6.353
 6870SOL     OW21508   6.988   4.297   1.486
 6870SOL    HW121509   7.003   4.301   1.387
 6870SOL    HW221510   6.911   4.236   1.506
 6871SOL     OW21511   6.342   4.413   3.195
 6871SOL    HW121512   6.307   4.471   3.269
 6871SOL    HW221513   6.286   4.331   3.187
 6872SOL     OW21514   0.800   2.364   1.161
 6872SOL    HW121515   0.796   2.313   1.076
 6872SOL    HW221516   0.841   2.454   1.145
 6873SOL     OW21517   6.625   3.576   4.066
 6873SOL    HW121518   6.626   3.657   4.007
 6873SOL    HW221519   6.531   3.557   4.094
 6874SOL     OW21520   6.979   5.488   2.873
 6874SOL    HW121521   6.932   5.518   2.789
 6874SOL    HW221522   7.013   5.395   2.860
 6875SOL     OW21523   2.250   2.879   2.604
 6875SOL    HW121524   2.299   2.846   2.685
 6875SOL    HW221525   2.250   2.808   2.534
 6876SOL     OW21526   4.207   0.437   4.126
 6876SOL    HW121527   4.166   0.527   4.139
 6876SOL    HW221528   4.263   0.414   4.206
 6877SOL     OW21529   2.937   4.064   0.793
 6877SOL    HW121530   2.863   3.998   0.779
 6877SOL    HW221531   2.973   4.093   0.704
 6878SOL     OW21532   4.029   1.068   4.041
 6878SOL    HW121533   3.942   1.022   4.060
 6878SOL    HW221534   4.021   1.121   3.956
 6879SOL     OW21535   1.251   2.929   1.108
 6879SOL    HW121536   1.163   2.934   1.061
 6879SOL    HW221537   1.324   2.908   1.042
 6880SOL     OW21538   1.949   5.600   5.761
 6880SOL    HW121539   1.966   5.699   5.760
 6880SOL    HW221540   1.887   5.576   5.687
 6881SOL     OW21541   2.250   3.626   1.266
 6881SOL    HW121542   2.223   3.611   1.361
 6881SOL    HW221543   2.188   3.692   1.224
 6882SOL     OW21544   3.077   0.674   0.238
 6882SOL    HW121545   3.059   0.580   0.210
 6882SOL    HW221546   3.154   0.711   0.184
 6883SOL     OW21547   4.951   1.532   6.795
 6883SOL    HW121548   4.898   1.462   6.747
 6883SOL    HW221549   5.024   1.565   6.736
 6884SOL     OW21550   0.861   4.448   3.586
 6884SOL    HW121551   0.886   4.386   3.512
 6884SOL    HW221552   0.943   4.489   3.624
 6885SOL     OW21553   4.452   4.864   4.138
 6885SOL    HW121554   4.547   4.895   4.137
 6885SOL    HW221555   4.411   4.883   4.227
 6886SOL     OW21556   6.705   1.487   4.090
 6886SOL    HW121557   6.638   1.416   4.110
 6886SOL    HW221558   6.675   1.573   4.130
 6887SOL     OW21559   5.005   5.277   5.889
 6887SOL    HW121560   4.917   5.243   5.858
 6887SOL    HW221561   5.079   5.231   5.840
 6888SOL     OW21562   5.556   5.490   6.426
 6888SOL    HW121563   5.476   5.547   6.410
 6888SOL    HW221564   5.596   5.462   6.338
 6889SOL     OW21565   1.080   3.094   5.972
 6889SOL    HW121566   1.079   3.056   5.880
 6889SOL    HW221567   1.125   3.183   5.972
 6890SOL     OW21568   3.774   6.358   2.068
 6890SOL    HW121569   3.699   6.414   2.101
 6890SOL    HW221570   3.820   6.405   1.992
 6891SOL     OW21571   2.093   3.677   2.673
 6891SOL    HW121572   2.112   3.582   2.699
 6891SOL    HW221573   2.146   3.738   2.732
 6892SOL     OW21574   3.581   2.031   3.775
 6892SOL    HW121575   3.582   2.075   3.685
 6892SOL    HW221576   3.524   1.949   3.772
 6893SOL     OW21577   4.357   4.138   6.803
 6893SOL    HW121578   4.349   4.193   6.720
 6893SOL    HW221579   4.435   4.076   6.795
 6894SOL     OW21580   5.778   4.711   0.220
 6894SOL    HW121581   5.855   4.680   0.164
 6894SOL    HW221582   5.719   4.633   0.243
 6895SOL     OW21583   2.295   4.456   0.891
 6895SOL    HW121584   2.204   4.476   0.856
 6895SOL    HW221585   2.337   4.385   0.835
 6896SOL     OW21586   3.130   1.362   3.780
 6896SOL    HW121587   3.058   1.322   3.723
 6896SOL    HW221588   3.123   1.461   3.779
 6897SOL     OW21589   5.023   3.787   5.004
 6897SOL    HW121590   4.958   3.714   4.983
 6897SOL    HW221591   4.974   3.873   5.017
 6898SOL     OW21592   4.133   1.548   1.418
 6898SOL    HW121593   4.135   1.612   1.495
 6898SOL    HW221594   4.042   1.547   1.378
 6899SOL     OW21595   4.568   6.260   1.796
 6899SOL    HW121596   4.635   6.316   1.748
 6899SOL    HW221597   4.566   6.286   1.893
 6900SOL     OW21598   6.052   5.696   5.081
 6900SOL    HW121599   6.031   5.773   5.020
 6900SOL    HW221600   6.090   5.731   5.167
 6901SOL     OW21601   6.155   6.146   6.408
 6901SOL    HW121602   6.135   6.058   6.452
 6901SOL    HW221603   6.192   6.130   6.317
 6902SOL     OW21604   6.702   5.841   0.314
 6902SOL    HW121605   6.775   5.789   0.358
 6902SOL    HW221606   6.738   5.930   0.283
 6903SOL     OW21607   3.187   5.207   5.385
 6903SOL    HW121608   3.197   5.139   5.312
 6903SOL    HW221609   3.273   5.256   5.398
 6904SOL     OW21610   6.287   0.419   5.360
 6904SOL    HW121611   6.197   0.431   5.403
 6904SOL    HW221612   6.342   0.501   5.373
 6905SOL     OW21613   5.580   6.162   0.357
 6905SOL    HW121614   5.601   6.075   0.314
 6905SOL    HW221615   5.498   6.202   0.314
 6906SOL     OW21616   3.689   1.506   4.209
 6906SOL    HW121617   3.778   1.463   4.200
 6906SOL    HW221618   3.691   1.597   4.167
 6907SOL     OW21619   5.518   2.276   1.552
 6907SOL    HW121620   5.442   2.214   1.571
 6907SOL    HW221621   5.605   2.229   1.568
 6908SOL     OW21622   1.490   5.488   6.851
 6908SOL    HW121623   1.474   5.476   6.753
 6908SOL    HW221624   1.420   5.548   6.890
 6909SOL     OW21625   4.846   3.999   1.457
 6909SOL    HW121626   4.899   4.065   1.510
 6909SOL    HW221627   4.753   3.995   1.492
 6910SOL     OW21628   1.071   3.033   3.778
 6910SOL    HW121629   1.074   3.017   3.679
 6910SOL    HW221630   1.078   3.131   3.796
 6911SOL     OW21631   4.420   6.702   4.193
 6911SOL    HW121632   4.352   6.717   4.121
 6911SOL    HW221633   4.430   6.604   4.210
 6912SOL     OW21634   2.811   3.646   6.341
 6912SOL    HW121635   2.786   3.741   6.326
 6912SOL    HW221636   2.750   3.587   6.289
 6913SOL     OW21637   5.643   6.140   4.074
 6913SOL    HW121638   5.623   6.101   3.984
 6913SOL    HW221639   5.648   6.066   4.141
 6914SOL     OW21640   5.986   4.497   3.462
 6914SOL    HW121641   5.935   4.582   3.472
 6914SOL    HW221642   5.990   4.450   3.550
 6915SOL     OW21643   6.091   2.676   1.699
 6915SOL    HW121644   6.151   2.654   1.623
 6915SOL    HW221645   6.143   2.675   1.784
 6916SOL     OW21646   5.376   1.884   6.627
 6916SOL    HW121647   5.361   1.977   6.660
 6916SOL    HW221648   5.469   1.856   6.649
 6917SOL     OW21649   3.508   6.457   1.383
 6917SOL    HW121650   3.418   6.488   1.410
 6917SOL    HW221651   3.501   6.401   1.300
 6918SOL     OW21652   0.703   2.420   4.186
 6918SOL    HW121653   0.712   2.504   4.132
 6918SOL    HW221654   0.785   2.408   4.241
 6919SOL     OW21655   5.559   6.175   4.433
 6919SOL    HW121656   5.590   6.258   4.387
 6919SOL    HW221657   5.504   6.200   4.513
 6920SOL     OW21658   4.380   6.952   5.807
 6920SOL    HW121659   4.329   0.017   5.834
 6920SOL    HW221660   4.401   6.899   5.888
 6921SOL     OW21661   4.663   6.372   4.235
 6921SOL    HW121662   4.743   6.334   4.281
 6921SOL    HW221663   4.622   6.301   4.177
 6922SOL     OW21664   1.867   6.272   4.697
 6922SOL    HW121665   1.891   6.206   4.625
 6922SOL    HW221666   1.899   6.363   4.671
 6923SOL     OW21667   5.347   5.715   2.827
 6923SOL    HW121668   5.350   5.804   2.874
 6923SOL    HW221669   5.273   5.660   2.866
 6924SOL     OW21670   2.004   4.300   0.104
 6924SOL    HW121671   1.987   4.291   0.202
 6924SOL    HW221672   1.929   4.259   0.053
 6925SOL     OW21673   4.887   6.084   4.506
 6925SOL    HW121674   4.969   6.030   4.529
 6925SOL    HW221675   4.911   6.153   4.437
 6926SOL     OW21676   2.609   2.754   0.764
 6926SOL    HW121677   2.646   2.847   0.757
 6926SOL    HW221678   2.618   2.722   0.858
 6927SOL     OW21679   3.693   3.011   5.729
 6927SOL    HW121680   3.683   2.923   5.776
 6927SOL    HW221681   3.661   3.003   5.635
 6928SOL     OW21682   5.605   5.564   1.003
 6928SOL    HW121683   5.678   5.616   1.047
 6928SOL    HW221684   5.593   5.597   0.909
 6929SOL     OW21685   5.057   5.661   1.694
 6929SOL    HW121686   5.113   5.651   1.776
 6929SOL    HW221687   5.110   5.707   1.623
 6930SOL     OW21688   1.405   0.547   1.463
 6930SOL    HW121689   1.478   0.586   1.520
 6930SOL    HW221690   1.413   0.448   1.462
 6931SOL     OW21691   2.060   1.419   2.420
 6931SOL    HW121692   1.965   1.420   2.389
 6931SOL    HW221693   2.109   1.497   2.381
 6932SOL     OW21694   4.278   6.843   6.925
 6932SOL    HW121695   4.288   6.926   6.980
 6932SOL    HW221696   4.184   6.812   6.928
 6933SOL     OW21697   3.749   6.213   5.511
 6933SOL    HW121698   3.826   6.253   5.561
 6933SOL    HW221699   3.706   6.142   5.566
 6934SOL     OW21700   4.512   3.216   6.084
 6934SOL    HW121701   4.499   3.314   6.070
 6934SOL    HW221702   4.453   3.165   6.021
 6935SOL     OW21703   4.625   5.509   2.777
 6935SOL    HW121704   4.621   5.481   2.873
 6935SOL    HW221705   4.686   5.447   2.727
 6936SOL     OW21706   6.173   3.028   3.725
 6936SOL    HW121707   6.106   2.987   3.787
 6936SOL    HW221708   6.144   3.014   3.631
 6937SOL     OW21709   5.865   6.050   0.589
 6937SOL    HW121710   5.922   6.128   0.616
 6937SOL    HW221711   5.917   5.991   0.526
 6938SOL     OW21712   6.530   2.828   4.924
 6938SOL    HW121713   6.436   2.798   4.909
 6938SOL    HW221714   6.594   2.758   4.892
 6939SOL     OW21715   0.811   5.404   2.060
 6939SOL    HW121716   0.846   5.342   1.991
 6939SOL    HW221717   0.722   5.371   2.093
 6940SOL     OW21718   3.444   0.206   6.276
 6940SOL    HW121719   3.466   0.298   6.309
 6940SOL    HW221720   3.394   0.157   6.347
 6941SOL     OW21721   3.026   4.032   1.775
 6941SOL    HW121722   3.083   4.025   1.693
 6941SOL    HW221723   3.082   4.016   1.856
 6942SOL     OW21724   5.977   6.580   2.205
 6942SOL    HW121725   5.943   6.490   2.176
 6942SOL    HW221726   6.067   6.569   2.248
 6943SOL     OW21727   3.691   5.820   1.142
 6943SOL    HW121728   3.613   5.808   1.203
 6943SOL    HW221729   3.713   5.733   1.098
 6944SOL     OW21730   0.800   4.780   6.556
 6944SOL    HW121731   0.820   4.866   6.510
 6944SOL    HW221732   0.703   4.758   6.544
 6945SOL     OW21733   6.708   1.496   0.480
 6945SOL    HW121734   6.798   1.469   0.516
 6945SOL    HW221735   6.701   1.469   0.385
 6946SOL     OW21736   4.426   6.790   1.059
 6946SOL    HW121737   4.342   6.737   1.067
 6946SOL    HW221738   4.438   6.821   0.965
 6947SOL     OW21739   3.415   5.477   6.833
 6947SOL    HW121740   3.366   5.564   6.825
 6947SOL    HW221741   3.351   5.401   6.823
 6948SOL     OW21742   0.778   6.739   1.371
 6948SOL    HW121743   0.832   6.754   1.289
 6948SOL    HW221744   0.707   6.809   1.377
 6949SOL     OW21745   4.192   0.117   3.642
 6949SOL    HW121746   4.250   0.036   3.636
 6949SOL    HW221747   4.117   0.100   3.706
 6950SOL     OW21748   1.336   1.230   4.990
 6950SOL    HW121749   1.336   1.139   4.949
 6950SOL    HW221750   1.386   1.294   4.932
 6951SOL     OW21751   6.441   5.997   5.865
 6951SOL    HW121752   6.533   5.960   5.852
 6951SOL    HW221753   6.447   6.085   5.911
 6952SOL     OW21754   0.938   5.808   3.225
 6952SOL    HW121755   0.945   5.791   3.126
 6952SOL    HW221756   0.949   5.906   3.243
 6953SOL     OW21757   4.218   6.610   1.982
 6953SOL    HW121758   4.160   6.675   1.931
 6953SOL    HW221759   4.186   6.604   2.076
 6954SOL     OW21760   0.391   4.012   2.017
 6954SOL    HW121761   0.309   4.017   1.961
 6954SOL    HW221762   0.459   4.077   1.984
 6955SOL     OW21763   5.536   0.666   1.968
 6955SOL    HW121764   5.599   0.602   2.012
 6955SOL    HW221765   5.450   0.620   1.946
 6956SOL     OW21766   5.361   5.920   3.521
 6956SOL    HW121767   5.342   5.976   3.601
 6956SOL    HW221768   5.387   5.979   3.444
 6957SOL     OW21769   5.905   5.505   1.000
 6957SOL    HW121770   5.858   5.532   0.916
 6957SOL    HW221771   5.975   5.438   0.980
 6958SOL     OW21772   3.728   3.376   4.845
 6958SOL    HW121773   3.656   3.315   4.812
 6958SOL    HW221774   3.812   3.324   4.860
 6959SOL     OW21775   2.234   2.959   3.533
 6959SOL    HW121776   2.139   2.990   3.528
 6959SOL    HW221777   2.270   2.977   3.624
 6960SOL     OW21778   1.492   3.744   1.432
 6960SOL    HW121779   1.514   3.711   1.340
 6960SOL    HW221780   1.500   3.843   1.435
 6961SOL     OW21781   6.170   0.539   4.428
 6961SOL    HW121782   6.173   0.531   4.528
 6961SOL    HW221783   6.103   0.609   4.403
 6962SOL     OW21784   4.469   6.017   1.753
 6962SOL    HW121785   4.376   6.051   1.767
 6962SOL    HW221786   4.535   6.087   1.781
 6963SOL     OW21787   5.262   5.779   1.569
 6963SOL    HW121788   5.268   5.738   1.478
 6963SOL    HW221789   5.352   5.811   1.598
 6964SOL     OW21790   3.792   1.207   5.466
 6964SOL    HW121791   3.835   1.297   5.467
 6964SOL    HW221792   3.716   1.208   5.400
 6965SOL     OW21793   1.371   1.172   7.000
 6965SOL    HW121794   1.416   1.254   6.966
 6965SOL    HW221795   1.437   1.118   0.035
 6966SOL     OW21796   0.848   1.837   2.283
 6966SOL    HW121797   0.808   1.912   2.230
 6966SOL    HW221798   0.868   1.760   2.222
 6967SOL     OW21799   3.125   0.839   6.215
 6967SOL    HW121800   3.180   0.757   6.232
 6967SOL    HW221801   3.155   0.912   6.276
 6968SOL     OW21802   4.004   0.493   3.411
 6968SOL    HW121803   3.920   0.451   3.446
 6968SOL    HW221804   3.988   0.590   3.393
 6969SOL     OW21805   2.818   2.285   1.493
 6969SOL    HW121806   2.792   2.356   1.558
 6969SOL    HW221807   2.915   2.294   1.472
 6970SOL     OW21808   3.881   3.500   5.871
 6970SOL    HW121809   3.954   3.553   5.914
 6970SOL    HW221810   3.818   3.467   5.941
 6971SOL     OW21811   6.147   4.476   0.799
 6971SOL    HW121812   6.139   4.380   0.825
 6971SOL    HW221813   6.056   4.517   0.796
 6972SOL     OW21814   5.810   4.737   3.234
 6972SOL    HW121815   5.731   4.679   3.257
 6972SOL    HW221816   5.779   4.816   3.181
 6973SOL     OW21817   0.703   3.262   3.210
 6973SOL    HW121818   0.639   3.186   3.205
 6973SOL    HW221819   0.692   3.309   3.298
 6974SOL     OW21820   2.932   3.840   2.520
 6974SOL    HW121821   2.860   3.861   2.454
 6974SOL    HW221822   2.991   3.768   2.484
 6975SOL     OW21823   1.353   6.585   5.755
 6975SOL    HW121824   1.255   6.571   5.768
 6975SOL    HW221825   1.375   6.681   5.771
 6976SOL     OW21826   6.674   5.516   6.091
 6976SOL    HW121827   6.733   5.442   6.059
 6976SOL    HW221828   6.589   5.516   6.039
 6977SOL     OW21829   3.450   2.923   1.033
 6977SOL    HW121830   3.514   2.966   1.097
 6977SOL    HW221831   3.402   2.848   1.078
 6978SOL     OW21832   5.507   2.214   2.307
 6978SOL    HW121833   5.557   2.129   2.292
 6978SOL    HW221834   5.424   2.215   2.250
 6979SOL     OW21835   1.227   4.263   1.324
 6979SOL    HW121836   1.168   4.182   1.320
 6979SOL    HW221837   1.284   4.259   1.406
 6980SOL     OW21838   1.387   0.672   3.412
 6980SOL    HW121839   1.316   0.671   3.341
 6980SOL    HW221840   1.357   0.616   3.489
 6981SOL     OW21841   3.643   3.792   5.651
 6981SOL    HW121842   3.675   3.730   5.580
 6981SOL    HW221843   3.662   3.753   5.741
 6982SOL     OW21844   0.876   1.174   4.479
 6982SOL    HW121845   0.929   1.138   4.557
 6982SOL    HW221846   0.791   1.122   4.470
 6983SOL     OW21847   4.449   2.116   4.132
 6983SOL    HW121848   4.393   2.044   4.091
 6983SOL    HW221849   4.488   2.084   4.218
 6984SOL     OW21850   1.568   1.840   3.196
 6984SOL    HW121851   1.573   1.829   3.097
 6984SOL    HW221852   1.535   1.931   3.218
 6985SOL     OW21853   5.960   4.886   1.343
 6985SOL    HW121854   5.927   4.855   1.254
 6985SOL    HW221855   5.979   4.984   1.339
 6986SOL     OW21856   2.807   6.982   6.261
 6986SOL    HW121857   2.748   6.913   6.303
 6986SOL    HW221858   2.780   0.055   6.293
 6987SOL     OW21859   6.214   1.245   6.024
 6987SOL    HW121860   6.288   1.268   5.961
 6987SOL    HW221861   6.213   1.146   6.038
 6988SOL     OW21862   0.935   6.845   6.715
 6988SOL    HW121863   0.864   6.915   6.706
 6988SOL    HW221864   0.954   6.829   6.812
 6989SOL     OW21865   0.804   4.462   3.136
 6989SOL    HW121866   0.799   4.365   3.113
 6989SOL    HW221867   0.885   4.502   3.094
 6990SOL     OW21868   4.423   2.777   1.256
 6990SOL    HW121869   4.399   2.687   1.218
 6990SOL    HW221870   4.510   2.770   1.304
 6991SOL     OW21871   4.642   4.278   4.041
 6991SOL    HW121872   4.664   4.281   4.139
 6991SOL    HW221873   4.699   4.209   3.997
 6992SOL     OW21874   5.356   0.325   6.526
 6992SOL    HW121875   5.322   0.237   6.495
 6992SOL    HW221876   5.448   0.313   6.563
 6993SOL     OW21877   6.198   6.791   2.650
 6993SOL    HW121878   6.200   6.807   2.551
 6993SOL    HW221879   6.228   6.873   2.698
 6994SOL     OW21880   0.366   2.212   3.849
 6994SOL    HW121881   0.314   2.142   3.801
 6994SOL    HW221882   0.457   2.219   3.810
 6995SOL     OW21883   0.787   4.149   6.389
 6995SOL    HW121884   0.777   4.198   6.475
 6995SOL    HW221885   0.703   4.157   6.336
 6996SOL     OW21886   1.703   0.317   6.871
 6996SOL    HW121887   1.615   0.342   6.911
 6996SOL    HW221888   1.709   0.217   6.867
 6997SOL     OW21889   0.468   5.301   5.689
 6997SOL    HW121890   0.438   5.347   5.772
 6997SOL    HW221891   0.412   5.332   5.612
 6998SOL     OW21892   1.072   1.321   1.394
 6998SOL    HW121893   1.171   1.325   1.382
 6998SOL    HW221894   1.033   1.412   1.380
 6999SOL     OW21895   2.006   2.762   6.296
 6999SOL    HW121896   1.922   2.789   6.344
 6999SOL    HW221897   1.983   2.735   6.203
 7000SOL     OW21898   5.582   6.242   1.829
 7000SOL    HW121899   5.562   6.148   1.855
 7000SOL    HW221900   5.572   6.302   1.909
 7001SOL     OW21901   1.601   3.766   5.633
 7001SOL    HW121902   1.684   3.727   5.594
 7001SOL    HW221903   1.580   3.852   5.586
 7002SOL     OW21904   1.608   5.626   4.448
 7002SOL    HW121905   1.631   5.688   4.524
 7002SOL    HW221906   1.660   5.652   4.367
 7003SOL     OW21907   4.555   5.687   1.031
 7003SOL    HW121908   4.555   5.617   0.959
 7003SOL    HW221909   4.462   5.720   1.046
 7004SOL     OW21910   0.485   5.445   1.346
 7004SOL    HW121911   0.534   5.430   1.261
 7004SOL    HW221912   0.399   5.492   1.327
 7005SOL     OW21913   1.056   0.219   0.824
 7005SOL    HW121914   1.133   0.190   0.767
 7005SOL    HW221915   0.981   0.154   0.814
 7006SOL     OW21916   5.035   5.329   3.895
 7006SOL    HW121917   4.953   5.338   3.838
 7006SOL    HW221918   5.088   5.414   3.888
 7007SOL     OW21919   4.598   0.825   4.508
 7007SOL    HW121920   4.641   0.866   4.427
 7007SOL    HW221921   4.511   0.870   4.525
 7008SOL     OW21922   0.386   4.468   4.306
 7008SOL    HW121923   0.349   4.555   4.337
 7008SOL    HW221924   0.311   4.409   4.274
 7009SOL     OW21925   3.991   6.229   2.678
 7009SOL    HW121926   3.929   6.230   2.599
 7009SOL    HW221927   4.079   6.192   2.650
 7010SOL     OW21928   5.663   4.530   3.640
 7010SOL    HW121929   5.596   4.456   3.626
 7010SOL    HW221930   5.735   4.497   3.701
 7011SOL     OW21931   3.430   6.417   6.445
 7011SOL    HW121932   3.383   6.345   6.395
 7011SOL    HW221933   3.366   6.491   6.466
 7012SOL     OW21934   1.069   2.044   1.018
 7012SOL    HW121935   1.106   2.059   1.109
 7012SOL    HW221936   1.117   2.104   0.953
 7013SOL     OW21937   0.887   6.417   0.015
 7013SOL    HW121938   0.977   6.456   0.036
 7013SOL    HW221939   0.899   6.327   6.990
 7014SOL     OW21940   4.730   3.205   0.814
 7014SOL    HW121941   4.631   3.195   0.805
 7014SOL    HW221942   4.751   3.283   0.873
 7015SOL     OW21943   5.677   4.069   1.567
 7015SOL    HW121944   5.764   4.117   1.557
 7015SOL    HW221945   5.602   4.134   1.557
 7016SOL     OW21946   3.478   5.354   1.344
 7016SOL    HW121947   3.486   5.445   1.384
 7016SOL    HW221948   3.569   5.314   1.335
 7017SOL     OW21949   2.859   5.133   3.370
 7017SOL    HW121950   2.958   5.128   3.385
 7017SOL    HW221951   2.811   5.078   3.438
 7018SOL     OW21952   5.197   3.560   3.970
 7018SOL    HW121953   5.110   3.591   4.009
 7018SOL    HW221954   5.180   3.485   3.906
 7019SOL     OW21955   3.885   4.993   0.504
 7019SOL    HW121956   3.873   5.088   0.476
 7019SOL    HW221957   3.813   4.967   0.568
 7020SOL     OW21958   6.481   4.148   5.734
 7020SOL    HW121959   6.385   4.124   5.751
 7020SOL    HW221960   6.488   4.246   5.719
 7021SOL     OW21961   1.700   2.251   4.915
 7021SOL    HW121962   1.693   2.176   4.849
 7021SOL    HW221963   1.667   2.219   5.004
 7022SOL     OW21964   4.423   0.580   6.752
 7022SOL    HW121965   4.419   0.623   6.662
 7022SOL    HW221966   4.422   0.480   6.741
 7023SOL     OW21967   1.487   2.872   3.011
 7023SOL    HW121968   1.555   2.909   3.074
 7023SOL    HW221969   1.497   2.772   3.005
 7024SOL     OW21970   3.371   3.634   4.379
 7024SOL    HW121971   3.372   3.711   4.316
 7024SOL    HW221972   3.454   3.635   4.435
 7025SOL     OW21973   3.798   0.779   0.989
 7025SOL    HW121974   3.722   0.749   1.046
 7025SOL    HW221975   3.775   0.866   0.945
 7026SOL     OW21976   3.501   1.998   1.986
 7026SOL    HW121977   3.587   2.047   1.979
 7026SOL    HW221978   3.517   1.900   1.975
 7027SOL     OW21979   2.569   5.619   4.272
 7027SOL    HW121980   2.471   5.608   4.258
 7027SOL    HW221981   2.591   5.608   4.369
 7028SOL     OW21982   3.746   1.297   2.662
 7028SOL    HW121983   3.759   1.262   2.755
 7028SOL    HW221984   3.822   1.357   2.638
 7029SOL     OW21985   4.018   4.387   5.275
 7029SOL    HW121986   4.050   4.460   5.215
 7029SOL    HW221987   3.967   4.319   5.221
 7030SOL     OW21988   0.417   0.818   5.337
 7030SOL    HW121989   0.465   0.851   5.418
 7030SOL    HW221990   0.452   0.865   5.256
 7031SOL     OW21991   3.725   6.034   6.935
 7031SOL    HW121992   3.819   6.068   6.927
 7031SOL    HW221993   3.691   6.052   0.010
 7032SOL     OW21994   4.682   1.446   3.937
 7032SOL    HW121995   4.627   1.432   4.019
 7032SOL    HW221996   4.777   1.463   3.962
 7033SOL     OW21997   1.621   2.430   3.373
 7033SOL    HW121998   1.670   2.517   3.360
 7033SOL    HW221999   1.576   2.430   3.462
 7034SOL     OW22000   6.974   1.449   2.750
 7034SOL    HW122001   0.036   1.416   2.698
 7034SOL    HW222002   6.906   1.485   2.687
 7035SOL     OW22003   1.274   0.131   0.674
 7035SOL    HW122004   1.285   0.047   0.621
 7035SOL    HW222005   1.362   0.157   0.714
 7036SOL     OW22006   6.704   1.137   1.972
 7036SOL    HW122007   6.607   1.121   1.954
 7036SOL    HW222008   6.723   1.235   1.965
 7037SOL     OW22009   0.916   1.596   6.611
 7037SOL    HW122010   0.953   1.565   6.523
 7037SOL    HW222011   0.986   1.649   6.659
 7038SOL     OW22012   2.251   4.267   4.943
 7038SOL    HW122013   2.320   4.337   4.962
 7038SOL    HW222014   2.271   4.185   4.997
 7039SOL     OW22015   0.679   5.978   2.642
 7039SOL    HW122016   0.589   5.935   2.635
 7039SOL    HW222017   0.670   6.077   2.627
 7040SOL     OW22018   5.603   2.590   5.480
 7040SOL    HW122019   5.534   2.542   5.534
 7040SOL    HW222020   5.681   2.530   5.465
 7041SOL     OW22021   6.568   1.609   1.958
 7041SOL    HW122022   6.552   1.624   2.056
 7041SOL    HW222023   6.482   1.620   1.908
 7042SOL     OW22024   4.181   5.955   4.621
 7042SOL    HW122025   4.202   5.969   4.524
 7042SOL    HW222026   4.116   5.880   4.630
 7043SOL     OW22027   2.397   4.515   3.456
 7043SOL    HW122028   2.419   4.472   3.368
 7043SOL    HW222029   2.323   4.464   3.500
 7044SOL     OW22030   5.848   5.292   5.351
 7044SOL    HW122031   5.796   5.335   5.426
 7044SOL    HW222032   5.919   5.355   5.319
 7045SOL     OW22033   5.121   4.997   2.642
 7045SOL    HW122034   5.088   4.944   2.720
 7045SOL    HW222035   5.204   5.047   2.669
 7046SOL     OW22036   3.125   1.561   3.481
 7046SOL    HW122037   3.181   1.504   3.421
 7046SOL    HW222038   3.028   1.545   3.463
 7047SOL     OW22039   6.682   0.588   1.905
 7047SOL    HW122040   6.735   0.529   1.964
 7047SOL    HW222041   6.605   0.537   1.866
 7048SOL     OW22042   5.884   6.601   4.230
 7048SOL    HW122043   5.808   6.665   4.240
 7048SOL    HW222044   5.880   6.560   4.139
 7049SOL     OW22045   3.896   2.085   0.881
 7049SOL    HW122046   3.864   2.090   0.786
 7049SOL    HW222047   3.961   2.009   0.890
 7050SOL     OW22048   4.252   3.514   1.317
 7050SOL    HW122049   4.227   3.610   1.325
 7050SOL    HW222050   4.310   3.488   1.394
 7051SOL     OW22051   0.242   6.314   1.256
 7051SOL    HW122052   0.341   6.325   1.264
 7051SOL    HW222053   0.221   6.221   1.227
 7052SOL     OW22054   6.604   1.113   3.548
 7052SOL    HW122055   6.548   1.034   3.521
 7052SOL    HW222056   6.676   1.127   3.481
 7053SOL     OW22057   1.707   3.493   4.603
 7053SOL    HW122058   1.730   3.440   4.522
 7053SOL    HW222059   1.650   3.571   4.577
 7054SOL     OW22060   0.062   6.708   0.803
 7054SOL    HW122061   6.991   6.671   0.830
 7054SOL    HW222062   0.109   6.643   0.744
 7055SOL     OW22063   3.074   0.193   6.959
 7055SOL    HW122064   3.096   0.143   0.025
 7055SOL    HW222065   2.976   0.187   6.942
 7056SOL     OW22066   6.388   5.024   1.511
 7056SOL    HW122067   6.422   5.069   1.428
 7056SOL    HW222068   6.346   5.093   1.570
 7057SOL     OW22069   2.968   5.166   3.737
 7057SOL    HW122070   3.009   5.099   3.675
 7057SOL    HW222071   3.029   5.182   3.814
 7058SOL     OW22072   5.409   2.573   5.906
 7058SOL    HW122073   5.325   2.618   5.937
 7058SOL    HW222074   5.487   2.632   5.925
 7059SOL     OW22075   0.924   0.997   3.960
 7059SOL    HW122076   0.889   0.953   3.877
 7059SOL    HW222077   1.013   1.039   3.940
 7060SOL     OW22078   3.556   0.408   0.908
 7060SOL    HW122079   3.489   0.348   0.863
 7060SOL    HW222080   3.514   0.448   0.990
 7061SOL     OW22081   0.501   3.109   3.683
 7061SOL    HW122082   0.418   3.159   3.662
 7061SOL    HW222083   0.482   3.039   3.752
 7062SOL     OW22084   3.306   2.016   5.015
 7062SOL    HW122085   3.296   1.988   5.110
 7062SOL    HW222086   3.245   2.093   4.996
 7063SOL     OW22087   1.395   6.784   1.794
 7063SOL    HW122088   1.359   6.877   1.797
 7063SOL    HW222089   1.476   6.781   1.736
 7064SOL     OW22090   3.954   2.179   6.790
 7064SOL    HW122091   3.924   2.197   6.884
 7064SOL    HW222092   3.877   2.143   6.737
 7065SOL     OW22093   3.338   3.849   5.441
 7065SOL    HW122094   3.294   3.898   5.366
 7065SOL    HW222095   3.426   3.892   5.462
 7066SOL     OW22096   3.585   0.139   6.036
 7066SOL    HW122097   3.528   0.141   6.118
 7066SOL    HW222098   3.661   0.203   6.047
 7067SOL     OW22099   1.183   3.262   5.627
 7067SOL    HW122100   1.140   3.251   5.537
 7067SOL    HW222101   1.253   3.333   5.622
 7068SOL     OW22102   5.779   4.049   4.928
 7068SOL    HW122103   5.748   4.122   4.989
 7068SOL    HW222104   5.850   4.084   4.867
 7069SOL     OW22105   5.832   1.310   5.110
 7069SOL    HW122106   5.798   1.238   5.048
 7069SOL    HW222107   5.904   1.361   5.064
 7070SOL     OW22108   1.055   6.622   4.383
 7070SOL    HW122109   1.056   6.700   4.444
 7070SOL    HW222110   1.113   6.640   4.304
 7071SOL     OW22111   3.384   6.030   0.046
 7071SOL    HW122112   3.321   5.980   7.004
 7071SOL    HW222113   3.431   5.966   0.106
 7072SOL     OW22114   1.896   5.649   0.174
 7072SOL    HW122115   1.857   5.622   0.086
 7072SOL    HW222116   1.994   5.665   0.164
 7073SOL     OW22117   4.618   6.962   3.673
 7073SOL    HW122118   4.690   6.908   3.716
 7073SOL    HW222119   4.657   7.015   3.597
 7074SOL     OW22120   6.063   3.379   2.040
 7074SOL    HW122121   6.049   3.323   2.122
 7074SOL    HW222122   5.974   3.408   2.005
 7075SOL     OW22123   1.706   4.399   4.754
 7075SOL    HW122124   1.688   4.488   4.795
 7075SOL    HW222125   1.680   4.401   4.658
 7076SOL     OW22126   5.568   2.991   0.342
 7076SOL    HW122127   5.615   2.984   0.254
 7076SOL    HW222128   5.469   2.991   0.326
 7077SOL     OW22129   2.246   4.019   3.637
 7077SOL    HW122130   2.235   4.069   3.551
 7077SOL    HW222131   2.221   3.923   3.624
 7078SOL     OW22132   6.329   6.070   1.322
 7078SOL    HW122133   6.318   6.138   1.249
 7078SOL    HW222134   6.401   6.101   1.384
 7079SOL     OW22135   0.849   6.551   3.734
 7079SOL    HW122136   0.801   6.580   3.652
 7079SOL    HW222137   0.794   6.484   3.784
 7080SOL     OW22138   3.482   1.301   4.321
 7080SOL    HW122139   3.488   1.383   4.377
 7080SOL    HW222140   3.532   1.315   4.236
 7081SOL     OW22141   1.383   5.688   0.305
 7081SOL    HW122142   1.478   5.657   0.291
 7081SOL    HW222143   1.339   5.630   0.373
 7082SOL     OW22144   6.861   4.129   0.309
 7082SOL    HW122145   6.779   4.178   0.339
 7082SOL    HW222146   6.917   4.190   0.252
 7083SOL     OW22147   0.442   1.563   1.852
 7083SOL    HW122148   0.471   1.472   1.822
 7083SOL    HW222149   0.477   1.631   1.787
 7084SOL     OW22150   1.066   5.255   5.672
 7084SOL    HW122151   1.032   5.301   5.754
 7084SOL    HW222152   1.022   5.295   5.591
 7085SOL     OW22153   0.104   1.960   2.183
 7085SOL    HW122154   0.170   1.899   2.139
 7085SOL    HW222155   0.152   2.018   2.249
 7086SOL     OW22156   5.277   1.155   5.965
 7086SOL    HW122157   5.330   1.146   5.881
 7086SOL    HW222158   5.184   1.122   5.950
 7087SOL     OW22159   5.567   4.490   2.529
 7087SOL    HW122160   5.472   4.496   2.559
 7087SOL    HW222161   5.622   4.446   2.601
 7088SOL     OW22162   5.109   2.183   5.209
 7088SOL    HW122163   5.149   2.102   5.252
 7088SOL    HW222164   5.181   2.234   5.162
 7089SOL     OW22165   2.278   2.891   3.814
 7089SOL    HW122166   2.182   2.880   3.840
 7089SOL    HW222167   2.337   2.863   3.890
 7090SOL     OW22168   2.654   1.367   0.349
 7090SOL    HW122169   2.750   1.384   0.325
 7090SOL    HW222170   2.602   1.451   0.339
 7091SOL     OW22171   0.594   1.128   1.045
 7091SOL    HW122172   0.611   1.119   0.947
 7091SOL    HW222173   0.681   1.125   1.094
 7092SOL     OW22174   4.079   2.883   5.677
 7092SOL    HW122175   4.069   2.980   5.699
 7092SOL    HW222176   4.094   2.872   5.579
 7093SOL     OW22177   3.449   4.146   1.939
 7093SOL    HW122178   3.543   4.136   1.974
 7093SOL    HW222179   3.385   4.106   2.005
 7094SOL     OW22180   0.199   6.234   5.796
 7094SOL    HW122181   0.116   6.216   5.744
 7094SOL    HW222182   0.279   6.210   5.741
 7095SOL     OW22183   2.695   4.893   5.834
 7095SOL    HW122184   2.627   4.902   5.907
 7095SOL    HW222185   2.718   4.797   5.821
 7096SOL     OW22186   6.252   6.713   1.727
 7096SOL    HW122187   6.301   6.750   1.807
 7096SOL    HW222188   6.154   6.709   1.747
 7097SOL     OW22189   4.984   0.686   2.143
 7097SOL    HW122190   4.979   0.757   2.213
 7097SOL    HW222191   4.906   0.624   2.153
 7098SOL     OW22192   1.521   5.319   5.641
 7098SOL    HW122193   1.529   5.351   5.736
 7098SOL    HW222194   1.448   5.250   5.636
 7099SOL     OW22195   3.884   2.034   4.653
 7099SOL    HW122196   3.850   1.943   4.675
 7099SOL    HW222197   3.929   2.032   4.563
 7100SOL     OW22198   5.956   3.094   0.373
 7100SOL    HW122199   5.905   3.081   0.288
 7100SOL    HW222200   6.048   3.128   0.351
 7101SOL     OW22201   2.497   1.147   4.925
 7101SOL    HW122202   2.398   1.137   4.940
 7101SOL    HW222203   2.545   1.135   5.012
 7102SOL     OW22204   5.695   6.873   0.428
 7102SOL    HW122205   5.773   6.890   0.488
 7102SOL    HW222206   5.676   6.775   0.425
 7103SOL     OW22207   5.710   5.114   1.836
 7103SOL    HW122208   5.729   5.174   1.758
 7103SOL    HW222209   5.790   5.108   1.894
 7104SOL     OW22210   6.703   3.620   2.872
 7104SOL    HW122211   6.625   3.629   2.934
 7104SOL    HW222212   6.681   3.662   2.785
 7105SOL     OW22213   3.371   3.468   4.676
 7105SOL    HW122214   3.335   3.385   4.719
 7105SOL    HW222215   3.295   3.528   4.651
 7106SOL     OW22216   3.451   3.152   1.758
 7106SOL    HW122217   3.440   3.172   1.856
 7106SOL    HW222218   3.376   3.194   1.707
 7107SOL     OW22219   4.741   0.229   0.587
 7107SOL    HW122220   4.714   0.134   0.607
 7107SOL    HW222221   4.841   0.236   0.589
 7108SOL     OW22222   2.774   5.686   2.833
 7108SOL    HW122223   2.850   5.745   2.859
 7108SOL    HW222224   2.708   5.739   2.779
 7109SOL     OW22225   2.150   0.504   6.817
 7109SOL    HW122226   2.086   0.429   6.833
 7109SOL    HW222227   2.100   0.589   6.803
 7110SOL     OW22228   3.109   5.872   4.064
 7110SOL    HW122229   3.030   5.813   4.079
 7110SOL    HW222230   3.172   5.828   4.000
 7111SOL     OW22231   1.942   2.445   4.325
 7111SOL    HW122232   1.864   2.498   4.359
 7111SOL    HW222233   1.942   2.445   4.225
 7112SOL     OW22234   2.639   5.050   4.598
 7112SOL    HW122235   2.578   4.985   4.643
 7112SOL    HW222236   2.720   5.002   4.565
 7113SOL     OW22237   3.348   4.019   4.670
 7113SOL    HW122238   3.429   3.985   4.622
 7113SOL    HW222239   3.340   3.973   4.759
 7114SOL     OW22240   4.918   5.543   1.148
 7114SOL    HW122241   4.867   5.613   1.199
 7114SOL    HW222242   4.960   5.479   1.213
 7115SOL     OW22243   4.836   3.154   6.971
 7115SOL    HW122244   4.778   3.171   0.033
 7115SOL    HW222245   4.824   3.060   6.941
 7116SOL     OW22246   5.357   4.353   3.333
 7116SOL    HW122247   5.376   4.259   3.303
 7116SOL    HW222248   5.423   4.415   3.292
 7117SOL     OW22249   0.261   0.223   4.764
 7117SOL    HW122250   0.325   0.254   4.834
 7117SOL    HW222251   0.269   0.282   4.683
 7118SOL     OW22252   3.837   4.376   5.977
 7118SOL    HW122253   3.766   4.424   6.029
 7118SOL    HW222254   3.911   4.439   5.955
 7119SOL     OW22255   5.369   1.014   4.961
 7119SOL    HW122256   5.295   1.004   5.028
 7119SOL    HW222257   5.389   0.925   4.920
 7120SOL     OW22258   4.026   1.819   0.885
 7120SOL    HW122259   3.983   1.779   0.804
 7120SOL    HW222260   4.109   1.768   0.908
 7121SOL     OW22261   0.791   6.689   3.044
 7121SOL    HW122262   0.847   6.767   3.072
 7121SOL    HW222263   0.743   6.651   3.123
 7122SOL     OW22264   1.685   0.476   5.785
 7122SOL    HW122265   1.779   0.502   5.768
 7122SOL    HW222266   1.630   0.557   5.805
 7123SOL     OW22267   0.989   5.057   4.048
 7123SOL    HW122268   0.930   5.030   4.124
 7123SOL    HW222269   0.989   5.157   4.039
 7124SOL     OW22270   0.767   2.801   1.600
 7124SOL    HW122271   0.783   2.862   1.678
 7124SOL    HW222272   0.677   2.819   1.561
 7125SOL     OW22273   0.696   1.080   0.768
 7125SOL    HW122274   0.761   1.004   0.762
 7125SOL    HW222275   0.739   1.163   0.733
 7126SOL     OW22276   4.142   5.807   0.563
 7126SOL    HW122277   4.226   5.758   0.586
 7126SOL    HW222278   4.070   5.741   0.542
 7127SOL     OW22279   3.060   5.604   6.871
 7127SOL    HW122280   2.985   5.539   6.863
 7127SOL    HW222281   3.093   5.628   6.780
 7128SOL     OW22282   3.623   4.339   6.809
 7128SOL    HW122283   3.658   4.312   6.719
 7128SOL    HW222284   3.575   4.426   6.800
 7129SOL     OW22285   2.047   1.252   1.129
 7129SOL    HW122286   1.979   1.268   1.057
 7129SOL    HW222287   2.113   1.327   1.130
 7130SOL     OW22288   3.390   6.274   4.227
 7130SOL    HW122289   3.348   6.362   4.248
 7130SOL    HW222290   3.322   6.202   4.237
 7131SOL     OW22291   3.521   1.128   1.558
 7131SOL    HW122292   3.548   1.204   1.619
 7131SOL    HW222293   3.433   1.149   1.516
 7132SOL     OW22294   4.295   4.132   0.392
 7132SOL    HW122295   4.212   4.187   0.395
 7132SOL    HW222296   4.318   4.111   0.296
 7133SOL     OW22297   3.786   4.953   5.097
 7133SOL    HW122298   3.809   4.902   5.180
 7133SOL    HW222299   3.837   4.914   5.020
 7134SOL     OW22300   5.368   0.026   1.966
 7134SOL    HW122301   5.370   0.084   2.047
 7134SOL    HW222302   5.290   0.050   1.909
 7135SOL     OW22303   2.751   2.381   3.445
 7135SOL    HW122304   2.844   2.346   3.433
 7135SOL    HW222305   2.698   2.316   3.500
 7136SOL     OW22306   3.416   1.599   0.690
 7136SOL    HW122307   3.508   1.638   0.697
 7136SOL    HW222308   3.381   1.580   0.782
 7137SOL     OW22309   2.692   2.047   0.304
 7137SOL    HW122310   2.771   2.083   0.254
 7137SOL    HW222311   2.677   2.101   0.387
 7138SOL     OW22312   2.005   1.389   0.825
 7138SOL    HW122313   2.039   1.298   0.806
 7138SOL    HW222314   2.079   1.445   0.862
 7139SOL     OW22315   4.938   4.739   2.533
 7139SOL    HW122316   4.964   4.705   2.623
 7139SOL    HW222317   4.913   4.661   2.475
 7140SOL     OW22318   6.133   4.102   0.530
 7140SOL    HW122319   6.189   4.020   0.540
 7140SOL    HW222320   6.060   4.085   0.463
 7141SOL     OW22321   3.848   6.951   1.140
 7141SOL    HW122322   3.814   6.899   1.062
 7141SOL    HW222323   3.887   0.020   1.108
 7142SOL     OW22324   4.072   6.866   4.285
 7142SOL    HW122325   4.168   6.873   4.311
 7142SOL    HW222326   4.062   6.889   4.188
 7143SOL     OW22327   2.265   3.632   6.905
 7143SOL    HW122328   2.181   3.622   6.851
 7143SOL    HW222329   2.241   3.654   6.999
 7144SOL     OW22330   0.819   1.319   2.695
 7144SOL    HW122331   0.779   1.307   2.605
 7144SOL    HW222332   0.784   1.249   2.757
 7145SOL     OW22333   4.213   0.651   6.408
 7145SOL    HW122334   4.305   0.639   6.445
 7145SOL    HW222335   4.186   0.747   6.414
 7146SOL     OW22336   1.665   0.854   6.344
 7146SOL    HW122337   1.599   0.807   6.402
 7146SOL    HW222338   1.734   0.788   6.313
 7147SOL     OW22339   6.953   6.179   3.525
 7147SOL    HW122340   6.897   6.184   3.607
 7147SOL    HW222341   6.981   6.271   3.497
 7148SOL     OW22342   5.859   6.143   1.798
 7148SOL    HW122343   5.761   6.158   1.790
 7148SOL    HW222344   5.876   6.070   1.864
 7149SOL     OW22345   0.553   5.108   3.799
 7149SOL    HW122346   0.521   5.014   3.788
 7149SOL    HW222347   0.560   5.151   3.709
 7150SOL     OW22348   3.483   3.267   0.075
 7150SOL    HW122349   3.544   3.335   0.036
 7150SOL    HW222350   3.388   3.297   0.066
 7151SOL     OW22351   2.572   6.995   0.784
 7151SOL    HW122352   2.490   6.945   0.813
 7151SOL    HW222353   2.603   0.036   0.858
 7152SOL     OW22354   6.593   0.388   5.866
 7152SOL    HW122355   6.667   0.345   5.814
 7152SOL    HW222356   6.615   0.384   5.964
 7153SOL     OW22357   3.398   5.019   1.905
 7153SOL    HW122358   3.464   5.053   1.972
 7153SOL    HW222359   3.447   4.976   1.829
 7154SOL     OW22360   4.308   6.646   2.912
 7154SOL    HW122361   4.252   6.600   2.981
 7154SOL    HW222362   4.250   6.678   2.837
 7155SOL     OW22363   3.409   3.539   1.697
 7155SOL    HW122364   3.484   3.531   1.632
 7155SOL    HW222365   3.358   3.452   1.701
 7156SOL     OW22366   5.237   3.574   2.721
 7156SOL    HW122367   5.172   3.589   2.647
 7156SOL    HW222368   5.250   3.476   2.735
 7157SOL     OW22369   6.599   5.326   1.893
 7157SOL    HW122370   6.596   5.227   1.905
 7157SOL    HW222371   6.520   5.355   1.839
 7158SOL     OW22372   0.894   6.932   3.127
 7158SOL    HW122373   0.824   6.932   3.199
 7158SOL    HW222374   0.895   0.003   3.081
 7159SOL     OW22375   1.397   4.908   4.305
 7159SOL    HW122376   1.332   4.836   4.331
 7159SOL    HW222377   1.377   4.991   4.357
 7160SOL     OW22378   6.417   6.176   2.622
 7160SOL    HW122379   6.379   6.138   2.537
 7160SOL    HW222380   6.432   6.274   2.610
 7161SOL     OW22381   3.178   4.012   2.665
 7161SOL    HW122382   3.200   3.933   2.722
 7161SOL    HW222383   3.134   3.982   2.581
 7162SOL     OW22384   0.671   5.087   6.085
 7162SOL    HW122385   0.700   5.180   6.109
 7162SOL    HW222386   0.694   5.069   5.989
 7163SOL     OW22387   3.037   0.756   2.263
 7163SOL    HW122388   2.986   0.671   2.279
 7163SOL    HW222389   3.004   0.826   2.326
 7164SOL     OW22390   2.330   0.291   4.978
 7164SOL    HW122391   2.382   0.259   5.057
 7164SOL    HW222392   2.255   0.227   4.960
 7165SOL     OW22393   5.608   5.988   1.962
 7165SOL    HW122394   5.693   5.939   1.943
 7165SOL    HW222395   5.601   6.007   2.060
 7166SOL     OW22396   5.469   1.950   0.316
 7166SOL    HW122397   5.475   1.851   0.302
 7166SOL    HW222398   5.378   1.974   0.350
 7167SOL     OW22399   4.982   3.031   4.949
 7167SOL    HW122400   5.080   3.041   4.964
 7167SOL    HW222401   4.947   3.114   4.905
 7168SOL     OW22402   3.070   2.034   3.240
 7168SOL    HW122403   3.019   2.099   3.185
 7168SOL    HW222404   3.166   2.033   3.210
 7169SOL     OW22405   6.915   4.320   4.856
 7169SOL    HW122406   6.936   4.265   4.937
 7169SOL    HW222407   6.827   4.367   4.871
 7170SOL     OW22408   4.562   6.806   2.520
 7170SOL    HW122409   4.544   6.869   2.595
 7170SOL    HW222410   4.648   6.830   2.475
 7171SOL     OW22411   5.927   3.601   0.646
 7171SOL    HW122412   5.981   3.582   0.728
 7171SOL    HW222413   5.862   3.527   0.631
 7172SOL     OW22414   2.258   1.026   5.616
 7172SOL    HW122415   2.263   1.049   5.713
 7172SOL    HW222416   2.288   1.105   5.562
 7173SOL     OW22417   6.121   4.852   6.269
 7173SOL    HW122418   6.093   4.884   6.179
 7173SOL    HW222419   6.221   4.852   6.275
 7174SOL     OW22420   0.303   4.480   0.884
 7174SOL    HW122421   0.245   4.557   0.907
 7174SOL    HW222422   0.314   4.474   0.785
 7175SOL     OW22423   0.020   3.115   5.327
 7175SOL    HW122424   0.114   3.103   5.295
 7175SOL    HW222425   7.010   3.035   5.381
 7176SOL     OW22426   6.788   1.893   4.035
 7176SOL    HW122427   6.702   1.930   3.999
 7176SOL    HW222428   6.853   1.883   3.959
 7177SOL     OW22429   1.382   4.581   5.806
 7177SOL    HW122430   1.344   4.628   5.886
 7177SOL    HW222431   1.343   4.621   5.723
 7178SOL     OW22432   0.568   1.639   6.269
 7178SOL    HW122433   0.479   1.673   6.241
 7178SOL    HW222434   0.559   1.544   6.301
 7179SOL     OW22435   1.271   3.845   4.800
 7179SOL    HW122436   1.258   3.927   4.855
 7179SOL    HW222437   1.310   3.773   4.857
 7180SOL     OW22438   2.397   4.128   0.499
 7180SOL    HW122439   2.452   4.166   0.424
 7180SOL    HW222440   2.334   4.060   0.462
 7181SOL     OW22441   2.312   0.362   0.326
 7181SOL    HW122442   2.326   0.448   0.375
 7181SOL    HW222443   2.214   0.342   0.322
 7182SOL     OW22444   0.718   3.668   3.551
 7182SOL    HW122445   0.723   3.711   3.641
 7182SOL    HW222446   0.787   3.597   3.543
 7183SOL     OW22447   1.724   5.803   2.075
 7183SOL    HW122448   1.786   5.725   2.069
 7183SOL    HW222449   1.702   5.821   2.171
 7184SOL     OW22450   6.930   0.734   3.417
 7184SOL    HW122451   6.887   0.801   3.478
 7184SOL    HW222452   6.860   0.695   3.356
 7185SOL     OW22453   5.661   1.140   5.491
 7185SOL    HW122454   5.648   1.239   5.492
 7185SOL    HW222455   5.574   1.095   5.513
 7186SOL     OW22456   6.731   1.672   1.644
 7186SOL    HW122457   6.732   1.687   1.742
 7186SOL    HW222458   6.774   1.750   1.598
 7187SOL     OW22459   2.958   4.119   5.396
 7187SOL    HW122460   3.008   4.143   5.479
 7187SOL    HW222461   2.861   4.108   5.418
 7188SOL     OW22462   4.808   5.785   0.003
 7188SOL    HW122463   4.893   5.823   0.039
 7188SOL    HW222464   4.795   5.692   0.038
 7189SOL     OW22465   6.503   2.907   5.810
 7189SOL    HW122466   6.537   2.996   5.842
 7189SOL    HW222467   6.474   2.915   5.715
 7190SOL     OW22468   6.079   5.973   1.413
 7190SOL    HW122469   6.071   5.960   1.512
 7190SOL    HW222470   6.155   6.035   1.393
 7191SOL     OW22471   0.667   4.392   2.747
 7191SOL    HW122472   0.677   4.400   2.648
 7191SOL    HW222473   0.722   4.316   2.780
 7192SOL     OW22474   1.792   4.305   6.608
 7192SOL    HW122475   1.783   4.206   6.617
 7192SOL    HW222476   1.744   4.335   6.525
 7193SOL     OW22477   2.220   2.278   2.479
 7193SOL    HW122478   2.148   2.306   2.417
 7193SOL    HW222479   2.274   2.205   2.437
 7194SOL     OW22480   2.087   2.705   6.726
 7194SOL    HW122481   2.111   2.790   6.680
 7194SOL    HW222482   2.055   2.725   6.818
 7195SOL     OW22483   6.409   4.316   6.931
 7195SOL    HW122484   6.473   4.341   7.004
 7195SOL    HW222485   6.336   4.385   6.925
 7196SOL     OW22486   2.624   3.831   1.674
 7196SOL    HW122487   2.603   3.910   1.617
 7196SOL    HW222488   2.549   3.765   1.670
 7197SOL     OW22489   1.377   3.440   5.639
 7197SOL    HW122490   1.469   3.436   5.677
 7197SOL    HW222491   1.342   3.534   5.644
 7198SOL     OW22492   0.821   1.038   0.250
 7198SOL    HW122493   0.860   1.066   0.338
 7198SOL    HW222494   0.743   0.978   0.265
 7199SOL     OW22495   1.141   0.194   2.956
 7199SOL    HW122496   1.133   0.291   2.932
 7199SOL    HW222497   1.227   0.179   3.004
 7200SOL     OW22498   2.261   2.999   6.694
 7200SOL    HW122499   2.257   2.970   6.790
 7200SOL    HW222500   2.303   2.926   6.640
 7201SOL     OW22501   0.902   5.852   4.077
 7201SOL    HW122502   0.826   5.787   4.069
 7201SOL    HW222503   0.988   5.802   4.071
 7202SOL     OW22504   4.548   6.436   6.510
 7202SOL    HW122505   4.485   6.398   6.578
 7202SOL    HW222506   4.502   6.443   6.422
 7203SOL     OW22507   0.055   1.301   1.688
 7203SOL    HW122508   0.020   1.391   1.663
 7203SOL    HW222509   0.026   1.278   1.781
 7204SOL     OW22510   0.167   1.284   6.456
 7204SOL    HW122511   0.256   1.241   6.448
 7204SOL    HW222512   0.144   1.330   6.370
 7205SOL     OW22513   1.333   4.363   5.495
 7205SOL    HW122514   1.326   4.294   5.423
 7205SOL    HW222515   1.395   4.330   5.566
 7206SOL     OW22516   1.576   0.963   2.021
 7206SOL    HW122517   1.568   1.053   1.980
 7206SOL    HW222518   1.491   0.912   2.008
 7207SOL     OW22519   3.570   0.623   4.396
 7207SOL    HW122520   3.633   0.561   4.349
 7207SOL    HW222521   3.504   0.569   4.450
 7208SOL     OW22522   4.755   0.096   3.469
 7208SOL    HW122523   4.710   0.180   3.501
 7208SOL    HW222524   4.853   0.112   3.460
 7209SOL     OW22525   2.215   2.944   1.930
 7209SOL    HW122526   2.160   2.871   1.890
 7209SOL    HW222527   2.191   2.955   2.026
 7210SOL     OW22528   4.148   1.995   3.710
 7210SOL    HW122529   4.153   1.970   3.806
 7210SOL    HW222530   4.052   1.997   3.681
 7211SOL     OW22531   2.421   6.141   5.018
 7211SOL    HW122532   2.469   6.227   5.002
 7211SOL    HW222533   2.324   6.160   5.035
 7212SOL     OW22534   0.452   6.020   5.611
 7212SOL    HW122535   0.391   5.981   5.542
 7212SOL    HW222536   0.469   5.952   5.683
 7213SOL     OW22537   3.499   6.329   6.982
 7213SOL    HW122538   3.555   6.396   0.014
 7213SOL    HW222539   3.547   6.240   6.981
 7214SOL     OW22540   6.109   0.401   5.631
 7214SOL    HW122541   6.029   0.378   5.687
 7214SOL    HW222542   6.187   0.421   5.690
 7215SOL     OW22543   5.958   3.147   4.202
 7215SOL    HW122544   5.868   3.106   4.189
 7215SOL    HW222545   6.028   3.077   4.195
 7216SOL     OW22546   2.749   0.245   2.284
 7216SOL    HW122547   2.815   0.182   2.325
 7216SOL    HW222548   2.706   0.300   2.355
 7217SOL     OW22549   1.921   3.723   3.378
 7217SOL    HW122550   1.870   3.638   3.362
 7217SOL    HW222551   1.892   3.793   3.313
 7218SOL     OW22552   6.730   2.740   4.152
 7218SOL    HW122553   6.779   2.800   4.214
 7218SOL    HW222554   6.639   2.777   4.133
 7219SOL     OW22555   3.321   0.786   2.227
 7219SOL    HW122556   3.305   0.795   2.129
 7219SOL    HW222557   3.234   0.781   2.275
 7220SOL     OW22558   6.686   4.662   3.960
 7220SOL    HW122559   6.620   4.703   4.024
 7220SOL    HW222560   6.755   4.730   3.935
 7221SOL     OW22561   3.792   6.211   4.668
 7221SOL    HW122562   3.834   6.207   4.577
 7221SOL    HW222563   3.707   6.262   4.662
 7222SOL     OW22564   6.142   6.360   3.636
 7222SOL    HW122565   6.110   6.324   3.548
 7222SOL    HW222566   6.137   6.287   3.704
 7223SOL     OW22567   3.216   1.272   0.588
 7223SOL    HW122568   3.301   1.318   0.564
 7223SOL    HW222569   3.147   1.340   0.612
 7224SOL     OW22570   5.073   2.756   4.366
 7224SOL    HW122571   5.074   2.831   4.300
 7224SOL    HW222572   5.030   2.786   4.451
 7225SOL     OW22573   1.505   6.263   0.550
 7225SOL    HW122574   1.422   6.212   0.574
 7225SOL    HW222575   1.507   6.350   0.600
 7226SOL     OW22576   5.712   6.865   0.913
 7226SOL    HW122577   5.673   6.908   0.995
 7226SOL    HW222578   5.811   6.875   0.914
 7227SOL     OW22579   2.562   1.826   1.507
 7227SOL    HW122580   2.642   1.875   1.542
 7227SOL    HW222581   2.488   1.832   1.574
 7228SOL     OW22582   1.490   1.223   2.554
 7228SOL    HW122583   1.546   1.141   2.560
 7228SOL    HW222584   1.513   1.285   2.628
 7229SOL     OW22585   1.034   6.639   5.489
 7229SOL    HW122586   0.971   6.565   5.465
 7229SOL    HW222587   1.072   6.622   5.579
 7230SOL     OW22588   3.257   5.812   3.845
 7230SOL    HW122589   3.346   5.833   3.806
 7230SOL    HW222590   3.252   5.715   3.867
 7231SOL     OW22591   3.969   0.523   6.404
 7231SOL    HW122592   4.054   0.576   6.397
 7231SOL    HW222593   3.949   0.505   6.500
 7232SOL     OW22594   4.554   5.770   2.854
 7232SOL    HW122595   4.575   5.687   2.802
 7232SOL    HW222596   4.462   5.763   2.891
 7233SOL     OW22597   1.285   1.431   4.176
 7233SOL    HW122598   1.300   1.369   4.253
 7233SOL    HW222599   1.346   1.406   4.101
 7234SOL     OW22600   5.845   3.255   2.962
 7234SOL    HW122601   5.912   3.210   2.903
 7234SOL    HW222602   5.836   3.351   2.936
 7235SOL     OW22603   6.845   4.298   2.053
 7235SOL    HW122604   6.784   4.219   2.054
 7235SOL    HW222605   6.793   4.379   2.025
 7236SOL     OW22606   2.680   2.319   2.676
 7236SOL    HW122607   2.649   2.272   2.758
 7236SOL    HW222608   2.601   2.345   2.620
 7237SOL     OW22609   3.993   0.242   5.231
 7237SOL    HW122610   3.904   0.282   5.252
 7237SOL    HW222611   3.980   0.152   5.189
 7238SOL     OW22612   4.443   2.444   6.101
 7238SOL    HW122613   4.439   2.385   6.020
 7238SOL    HW222614   4.449   2.387   6.183
 7239SOL     OW22615   0.809   2.404   1.629
 7239SOL    HW122616   0.854   2.340   1.566
 7239SOL    HW222617   0.751   2.467   1.576
 7240SOL     OW22618   6.966   1.421   5.519
 7240SOL    HW122619   6.957   1.389   5.613
 7240SOL    HW222620   0.016   1.495   5.515
 7241SOL     OW22621   2.543   0.305   1.205
 7241SOL    HW122622   2.446   0.318   1.221
 7241SOL    HW222623   2.588   0.278   1.290
 7242SOL     OW22624   6.076   5.880   6.972
 7242SOL    HW122625   6.050   5.932   6.891
 7242SOL    HW222626   6.102   5.787   6.945
 7243SOL     OW22627   6.614   4.682   6.331
 7243SOL    HW122628   6.578   4.597   6.293
 7243SOL    HW222629   6.612   4.677   6.431
 7244SOL     OW22630   0.278   0.838   1.442
 7244SOL    HW122631   0.306   0.797   1.355
 7244SOL    HW222632   0.178   0.846   1.444
 7245SOL     OW22633   1.445   3.263   5.147
 7245SOL    HW122634   1.440   3.261   5.247
 7245SOL    HW222635   1.528   3.313   5.119
 7246SOL     OW22636   1.367   0.367   3.694
 7246SOL    HW122637   1.465   0.349   3.684
 7246SOL    HW222638   1.341   0.359   3.790
 7247SOL     OW22639   2.396   1.468   5.039
 7247SOL    HW122640   2.465   1.491   4.971
 7247SOL    HW222641   2.341   1.391   5.007
 7248SOL     OW22642   3.503   1.343   2.526
 7248SOL    HW122643   3.602   1.346   2.539
 7248SOL    HW222644   3.481   1.357   2.429
 7249SOL     OW22645   5.081   4.885   2.317
 7249SOL    HW122646   5.152   4.955   2.309
 7249SOL    HW222647   5.048   4.882   2.411
 7250SOL     OW22648   5.344   6.221   5.653
 7250SOL    HW122649   5.417   6.216   5.721
 7250SOL    HW222650   5.348   6.310   5.606
 7251SOL     OW22651   0.324   6.667   6.052
 7251SOL    HW122652   0.266   6.622   5.985
 7251SOL    HW222653   0.386   6.600   6.093
 7252SOL     OW22654   3.494   3.466   2.213
 7252SOL    HW122655   3.537   3.377   2.229
 7252SOL    HW222656   3.396   3.459   2.231
 7253SOL     OW22657   1.864   6.045   6.819
 7253SOL    HW122658   1.892   6.099   6.898
 7253SOL    HW222659   1.850   6.104   6.740
 7254SOL     OW22660   5.347   5.234   4.650
 7254SOL    HW122661   5.398   5.285   4.719
 7254SOL    HW222662   5.380   5.140   4.647
 7255SOL     OW22663   4.102   3.495   0.226
 7255SOL    HW122664   4.035   3.457   0.162
 7255SOL    HW222665   4.055   3.535   0.304
 7256SOL     OW22666   3.336   5.880   5.037
 7256SOL    HW122667   3.286   5.806   4.991
 7256SOL    HW222668   3.401   5.921   4.973
 7257SOL     OW22669   6.774   1.916   3.627
 7257SOL    HW122670   6.840   1.885   3.696
 7257SOL    HW222671   6.733   1.836   3.583
 7258SOL     OW22672   4.779   2.320   2.900
 7258SOL    HW122673   4.796   2.270   2.985
 7258SOL    HW222674   4.862   2.322   2.845
 7259SOL     OW22675   1.922   3.638   1.652
 7259SOL    HW122676   1.854   3.652   1.580
 7259SOL    HW222677   1.879   3.595   1.731
 7260SOL     OW22678   5.320   1.564   1.377
 7260SOL    HW122679   5.417   1.579   1.357
 7260SOL    HW222680   5.283   1.496   1.313
 7261SOL     OW22681   1.585   4.335   1.681
 7261SOL    HW122682   1.580   4.342   1.781
 7261SOL    HW222683   1.495   4.355   1.642
 7262SOL     OW22684   5.461   2.674   6.395
 7262SOL    HW122685   5.497   2.665   6.487
 7262SOL    HW222686   5.440   2.584   6.358
 7263SOL     OW22687   0.363   6.602   0.168
 7263SOL    HW122688   0.396   6.660   0.093
 7263SOL    HW222689   0.331   6.515   0.131
 7264SOL     OW22690   5.240   1.702   6.794
 7264SOL    HW122691   5.276   1.779   6.741
 7264SOL    HW222692   5.228   1.730   6.889
 7265SOL     OW22693   5.264   5.266   6.598
 7265SOL    HW122694   5.343   5.324   6.621
 7265SOL    HW222695   5.284   5.171   6.621
 7266SOL     OW22696   5.718   0.266   2.614
 7266SOL    HW122697   5.628   0.231   2.587
 7266SOL    HW222698   5.730   0.254   2.713
 7267SOL     OW22699   6.050   6.403   4.913
 7267SOL    HW122700   5.975   6.371   4.854
 7267SOL    HW222701   6.030   6.496   4.943
 7268SOL     OW22702   6.961   5.837   3.995
 7268SOL    HW122703   6.895   5.807   4.064
 7268SOL    HW222704   6.956   5.937   3.985
 7269SOL     OW22705   1.276   6.025   5.910
 7269SOL    HW122706   1.251   5.989   5.820
 7269SOL    HW222707   1.371   6.001   5.931
 7270SOL     OW22708   0.928   2.960   5.049
 7270SOL    HW122709   1.002   2.910   5.093
 7270SOL    HW222710   0.889   2.904   4.975
 7271SOL     OW22711   1.402   5.178   4.531
 7271SOL    HW122712   1.429   5.252   4.468
 7271SOL    HW222713   1.481   5.152   4.587
 7272SOL     OW22714   5.942   5.119   2.817
 7272SOL    HW122715   5.978   5.052   2.883
 7272SOL    HW222716   5.993   5.204   2.825
 7273SOL     OW22717   6.556   4.107   1.307
 7273SOL    HW122718   6.493   4.029   1.309
 7273SOL    HW222719   6.511   4.185   1.264
 7274SOL     OW22720   0.863   5.336   5.914
 7274SOL    HW122721   0.819   5.424   5.901
 7274SOL    HW222722   0.872   5.316   6.012
 7275SOL     OW22723   0.749   5.709   2.798
 7275SOL    HW122724   0.664   5.747   2.833
 7275SOL    HW222725   0.801   5.780   2.751
 7276SOL     OW22726   4.980   0.584   3.011
 7276SOL    HW122727   5.005   0.666   2.960
 7276SOL    HW222728   4.997   0.503   2.955
 7277SOL     OW22729   5.319   1.093   4.122
 7277SOL    HW122730   5.338   1.122   4.216
 7277SOL    HW222731   5.339   0.995   4.113
 7278SOL     OW22732   3.804   2.578   1.284
 7278SOL    HW122733   3.808   2.674   1.257
 7278SOL    HW222734   3.887   2.531   1.253
 7279SOL     OW22735   4.079   4.528   5.965
 7279SOL    HW122736   4.061   4.627   5.963
 7279SOL    HW222737   4.163   4.512   6.016
 7280SOL     OW22738   6.966   1.926   3.841
 7280SOL    HW122739   6.974   2.008   3.898
 7280SOL    HW222740   0.039   1.888   3.825
 7281SOL     OW22741   2.832   1.603   6.836
 7281SOL    HW122742   2.856   1.505   6.838
 7281SOL    HW222743   2.778   1.625   6.917
 7282SOL     OW22744   6.298   5.002   2.986
 7282SOL    HW122745   6.279   5.063   3.062
 7282SOL    HW222746   6.213   4.962   2.952
 7283SOL     OW22747   4.626   1.109   2.708
 7283SOL    HW122748   4.715   1.117   2.752
 7283SOL    HW222749   4.574   1.035   2.752
 7284SOL     OW22750   0.499   2.536   5.941
 7284SOL    HW122751   0.512   2.438   5.924
 7284SOL    HW222752   0.514   2.555   6.038
 7285SOL     OW22753   5.337   2.906   2.417
 7285SOL    HW122754   5.261   2.970   2.414
 7285SOL    HW222755   5.381   2.903   2.327
 7286SOL     OW22756   2.554   1.346   0.607
 7286SOL    HW122757   2.601   1.323   0.522
 7286SOL    HW222758   2.573   1.276   0.676
 7287SOL     OW22759   0.514   2.358   5.659
 7287SOL    HW122760   0.515   2.453   5.688
 7287SOL    HW222761   0.607   2.325   5.646
 7288SOL     OW22762   2.217   0.734   0.652
 7288SOL    HW122763   2.249   0.803   0.718
 7288SOL    HW222764   2.146   0.677   0.694
 7289SOL     OW22765   4.888   2.541   4.535
 7289SOL    HW122766   4.985   2.525   4.517
 7289SOL    HW222767   4.876   2.630   4.580
 7290SOL     OW22768   3.450   0.841   5.010
 7290SOL    HW122769   3.523   0.870   4.947
 7290SOL    HW222770   3.392   0.773   4.965
 7291SOL     OW22771   2.221   6.621   0.698
 7291SOL    HW122772   2.173   6.602   0.612
 7291SOL    HW222773   2.178   6.699   0.743
 7292SOL     OW22774   3.617   1.071   3.939
 7292SOL    HW122775   3.539   1.017   3.972
 7292SOL    HW222776   3.630   1.055   3.841
 7293SOL     OW22777   1.399   1.699   4.790
 7293SOL    HW122778   1.470   1.731   4.853
 7293SOL    HW222779   1.313   1.746   4.811
 7294SOL     OW22780   2.844   5.119   6.817
 7294SOL    HW122781   2.773   5.161   6.874
 7294SOL    HW222782   2.887   5.189   6.761
 7295SOL     OW22783   6.089   2.796   1.371
 7295SOL    HW122784   6.019   2.811   1.441
 7295SOL    HW222785   6.049   2.745   1.294
 7296SOL     OW22786   3.155   5.903   2.013
 7296SOL    HW122787   3.226   5.940   1.953
 7296SOL    HW222788   3.110   5.978   2.063
 7297SOL     OW22789   3.956   0.134   1.453
 7297SOL    HW122790   3.922   0.105   1.364
 7297SOL    HW222791   3.942   0.061   1.520
 7298SOL     OW22792   5.400   5.110   5.994
 7298SOL    HW122793   5.329   5.124   5.925
 7298SOL    HW222794   5.360   5.064   6.073
 7299SOL     OW22795   1.109   2.207   0.768
 7299SOL    HW122796   1.138   2.302   0.776
 7299SOL    HW222797   1.016   2.203   0.732
 7300SOL     OW22798   0.798   6.325   3.473
 7300SOL    HW122799   0.772   6.421   3.479
 7300SOL    HW222800   0.785   6.281   3.561
 7301SOL     OW22801   5.461   1.567   4.589
 7301SOL    HW122802   5.525   1.592   4.516
 7301SOL    HW222803   5.385   1.632   4.589
 7302SOL     OW22804   0.778   2.284   5.096
 7302SOL    HW122805   0.743   2.337   5.019
 7302SOL    HW222806   0.724   2.303   5.178
 7303SOL     OW22807   3.848   0.321   0.151
 7303SOL    HW122808   3.767   0.356   0.198
 7303SOL    HW222809   3.820   0.274   0.067
 7304SOL     OW22810   3.262   5.662   1.639
 7304SOL    HW122811   3.209   5.668   1.724
 7304SOL    HW222812   3.315   5.746   1.627
 7305SOL     OW22813   4.407   0.933   0.607
 7305SOL    HW122814   4.451   0.846   0.630
 7305SOL    HW222815   4.401   0.942   0.507
 7306SOL     OW22816   5.081   1.375   0.681
 7306SOL    HW122817   5.085   1.364   0.780
 7306SOL    HW222818   5.003   1.432   0.656
 7307SOL     OW22819   2.604   6.420   2.381
 7307SOL    HW122820   2.541   6.386   2.452
 7307SOL    HW222821   2.573   6.509   2.350
 7308SOL     OW22822   0.043   2.680   5.856
 7308SOL    HW122823   6.972   2.697   5.812
 7308SOL    HW222824   0.074   2.763   5.901
 7309SOL     OW22825   4.287   5.334   1.439
 7309SOL    HW122826   4.252   5.272   1.509
 7309SOL    HW222827   4.298   5.284   1.352
 7310SOL     OW22828   2.661   3.885   1.317
 7310SOL    HW122829   2.615   3.912   1.401
 7310SOL    HW222830   2.593   3.855   1.249
 7311SOL     OW22831   2.268   1.578   1.351
 7311SOL    HW122832   2.310   1.669   1.351
 7311SOL    HW222833   2.184   1.579   1.404
 7312SOL     OW22834   0.950   3.755   4.898
 7312SOL    HW122835   0.908   3.755   4.808
 7312SOL    HW222836   0.893   3.701   4.961
 7313SOL     OW22837   2.347   0.631   0.187
 7313SOL    HW122838   2.294   0.639   0.272
 7313SOL    HW222839   2.396   0.544   0.187
 7314SOL     OW22840   0.091   5.358   5.713
 7314SOL    HW122841   0.096   5.443   5.766
 7314SOL    HW222842   0.114   5.376   5.618
 7315SOL     OW22843   6.145   0.033   2.009
 7315SOL    HW122844   6.111   6.972   2.060
 7315SOL    HW222845   6.092   0.043   1.925
 7316SOL     OW22846   2.874   4.039   6.991
 7316SOL    HW122847   2.937   4.053   6.914
 7316SOL    HW222848   2.804   3.972   6.966
 7317SOL     OW22849   5.127   1.092   3.003
 7317SOL    HW122850   5.153   0.996   2.990
 7317SOL    HW222851   5.157   1.145   2.924
 7318SOL     OW22852   1.780   0.496   1.803
 7318SOL    HW122853   1.821   0.541   1.882
 7318SOL    HW222854   1.786   0.558   1.724
 7319SOL     OW22855   0.312   3.372   6.335
 7319SOL    HW122856   0.251   3.306   6.378
 7319SOL    HW222857   0.385   3.323   6.287
 7320SOL     OW22858   0.291   3.568   2.732
 7320SOL    HW122859   0.229   3.624   2.678
 7320SOL    HW222860   0.329   3.622   2.806
 7321SOL     OW22861   1.752   0.389   6.109
 7321SOL    HW122862   1.697   0.364   6.029
 7321SOL    HW222863   1.819   0.459   6.083
 7322SOL     OW22864   6.724   2.728   3.328
 7322SOL    HW122865   6.708   2.664   3.253
 7322SOL    HW222866   6.822   2.743   3.339
 7323SOL     OW22867   1.246   2.720   2.163
 7323SOL    HW122868   1.278   2.812   2.183
 7323SOL    HW222869   1.221   2.714   2.066
 7324SOL     OW22870   4.353   5.852   2.323
 7324SOL    HW122871   4.280   5.920   2.320
 7324SOL    HW222872   4.426   5.878   2.260
 7325SOL     OW22873   3.285   0.015   0.059
 7325SOL    HW122874   3.245   0.026   0.150
 7325SOL    HW222875   3.305   0.105   0.020
 7326SOL     OW22876   2.593   5.963   6.326
 7326SOL    HW122877   2.597   6.007   6.416
 7326SOL    HW222878   2.554   6.027   6.260
 7327SOL     OW22879   6.269   1.617   6.119
 7327SOL    HW122880   6.186   1.564   6.135
 7327SOL    HW222881   6.349   1.556   6.124
 7328SOL     OW22882   3.228   0.817   5.928
 7328SOL    HW122883   3.173   0.853   6.003
 7328SOL    HW222884   3.193   0.727   5.901
 7329SOL     OW22885   6.760   4.146   1.473
 7329SOL    HW122886   6.788   4.051   1.489
 7329SOL    HW222887   6.678   4.147   1.416
 7330SOL     OW22888   2.585   2.235   6.882
 7330SOL    HW122889   2.545   2.201   6.796
 7330SOL    HW222890   2.672   2.189   6.899
 7331SOL     OW22891   5.317   6.480   1.622
 7331SOL    HW122892   5.246   6.543   1.593
 7331SOL    HW222893   5.360   6.515   1.706
 7332SOL     OW22894   2.688   6.012   0.181
 7332SOL    HW122895   2.629   6.024   0.261
 7332SOL    HW222896   2.701   5.915   0.164
 7333SOL     OW22897   0.215   2.662   2.162
 7333SOL    HW122898   0.213   2.568   2.197
 7333SOL    HW222899   0.153   2.671   2.085
 7334SOL     OW22900   2.845   5.625   6.570
 7334SOL    HW122901   2.898   5.701   6.532
 7334SOL    HW222902   2.855   5.625   6.670
 7335SOL     OW22903   2.189   2.469   3.281
 7335SOL    HW122904   2.198   2.395   3.347
 7335SOL    HW222905   2.261   2.537   3.297
 7336SOL     OW22906   1.749   6.393   2.970
 7336SOL    HW122907   1.666   6.435   3.007
 7336SOL    HW222908   1.762   6.302   3.009
 7337SOL     OW22909   0.560   3.284   1.400
 7337SOL    HW122910   0.649   3.324   1.423
 7337SOL    HW222911   0.495   3.301   1.474
 7338SOL     OW22912   5.717   1.698   1.646
 7338SOL    HW122913   5.748   1.777   1.699
 7338SOL    HW222914   5.794   1.639   1.624
 7339SOL     OW22915   5.953   6.764   3.864
 7339SOL    HW122916   6.036   6.803   3.903
 7339SOL    HW222917   5.896   6.837   3.827
 7340SOL     OW22918   2.994   1.502   0.535
 7340SOL    HW122919   2.946   1.420   0.566
 7340SOL    HW222920   2.952   1.536   0.451
 7341SOL     OW22921   0.974   3.855   6.231
 7341SOL    HW122922   1.047   3.916   6.262
 7341SOL    HW222923   1.012   3.764   6.213
 7342SOL     OW22924   0.472   2.023   0.646
 7342SOL    HW122925   0.414   1.942   0.641
 7342SOL    HW222926   0.415   2.105   0.644
 7343SOL     OW22927   6.318   3.646   1.188
 7343SOL    HW122928   6.227   3.671   1.221
 7343SOL    HW222929   6.309   3.593   1.104
 7344SOL     OW22930   1.126   1.002   6.519
 7344SOL    HW122931   1.194   0.976   6.451
 7344SOL    HW222932   1.128   1.101   6.532
 7345SOL     OW22933   3.965   4.733   5.430
 7345SOL    HW122934   3.888   4.797   5.440
 7345SOL    HW222935   3.933   4.640   5.448
 7346SOL     OW22936   3.773   4.832   2.303
 7346SOL    HW122937   3.786   4.819   2.401
 7346SOL    HW222938   3.730   4.751   2.264
 7347SOL     OW22939   0.927   2.154   0.534
 7347SOL    HW122940   0.925   2.197   0.444
 7347SOL    HW222941   0.856   2.084   0.539
 7348SOL     OW22942   1.740   3.578   4.188
 7348SOL    HW122943   1.667   3.637   4.221
 7348SOL    HW222944   1.709   3.530   4.106
 7349SOL     OW22945   4.954   1.652   1.374
 7349SOL    HW122946   5.016   1.673   1.299
 7349SOL    HW222947   4.902   1.570   1.353
 7350SOL     OW22948   2.428   2.762   5.587
 7350SOL    HW122949   2.429   2.663   5.579
 7350SOL    HW222950   2.458   2.804   5.502
 7351SOL     OW22951   5.194   5.683   4.576
 7351SOL    HW122952   5.181   5.653   4.670
 7351SOL    HW222953   5.205   5.603   4.517
 7352SOL     OW22954   1.776   1.371   2.961
 7352SOL    HW122955   1.799   1.287   2.912
 7352SOL    HW222956   1.860   1.417   2.989
 7353SOL     OW22957   0.677   6.920   6.205
 7353SOL    HW122958   0.758   6.964   6.167
 7353SOL    HW222959   0.694   6.895   6.301
 7354SOL     OW22960   0.746   2.391   4.520
 7354SOL    HW122961   0.806   2.413   4.444
 7354SOL    HW222962   0.679   2.323   4.491
 7355SOL     OW22963   1.443   0.450   0.902
 7355SOL    HW122964   1.348   0.463   0.876
 7355SOL    HW222965   1.463   0.506   0.983
 7356SOL     OW22966   3.882   3.617   6.130
 7356SOL    HW122967   3.785   3.635   6.145
 7356SOL    HW222968   3.924   3.698   6.089
 7357SOL     OW22969   3.088   0.049   1.885
 7357SOL    HW122970   3.106   6.977   1.843
 7357SOL    HW222971   3.106   0.121   1.818
 7358SOL     OW22972   6.200   3.373   2.464
 7358SOL    HW122973   6.185   3.317   2.382
 7358SOL    HW222974   6.194   3.470   2.440
 7359SOL     OW22975   3.923   2.187   5.686
 7359SOL    HW122976   3.920   2.149   5.594
 7359SOL    HW222977   3.852   2.257   5.696
 7360SOL     OW22978   2.907   3.375   5.645
 7360SOL    HW122979   2.818   3.330   5.647
 7360SOL    HW222980   2.934   3.391   5.549
 7361SOL     OW22981   4.552   0.609   1.859
 7361SOL    HW122982   4.549   0.701   1.898
 7361SOL    HW222983   4.548   0.542   1.933
 7362SOL     OW22984   1.399   5.226   5.977
 7362SOL    HW122985   1.457   5.305   5.955
 7362SOL    HW222986   1.414   5.200   6.072
 7363SOL     OW22987   4.742   1.828   1.423
 7363SOL    HW122988   4.689   1.771   1.485
 7363SOL    HW222989   4.833   1.788   1.411
 7364SOL     OW22990   4.770   0.686   1.475
 7364SOL    HW122991   4.711   0.732   1.410
 7364SOL    HW222992   4.802   0.752   1.544
 7365SOL     OW22993   0.463   5.857   1.833
 7365SOL    HW122994   0.514   5.772   1.824
 7365SOL    HW222995   0.488   5.903   1.918
 7366SOL     OW22996   2.175   5.967   7.006
 7366SOL    HW122997   2.259   5.982   0.042
 7366SOL    HW222998   2.116   6.047   7.015
 7367SOL     OW22999   5.400   2.282   1.251
 7367SOL    HW123000   5.488   2.328   1.244
 7367SOL    HW223001   5.408   2.205   1.314
 7368SOL     OW23002   3.614   2.925   2.867
 7368SOL    HW123003   3.676   2.948   2.942
 7368SOL    HW223004   3.574   3.009   2.830
 7369SOL     OW23005   3.542   2.231   0.576
 7369SOL    HW123006   3.529   2.254   0.480
 7369SOL    HW223007   3.488   2.293   0.633
 7370SOL     OW23008   2.898   0.701   4.719
 7370SOL    HW123009   2.840   0.766   4.767
 7370SOL    HW223010   2.971   0.669   4.780
 7371SOL     OW23011   2.541   6.794   3.596
 7371SOL    HW123012   2.449   6.786   3.559
 7371SOL    HW223013   2.605   6.811   3.522
 7372SOL     OW23014   4.927   0.834   4.180
 7372SOL    HW123015   4.830   0.816   4.196
 7372SOL    HW223016   4.974   0.748   4.160
 7373SOL     OW23017   6.084   1.961   3.800
 7373SOL    HW123018   6.042   1.944   3.889
 7373SOL    HW223019   6.040   1.903   3.731
 7374SOL     OW23020   2.991   1.800   5.061
 7374SOL    HW123021   2.994   1.898   5.043
 7374SOL    HW223022   3.017   1.783   5.156
 7375SOL     OW23023   2.413   2.503   2.777
 7375SOL    HW123024   2.467   2.489   2.694
 7375SOL    HW223025   2.336   2.563   2.757
 7376SOL     OW23026   1.798   2.193   0.353
 7376SOL    HW123027   1.793   2.107   0.302
 7376SOL    HW223028   1.872   2.188   0.420
 7377SOL     OW23029   5.543   4.660   0.752
 7377SOL    HW123030   5.534   4.691   0.657
 7377SOL    HW223031   5.618   4.593   0.757
 7378SOL     OW23032   0.065   0.766   5.534
 7378SOL    HW123033   0.107   0.676   5.522
 7378SOL    HW223034   0.019   0.793   5.449
 7379SOL     OW23035   3.072   2.045   2.509
 7379SOL    HW123036   3.053   2.112   2.438
 7379SOL    HW223037   3.009   1.968   2.500
 7380SOL     OW23038   6.963   4.391   3.650
 7380SOL    HW123039   6.977   4.293   3.660
 7380SOL    HW223040   0.027   4.432   3.610
 7381SOL     OW23041   4.184   3.129   0.700
 7381SOL    HW123042   4.195   3.055   0.634
 7381SOL    HW223043   4.166   3.091   0.791
 7382SOL     OW23044   0.718   0.429   5.034
 7382SOL    HW123045   0.643   0.365   5.054
 7382SOL    HW223046   0.679   0.515   5.000
 7383SOL     OW23047   2.740   6.644   1.015
 7383SOL    HW123048   2.720   6.629   0.918
 7383SOL    HW223049   2.679   6.589   1.071
 7384SOL     OW23050   6.185   6.221   2.472
 7384SOL    HW123051   6.111   6.262   2.526
 7384SOL    HW223052   6.163   6.125   2.453
 7385SOL     OW23053   3.260   5.722   2.621
 7385SOL    HW123054   3.317   5.768   2.553
 7385SOL    HW223055   3.259   5.623   2.602
 7386SOL     OW23056   0.040   2.786   6.938
 7386SOL    HW123057   0.015   2.882   6.940
 7386SOL    HW223058   0.082   2.760   0.007
 7387SOL     OW23059   6.040   6.040   5.954
 7387SOL    HW123060   6.110   6.070   6.018
 7387SOL    HW223061   5.973   5.983   6.002
 7388SOL     OW23062   1.260   5.501   1.963
 7388SOL    HW123063   1.189   5.528   1.898
 7388SOL    HW223064   1.350   5.517   1.922
 7389SOL     OW23065   5.741   4.178   5.909
 7389SOL    HW123066   5.677   4.102   5.922
 7389SOL    HW223067   5.772   4.180   5.814
 7390SOL     OW23068   1.937   2.741   1.543
 7390SOL    HW123069   1.875   2.676   1.587
 7390SOL    HW223070   1.884   2.807   1.491
 7391SOL     OW23071   4.176   3.491   3.553
 7391SOL    HW123072   4.129   3.534   3.630
 7391SOL    HW223073   4.270   3.526   3.548
 7392SOL     OW23074   3.011   5.820   6.542
 7392SOL    HW123075   3.092   5.763   6.557
 7392SOL    HW223076   3.039   5.915   6.530
 7393SOL     OW23077   6.199   4.626   2.353
 7393SOL    HW123078   6.159   4.691   2.417
 7393SOL    HW223079   6.157   4.536   2.366
 7394SOL     OW23080   1.817   2.742   5.491
 7394SOL    HW123081   1.841   2.646   5.502
 7394SOL    HW223082   1.855   2.795   5.566
 7395SOL     OW23083   2.026   3.377   1.249
 7395SOL    HW123084   1.989   3.285   1.240
 7395SOL    HW223085   2.059   3.391   1.343
 7396SOL     OW23086   1.852   6.542   1.442
 7396SOL    HW123087   1.932   6.599   1.462
 7396SOL    HW223088   1.827   6.490   1.524
 7397SOL     OW23089   4.660   5.751   4.526
 7397SOL    HW123090   4.710   5.680   4.476
 7397SOL    HW223091   4.691   5.753   4.621
 7398SOL     OW23092   1.378   4.433   3.771
 7398SOL    HW123093   1.407   4.454   3.864
 7398SOL    HW223094   1.340   4.341   3.767
 7399SOL     OW23095   0.732   2.891   4.441
 7399SOL    HW123096   0.682   2.965   4.485
 7399SOL    HW223097   0.738   2.908   4.342
 7400SOL     OW23098   4.362   3.061   5.905
 7400SOL    HW123099   4.302   3.131   5.867
 7400SOL    HW223100   4.307   2.981   5.931
 7401SOL     OW23101   1.359   2.669   3.743
 7401SOL    HW123102   1.425   2.693   3.672
 7401SOL    HW223103   1.268   2.660   3.702
 7402SOL     OW23104   3.067   5.146   6.382
 7402SOL    HW123105   3.063   5.048   6.361
 7402SOL    HW223106   3.135   5.190   6.323
 7403SOL     OW23107   1.752   3.872   2.139
 7403SOL    HW123108   1.798   3.789   2.108
 7403SOL    HW223109   1.707   3.916   2.061
 7404SOL     OW23110   2.558   4.656   1.982
 7404SOL    HW123111   2.656   4.641   1.982
 7404SOL    HW223112   2.513   4.582   2.033
 7405SOL     OW23113   3.498   4.915   4.422
 7405SOL    HW123114   3.594   4.888   4.417
 7405SOL    HW223115   3.447   4.872   4.347
 7406SOL     OW23116   0.284   2.352   3.371
 7406SOL    HW123117   0.226   2.297   3.310
 7406SOL    HW223118   0.358   2.295   3.406
 7407SOL     OW23119   0.733   6.728   5.378
 7407SOL    HW123120   0.651   6.766   5.421
 7407SOL    HW223121   0.775   6.797   5.319
 7408SOL     OW23122   3.437   4.250   7.015
 7408SOL    HW123123   3.449   4.152   0.011
 7408SOL    HW223124   3.505   4.283   6.949
 7409SOL     OW23125   5.261   3.051   0.324
 7409SOL    HW123126   5.290   3.078   0.232
 7409SOL    HW223127   5.162   3.060   0.331
 7410SOL     OW23128   0.478   0.607   0.613
 7410SOL    HW123129   0.423   0.690   0.600
 7410SOL    HW223130   0.537   0.594   0.533
 7411SOL     OW23131   1.906   0.629   6.614
 7411SOL    HW123132   1.811   0.651   6.592
 7411SOL    HW223133   1.938   0.689   6.687
 7412SOL     OW23134   5.064   0.629   1.707
 7412SOL    HW123135   5.045   0.532   1.720
 7412SOL    HW223136   4.979   0.678   1.688
 7413SOL     OW23137   4.568   5.293   3.870
 7413SOL    HW123138   4.567   5.201   3.909
 7413SOL    HW223139   4.484   5.341   3.895
 7414SOL     OW23140   0.815   1.156   3.135
 7414SOL    HW123141   0.887   1.168   3.067
 7414SOL    HW223142   0.827   1.223   3.208
 7415SOL     OW23143   1.572   4.564   4.542
 7415SOL    HW123144   1.647   4.578   4.477
 7415SOL    HW223145   1.593   4.612   4.628
 7416SOL     OW23146   2.088   1.151   2.224
 7416SOL    HW123147   2.166   1.206   2.255
 7416SOL    HW223148   2.003   1.196   2.249
 7417SOL     OW23149   2.134   2.093   1.341
 7417SOL    HW123150   2.227   2.073   1.371
 7417SOL    HW223151   2.100   2.174   1.390
 7418SOL     OW23152   1.761   5.704   0.490
 7418SOL    HW123153   1.703   5.646   0.434
 7418SOL    HW223154   1.705   5.758   0.553
 7419SOL     OW23155   0.103   3.508   4.263
 7419SOL    HW123156   0.016   3.481   4.222
 7419SOL    HW223157   0.177   3.454   4.221
 7420SOL     OW23158   0.614   5.920   1.590
 7420SOL    HW123159   0.628   6.018   1.601
 7420SOL    HW223160   0.558   5.886   1.666
 7421SOL     OW23161   4.104   3.871   1.267
 7421SOL    HW123162   4.108   3.970   1.252
 7421SOL    HW223163   4.140   3.823   1.187
 7422SOL     OW23164   0.493   4.276   1.952
 7422SOL    HW123165   0.437   4.324   2.020
 7422SOL    HW223166   0.486   4.323   1.864
 7423SOL     OW23167   6.204   2.945   5.655
 7423SOL    HW123168   6.213   2.855   5.613
 7423SOL    HW223169   6.121   2.990   5.621
 7424SOL     OW23170   6.724   0.510   5.494
 7424SOL    HW123171   6.778   0.580   5.541
 7424SOL    HW223172   6.784   0.456   5.435
 7425SOL     OW23173   4.316   6.451   0.182
 7425SOL    HW123174   4.219   6.451   0.155
 7425SOL    HW223175   4.363   6.526   0.135
 7426SOL     OW23176   3.028   1.710   5.329
 7426SOL    HW123177   3.080   1.687   5.412
 7426SOL    HW223178   2.964   1.637   5.308
 7427SOL     OW23179   5.043   0.462   3.528
 7427SOL    HW123180   5.044   0.511   3.441
 7427SOL    HW223181   5.097   0.513   3.596
 7428SOL     OW23182   4.311   1.580   5.303
 7428SOL    HW123183   4.372   1.647   5.259
 7428SOL    HW223184   4.216   1.605   5.285
 7429SOL     OW23185   0.121   6.397   4.320
 7429SOL    HW123186   0.216   6.420   4.298
 7429SOL    HW223187   0.094   6.444   4.404
 7430SOL     OW23188   1.462   3.612   0.842
 7430SOL    HW123189   1.424   3.520   0.834
 7430SOL    HW223190   1.411   3.673   0.781
 7431SOL     OW23191   0.744   2.564   2.897
 7431SOL    HW123192   0.708   2.655   2.881
 7431SOL    HW223193   0.840   2.570   2.923
 7432SOL     OW23194   1.197   0.596   3.234
 7432SOL    HW123195   1.192   0.532   3.312
 7432SOL    HW223196   1.265   0.563   3.169
 7433SOL     OW23197   4.155   5.678   5.882
 7433SOL    HW123198   4.078   5.742   5.874
 7433SOL    HW223199   4.124   5.595   5.928
 7434SOL     OW23200   4.865   5.004   5.135
 7434SOL    HW123201   4.936   4.975   5.071
 7434SOL    HW223202   4.793   5.053   5.085
 7435SOL     OW23203   4.109   6.028   1.474
 7435SOL    HW123204   4.175   5.969   1.430
 7435SOL    HW223205   4.123   6.123   1.443
 7436SOL     OW23206   4.141   4.072   6.554
 7436SOL    HW123207   4.051   4.093   6.593
 7436SOL    HW223208   4.203   4.148   6.570
 7437SOL     OW23209   2.091   5.760   6.866
 7437SOL    HW123210   2.104   5.681   6.926
 7437SOL    HW223211   2.106   5.844   6.918
 7438SOL     OW23212   1.036   6.277   0.377
 7438SOL    HW123213   0.975   6.228   0.440
 7438SOL    HW223214   1.035   6.374   0.399
 7439SOL     OW23215   1.774   6.522   6.018
 7439SOL    HW123216   1.719   6.515   5.935
 7439SOL    HW223217   1.715   6.518   6.098
 7440SOL     OW23218   0.263   3.238   3.618
 7440SOL    HW123219   0.290   3.293   3.538
 7440SOL    HW223220   0.251   3.298   3.697
 7441SOL     OW23221   5.419   6.680   4.406
 7441SOL    HW123222   5.331   6.640   4.381
 7441SOL    HW223223   5.422   6.695   4.505
 7442SOL     OW23224   6.264   1.318   6.355
 7442SOL    HW123225   6.308   1.355   6.273
 7442SOL    HW223226   6.239   1.393   6.417
 7443SOL     OW23227   6.315   6.294   1.699
 7443SOL    HW123228   6.277   6.358   1.632
 7443SOL    HW223229   6.415   6.300   1.699
 7444SOL     OW23230   5.307   2.443   6.878
 7444SOL    HW123231   5.262   2.529   6.902
 7444SOL    HW223232   5.272   2.410   6.790
 7445SOL     OW23233   3.754   0.557   0.792
 7445SOL    HW123234   3.676   0.502   0.822
 7445SOL    HW223235   3.756   0.642   0.844
 7446SOL     OW23236   5.361   2.889   0.659
 7446SOL    HW123237   5.326   2.827   0.730
 7446SOL    HW223238   5.307   2.973   0.658
 7447SOL     OW23239   6.814   3.535   0.032
 7447SOL    HW123240   6.727   3.559   7.006
 7447SOL    HW223241   6.812   3.565   0.128
 7448SOL     OW23242   6.422   6.809   4.951
 7448SOL    HW123243   6.480   6.822   4.870
 7448SOL    HW223244   6.332   6.849   4.934
 7449SOL     OW23245   0.729   4.535   1.441
 7449SOL    HW123246   0.633   4.558   1.457
 7449SOL    HW223247   0.735   4.445   1.398
 7450SOL     OW23248   5.525   2.764   4.987
 7450SOL    HW123249   5.547   2.687   4.927
 7450SOL    HW223250   5.565   2.749   5.077
 7451SOL     OW23251   6.630   5.798   2.631
 7451SOL    HW123252   6.719   5.757   2.647
 7451SOL    HW223253   6.558   5.739   2.668
 7452SOL     OW23254   5.914   5.985   4.205
 7452SOL    HW123255   5.964   6.057   4.254
 7452SOL    HW223256   5.821   5.980   4.239
 7453SOL     OW23257   5.767   5.247   4.733
 7453SOL    HW123258   5.697   5.208   4.793
 7453SOL    HW223259   5.849   5.269   4.786
 7454SOL     OW23260   1.746   2.243   1.105
 7454SOL    HW123261   1.840   2.272   1.091
 7454SOL    HW223262   1.723   2.171   1.040
 7455SOL     OW23263   6.932   2.763   1.315
 7455SOL    HW123264   6.835   2.778   1.295
 7455SOL    HW223265   6.979   2.851   1.320
 7456SOL     OW23266   1.004   0.992   4.620
 7456SOL    HW123267   1.000   0.929   4.698
 7456SOL    HW223268   1.033   0.942   4.538
 7457SOL     OW23269   3.346   1.099   5.115
 7457SOL    HW123270   3.358   1.000   5.102
 7457SOL    HW223271   3.286   1.134   5.043
 7458SOL     OW23272   1.988   6.723   6.264
 7458SOL    HW123273   2.009   6.670   6.347
 7458SOL    HW223274   2.005   6.820   6.282
 7459SOL     OW23275   5.214   0.353   1.894
 7459SOL    HW123276   5.262   0.372   1.809
 7459SOL    HW223277   5.211   0.436   1.950
 7460SOL     OW23278   0.665   5.290   0.591
 7460SOL    HW123279   0.622   5.216   0.541
 7460SOL    HW223280   0.759   5.302   0.558
 7461SOL     OW23281   6.363   0.072   6.792
 7461SOL    HW123282   6.444   0.131   6.784
 7461SOL    HW223283   6.381   7.017   6.860
 7462SOL     OW23284   1.555   4.546   2.104
 7462SOL    HW123285   1.460   4.567   2.126
 7462SOL    HW223286   1.574   4.571   2.009
 7463SOL     OW23287   2.713   4.543   0.487
 7463SOL    HW123288   2.709   4.453   0.530
 7463SOL    HW223289   2.696   4.614   0.556
 7464SOL     OW23290   5.281   6.808   6.582
 7464SOL    HW123291   5.232   6.841   6.502
 7464SOL    HW223292   5.313   6.886   6.636
 7465SOL     OW23293   2.617   5.512   6.472
 7465SOL    HW123294   2.553   5.589   6.476
 7465SOL    HW223295   2.706   5.541   6.509
 7466SOL     OW23296   0.128   0.317   5.002
 7466SOL    HW123297   0.082   0.393   4.957
 7466SOL    HW223298   0.148   0.245   4.936
 7467SOL     OW23299   0.167   1.324   6.718
 7467SOL    HW123300   0.161   1.319   6.619
 7467SOL    HW223301   0.195   1.417   6.745
 7468SOL     OW23302   5.947   3.388   3.706
 7468SOL    HW123303   5.908   3.388   3.798
 7468SOL    HW223304   5.879   3.422   3.641
 7469SOL     OW23305   7.013   0.268   0.300
 7469SOL    HW123306   6.991   0.270   0.397
 7469SOL    HW223307   6.975   0.349   0.255
 7470SOL     OW23308   6.130   3.548   2.993
 7470SOL    HW123309   6.044   3.500   2.975
 7470SOL    HW223310   6.116   3.616   3.065
 7471SOL     OW23311   4.894   6.610   5.790
 7471SOL    HW123312   4.902   6.561   5.703
 7471SOL    HW223313   4.960   6.573   5.855
 7472SOL     OW23314   5.903   1.017   6.079
 7472SOL    HW123315   5.910   1.113   6.105
 7472SOL    HW223316   5.815   1.000   6.035
 7473SOL     OW23317   5.023   5.593   3.627
 7473SOL    HW123318   4.996   5.611   3.533
 7473SOL    HW223319   4.942   5.592   3.686
 7474SOL     OW23320   0.060   1.643   5.805
 7474SOL    HW123321   0.138   1.617   5.749
 7474SOL    HW223322   0.015   1.722   5.765
 7475SOL     OW23323   5.164   2.392   2.234
 7475SOL    HW123324   5.167   2.451   2.315
 7475SOL    HW223325   5.104   2.434   2.165
 7476SOL     OW23326   3.433   1.237   3.306
 7476SOL    HW123327   3.370   1.232   3.384
 7476SOL    HW223328   3.500   1.163   3.312
 7477SOL     OW23329   6.587   2.125   5.052
 7477SOL    HW123330   6.498   2.111   5.095
 7477SOL    HW223331   6.607   2.223   5.049
 7478SOL     OW23332   6.403   3.646   5.677
 7478SOL    HW123333   6.455   3.638   5.762
 7478SOL    HW223334   6.445   3.589   5.607
 7479SOL     OW23335   4.363   2.109   2.199
 7479SOL    HW123336   4.317   2.085   2.285
 7479SOL    HW223337   4.443   2.050   2.186
 7480SOL     OW23338   1.210   4.921   2.171
 7480SOL    HW123339   1.266   4.916   2.253
 7480SOL    HW223340   1.259   4.877   2.095
 7481SOL     OW23341   5.847   5.126   1.118
 7481SOL    HW123342   5.903   5.135   1.200
 7481SOL    HW223343   5.751   5.134   1.141
 7482SOL     OW23344   4.418   2.418   2.667
 7482SOL    HW123345   4.505   2.447   2.626
 7482SOL    HW223346   4.431   2.404   2.765
 7483SOL     OW23347   4.888   3.357   4.249
 7483SOL    HW123348   4.867   3.260   4.245
 7483SOL    HW223349   4.915   3.382   4.342
 7484SOL     OW23350   1.444   6.108   4.156
 7484SOL    HW123351   1.362   6.128   4.102
 7484SOL    HW223352   1.482   6.193   4.192
 7485SOL     OW23353   2.811   0.187   4.547
 7485SOL    HW123354   2.782   0.093   4.531
 7485SOL    HW223355   2.732   0.248   4.535
 7486SOL     OW23356   1.223   5.996   0.351
 7486SOL    HW123357   1.155   6.046   0.298
 7486SOL    HW223358   1.304   5.979   0.293
 7487SOL     OW23359   2.355   0.827   2.849
 7487SOL    HW123360   2.382   0.732   2.830
 7487SOL    HW223361   2.256   0.832   2.855
 7488SOL     OW23362   2.622   5.645   5.245
 7488SOL    HW123363   2.694   5.624   5.311
 7488SOL    HW223364   2.592   5.739   5.257
 7489SOL     OW23365   6.390   2.862   6.184
 7489SOL    HW123366   6.374   2.956   6.215
 7489SOL    HW223367   6.386   2.800   6.262
 7490SOL     OW23368   1.339   0.227   3.451
 7490SOL    HW123369   1.348   0.276   3.538
 7490SOL    HW223370   1.301   0.137   3.467
 7491SOL     OW23371   4.410   3.448   6.338
 7491SOL    HW123372   4.353   3.512   6.389
 7491SOL    HW223373   4.496   3.433   6.387
 7492SOL     OW23374   1.791   0.558   3.716
 7492SOL    HW123375   1.740   0.619   3.655
 7492SOL    HW223376   1.760   0.573   3.810
 7493SOL     OW23377   0.685   2.844   6.214
 7493SOL    HW123378   0.749   2.816   6.286
 7493SOL    HW223379   0.737   2.880   6.136
 7494SOL     OW23380   5.951   1.162   3.058
 7494SOL    HW123381   5.955   1.197   2.965
 7494SOL    HW223382   5.921   1.234   3.120
 7495SOL     OW23383   1.770   2.269   6.801
 7495SOL    HW123384   1.796   2.195   6.739
 7495SOL    HW223385   1.848   2.331   6.813
 7496SOL     OW23386   6.533   3.850   3.975
 7496SOL    HW123387   6.622   3.831   3.935
 7496SOL    HW223388   6.542   3.923   4.042
 7497SOL     OW23389   1.819   4.518   1.302
 7497SOL    HW123390   1.762   4.466   1.238
 7497SOL    HW223391   1.797   4.491   1.396
 7498SOL     OW23392   2.997   1.218   5.065
 7498SOL    HW123393   2.949   1.159   5.129
 7498SOL    HW223394   3.047   1.289   5.115
 7499SOL     OW23395   4.166   1.937   3.084
 7499SOL    HW123396   4.139   1.890   3.000
 7499SOL    HW223397   4.191   1.869   3.153
 7500SOL     OW23398   3.728   5.898   3.229
 7500SOL    HW123399   3.765   5.952   3.305
 7500SOL    HW223400   3.789   5.906   3.150
 7501SOL     OW23401   5.124   4.107   4.753
 7501SOL    HW123402   5.163   4.015   4.762
 7501SOL    HW223403   5.122   4.150   4.843
 7502SOL     OW23404   2.911   1.032   4.463
 7502SOL    HW123405   2.991   1.068   4.414
 7502SOL    HW223406   2.901   0.935   4.444
 7503SOL     OW23407   2.079   6.732   1.530
 7503SOL    HW123408   2.059   6.821   1.570
 7503SOL    HW223409   2.147   6.743   1.457
 7504SOL     OW23410   0.734   6.183   3.715
 7504SOL    HW123411   0.783   6.123   3.779
 7504SOL    HW223412   0.709   6.267   3.762
 7505SOL     OW23413   1.233   2.980   5.616
 7505SOL    HW123414   1.150   2.934   5.647
 7505SOL    HW223415   1.218   3.079   5.615
 7506SOL     OW23416   5.481   2.109   3.548
 7506SOL    HW123417   5.435   2.189   3.510
 7506SOL    HW223418   5.456   2.028   3.495
 7507SOL     OW23419   6.064   1.798   2.802
 7507SOL    HW123420   6.033   1.801   2.707
 7507SOL    HW223421   6.012   1.865   2.856
 7508SOL     OW23422   1.879   5.867   1.228
 7508SOL    HW123423   1.886   5.929   1.150
 7508SOL    HW223424   1.854   5.919   1.310
 7509SOL     OW23425   6.086   3.563   0.875
 7509SOL    HW123426   6.131   3.652   0.867
 7509SOL    HW223427   6.133   3.509   0.945
 7510SOL     OW23428   3.225   3.337   5.072
 7510SOL    HW123429   3.161   3.317   4.998
 7510SOL    HW223430   3.254   3.432   5.067
 7511SOL     OW23431   2.701   5.924   3.397
 7511SOL    HW123432   2.679   6.021   3.413
 7511SOL    HW223433   2.634   5.884   3.335
 7512SOL     OW23434   3.012   0.605   6.430
 7512SOL    HW123435   2.975   0.659   6.355
 7512SOL    HW223436   2.996   0.508   6.413
 7513SOL     OW23437   1.034   1.374   1.892
 7513SOL    HW123438   1.077   1.396   1.979
 7513SOL    HW223439   0.946   1.420   1.885
 7514SOL     OW23440   2.289   4.698   2.522
 7514SOL    HW123441   2.294   4.698   2.423
 7514SOL    HW223442   2.348   4.769   2.559
 7515SOL     OW23443   7.002   5.232   4.336
 7515SOL    HW123444   0.064   5.294   4.335
 7515SOL    HW223445   7.017   5.157   4.272
 7516SOL     OW23446   6.777   5.285   5.990
 7516SOL    HW123447   6.864   5.266   6.037
 7516SOL    HW223448   6.703   5.238   6.038
 7517SOL     OW23449   0.232   2.023   0.170
 7517SOL    HW123450   0.196   2.019   0.077
 7517SOL    HW223451   0.157   2.018   0.236
 7518SOL     OW23452   4.874   3.895   4.352
 7518SOL    HW123453   4.964   3.910   4.393
 7518SOL    HW223454   4.814   3.852   4.420
 7519SOL     OW23455   6.671   6.603   4.726
 7519SOL    HW123456   6.618   6.545   4.786
 7519SOL    HW223457   6.722   6.547   4.660
 7520SOL     OW23458   2.468   0.571   2.861
 7520SOL    HW123459   2.410   0.582   2.942
 7520SOL    HW223460   2.508   0.479   2.861
 7521SOL     OW23461   4.880   2.794   5.397
 7521SOL    HW123462   4.890   2.781   5.495
 7521SOL    HW223463   4.824   2.720   5.359
 7522SOL     OW23464   1.393   1.304   5.730
 7522SOL    HW123465   1.391   1.274   5.825
 7522SOL    HW223466   1.485   1.292   5.693
 7523SOL     OW23467   4.702   0.560   6.403
 7523SOL    HW123468   4.782   0.541   6.460
 7523SOL    HW223469   4.727   0.557   6.307
 7524SOL     OW23470   0.828   2.787   4.832
 7524SOL    HW123471   0.809   2.728   4.910
 7524SOL    HW223472   0.799   2.742   4.748
 7525SOL     OW23473   3.599   0.500   6.963
 7525SOL    HW123474   3.597   0.568   6.889
 7525SOL    HW223475   3.628   0.412   6.926
 7526SOL     OW23476   2.859   3.030   1.391
 7526SOL    HW123477   2.860   3.114   1.337
 7526SOL    HW223478   2.777   3.029   1.449
 7527SOL     OW23479   3.279   6.213   3.647
 7527SOL    HW123480   3.282   6.140   3.578
 7527SOL    HW223481   3.361   6.209   3.703
 7528SOL     OW23482   6.499   1.989   6.360
 7528SOL    HW123483   6.505   2.050   6.439
 7528SOL    HW223484   6.436   1.914   6.381
 7529SOL     OW23485   5.468   1.390   4.824
 7529SOL    HW123486   5.566   1.384   4.841
 7529SOL    HW223487   5.452   1.434   4.736
 7530SOL     OW23488   6.788   2.073   2.308
 7530SOL    HW123489   6.826   1.994   2.358
 7530SOL    HW223490   6.859   2.112   2.250
 7531SOL     OW23491   5.518   3.501   4.175
 7531SOL    HW123492   5.551   3.427   4.117
 7531SOL    HW223493   5.443   3.549   4.128
 7532SOL     OW23494   4.710   6.437   0.765
 7532SOL    HW123495   4.703   6.341   0.790
 7532SOL    HW223496   4.774   6.483   0.828
 7533SOL     OW23497   3.728   2.171   1.488
 7533SOL    HW123498   3.796   2.102   1.512
 7533SOL    HW223499   3.656   2.173   1.557
 7534SOL     OW23500   4.583   5.902   4.926
 7534SOL    HW123501   4.671   5.895   4.881
 7534SOL    HW223502   4.512   5.865   4.866
 7535SOL     OW23503   2.050   6.942   4.919
 7535SOL    HW123504   2.083   0.017   4.905
 7535SOL    HW223505   2.118   6.876   4.886
 7536SOL     OW23506   5.114   4.368   4.379
 7536SOL    HW123507   5.201   4.320   4.370
 7536SOL    HW223508   5.059   4.325   4.450
 7537SOL     OW23509   1.624   5.086   2.335
 7537SOL    HW123510   1.609   5.121   2.428
 7537SOL    HW223511   1.721   5.097   2.312
 7538SOL     OW23512   2.014   2.293   1.644
 7538SOL    HW123513   1.954   2.290   1.724
 7538SOL    HW223514   1.958   2.305   1.562
 7539SOL     OW23515   1.332   3.524   4.371
 7539SOL    HW123516   1.311   3.427   4.359
 7539SOL    HW223517   1.284   3.559   4.451
 7540SOL     OW23518   4.643   0.675   5.204
 7540SOL    HW123519   4.612   0.766   5.233
 7540SOL    HW223520   4.574   0.607   5.229
 7541SOL     OW23521   0.602   3.972   4.721
 7541SOL    HW123522   0.545   4.048   4.751
 7541SOL    HW223523   0.546   3.907   4.669
 7542SOL     OW23524   0.689   5.632   0.145
 7542SOL    HW123525   0.613   5.572   0.119
 7542SOL    HW223526   0.710   5.620   0.242
 7543SOL     OW23527   3.571   1.187   5.266
 7543SOL    HW123528   3.491   1.196   5.206
 7543SOL    HW223529   3.652   1.174   5.210
 7544SOL     OW23530   6.272   2.525   4.253
 7544SOL    HW123531   6.344   2.501   4.188
 7544SOL    HW223532   6.266   2.625   4.262
 7545SOL     OW23533   0.744   6.111   6.459
 7545SOL    HW123534   0.747   6.179   6.531
 7545SOL    HW223535   0.793   6.145   6.378
 7546SOL     OW23536   4.533   2.028   1.432
 7546SOL    HW123537   4.609   1.965   1.417
 7546SOL    HW223538   4.487   2.006   1.518
 7547SOL     OW23539   5.142   1.687   0.714
 7547SOL    HW123540   5.209   1.678   0.640
 7547SOL    HW223541   5.062   1.630   0.695
 7548SOL     OW23542   4.403   2.450   6.528
 7548SOL    HW123543   4.335   2.520   6.504
 7548SOL    HW223544   4.429   2.400   6.446
 7549SOL     OW23545   3.230   3.223   6.600
 7549SOL    HW123546   3.207   3.184   6.689
 7549SOL    HW223547   3.232   3.323   6.607
 7550SOL     OW23548   1.786   4.576   3.949
 7550SOL    HW123549   1.842   4.495   3.967
 7550SOL    HW223550   1.814   4.617   3.862
 7551SOL     OW23551   6.114   2.871   5.342
 7551SOL    HW123552   6.019   2.865   5.370
 7551SOL    HW223553   6.123   2.933   5.265
 7552SOL     OW23554   1.242   6.025   3.864
 7552SOL    HW123555   1.216   5.929   3.852
 7552SOL    HW223556   1.205   6.079   3.789
 7553SOL     OW23557   4.215   0.158   5.890
 7553SOL    HW123558   4.123   0.156   5.928
 7553SOL    HW223559   4.228   0.242   5.838
 7554SOL     OW23560   5.034   0.914   6.691
 7554SOL    HW123561   5.000   0.836   6.743
 7554SOL    HW223562   5.044   0.992   6.752
 7555SOL     OW23563   3.242   5.282   6.213
 7555SOL    HW123564   3.331   5.273   6.168
 7555SOL    HW223565   3.173   5.312   6.147
 7556SOL     OW23566   2.764   2.474   0.445
 7556SOL    HW123567   2.778   2.510   0.353
 7556SOL    HW223568   2.671   2.494   0.475
 7557SOL     OW23569   4.981   0.829   6.427
 7557SOL    HW123570   4.991   0.858   6.522
 7557SOL    HW223571   5.026   0.895   6.367
 7558SOL     OW23572   1.831   2.454   4.711
 7558SOL    HW123573   1.879   2.370   4.684
 7558SOL    HW223574   1.762   2.431   4.780
 7559SOL     OW23575   3.917   2.990   5.888
 7559SOL    HW123576   3.931   3.063   5.954
 7559SOL    HW223577   3.840   3.013   5.828
 7560SOL     OW23578   4.863   6.617   0.482
 7560SOL    HW123579   4.830   6.525   0.465
 7560SOL    HW223580   4.793   6.669   0.533
 7561SOL     OW23581   6.483   3.501   6.163
 7561SOL    HW123582   6.520   3.582   6.210
 7561SOL    HW223583   6.426   3.530   6.087
 7562SOL     OW23584   0.715   5.142   5.379
 7562SOL    HW123585   0.657   5.061   5.380
 7562SOL    HW223586   0.702   5.193   5.464
 7563SOL     OW23587   3.121   0.234   1.680
 7563SOL    HW123588   3.104   0.208   1.585
 7563SOL    HW223589   3.205   0.288   1.685
 7564SOL     OW23590   4.266   0.734   4.085
 7564SOL    HW123591   4.190   0.728   4.020
 7564SOL    HW223592   4.229   0.740   4.178
 7565SOL     OW23593   5.518   3.673   6.666
 7565SOL    HW123594   5.604   3.630   6.637
 7565SOL    HW223595   5.511   3.668   6.765
 7566SOL     OW23596   5.361   5.202   2.649
 7566SOL    HW123597   5.406   5.285   2.618
 7566SOL    HW223598   5.400   5.123   2.602
 7567SOL     OW23599   1.713   1.415   6.001
 7567SOL    HW123600   1.782   1.483   5.977
 7567SOL    HW223601   1.705   1.410   6.101
 7568SOL     OW23602   5.456   4.581   3.186
 7568SOL    HW123603   5.540   4.580   3.240
 7568SOL    HW223604   5.475   4.550   3.093
 7569SOL     OW23605   2.972   4.216   6.032
 7569SOL    HW123606   2.946   4.165   5.950
 7569SOL    HW223607   3.023   4.298   6.005
 7570SOL     OW23608   5.243   3.881   4.165
 7570SOL    HW123609   5.195   3.920   4.086
 7570SOL    HW223610   5.240   3.946   4.241
 7571SOL     OW23611   4.699   4.252   3.544
 7571SOL    HW123612   4.728   4.156   3.548
 7571SOL    HW223613   4.646   4.267   3.460
 7572SOL     OW23614   4.969   0.878   2.341
 7572SOL    HW123615   4.959   0.976   2.320
 7572SOL    HW223616   4.888   0.845   2.388
 7573SOL     OW23617   0.122   6.948   5.453
 7573SOL    HW123618   0.031   6.909   5.469
 7573SOL    HW223619   0.183   6.920   5.527
 7574SOL     OW23620   5.351   0.780   5.419
 7574SOL    HW123621   5.254   0.755   5.414
 7574SOL    HW223622   5.382   0.813   5.330
 7575SOL     OW23623   5.225   6.951   0.093
 7575SOL    HW123624   5.230   0.026   0.055
 7575SOL    HW223625   5.167   6.894   0.034
 7576SOL     OW23626   4.920   3.350   0.622
 7576SOL    HW123627   4.846   3.311   0.676
 7576SOL    HW223628   4.917   3.450   0.627
 7577SOL     OW23629   0.478   6.663   6.779
 7577SOL    HW123630   0.412   6.598   6.742
 7577SOL    HW223631   0.561   6.614   6.805
 7578SOL     OW23632   3.129   5.321   2.960
 7578SOL    HW123633   3.087   5.238   2.998
 7578SOL    HW223634   3.181   5.297   2.878
 7579SOL     OW23635   0.251   1.893   1.791
 7579SOL    HW123636   0.333   1.943   1.764
 7579SOL    HW223637   0.262   1.860   1.885
 7580SOL     OW23638   0.889   3.915   3.696
 7580SOL    HW123639   0.797   3.939   3.665
 7580SOL    HW223640   0.953   3.923   3.619
 7581SOL     OW23641   0.797   2.021   1.068
 7581SOL    HW123642   0.896   2.011   1.075
 7581SOL    HW223643   0.773   2.052   0.976
 7582SOL     OW23644   4.057   1.378   3.241
 7582SOL    HW123645   3.982   1.429   3.285
 7582SOL    HW223646   4.141   1.394   3.293
 7583SOL     OW23647   4.927   2.449   2.090
 7583SOL    HW123648   4.836   2.432   2.051
 7583SOL    HW223649   4.961   2.537   2.059
 7584SOL     OW23650   2.106   0.797   2.970
 7584SOL    HW123651   2.084   0.801   3.068
 7584SOL    HW223652   2.024   0.769   2.919
 7585SOL     OW23653   2.129   3.019   6.105
 7585SOL    HW123654   2.099   2.929   6.074
 7585SOL    HW223655   2.142   3.079   6.027
 7586SOL     OW23656   1.956   6.569   3.816
 7586SOL    HW123657   1.900   6.532   3.742
 7586SOL    HW223658   2.052   6.544   3.802
 7587SOL     OW23659   2.314   1.081   6.780
 7587SOL    HW123660   2.408   1.110   6.758
 7587SOL    HW223661   2.317   1.005   6.844
 7588SOL     OW23662   2.113   2.267   3.465
 7588SOL    HW123663   2.112   2.293   3.562
 7588SOL    HW223664   2.123   2.168   3.457
 7589SOL     OW23665   0.367   0.473   2.669
 7589SOL    HW123666   0.457   0.443   2.636
 7589SOL    HW223667   0.297   0.447   2.603
 7590SOL     OW23668   4.434   1.829   6.873
 7590SOL    HW123669   4.377   1.881   6.937
 7590SOL    HW223670   4.525   1.816   6.913
 7591SOL     OW23671   5.052   4.348   0.468
 7591SOL    HW123672   5.106   4.399   0.535
 7591SOL    HW223673   5.040   4.254   0.500
 7592SOL     OW23674   6.277   5.837   4.732
 7592SOL    HW123675   6.347   5.766   4.748
 7592SOL    HW223676   6.191   5.808   4.773
 7593SOL     OW23677   6.491   3.367   6.713
 7593SOL    HW123678   6.505   3.375   6.812
 7593SOL    HW223679   6.579   3.349   6.669
 7594SOL     OW23680   1.821   4.764   1.810
 7594SOL    HW123681   1.900   4.713   1.778
 7594SOL    HW223682   1.815   4.851   1.761
 7595SOL     OW23683   5.622   3.378   6.155
 7595SOL    HW123684   5.602   3.473   6.128
 7595SOL    HW223685   5.700   3.344   6.102
 7596SOL     OW23686   3.320   6.806   4.713
 7596SOL    HW123687   3.294   6.789   4.808
 7596SOL    HW223688   3.285   6.732   4.655
 7597SOL     OW23689   2.056   6.205   3.250
 7597SOL    HW123690   2.066   6.289   3.304
 7597SOL    HW223691   2.126   6.203   3.178
 7598SOL     OW23692   6.772   0.647   3.196
 7598SOL    HW123693   6.842   0.631   3.126
 7598SOL    HW223694   6.716   0.726   3.169
 7599SOL     OW23695   5.273   2.204   1.913
 7599SOL    HW123696   5.323   2.290   1.904
 7599SOL    HW223697   5.262   2.181   2.010
 7600SOL     OW23698   0.638   1.190   3.653
 7600SOL    HW123699   0.716   1.210   3.712
 7600SOL    HW223700   0.652   1.236   3.565
 7601SOL     OW23701   2.533   4.550   2.447
 7601SOL    HW123702   2.523   4.632   2.391
 7601SOL    HW223703   2.558   4.576   2.540
 7602SOL     OW23704   1.567   3.387   6.883
 7602SOL    HW123705   1.623   3.320   6.932
 7602SOL    HW223706   1.526   3.345   6.803
 7603SOL     OW23707   2.124   6.233   6.668
 7603SOL    HW123708   2.090   6.142   6.688
 7603SOL    HW223709   2.160   6.236   6.575
 7604SOL     OW23710   0.968   2.971   4.677
 7604SOL    HW123711   1.045   2.986   4.739
 7604SOL    HW223712   0.912   2.896   4.712
 7605SOL     OW23713   0.956   0.380   0.581
 7605SOL    HW123714   0.911   0.328   0.508
 7605SOL    HW223715   0.988   0.318   0.652
 7606SOL     OW23716   5.716   3.012   4.085
 7606SOL    HW123717   5.714   2.936   4.151
 7606SOL    HW223718   5.684   2.979   3.996
 7607SOL     OW23719   4.047   4.868   0.930
 7607SOL    HW123720   3.998   4.955   0.926
 7607SOL    HW223721   4.021   4.812   0.852
 7608SOL     OW23722   4.688   3.368   1.042
 7608SOL    HW123723   4.765   3.431   1.050
 7608SOL    HW223724   4.643   3.360   1.131
 7609SOL     OW23725   1.573   3.113   4.537
 7609SOL    HW123726   1.655   3.140   4.486
 7609SOL    HW223727   1.492   3.127   4.480
 7610SOL     OW23728   4.112   4.373   5.727
 7610SOL    HW123729   4.211   4.388   5.729
 7610SOL    HW223730   4.069   4.436   5.791
 7611SOL     OW23731   5.229   4.562   1.249
 7611SOL    HW123732   5.180   4.638   1.292
 7611SOL    HW223733   5.294   4.523   1.315
 7612SOL     OW23734   4.901   3.130   2.906
 7612SOL    HW123735   4.959   3.080   2.842
 7612SOL    HW223736   4.813   3.150   2.862
 7613SOL     OW23737   0.521   1.699   0.814
 7613SOL    HW123738   0.615   1.725   0.793
 7613SOL    HW223739   0.506   1.709   0.913
 7614SOL     OW23740   5.057   2.984   1.150
 7614SOL    HW123741   5.052   2.885   1.158
 7614SOL    HW223742   5.132   3.009   1.088
 7615SOL     OW23743   4.273   4.555   6.726
 7615SOL    HW123744   4.191   4.533   6.780
 7615SOL    HW223745   4.350   4.573   6.787
 7616SOL     OW23746   6.756   6.389   4.561
 7616SOL    HW123747   6.794   6.329   4.490
 7616SOL    HW223748   6.738   6.336   4.643
 7617SOL     OW23749   3.845   6.181   3.233
 7617SOL    HW123750   3.806   6.149   3.147
 7617SOL    HW223751   3.771   6.198   3.299
 7618SOL     OW23752   0.886   2.785   6.387
 7618SOL    HW123753   0.904   2.687   6.374
 7618SOL    HW223754   0.971   2.832   6.410
 7619SOL     OW23755   0.020   2.861   4.875
 7619SOL    HW123756   0.114   2.834   4.854
 7619SOL    HW223757   6.982   2.852   4.792
 7620SOL     OW23758   4.273   5.559   2.116
 7620SOL    HW123759   4.332   5.542   2.037
 7620SOL    HW223760   4.330   5.575   2.197
 7621SOL     OW23761   6.657   1.154   0.789
 7621SOL    HW123762   6.596   1.147   0.868
 7621SOL    HW223763   6.624   1.224   0.726
 7622SOL     OW23764   5.066   4.255   6.210
 7622SOL    HW123765   4.996   4.243   6.140
 7622SOL    HW223766   5.036   4.213   6.296
 7623SOL     OW23767   4.302   4.292   7.009
 7623SOL    HW123768   4.344   4.234   6.939
 7623SOL    HW223769   4.226   4.343   6.968
 7624SOL     OW23770   6.615   3.528   4.416
 7624SOL    HW123771   6.683   3.490   4.478
 7624SOL    HW223772   6.661   3.570   4.337
 7625SOL     OW23773   5.459   1.378   6.992
 7625SOL    HW123774   5.456   1.478   6.990
 7625SOL    HW223775   5.533   1.349   0.035
 7626SOL     OW23776   5.899   0.373   5.798
 7626SOL    HW123777   5.914   0.304   5.869
 7626SOL    HW223778   5.801   0.395   5.795
 7627SOL     OW23779   3.451   2.629   0.654
 7627SOL    HW123780   3.479   2.678   0.736
 7627SOL    HW223781   3.511   2.654   0.578
 7628SOL     OW23782   3.387   2.887   1.715
 7628SOL    HW123783   3.425   2.980   1.720
 7628SOL    HW223784   3.460   2.821   1.731
 7629SOL     OW23785   0.357   4.135   3.409
 7629SOL    HW123786   0.292   4.106   3.339
 7629SOL    HW223787   0.416   4.207   3.372
 7630SOL     OW23788   1.069   0.873   0.166
 7630SOL    HW123789   0.995   0.939   0.154
 7630SOL    HW223790   1.035   0.794   0.218
 7631SOL     OW23791   0.852   1.796   5.541
 7631SOL    HW123792   0.923   1.744   5.588
 7631SOL    HW223793   0.887   1.887   5.518
 7632SOL     OW23794   4.569   4.825   0.800
 7632SOL    HW123795   4.582   4.810   0.898
 7632SOL    HW223796   4.472   4.835   0.781
 7633SOL     OW23797   5.451   0.942   1.720
 7633SOL    HW123798   5.538   0.904   1.753
 7633SOL    HW223799   5.388   0.954   1.797
 7634SOL     OW23800   1.949   1.122   1.564
 7634SOL    HW123801   2.008   1.048   1.533
 7634SOL    HW223802   2.003   1.189   1.616
 7635SOL     OW23803   3.395   5.019   4.941
 7635SOL    HW123804   3.370   4.954   4.869
 7635SOL    HW223805   3.395   4.971   5.030
 7636SOL     OW23806   1.240   3.262   4.391
 7636SOL    HW123807   1.276   3.227   4.304
 7636SOL    HW223808   1.220   3.186   4.452
 7637SOL     OW23809   2.574   5.769   2.679
 7637SOL    HW123810   2.474   5.766   2.687
 7637SOL    HW223811   2.599   5.821   2.597
 7638SOL     OW23812   1.934   5.225   2.495
 7638SOL    HW123813   1.895   5.305   2.449
 7638SOL    HW223814   1.864   5.184   2.553
 7639SOL     OW23815   0.128   0.999   0.822
 7639SOL    HW123816   0.036   0.963   0.839
 7639SOL    HW223817   0.121   1.094   0.791
 7640SOL     OW23818   2.566   2.246   6.162
 7640SOL    HW123819   2.628   2.204   6.228
 7640SOL    HW223820   2.474   2.205   6.171
 7641SOL     OW23821   0.326   3.138   2.666
 7641SOL    HW123822   0.232   3.143   2.699
 7641SOL    HW223823   0.354   3.228   2.633
 7642SOL     OW23824   4.372   1.242   2.212
 7642SOL    HW123825   4.424   1.195   2.283
 7642SOL    HW223826   4.333   1.326   2.250
 7643SOL     OW23827   5.044   1.551   3.287
 7643SOL    HW123828   5.043   1.637   3.236
 7643SOL    HW223829   5.088   1.480   3.232
 7644SOL     OW23830   4.702   2.721   1.856
 7644SOL    HW123831   4.611   2.680   1.852
 7644SOL    HW223832   4.694   2.821   1.862
 7645SOL     OW23833   4.846   3.885   5.999
 7645SOL    HW123834   4.921   3.921   5.942
 7645SOL    HW223835   4.760   3.925   5.969
 7646SOL     OW23836   0.581   3.117   4.146
 7646SOL    HW123837   0.508   3.049   4.157
 7646SOL    HW223838   0.649   3.082   4.081
 7647SOL     OW23839   0.013   2.510   4.310
 7647SOL    HW123840   0.064   2.430   4.278
 7647SOL    HW223841   0.075   2.574   4.355
 7648SOL     OW23842   2.247   1.847   2.409
 7648SOL    HW123843   2.184   1.782   2.367
 7648SOL    HW223844   2.318   1.872   2.342
 7649SOL     OW23845   1.539   0.129   3.981
 7649SOL    HW123846   1.605   0.197   3.948
 7649SOL    HW223847   1.585   0.042   3.995
 7650SOL     OW23848   5.657   0.691   0.506
 7650SOL    HW123849   5.652   0.592   0.489
 7650SOL    HW223850   5.588   0.716   0.574
 7651SOL     OW23851   2.163   0.365   4.603
 7651SOL    HW123852   2.248   0.322   4.570
 7651SOL    HW223853   2.096   0.366   4.529
 7652SOL     OW23854   5.647   2.251   4.813
 7652SOL    HW123855   5.695   2.176   4.858
 7652SOL    HW223856   5.549   2.234   4.815
 7653SOL     OW23857   0.806   1.690   0.398
 7653SOL    HW123858   0.756   1.745   0.331
 7653SOL    HW223859   0.874   1.634   0.351
 7654SOL     OW23860   4.826   3.035   4.234
 7654SOL    HW123861   4.817   3.037   4.135
 7654SOL    HW223862   4.922   3.023   4.259
 7655SOL     OW23863   4.043   6.905   4.008
 7655SOL    HW123864   4.016   6.865   3.921
 7655SOL    HW223865   4.128   6.957   3.996
 7656SOL     OW23866   4.106   3.944   6.239
 7656SOL    HW123867   4.081   3.897   6.154
 7656SOL    HW223868   4.046   3.914   6.313
 7657SOL     OW23869   1.779   1.869   2.954
 7657SOL    HW123870   1.778   1.770   2.970
 7657SOL    HW223871   1.735   1.916   3.031
 7658SOL     OW23872   2.214   0.291   1.065
 7658SOL    HW123873   2.224   0.292   0.966
 7658SOL    HW223874   2.119   0.311   1.089
 7659SOL     OW23875   4.794   4.411   0.007
 7659SOL    HW123876   4.830   4.445   6.938
 7659SOL    HW223877   4.787   4.486   0.073
 7660SOL     OW23878   6.905   6.116   4.040
 7660SOL    HW123879   6.884   6.161   3.953
 7660SOL    HW223880   6.964   6.175   4.095
 7661SOL     OW23881   5.645   2.656   5.214
 7661SOL    HW123882   5.681   2.570   5.177
 7661SOL    HW223883   5.614   2.642   5.307
 7662SOL     OW23884   1.166   2.449   4.064
 7662SOL    HW123885   1.261   2.472   4.085
 7662SOL    HW223886   1.110   2.532   4.063
 7663SOL     OW23887   5.687   4.754   6.362
 7663SOL    HW123888   5.631   4.700   6.298
 7663SOL    HW223889   5.749   4.812   6.310
 7664SOL     OW23890   4.468   1.138   1.953
 7664SOL    HW123891   4.446   1.041   1.961
 7664SOL    HW223892   4.451   1.183   2.040
 7665SOL     OW23893   5.821   0.873   5.275
 7665SOL    HW123894   5.909   0.902   5.312
 7665SOL    HW223895   5.787   0.943   5.212
 7666SOL     OW23896   0.679   4.712   3.316
 7666SOL    HW123897   0.593   4.712   3.265
 7666SOL    HW223898   0.671   4.648   3.393
 7667SOL     OW23899   4.184   0.421   2.068
 7667SOL    HW123900   4.218   0.338   2.111
 7667SOL    HW223901   4.125   0.470   2.133
 7668SOL     OW23902   2.604   4.887   0.952
 7668SOL    HW123903   2.644   4.869   1.042
 7668SOL    HW223904   2.592   4.985   0.939
 7669SOL     OW23905   4.826   1.314   5.623
 7669SOL    HW123906   4.880   1.372   5.563
 7669SOL    HW223907   4.870   1.310   5.713
 7670SOL     OW23908   1.095   5.414   0.678
 7670SOL    HW123909   1.020   5.417   0.612
 7670SOL    HW223910   1.062   5.375   0.764
 7671SOL     OW23911   3.617   0.937   2.582
 7671SOL    HW123912   3.711   0.944   2.548
 7671SOL    HW223913   3.555   0.976   2.514
 7672SOL     OW23914   0.252   5.848   2.999
 7672SOL    HW123915   0.284   5.840   3.094
 7672SOL    HW223916   0.263   5.943   2.969
 7673SOL     OW23917   1.788   5.133   2.699
 7673SOL    HW123918   1.736   5.078   2.764
 7673SOL    HW223919   1.800   5.225   2.735
 7674SOL     OW23920   5.031   1.087   4.159
 7674SOL    HW123921   5.129   1.084   4.141
 7674SOL    HW223922   4.999   0.996   4.186
 7675SOL     OW23923   5.658   6.251   3.001
 7675SOL    HW123924   5.712   6.173   2.971
 7675SOL    HW223925   5.653   6.319   2.927
 7676SOL     OW23926   3.198   2.259   6.318
 7676SOL    HW123927   3.158   2.258   6.227
 7676SOL    HW223928   3.222   2.353   6.344
 7677SOL     OW23929   0.556   3.897   1.528
 7677SOL    HW123930   0.628   3.851   1.580
 7677SOL    HW223931   0.571   3.996   1.532
 7678SOL     OW23932   2.539   2.572   5.150
 7678SOL    HW123933   2.539   2.477   5.120
 7678SOL    HW223934   2.479   2.625   5.090
 7679SOL     OW23935   2.370   6.213   5.466
 7679SOL    HW123936   2.297   6.202   5.534
 7679SOL    HW223937   2.445   6.151   5.488
 7680SOL     OW23938   1.529   0.211   0.791
 7680SOL    HW123939   1.512   0.297   0.837
 7680SOL    HW223940   1.519   0.135   0.855
 7681SOL     OW23941   2.537   0.959   0.754
 7681SOL    HW123942   2.622   0.905   0.752
 7681SOL    HW223943   2.520   0.996   0.663
 7682SOL     OW23944   4.083   6.948   2.105
 7682SOL    HW123945   4.025   6.867   2.092
 7682SOL    HW223946   4.030   0.013   2.086
 7683SOL     OW23947   0.221   1.736   4.527
 7683SOL    HW123948   0.195   1.744   4.430
 7683SOL    HW223949   0.198   1.821   4.575
 7684SOL     OW23950   4.346   1.592   0.985
 7684SOL    HW123951   4.298   1.625   1.067
 7684SOL    HW223952   4.433   1.552   1.011
 7685SOL     OW23953   2.710   1.493   5.661
 7685SOL    HW123954   2.633   1.430   5.654
 7685SOL    HW223955   2.730   1.531   5.570
 7686SOL     OW23956   6.494   6.998   3.538
 7686SOL    HW123957   6.487   0.061   3.479
 7686SOL    HW223958   6.569   7.010   3.603
 7687SOL     OW23959   5.716   5.150   4.489
 7687SOL    HW123960   5.813   5.127   4.488
 7687SOL    HW223961   5.697   5.213   4.565
 7688SOL     OW23962   0.162   5.916   5.746
 7688SOL    HW123963   0.142   5.939   5.841
 7688SOL    HW223964   0.120   5.983   5.685
 7689SOL     OW23965   5.438   6.497   2.425
 7689SOL    HW123966   5.419   6.497   2.523
 7689SOL    HW223967   5.451   6.403   2.393
 7690SOL     OW23968   5.342   5.287   0.688
 7690SOL    HW123969   5.376   5.376   0.656
 7690SOL    HW223970   5.401   5.253   0.761
 7691SOL     OW23971   5.949   4.389   2.957
 7691SOL    HW123972   5.991   4.437   2.880
 7691SOL    HW223973   5.945   4.450   3.037
 7692SOL     OW23974   0.840   5.695   1.811
 7692SOL    HW123975   0.854   5.728   1.904
 7692SOL    HW223976   0.751   5.651   1.804
 7693SOL     OW23977   2.699   0.463   1.028
 7693SOL    HW123978   2.644   0.480   0.947
 7693SOL    HW223979   2.656   0.392   1.083
 7694SOL     OW23980   5.576   3.121   3.307
 7694SOL    HW123981   5.651   3.185   3.293
 7694SOL    HW223982   5.570   3.060   3.228
 7695SOL     OW23983   5.467   0.979   1.441
 7695SOL    HW123984   5.489   0.881   1.439
 7695SOL    HW223985   5.429   1.003   1.530
 7696SOL     OW23986   6.689   1.623   6.073
 7696SOL    HW123987   6.704   1.600   5.977
 7696SOL    HW223988   6.753   1.572   6.130
 7697SOL     OW23989   2.385   0.390   3.561
 7697SOL    HW123990   2.373   0.489   3.573
 7697SOL    HW223991   2.330   0.341   3.628
 7698SOL     OW23992   5.965   0.716   4.417
 7698SOL    HW123993   5.905   0.716   4.497
 7698SOL    HW223994   6.013   0.804   4.411
 7699SOL     OW23995   2.621   5.343   6.271
 7699SOL    HW123996   2.616   5.389   6.360
 7699SOL    HW223997   2.535   5.296   6.253
 7700SOL     OW23998   4.435   6.000   3.861
 7700SOL    HW123999   4.480   5.913   3.880
 7700SOL    HW224000   4.424   6.011   3.762
 7701SOL     OW24001   7.002   2.795   6.455
 7701SOL    HW124002   6.923   2.856   6.460
 7701SOL    HW224003   6.969   2.700   6.447
 7702SOL     OW24004   4.592   5.447   5.068
 7702SOL    HW124005   4.511   5.479   5.118
 7702SOL    HW224006   4.664   5.516   5.074
 7703SOL     OW24007   5.887   6.320   6.389
 7703SOL    HW124008   5.793   6.351   6.383
 7703SOL    HW224009   5.934   6.338   6.303
 7704SOL     OW24010   6.043   0.573   2.760
 7704SOL    HW124011   5.945   0.560   2.748
 7704SOL    HW224012   6.092   0.492   2.725
 7705SOL     OW24013   2.216   6.023   1.288
 7705SOL    HW124014   2.257   6.092   1.228
 7705SOL    HW224015   2.130   6.058   1.325
 7706SOL     OW24016   3.404   3.258   3.884
 7706SOL    HW124017   3.442   3.275   3.793
 7706SOL    HW224018   3.452   3.180   3.926
 7707SOL     OW24019   0.370   4.881   6.230
 7707SOL    HW124020   0.318   4.805   6.191
 7707SOL    HW224021   0.468   4.862   6.224
 7708SOL     OW24022   1.361   6.131   4.708
 7708SOL    HW124023   1.345   6.229   4.717
 7708SOL    HW224024   1.387   6.093   4.797
 7709SOL     OW24025   6.559   4.903   1.665
 7709SOL    HW124026   6.564   4.948   1.754
 7709SOL    HW224027   6.518   4.966   1.599
 7710SOL     OW24028   2.225   2.141   0.764
 7710SOL    HW124029   2.260   2.210   0.827
 7710SOL    HW224030   2.217   2.053   0.812
 7711SOL     OW24031   5.326   5.838   5.454
 7711SOL    HW124032   5.387   5.902   5.501
 7711SOL    HW224033   5.234   5.845   5.493
 7712SOL     OW24034   6.261   5.338   0.663
 7712SOL    HW124035   6.320   5.354   0.584
 7712SOL    HW224036   6.181   5.284   0.636
 7713SOL     OW24037   1.799   3.527   0.260
 7713SOL    HW124038   1.889   3.488   0.280
 7713SOL    HW224039   1.754   3.553   0.345
 7714SOL     OW24040   0.024   5.211   5.382
 7714SOL    HW124041   0.121   5.236   5.386
 7714SOL    HW224042   0.015   5.119   5.345
 7715SOL     OW24043   2.961   2.413   6.520
 7715SOL    HW124044   3.021   2.443   6.446
 7715SOL    HW224045   2.976   2.315   6.537
 7716SOL     OW24046   6.650   4.264   0.361
 7716SOL    HW124047   6.552   4.259   0.376
 7716SOL    HW224048   6.698   4.267   0.449
 7717SOL     OW24049   1.429   1.595   5.453
 7717SOL    HW124050   1.346   1.616   5.401
 7717SOL    HW224051   1.406   1.580   5.549
 7718SOL     OW24052   6.548   3.680   3.128
 7718SOL    HW124053   6.498   3.593   3.132
 7718SOL    HW224054   6.524   3.736   3.207
 7719SOL     OW24055   0.626   3.918   4.413
 7719SOL    HW124056   0.652   3.866   4.332
 7719SOL    HW224057   0.553   3.871   4.462
 7720SOL     OW24058   6.882   2.294   6.258
 7720SOL    HW124059   6.963   2.351   6.247
 7720SOL    HW224060   6.800   2.353   6.259
 7721SOL     OW24061   0.902   5.724   2.051
 7721SOL    HW124062   0.886   5.644   2.109
 7721SOL    HW224063   0.891   5.807   2.105
 7722SOL     OW24064   1.810   4.400   3.502
 7722SOL    HW124065   1.815   4.349   3.588
 7722SOL    HW224066   1.865   4.483   3.510
 7723SOL     OW24067   3.775   3.555   6.497
 7723SOL    HW124068   3.682   3.581   6.471
 7723SOL    HW224069   3.788   3.457   6.483
 7724SOL     OW24070   3.240   4.769   0.883
 7724SOL    HW124071   3.220   4.758   0.786
 7724SOL    HW224072   3.214   4.685   0.932
 7725SOL     OW24073   6.243   1.517   3.054
 7725SOL    HW124074   6.158   1.560   3.023
 7725SOL    HW224075   6.247   1.423   3.021
 7726SOL     OW24076   1.560   4.268   6.413
 7726SOL    HW124077   1.605   4.319   6.340
 7726SOL    HW224078   1.553   4.172   6.388
 7727SOL     OW24079   6.358   2.545   2.200
 7727SOL    HW124080   6.287   2.613   2.217
 7727SOL    HW224081   6.431   2.555   2.268
 7728SOL     OW24082   2.139   3.021   5.220
 7728SOL    HW124083   2.190   3.069   5.292
 7728SOL    HW224084   2.204   2.984   5.153
 7729SOL     OW24085   5.688   0.818   1.803
 7729SOL    HW124086   5.631   0.775   1.874
 7729SOL    HW224087   5.785   0.807   1.827
 7730SOL     OW24088   0.127   4.979   6.075
 7730SOL    HW124089   0.147   5.042   6.000
 7730SOL    HW224090   0.194   4.990   6.148
 7731SOL     OW24091   6.248   0.011   0.386
 7731SOL    HW124092   6.316   6.972   0.340
 7731SOL    HW224093   6.157   7.002   0.355
 7732SOL     OW24094   4.055   0.117   0.034
 7732SOL    HW124095   3.971   0.066   0.052
 7732SOL    HW224096   4.052   0.204   0.082
 7733SOL     OW24097   5.872   5.897   1.934
 7733SOL    HW124098   5.919   5.901   2.022
 7733SOL    HW224099   5.878   5.805   1.897
 7734SOL     OW24100   1.339   4.786   5.084
 7734SOL    HW124101   1.249   4.803   5.045
 7734SOL    HW224102   1.344   4.691   5.116
 7735SOL     OW24103   5.812   5.563   6.118
 7735SOL    HW124104   5.892   5.586   6.062
 7735SOL    HW224105   5.784   5.643   6.171
 7736SOL     OW24106   2.658   3.096   6.813
 7736SOL    HW124107   2.617   3.075   6.901
 7736SOL    HW224108   2.590   3.142   6.755
 7737SOL     OW24109   3.599   0.130   1.761
 7737SOL    HW124110   3.558   0.134   1.852
 7737SOL    HW224111   3.694   0.099   1.768
 7738SOL     OW24112   2.743   5.521   0.781
 7738SOL    HW124113   2.700   5.470   0.856
 7738SOL    HW224114   2.734   5.468   0.696
 7739SOL     OW24115   1.349   1.812   2.252
 7739SOL    HW124116   1.390   1.774   2.335
 7739SOL    HW224117   1.287   1.886   2.277
 7740SOL     OW24118   2.531   1.329   3.139
 7740SOL    HW124119   2.526   1.390   3.060
 7740SOL    HW224120   2.614   1.274   3.133
 7741SOL     OW24121   0.414   4.190   4.856
 7741SOL    HW124122   0.431   4.285   4.830
 7741SOL    HW224123   0.460   4.170   4.943
 7742SOL     OW24124   4.308   2.347   4.027
 7742SOL    HW124125   4.330   2.269   4.086
 7742SOL    HW224126   4.212   2.343   4.001
 7743SOL     OW24127   4.638   1.484   6.840
 7743SOL    HW124128   4.632   1.479   6.740
 7743SOL    HW224129   4.732   1.505   6.866
 7744SOL     OW24130   1.004   6.795   3.684
 7744SOL    HW124131   0.982   6.699   3.702
 7744SOL    HW224132   0.942   6.832   3.616
 7745SOL     OW24133   2.925   0.035   0.179
 7745SOL    HW124134   2.999   0.002   0.237
 7745SOL    HW224135   2.865   0.094   0.233
 7746SOL     OW24136   0.634   0.178   0.488
 7746SOL    HW124137   0.581   0.259   0.463
 7746SOL    HW224138   0.605   0.146   0.578
 7747SOL     OW24139   6.498   6.406   1.424
 7747SOL    HW124140   6.428   6.367   1.363
 7747SOL    HW224141   6.471   6.498   1.450
 7748SOL     OW24142   3.890   4.067   4.199
 7748SOL    HW124143   3.813   4.085   4.260
 7748SOL    HW224144   3.920   4.152   4.156
 7749SOL     OW24145   3.190   3.458   3.882
 7749SOL    HW124146   3.168   3.475   3.786
 7749SOL    HW224147   3.264   3.390   3.888
 7750SOL     OW24148   6.309   5.439   0.215
 7750SOL    HW124149   6.299   5.537   0.198
 7750SOL    HW224150   6.368   5.424   0.294
 7751SOL     OW24151   0.987   2.510   3.066
 7751SOL    HW124152   0.967   2.440   3.135
 7751SOL    HW224153   1.072   2.486   3.018
 7752SOL     OW24154   5.335   5.651   5.138
 7752SOL    HW124155   5.367   5.739   5.173
 7752SOL    HW224156   5.321   5.588   5.215
 7753SOL     OW24157   2.204   0.270   3.715
 7753SOL    HW124158   2.175   0.176   3.697
 7753SOL    HW224159   2.123   0.328   3.726
 7754SOL     OW24160   5.437   6.606   1.853
 7754SOL    HW124161   5.380   6.684   1.879
 7754SOL    HW224162   5.435   6.538   1.925
 7755SOL     OW24163   1.329   1.562   5.717
 7755SOL    HW124164   1.305   1.465   5.715
 7755SOL    HW224165   1.403   1.577   5.783
 7756SOL     OW24166   3.482   4.891   3.166
 7756SOL    HW124167   3.572   4.893   3.122
 7756SOL    HW224168   3.417   4.844   3.106
 7757SOL     OW24169   5.124   5.960   4.528
 7757SOL    HW124170   5.151   5.987   4.436
 7757SOL    HW224171   5.127   5.861   4.536
 7758SOL     OW24172   1.396   1.971   0.304
 7758SOL    HW124173   1.405   1.954   0.402
 7758SOL    HW224174   1.299   1.981   0.281
 7759SOL     OW24175   1.174   1.918   4.822
 7759SOL    HW124176   1.106   1.928   4.750
 7759SOL    HW224177   1.148   1.976   4.900
 7760SOL     OW24178   5.997   3.356   2.630
 7760SOL    HW124179   6.069   3.360   2.560
 7760SOL    HW224180   5.910   3.332   2.587
 7761SOL     OW24181   1.207   0.198   6.789
 7761SOL    HW124182   1.254   0.120   6.828
 7761SOL    HW224183   1.243   0.283   6.829
 7762SOL     OW24184   4.403   0.945   4.118
 7762SOL    HW124185   4.334   1.000   4.165
 7762SOL    HW224186   4.359   0.863   4.080
 7763SOL     OW24187   0.821   1.322   0.681
 7763SOL    HW124188   0.905   1.325   0.736
 7763SOL    HW224189   0.770   1.407   0.693
 7764SOL     OW24190   3.241   2.985   3.304
 7764SOL    HW124191   3.180   3.047   3.354
 7764SOL    HW224192   3.198   2.959   3.218
 7765SOL     OW24193   5.582   2.634   3.847
 7765SOL    HW124194   5.503   2.695   3.843
 7765SOL    HW224195   5.553   2.544   3.879
 7766SOL     OW24196   5.648   2.187   0.091
 7766SOL    HW124197   5.643   2.166   7.010
 7766SOL    HW224198   5.628   2.284   0.105
 7767SOL     OW24199   4.699   6.593   3.636
 7767SOL    HW124200   4.736   6.560   3.723
 7767SOL    HW224201   4.722   6.528   3.563
 7768SOL     OW24202   3.900   5.160   2.597
 7768SOL    HW124203   3.803   5.180   2.609
 7768SOL    HW224204   3.952   5.196   2.674
 7769SOL     OW24205   4.989   2.551   2.553
 7769SOL    HW124206   4.912   2.613   2.536
 7769SOL    HW224207   5.072   2.592   2.516
 7770SOL     OW24208   1.059   3.790   2.262
 7770SOL    HW124209   0.962   3.814   2.258
 7770SOL    HW224210   1.079   3.723   2.190
 7771SOL     OW24211   2.725   2.151   5.124
 7771SOL    HW124212   2.699   2.056   5.140
 7771SOL    HW224213   2.642   2.205   5.107
 7772SOL     OW24214   5.574   0.976   2.831
 7772SOL    HW124215   5.597   0.992   2.928
 7772SOL    HW224216   5.645   0.921   2.789
 7773SOL     OW24217   3.285   5.500   5.067
 7773SOL    HW124218   3.253   5.567   5.000
 7773SOL    HW224219   3.344   5.433   5.022
 7774SOL     OW24220   6.137   2.725   6.292
 7774SOL    HW124221   6.060   2.754   6.349
 7774SOL    HW224222   6.121   2.754   6.198
 7775SOL     OW24223   3.948   6.595   2.746
 7775SOL    HW124224   3.992   6.684   2.756
 7775SOL    HW224225   3.976   6.535   2.822
 7776SOL     OW24226   3.189   4.816   7.007
 7776SOL    HW124227   3.240   4.830   6.922
 7776SOL    HW224228   3.135   4.732   7.000
 7777SOL     OW24229   1.066   0.549   5.166
 7777SOL    HW124230   1.005   0.627   5.183
 7777SOL    HW224231   1.085   0.543   5.069
 7778SOL     OW24232   4.782   5.319   0.358
 7778SOL    HW124233   4.709   5.387   0.366
 7778SOL    HW224234   4.868   5.365   0.336
 7779SOL     OW24235   3.086   3.072   1.077
 7779SOL    HW124236   3.133   3.026   1.002
 7779SOL    HW224237   3.004   3.022   1.102
 7780SOL     OW24238   0.888   5.656   5.611
 7780SOL    HW124239   0.893   5.561   5.580
 7780SOL    HW224240   0.924   5.716   5.539
 7781SOL     OW24241   1.442   4.855   6.895
 7781SOL    HW124242   1.381   4.924   6.857
 7781SOL    HW224243   1.537   4.886   6.885
 7782SOL     OW24244   0.904   4.914   5.194
 7782SOL    HW124245   0.837   4.866   5.138
 7782SOL    HW224246   0.859   4.947   5.278
 7783SOL     OW24247   1.713   5.920   4.781
 7783SOL    HW124248   1.633   5.885   4.732
 7783SOL    HW224249   1.691   6.010   4.819
 7784SOL     OW24250   3.021   3.039   0.683
 7784SOL    HW124251   3.022   3.138   0.679
 7784SOL    HW224252   3.087   3.007   0.751
 7785SOL     OW24253   1.319   6.658   4.237
 7785SOL    HW124254   1.390   6.726   4.255
 7785SOL    HW224255   1.298   6.657   4.139
 7786SOL     OW24256   3.056   5.978   0.003
 7786SOL    HW124257   2.960   6.001   7.008
 7786SOL    HW224258   3.104   6.056   0.044
 7787SOL     OW24259   2.551   2.962   5.904
 7787SOL    HW124260   2.456   2.934   5.915
 7787SOL    HW224261   2.603   2.887   5.863
 7788SOL     OW24262   1.912   6.022   2.046
 7788SOL    HW124263   1.842   5.955   2.070
 7788SOL    HW224264   1.870   6.096   1.992
 7789SOL     OW24265   2.889   6.757   6.908
 7789SOL    HW124266   2.973   6.758   6.962
 7789SOL    HW224267   2.824   6.822   6.947
 7790SOL     OW24268   5.144   5.290   2.832
 7790SOL    HW124269   5.160   5.388   2.847
 7790SOL    HW224270   5.201   5.237   2.895
 7791SOL     OW24271   2.369   6.048   3.519
 7791SOL    HW124272   2.430   5.990   3.573
 7791SOL    HW224273   2.323   6.113   3.579
 7792SOL     OW24274   1.854   5.472   5.297
 7792SOL    HW124275   1.811   5.559   5.271
 7792SOL    HW224276   1.820   5.443   5.386
 7793SOL     OW24277   3.113   0.648   6.900
 7793SOL    HW124278   3.052   0.586   6.949
 7793SOL    HW224279   3.167   0.700   6.965
 7794SOL     OW24280   6.193   5.145   3.401
 7794SOL    HW124281   6.217   5.181   3.311
 7794SOL    HW224282   6.220   5.211   3.471
 7795SOL     OW24283   2.348   4.084   5.613
 7795SOL    HW124284   2.281   4.012   5.597
 7795SOL    HW224285   2.319   4.141   5.689
 7796SOL     OW24286   3.199   3.580   3.160
 7796SOL    HW124287   3.237   3.527   3.085
 7796SOL    HW224288   3.105   3.550   3.178
 7797SOL     OW24289   1.337   6.838   3.225
 7797SOL    HW124290   1.360   6.924   3.271
 7797SOL    HW224291   1.386   6.762   3.269
 7798SOL     OW24292   1.751   4.538   6.000
 7798SOL    HW124293   1.671   4.596   6.012
 7798SOL    HW224294   1.729   4.462   5.939
 7799SOL     OW24295   1.036   6.094   2.102
 7799SOL    HW124296   1.048   6.186   2.138
 7799SOL    HW224297   0.946   6.059   2.129
 7800SOL     OW24298   1.279   5.485   0.461
 7800SOL    HW124299   1.218   5.468   0.538
 7800SOL    HW224300   1.301   5.399   0.416
 7801SOL     OW24301   1.969   2.195   2.065
 7801SOL    HW124302   2.013   2.262   2.124
 7801SOL    HW224303   2.038   2.151   2.007
 7802SOL     OW24304   5.739   2.279   0.997
 7802SOL    HW124305   5.723   2.186   0.963
 7802SOL    HW224306   5.709   2.344   0.928
 7803SOL     OW24307   4.050   2.219   6.096
 7803SOL    HW124308   4.092   2.275   6.167
 7803SOL    HW224309   4.090   2.241   6.008
 7804SOL     OW24310   4.870   1.675   4.570
 7804SOL    HW124311   4.857   1.614   4.491
 7804SOL    HW224312   4.838   1.767   4.546
 7805SOL     OW24313   5.350   1.711   0.506
 7805SOL    HW124314   5.402   1.770   0.568
 7805SOL    HW224315   5.412   1.672   0.438
 7806SOL     OW24316   5.876   1.859   6.645
 7806SOL    HW124317   5.851   1.911   6.564
 7806SOL    HW224318   5.965   1.890   6.678
 7807SOL     OW24319   0.346   4.407   5.422
 7807SOL    HW124320   0.267   4.396   5.362
 7807SOL    HW224321   0.387   4.317   5.440
 7808SOL     OW24322   6.515   2.886   4.157
 7808SOL    HW124323   6.550   2.961   4.213
 7808SOL    HW224324   6.423   2.863   4.188
 7809SOL     OW24325   2.291   5.575   4.303
 7809SOL    HW124326   2.274   5.536   4.394
 7809SOL    HW224327   2.275   5.673   4.305
 7810SOL     OW24328   3.951   0.570   4.851
 7810SOL    HW124329   3.998   0.512   4.917
 7810SOL    HW224330   3.854   0.545   4.847
 7811SOL     OW24331   1.101   5.095   2.964
 7811SOL    HW124332   1.045   5.166   2.921
 7811SOL    HW224333   1.048   5.011   2.971
 7812SOL     OW24334   1.276   2.308   3.394
 7812SOL    HW124335   1.268   2.219   3.440
 7812SOL    HW224336   1.320   2.296   3.305
 7813SOL     OW24337   3.794   2.442   6.630
 7813SOL    HW124338   3.721   2.509   6.639
 7813SOL    HW224339   3.874   2.473   6.681
 7814SOL     OW24340   6.527   2.939   3.385
 7814SOL    HW124341   6.565   3.030   3.398
 7814SOL    HW224342   6.596   2.881   3.341
 7815SOL     OW24343   4.920   0.337   6.113
 7815SOL    HW124344   4.851   0.294   6.171
 7815SOL    HW224345   4.890   0.429   6.087
 7816SOL     OW24346   1.573   1.996   6.534
 7816SOL    HW124347   1.596   2.083   6.490
 7816SOL    HW224348   1.641   1.928   6.510
 7817SOL     OW24349   5.665   4.520   3.368
 7817SOL    HW124350   5.699   4.431   3.336
 7817SOL    HW224351   5.683   4.528   3.466
 7818SOL     OW24352   4.720   0.543   2.938
 7818SOL    HW124353   4.816   0.536   2.963
 7818SOL    HW224354   4.712   0.577   2.844
 7819SOL     OW24355   6.723   3.244   1.816
 7819SOL    HW124356   6.713   3.234   1.717
 7819SOL    HW224357   6.797   3.308   1.836
 7820SOL     OW24358   1.275   2.348   4.561
 7820SOL    HW124359   1.222   2.403   4.625
 7820SOL    HW224360   1.342   2.405   4.514
 7821SOL     OW24361   5.447   6.417   1.083
 7821SOL    HW124362   5.449   6.517   1.079
 7821SOL    HW224363   5.486   6.386   1.170
 7822SOL     OW24364   0.667   1.383   6.088
 7822SOL    HW124365   0.669   1.480   6.063
 7822SOL    HW224366   0.578   1.361   6.127
 7823SOL     OW24367   2.726   3.906   5.263
 7823SOL    HW124368   2.695   3.819   5.300
 7823SOL    HW224369   2.653   3.948   5.209
 7824SOL     OW24370   5.719   1.160   3.960
 7824SOL    HW124371   5.807   1.122   3.931
 7824SOL    HW224372   5.681   1.105   4.034
 7825SOL     OW24373   1.379   3.084   1.314
 7825SOL    HW124374   1.337   3.067   1.404
 7825SOL    HW224375   1.336   3.025   1.246
 7826SOL     OW24376   6.459   1.238   1.264
 7826SOL    HW124377   6.442   1.142   1.286
 7826SOL    HW224378   6.375   1.291   1.278
 7827SOL     OW24379   1.748   5.210   1.390
 7827SOL    HW124380   1.683   5.257   1.451
 7827SOL    HW224381   1.700   5.138   1.340
 7828SOL     OW24382   0.465   4.622   0.009
 7828SOL    HW124383   0.415   4.655   6.946
 7828SOL    HW224384   0.529   4.551   6.999
 7829SOL     OW24385   2.163   3.718   1.567
 7829SOL    HW124386   2.194   3.812   1.577
 7829SOL    HW224387   2.080   3.704   1.620
 7830SOL     OW24388   2.600   4.591   5.195
 7830SOL    HW124389   2.689   4.611   5.154
 7830SOL    HW224390   2.583   4.656   5.270
 7831SOL     OW24391   2.121   6.619   1.983
 7831SOL    HW124392   2.111   6.584   1.890
 7831SOL    HW224393   2.040   6.672   2.007
 7832SOL     OW24394   5.952   0.827   3.582
 7832SOL    HW124395   6.024   0.789   3.639
 7832SOL    HW224396   5.916   0.757   3.521
 7833SOL     OW24397   0.835   1.290   5.872
 7833SOL    HW124398   0.790   1.336   5.949
 7833SOL    HW224399   0.832   1.191   5.886
 7834SOL     OW24400   6.749   1.499   3.552
 7834SOL    HW124401   6.704   1.517   3.639
 7834SOL    HW224402   6.827   1.438   3.567
 7835SOL     OW24403   3.313   2.215   5.384
 7835SOL    HW124404   3.293   2.121   5.356
 7835SOL    HW224405   3.266   2.279   5.322
 7836SOL     OW24406   3.180   3.039   4.949
 7836SOL    HW124407   3.145   3.131   4.965
 7836SOL    HW224408   3.183   2.988   5.035
 7837SOL     OW24409   5.189   4.913   0.041
 7837SOL    HW124410   5.216   4.818   0.054
 7837SOL    HW224411   5.271   4.969   0.029
 7838SOL     OW24412   4.120   6.943   0.912
 7838SOL    HW124413   4.134   0.016   0.872
 7838SOL    HW224414   4.053   6.893   0.858
 7839SOL     OW24415   5.848   4.321   5.399
 7839SOL    HW124416   5.907   4.240   5.398
 7839SOL    HW224417   5.826   4.347   5.305
 7840SOL     OW24418   6.406   2.955   3.852
 7840SOL    HW124419   6.324   2.985   3.803
 7840SOL    HW224420   6.408   2.855   3.855
 7841SOL     OW24421   3.599   1.868   5.981
 7841SOL    HW124422   3.549   1.903   5.901
 7841SOL    HW224423   3.635   1.944   6.034
 7842SOL     OW24424   2.960   2.209   2.715
 7842SOL    HW124425   2.862   2.225   2.726
 7842SOL    HW224426   2.975   2.150   2.635
 7843SOL     OW24427   1.284   6.034   3.499
 7843SOL    HW124428   1.217   6.069   3.564
 7843SOL    HW224429   1.272   6.080   3.411
 7844SOL     OW24430   3.220   0.532   3.029
 7844SOL    HW124431   3.213   0.494   3.121
 7844SOL    HW224432   3.173   0.620   3.026
 7845SOL     OW24433   5.525   1.740   2.978
 7845SOL    HW124434   5.596   1.761   2.911
 7845SOL    HW224435   5.567   1.710   3.064
 7846SOL     OW24436   0.492   2.347   1.366
 7846SOL    HW124437   0.566   2.294   1.406
 7846SOL    HW224438   0.449   2.295   1.293
 7847SOL     OW24439   6.667   0.876   3.093
 7847SOL    HW124440   6.683   0.965   3.049
 7847SOL    HW224441   6.569   0.858   3.096
 7848SOL     OW24442   2.957   4.678   0.495
 7848SOL    HW124443   2.874   4.623   0.487
 7848SOL    HW224444   2.945   4.744   0.569
 7849SOL     OW24445   6.336   4.364   4.692
 7849SOL    HW124446   6.342   4.270   4.725
 7849SOL    HW224447   6.384   4.372   4.604
 7850SOL     OW24448   0.200   1.544   4.264
 7850SOL    HW124449   0.137   1.499   4.201
 7850SOL    HW224450   0.176   1.641   4.271
 7851SOL     OW24451   6.582   1.450   1.410
 7851SOL    HW124452   6.541   1.374   1.359
 7851SOL    HW224453   6.668   1.476   1.367
 7852SOL     OW24454   3.336   1.901   6.607
 7852SOL    HW124455   3.349   1.879   6.510
 7852SOL    HW224456   3.345   1.818   6.661
 7853SOL     OW24457   5.125   2.352   1.657
 7853SOL    HW124458   5.166   2.378   1.569
 7853SOL    HW224459   5.191   2.369   1.731
 7854SOL     OW24460   3.465   3.536   6.434
 7854SOL    HW124461   3.377   3.498   6.463
 7854SOL    HW224462   3.459   3.636   6.431
 7855SOL     OW24463   4.744   6.721   4.336
 7855SOL    HW124464   4.667   6.657   4.336
 7855SOL    HW224465   4.805   6.700   4.260
 7856SOL     OW24466   6.365   5.967   5.074
 7856SOL    HW124467   6.350   5.875   5.111
 7856SOL    HW224468   6.277   6.015   5.066
 7857SOL     OW24469   4.756   2.826   0.329
 7857SOL    HW124470   4.823   2.752   0.317
 7857SOL    HW224471   4.744   2.844   0.426
 7858SOL     OW24472   6.253   6.443   3.889
 7858SOL    HW124473   6.273   6.351   3.856
 7858SOL    HW224474   6.154   6.459   3.887
 7859SOL     OW24475   4.155   3.021   6.195
 7859SOL    HW124476   4.151   2.965   6.112
 7859SOL    HW224477   4.173   3.116   6.170
 7860SOL     OW24478   4.329   0.740   3.709
 7860SOL    HW124479   4.376   0.827   3.727
 7860SOL    HW224480   4.256   0.727   3.776
 7861SOL     OW24481   3.581   4.622   1.522
 7861SOL    HW124482   3.590   4.619   1.621
 7861SOL    HW224483   3.503   4.568   1.493
 7862SOL     OW24484   2.047   4.632   1.703
 7862SOL    HW124485   2.069   4.572   1.626
 7862SOL    HW224486   2.126   4.688   1.726
 7863SOL     OW24487   6.995   3.867   4.658
 7863SOL    HW124488   0.018   3.802   4.594
 7863SOL    HW224489   6.991   3.958   4.617
 7864SOL     OW24490   0.595   5.733   5.578
 7864SOL    HW124491   0.551   5.742   5.668
 7864SOL    HW224492   0.685   5.692   5.589
 7865SOL     OW24493   6.441   6.024   4.000
 7865SOL    HW124494   6.492   5.995   3.918
 7865SOL    HW224495   6.503   6.071   4.063
 7866SOL     OW24496   0.670   1.367   5.689
 7866SOL    HW124497   0.612   1.293   5.654
 7866SOL    HW224498   0.712   1.338   5.775
 7867SOL     OW24499   6.024   6.220   3.411
 7867SOL    HW124500   6.094   6.248   3.346
 7867SOL    HW224501   5.936   6.209   3.364
 7868SOL     OW24502   4.995   6.266   2.084
 7868SOL    HW124503   4.933   6.211   2.140
 7868SOL    HW224504   4.943   6.337   2.037
 7869SOL     OW24505   5.223   3.777   0.052
 7869SOL    HW124506   5.267   3.847   0.109
 7869SOL    HW224507   5.290   3.740   7.006
 7870SOL     OW24508   4.897   5.944   4.059
 7870SOL    HW124509   4.956   5.864   4.070
 7870SOL    HW224510   4.825   5.943   4.128
 7871SOL     OW24511   4.540   2.127   1.840
 7871SOL    HW124512   4.481   2.064   1.790
 7871SOL    HW224513   4.488   2.207   1.868
 7872SOL     OW24514   1.948   3.592   3.079
 7872SOL    HW124515   1.909   3.520   3.136
 7872SOL    HW224516   2.024   3.635   3.126
 7873SOL     OW24517   5.740   6.751   6.562
 7873SOL    HW124518   5.774   6.807   6.486
 7873SOL    HW224519   5.745   6.803   6.647
 7874SOL     OW24520   4.853   2.662   0.639
 7874SOL    HW124521   4.799   2.588   0.598
 7874SOL    HW224522   4.803   2.748   0.632
 7875SOL     OW24523   4.531   3.038   6.542
 7875SOL    HW124524   4.596   3.087   6.600
 7875SOL    HW224525   4.442   3.082   6.547
 7876SOL     OW24526   1.607   6.734   3.693
 7876SOL    HW124527   1.580   6.643   3.663
 7876SOL    HW224528   1.609   6.738   3.793
 7877SOL     OW24529   0.752   1.690   2.483
 7877SOL    HW124530   0.807   1.719   2.405
 7877SOL    HW224531   0.794   1.722   2.567
 7878SOL     OW24532   4.716   4.185   4.567
 7878SOL    HW124533   4.654   4.262   4.584
 7878SOL    HW224534   4.732   4.136   4.653
 7879SOL     OW24535   3.803   5.392   3.491
 7879SOL    HW124536   3.749   5.317   3.454
 7879SOL    HW224537   3.821   5.459   3.419
 7880SOL     OW24538   1.818   3.644   1.963
 7880SOL    HW124539   1.917   3.653   1.957
 7880SOL    HW224540   1.795   3.559   2.010
 7881SOL     OW24541   5.904   4.919   5.127
 7881SOL    HW124542   5.886   4.856   5.052
 7881SOL    HW224543   5.960   4.995   5.094
 7882SOL     OW24544   1.619   3.516   2.472
 7882SOL    HW124545   1.530   3.476   2.496
 7882SOL    HW224546   1.605   3.608   2.436
 7883SOL     OW24547   1.049   0.455   0.137
 7883SOL    HW124548   1.111   0.450   0.215
 7883SOL    HW224549   1.043   0.365   0.094
 7884SOL     OW24550   1.841   3.764   4.016
 7884SOL    HW124551   1.925   3.732   3.972
 7884SOL    HW224552   1.798   3.688   4.065
 7885SOL     OW24553   6.531   5.614   1.217
 7885SOL    HW124554   6.516   5.695   1.161
 7885SOL    HW224555   6.614   5.626   1.271
 7886SOL     OW24556   3.711   5.418   0.140
 7886SOL    HW124557   3.644   5.362   0.092
 7886SOL    HW224558   3.670   5.452   0.225
 7887SOL     OW24559   3.427   2.613   5.681
 7887SOL    HW124560   3.436   2.597   5.582
 7887SOL    HW224561   3.345   2.668   5.698
 7888SOL     OW24562   6.482   0.605   5.449
 7888SOL    HW124563   6.558   0.540   5.449
 7888SOL    HW224564   6.476   0.650   5.538
 7889SOL     OW24565   1.483   4.028   1.458
 7889SOL    HW124566   1.564   4.067   1.501
 7889SOL    HW224567   1.451   4.089   1.386
 7890SOL     OW24568   1.853   2.951   2.943
 7890SOL    HW124569   1.922   2.879   2.951
 7890SOL    HW224570   1.843   2.976   2.847
 7891SOL     OW24571   1.702   3.276   3.635
 7891SOL    HW124572   1.782   3.218   3.622
 7891SOL    HW224573   1.645   3.237   3.707
 7892SOL     OW24574   2.551   1.523   4.105
 7892SOL    HW124575   2.641   1.559   4.083
 7892SOL    HW224576   2.559   1.454   4.177
 7893SOL     OW24577   0.128   6.317   2.673
 7893SOL    HW124578   0.079   6.232   2.659
 7893SOL    HW224579   0.133   6.337   2.771
 7894SOL     OW24580   3.258   0.350   1.185
 7894SOL    HW124581   3.194   0.405   1.132
 7894SOL    HW224582   3.223   0.257   1.195
 7895SOL     OW24583   6.136   0.680   5.588
 7895SOL    HW124584   6.131   0.743   5.511
 7895SOL    HW224585   6.043   0.656   5.617
 7896SOL     OW24586   4.727   3.650   6.889
 7896SOL    HW124587   4.654   3.642   6.956
 7896SOL    HW224588   4.799   3.709   6.925
 7897SOL     OW24589   2.520   4.221   0.283
 7897SOL    HW124590   2.564   4.308   0.262
 7897SOL    HW224591   2.480   4.182   0.201
 7898SOL     OW24592   4.445   1.909   3.097
 7898SOL    HW124593   4.450   1.846   3.175
 7898SOL    HW224594   4.369   1.884   3.038
 7899SOL     OW24595   6.004   1.034   0.716
 7899SOL    HW124596   5.966   1.072   0.800
 7899SOL    HW224597   5.958   1.073   0.637
 7900SOL     OW24598   1.382   5.610   1.255
 7900SOL    HW124599   1.349   5.609   1.349
 7900SOL    HW224600   1.479   5.635   1.254
 7901SOL     OW24601   5.083   1.206   6.641
 7901SOL    HW124602   5.124   1.297   6.632
 7901SOL    HW224603   5.118   1.161   6.723
 7902SOL     OW24604   5.288   5.751   1.299
 7902SOL    HW124605   5.361   5.818   1.289
 7902SOL    HW224606   5.300   5.678   1.231
 7903SOL     OW24607   5.704   1.429   0.310
 7903SOL    HW124608   5.680   1.369   0.234
 7903SOL    HW224609   5.801   1.420   0.331
 7904SOL     OW24610   5.707   6.456   3.181
 7904SOL    HW124611   5.659   6.429   3.264
 7904SOL    HW224612   5.704   6.380   3.115
 7905SOL     OW24613   4.393   2.671   0.662
 7905SOL    HW124614   4.385   2.614   0.580
 7905SOL    HW224615   4.388   2.613   0.744
 7906SOL     OW24616   0.018   5.261   0.355
 7906SOL    HW124617   6.947   5.228   0.321
 7906SOL    HW224618   0.019   5.361   0.352
 7907SOL     OW24619   5.638   2.471   3.557
 7907SOL    HW124620   5.552   2.451   3.604
 7907SOL    HW224621   5.703   2.396   3.572
 7908SOL     OW24622   0.599   1.926   5.243
 7908SOL    HW124623   0.651   1.937   5.158
 7908SOL    HW224624   0.581   1.829   5.259
 7909SOL     OW24625   5.411   3.647   4.927
 7909SOL    HW124626   5.442   3.738   4.954
 7909SOL    HW224627   5.361   3.605   5.002
 7910SOL     OW24628   2.806   3.628   5.727
 7910SOL    HW124629   2.846   3.543   5.695
 7910SOL    HW224630   2.872   3.703   5.715
 7911SOL     OW24631   1.825   3.070   6.642
 7911SOL    HW124632   1.774   3.012   6.706
 7911SOL    HW224633   1.904   3.108   6.689
 7912SOL     OW24634   0.039   4.834   0.256
 7912SOL    HW124635   7.006   4.749   0.238
 7912SOL    HW224636   0.043   4.889   0.173
 7913SOL     OW24637   1.106   5.133   0.993
 7913SOL    HW124638   1.200   5.108   0.971
 7913SOL    HW224639   1.062   5.059   1.044
 7914SOL     OW24640   0.028   4.532   6.082
 7914SOL    HW124641   0.103   4.596   6.066
 7914SOL    HW224642   0.014   4.522   6.181
 7915SOL     OW24643   4.794   2.779   2.144
 7915SOL    HW124644   4.857   2.737   2.078
 7915SOL    HW224645   4.715   2.817   2.095
 7916SOL     OW24646   6.952   3.758   5.629
 7916SOL    HW124647   6.919   3.848   5.657
 7916SOL    HW224648   6.965   3.700   5.709
 7917SOL     OW24649   3.434   3.645   3.506
 7917SOL    HW124650   3.410   3.557   3.467
 7917SOL    HW224651   3.407   3.719   3.444
 7918SOL     OW24652   0.132   1.623   0.294
 7918SOL    HW124653   0.180   1.549   0.246
 7918SOL    HW224654   0.182   1.645   0.378
 7919SOL     OW24655   1.815   4.653   2.993
 7919SOL    HW124656   1.736   4.614   3.040
 7919SOL    HW224657   1.884   4.582   2.978
 7920SOL     OW24658   0.261   5.228   1.077
 7920SOL    HW124659   0.334   5.177   1.121
 7920SOL    HW224660   0.299   5.288   1.006
 7921SOL     OW24661   4.424   6.671   0.651
 7921SOL    HW124662   4.433   6.656   0.553
 7921SOL    HW224663   4.413   6.584   0.698
 7922SOL     OW24664   6.777   6.089   0.217
 7922SOL    HW124665   6.858   6.105   0.160
 7922SOL    HW224666   6.736   6.176   0.243
 7923SOL     OW24667   3.281   0.831   1.963
 7923SOL    HW124668   3.325   0.914   1.929
 7923SOL    HW224669   3.314   0.752   1.911
 7924SOL     OW24670   4.321   6.338   2.715
 7924SOL    HW124671   4.306   6.392   2.798
 7924SOL    HW224672   4.264   6.256   2.717
 7925SOL     OW24673   0.782   1.824   6.249
 7925SOL    HW124674   0.708   1.758   6.236
 7925SOL    HW224675   0.745   1.909   6.286
 7926SOL     OW24676   5.356   1.586   5.384
 7926SOL    HW124677   5.379   1.554   5.475
 7926SOL    HW224678   5.319   1.679   5.389
 7927SOL     OW24679   3.855   5.523   4.609
 7927SOL    HW124680   3.763   5.561   4.620
 7927SOL    HW224681   3.850   5.434   4.564
 7928SOL     OW24682   1.585   2.330   4.540
 7928SOL    HW124683   1.675   2.287   4.539
 7928SOL    HW224684   1.517   2.266   4.574
 7929SOL     OW24685   3.952   3.816   5.688
 7929SOL    HW124686   3.914   3.860   5.608
 7929SOL    HW224687   3.931   3.718   5.685
 7930SOL     OW24688   4.338   5.774   4.015
 7930SOL    HW124689   4.299   5.759   3.924
 7930SOL    HW224690   4.265   5.780   4.083
 7931SOL     OW24691   1.494   1.814   6.213
 7931SOL    HW124692   1.427   1.838   6.284
 7931SOL    HW224693   1.552   1.893   6.194
 7932SOL     OW24694   2.848   6.304   6.553
 7932SOL    HW124695   2.838   6.235   6.482
 7932SOL    HW224696   2.939   6.297   6.594
 7933SOL     OW24697   0.406   6.110   6.825
 7933SOL    HW124698   0.355   6.040   6.875
 7933SOL    HW224699   0.345   6.154   6.759
 7934SOL     OW24700   2.472   4.988   0.617
 7934SOL    HW124701   2.560   4.954   0.584
 7934SOL    HW224702   2.450   4.945   0.705
 7935SOL     OW24703   5.735   6.397   0.310
 7935SOL    HW124704   5.694   6.305   0.314
 7935SOL    HW224705   5.816   6.400   0.368
 7936SOL     OW24706   3.810   5.198   2.955
 7936SOL    HW124707   3.740   5.178   2.887
 7936SOL    HW224708   3.895   5.225   2.908
 7937SOL     OW24709   6.305   0.129   3.924
 7937SOL    HW124710   6.250   0.046   3.916
 7937SOL    HW224711   6.374   0.116   3.996
 7938SOL     OW24712   6.210   5.253   5.272
 7938SOL    HW124713   6.261   5.257   5.358
 7938SOL    HW224714   6.144   5.328   5.268
 7939SOL     OW24715   0.999   2.683   5.819
 7939SOL    HW124716   1.039   2.626   5.747
 7939SOL    HW224717   0.902   2.660   5.829
 7940SOL     OW24718   1.783   3.505   2.717
 7940SOL    HW124719   1.705   3.463   2.764
 7940SOL    HW224720   1.761   3.515   2.620
 7941SOL     OW24721   6.894   6.403   0.633
 7941SOL    HW124722   6.873   6.460   0.712
 7941SOL    HW224723   6.943   6.458   0.565
 7942SOL     OW24724   6.721   5.800   2.979
 7942SOL    HW124725   6.703   5.703   2.965
 7942SOL    HW224726   6.793   5.811   3.048
 7943SOL     OW24727   5.958   2.846   0.164
 7943SOL    HW124728   6.042   2.838   0.218
 7943SOL    HW224729   5.935   2.756   0.126
 7944SOL     OW24730   0.708   3.496   1.571
 7944SOL    HW124731   0.696   3.568   1.639
 7944SOL    HW224732   0.724   3.537   1.482
 7945SOL     OW24733   5.240   6.298   2.195
 7945SOL    HW124734   5.211   6.320   2.289
 7945SOL    HW224735   5.160   6.270   2.142
 7946SOL     OW24736   2.222   2.008   5.627
 7946SOL    HW124737   2.271   2.095   5.616
 7946SOL    HW224738   2.264   1.938   5.570
 7947SOL     OW24739   3.854   2.477   6.159
 7947SOL    HW124740   3.888   2.517   6.244
 7947SOL    HW224741   3.840   2.550   6.092
 7948SOL     OW24742   0.738   6.127   1.126
 7948SOL    HW124743   0.639   6.142   1.119
 7948SOL    HW224744   0.756   6.040   1.172
 7949SOL     OW24745   4.517   4.485   4.298
 7949SOL    HW124746   4.486   4.519   4.387
 7949SOL    HW224747   4.466   4.531   4.225
 7950SOL     OW24748   5.515   5.110   4.314
 7950SOL    HW124749   5.587   5.131   4.380
 7950SOL    HW224750   5.428   5.101   4.363
 7951SOL     OW24751   1.753   3.794   1.090
 7951SOL    HW124752   1.776   3.722   1.155
 7951SOL    HW224753   1.699   3.756   1.016
 7952SOL     OW24754   0.880   3.389   6.674
 7952SOL    HW124755   0.829   3.305   6.654
 7952SOL    HW224756   0.922   3.424   6.590
 7953SOL     OW24757   1.853   3.037   3.295
 7953SOL    HW124758   1.900   2.949   3.292
 7953SOL    HW224759   1.901   3.103   3.237
 7954SOL     OW24760   4.744   4.577   5.189
 7954SOL    HW124761   4.726   4.661   5.241
 7954SOL    HW224762   4.815   4.524   5.234
 7955SOL     OW24763   1.343   6.916   6.394
 7955SOL    HW124764   1.278   6.958   6.457
 7955SOL    HW224765   1.317   6.820   6.378
 7956SOL     OW24766   2.946   5.922   2.892
 7956SOL    HW124767   2.967   5.929   2.795
 7956SOL    HW224768   2.990   5.841   2.931
 7957SOL     OW24769   2.126   1.182   0.399
 7957SOL    HW124770   2.145   1.269   0.443
 7957SOL    HW224771   2.128   1.194   0.299
 7958SOL     OW24772   3.208   5.423   4.214
 7958SOL    HW124773   3.208   5.469   4.304
 7958SOL    HW224774   3.114   5.402   4.187
 7959SOL     OW24775   4.328   5.891   1.290
 7959SOL    HW124776   4.324   5.793   1.270
 7959SOL    HW224777   4.283   5.942   1.218
 7960SOL     OW24778   3.860   1.690   0.683
 7960SOL    HW124779   3.853   1.603   0.732
 7960SOL    HW224780   3.769   1.717   0.651
 7961SOL     OW24781   0.869   6.165   0.634
 7961SOL    HW124782   0.832   6.096   0.696
 7961SOL    HW224783   0.853   6.256   0.672
 7962SOL     OW24784   2.292   0.083   0.526
 7962SOL    HW124785   2.370   0.129   0.567
 7962SOL    HW224786   2.279   0.117   0.432
 7963SOL     OW24787   0.228   0.539   3.309
 7963SOL    HW124788   0.173   0.541   3.393
 7963SOL    HW224789   0.300   0.608   3.315
 7964SOL     OW24790   0.088   5.445   3.365
 7964SOL    HW124791   0.079   5.355   3.324
 7964SOL    HW224792   0.064   5.515   3.298
 7965SOL     OW24793   3.443   2.969   6.890
 7965SOL    HW124794   3.509   2.999   6.821
 7965SOL    HW224795   3.350   2.987   6.857
 7966SOL     OW24796   0.240   2.859   5.629
 7966SOL    HW124797   0.304   2.845   5.705
 7966SOL    HW224798   0.223   2.772   5.583
 7967SOL     OW24799   2.722   6.174   4.087
 7967SOL    HW124800   2.818   6.203   4.087
 7967SOL    HW224801   2.671   6.226   4.019
 7968SOL     OW24802   2.265   2.058   3.612
 7968SOL    HW124803   2.340   1.998   3.640
 7968SOL    HW224804   2.226   2.102   3.693
 7969SOL     OW24805   4.709   0.044   2.224
 7969SOL    HW124806   4.689   0.033   2.127
 7969SOL    HW224807   4.797   0.000   2.245
 7970SOL     OW24808   0.441   3.600   3.226
 7970SOL    HW124809   0.459   3.691   3.188
 7970SOL    HW224810   0.484   3.530   3.169
 7971SOL     OW24811   4.277   1.297   0.394
 7971SOL    HW124812   4.295   1.200   0.374
 7971SOL    HW224813   4.358   1.338   0.436
 7972SOL     OW24814   1.418   3.646   1.674
 7972SOL    HW124815   1.466   3.706   1.610
 7972SOL    HW224816   1.347   3.596   1.625
 7973SOL     OW24817   4.734   4.266   3.198
 7973SOL    HW124818   4.708   4.339   3.135
 7973SOL    HW224819   4.749   4.182   3.147
 7974SOL     OW24820   5.577   0.537   5.131
 7974SOL    HW124821   5.649   0.590   5.085
 7974SOL    HW224822   5.515   0.499   5.063
 7975SOL     OW24823   6.128   0.301   2.465
 7975SOL    HW124824   6.075   0.379   2.432
 7975SOL    HW224825   6.146   0.312   2.563
 7976SOL     OW24826   0.512   0.855   6.424
 7976SOL    HW124827   0.488   0.773   6.476
 7976SOL    HW224828   0.601   0.842   6.381
 7977SOL     OW24829   4.739   5.257   1.919
 7977SOL    HW124830   4.796   5.177   1.940
 7977SOL    HW224831   4.659   5.257   1.979
 7978SOL     OW24832   5.696   3.719   6.280
 7978SOL    HW124833   5.655   3.697   6.192
 7978SOL    HW224834   5.699   3.637   6.337
 7979SOL     OW24835   3.764   0.592   5.302
 7979SOL    HW124836   3.673   0.632   5.293
 7979SOL    HW224837   3.757   0.502   5.344
 7980SOL     OW24838   2.635   5.622   0.311
 7980SOL    HW124839   2.545   5.656   0.284
 7980SOL    HW224840   2.703   5.653   0.245
 7981SOL     OW24841   0.535   5.804   2.251
 7981SOL    HW124842   0.479   5.790   2.332
 7981SOL    HW224843   0.486   5.861   2.186
 7982SOL     OW24844   0.212   1.472   0.088
 7982SOL    HW124845   0.307   1.442   0.086
 7982SOL    HW224846   0.206   1.566   0.055
 7983SOL     OW24847   5.693   1.817   2.779
 7983SOL    HW124848   5.709   1.798   2.682
 7983SOL    HW224849   5.774   1.860   2.819
 7984SOL     OW24850   1.613   1.618   1.997
 7984SOL    HW124851   1.524   1.663   1.994
 7984SOL    HW224852   1.663   1.648   2.078
 7985SOL     OW24853   2.603   6.309   3.843
 7985SOL    HW124854   2.697   6.279   3.829
 7985SOL    HW224855   2.583   6.385   3.780
 7986SOL     OW24856   2.955   0.480   6.653
 7986SOL    HW124857   2.953   0.569   6.606
 7986SOL    HW224858   3.017   0.486   6.731
 7987SOL     OW24859   1.389   3.305   6.659
 7987SOL    HW124860   1.312   3.312   6.723
 7987SOL    HW224861   1.355   3.315   6.565
 7988SOL     OW24862   1.677   1.816   4.251
 7988SOL    HW124863   1.712   1.910   4.251
 7988SOL    HW224864   1.753   1.753   4.238
 7989SOL     OW24865   3.179   2.615   5.342
 7989SOL    HW124866   3.275   2.634   5.359
 7989SOL    HW224867   3.170   2.534   5.284
 7990SOL     OW24868   6.290   4.551   3.420
 7990SOL    HW124869   6.306   4.594   3.509
 7990SOL    HW224870   6.226   4.475   3.431
 7991SOL     OW24871   6.761   0.938   4.754
 7991SOL    HW124872   6.778   0.842   4.730
 7991SOL    HW224873   6.665   0.959   4.740
 7992SOL     OW24874   1.520   6.559   1.109
 7992SOL    HW124875   1.602   6.569   1.166
 7992SOL    HW224876   1.439   6.587   1.162
 7993SOL     OW24877   1.573   6.230   6.743
 7993SOL    HW124878   1.558   6.162   6.815
 7993SOL    HW224879   1.487   6.250   6.697
 7994SOL     OW24880   5.102   0.055   2.913
 7994SOL    HW124881   5.097   6.999   2.846
 7994SOL    HW224882   5.057   0.027   2.998
 7995SOL     OW24883   4.357   5.471   3.966
 7995SOL    HW124884   4.376   5.391   4.022
 7995SOL    HW224885   4.380   5.554   4.017
 7996SOL     OW24886   3.148   7.015   4.861
 7996SOL    HW124887   3.148   6.959   4.944
 7996SOL    HW224888   3.213   0.072   4.870
 7997SOL     OW24889   6.927   1.173   0.985
 7997SOL    HW124890   7.004   1.234   1.006
 7997SOL    HW224891   6.849   1.227   0.953
 7998SOL     OW24892   3.668   5.559   1.455
 7998SOL    HW124893   3.695   5.491   1.524
 7998SOL    HW224894   3.674   5.651   1.495
 7999SOL     OW24895   1.260   0.131   6.073
 7999SOL    HW124896   1.247   0.032   6.065
 7999SOL    HW224897   1.240   0.159   6.167
 8000SOL     OW24898   5.300   0.891   0.451
 8000SOL    HW124899   5.209   0.896   0.492
 8000SOL    HW224900   5.369   0.881   0.523
 8001SOL     OW24901   3.460   5.711   1.243
 8001SOL    HW124902   3.507   5.630   1.210
 8001SOL    HW224903   3.395   5.743   1.174
 8002SOL     OW24904   0.679   2.324   5.369
 8002SOL    HW124905   0.651   2.240   5.415
 8002SOL    HW224906   0.741   2.376   5.428
 8003SOL     OW24907   2.600   4.558   2.704
 8003SOL    HW124908   2.564   4.550   2.797
 8003SOL    HW224909   2.671   4.628   2.701
 8004SOL     OW24910   1.465   3.682   3.564
 8004SOL    HW124911   1.534   3.687   3.492
 8004SOL    HW224912   1.416   3.595   3.558
 8005SOL     OW24913   2.897   1.315   2.406
 8005SOL    HW124914   2.990   1.280   2.414
 8005SOL    HW224915   2.887   1.395   2.466
 8006SOL     OW24916   2.426   6.758   0.013
 8006SOL    HW124917   2.487   6.685   6.998
 8006SOL    HW224918   2.378   6.798   6.952
 8007SOL     OW24919   0.734   0.375   4.132
 8007SOL    HW124920   0.774   0.369   4.041
 8007SOL    HW224921   0.807   0.377   4.200
 8008SOL     OW24922   4.458   6.598   5.832
 8008SOL    HW124923   4.368   6.625   5.866
 8008SOL    HW224924   4.514   6.562   5.906
 8009SOL     OW24925   6.232   0.366   2.701
 8009SOL    HW124926   6.208   0.328   2.791
 8009SOL    HW224927   6.321   0.411   2.708
 8010SOL     OW24928   1.256   1.291   0.561
 8010SOL    HW124929   1.349   1.254   0.554
 8010SOL    HW224930   1.219   1.307   0.470
 8011SOL     OW24931   3.160   2.566   0.973
 8011SOL    HW124932   3.098   2.495   0.941
 8011SOL    HW224933   3.221   2.593   0.899
 8012SOL     OW24934   2.442   5.526   1.819
 8012SOL    HW124935   2.442   5.436   1.863
 8012SOL    HW224936   2.453   5.514   1.720
 8013SOL     OW24937   0.905   5.007   4.334
 8013SOL    HW124938   0.991   5.038   4.374
 8013SOL    HW224939   0.830   5.065   4.365
 8014SOL     OW24940   0.570   6.283   5.204
 8014SOL    HW124941   0.647   6.347   5.202
 8014SOL    HW224942   0.484   6.334   5.212
 8015SOL     OW24943   3.201   1.196   0.084
 8015SOL    HW124944   3.112   1.154   0.100
 8015SOL    HW224945   3.190   1.295   0.076
 8016SOL     OW24946   4.525   0.495   7.011
 8016SOL    HW124947   4.522   0.550   6.928
 8016SOL    HW224948   4.524   0.555   0.073
 8017SOL     OW24949   6.753   5.603   0.111
 8017SOL    HW124950   6.807   5.652   0.180
 8017SOL    HW224951   6.694   5.536   0.156
 8018SOL     OW24952   3.213   2.536   6.051
 8018SOL    HW124953   3.144   2.513   5.983
 8018SOL    HW224954   3.276   2.604   6.014
 8019SOL     OW24955   2.334   3.830   6.736
 8019SOL    HW124956   2.335   3.750   6.795
 8019SOL    HW224957   2.260   3.822   6.670
 8020SOL     OW24958   6.430   5.839   0.653
 8020SOL    HW124959   6.355   5.808   0.711
 8020SOL    HW224960   6.431   5.939   0.650
 8021SOL     OW24961   1.130   1.969   1.472
 8021SOL    HW124962   1.216   2.020   1.469
 8021SOL    HW224963   1.147   1.874   1.444
 8022SOL     OW24964   4.142   0.161   2.578
 8022SOL    HW124965   4.090   0.157   2.664
 8022SOL    HW224966   4.236   0.190   2.597
 8023SOL     OW24967   5.714   5.368   3.218
 8023SOL    HW124968   5.808   5.390   3.245
 8023SOL    HW224969   5.663   5.453   3.205
 8024SOL     OW24970   3.698   5.080   0.013
 8024SOL    HW124971   3.777   5.060   0.071
 8024SOL    HW224972   3.616   5.089   0.069
 8025SOL     OW24973   2.407   5.918   6.817
 8025SOL    HW124974   2.452   5.829   6.827
 8025SOL    HW224975   2.315   5.913   6.855
 8026SOL     OW24976   0.808   4.789   6.837
 8026SOL    HW124977   0.718   4.792   6.881
 8026SOL    HW224978   0.797   4.786   6.738
 8027SOL     OW24979   3.941   2.014   5.200
 8027SOL    HW124980   3.887   1.930   5.203
 8027SOL    HW224981   3.938   2.052   5.108
 8028SOL     OW24982   2.816   5.640   5.423
 8028SOL    HW124983   2.850   5.712   5.362
 8028SOL    HW224984   2.861   5.647   5.511
 8029SOL     OW24985   5.284   3.485   0.183
 8029SOL    HW124986   5.198   3.440   0.207
 8029SOL    HW224987   5.266   3.562   0.122
 8030SOL     OW24988   4.699   4.028   0.118
 8030SOL    HW124989   4.633   4.100   0.140
 8030SOL    HW224990   4.744   4.050   0.031
 8031SOL     OW24991   4.696   6.157   2.933
 8031SOL    HW124992   4.658   6.240   2.892
 8031SOL    HW224993   4.740   6.103   2.862
 8032SOL     OW24994   5.751   4.608   5.696
 8032SOL    HW124995   5.697   4.530   5.664
 8032SOL    HW224996   5.706   4.693   5.667
 8033SOL     OW24997   5.177   3.558   6.719
 8033SOL    HW124998   5.177   3.652   6.684
 8033SOL    HW224999   5.145   3.559   6.814
 8034SOL     OW25000   6.439   1.098   5.019
 8034SOL    HW125001   6.363   1.042   5.050
 8034SOL    HW225002   6.523   1.070   5.065
 8035SOL     OW25003   4.849   0.806   5.330
 8035SOL    HW125004   4.783   0.875   5.302
 8035SOL    HW225005   4.816   0.715   5.305
 8036SOL     OW25006   0.580   4.131   2.383
 8036SOL    HW125007   0.646   4.204   2.399
 8036SOL    HW225008   0.534   4.107   2.469
 8037SOL     OW25009   1.680   3.502   1.728
 8037SOL    HW125010   1.609   3.573   1.729
 8037SOL    HW225011   1.656   3.433   1.659
 8038SOL     OW25012   4.598   0.709   2.758
 8038SOL    HW125013   4.554   0.620   2.744
 8038SOL    HW225014   4.529   0.777   2.782
 8039SOL     OW25015   1.059   0.298   3.982
 8039SOL    HW125016   1.034   0.203   4.002
 8039SOL    HW225017   0.981   0.346   3.944
 8040SOL     OW25018   1.290   6.032   0.872
 8040SOL    HW125019   1.233   6.078   0.940
 8040SOL    HW225020   1.354   5.971   0.919
 8041SOL     OW25021   3.122   1.917   2.145
 8041SOL    HW125022   3.095   1.965   2.061
 8041SOL    HW225023   3.218   1.935   2.164
 8042SOL     OW25024   3.811   3.332   3.737
 8042SOL    HW125025   3.863   3.254   3.702
 8042SOL    HW225026   3.780   3.312   3.830
 8043SOL     OW25027   3.365   6.956   1.695
 8043SOL    HW125028   3.275   6.930   1.730
 8043SOL    HW225029   3.391   0.027   1.733
 8044SOL     OW25030   3.657   3.399   0.316
 8044SOL    HW125031   3.663   3.432   0.221
 8044SOL    HW225032   3.748   3.374   0.349
 8045SOL     OW25033   5.458   0.485   1.356
 8045SOL    HW125034   5.367   0.508   1.320
 8045SOL    HW225035   5.466   0.385   1.365
 8046SOL     OW25036   6.705   4.907   0.066
 8046SOL    HW125037   6.758   4.834   0.109
 8046SOL    HW225038   6.608   4.882   0.064
 8047SOL     OW25039   3.625   5.122   4.740
 8047SOL    HW125040   3.672   5.125   4.828
 8047SOL    HW225041   3.545   5.182   4.743
 8048SOL     OW25042   5.480   0.592   6.106
 8048SOL    HW125043   5.409   0.604   6.036
 8048SOL    HW225044   5.437   0.565   6.193
 8049SOL     OW25045   1.776   0.287   0.990
 8049SOL    HW125046   1.786   0.271   0.892
 8049SOL    HW225047   1.760   0.200   1.037
 8050SOL     OW25048   1.191   4.176   2.344
 8050SOL    HW125049   1.258   4.189   2.272
 8050SOL    HW225050   1.207   4.088   2.389
 8051SOL     OW25051   4.668   6.059   3.450
 8051SOL    HW125052   4.658   6.128   3.379
 8051SOL    HW225053   4.709   6.100   3.532
 8052SOL     OW25054   4.459   1.619   1.832
 8052SOL    HW125055   4.451   1.660   1.923
 8052SOL    HW225056   4.371   1.581   1.804
 8053SOL     OW25057   3.751   4.042   3.266
 8053SOL    HW125058   3.767   4.132   3.226
 8053SOL    HW225059   3.807   3.974   3.219
 8054SOL     OW25060   5.274   6.970   4.251
 8054SOL    HW125061   5.332   6.896   4.286
 8054SOL    HW225062   5.327   0.037   4.245
 8055SOL     OW25063   0.027   0.755   6.195
 8055SOL    HW125064   0.091   0.827   6.221
 8055SOL    HW225065   6.986   0.787   6.121
 8056SOL     OW25066   4.470   1.734   4.277
 8056SOL    HW125067   4.430   1.696   4.361
 8056SOL    HW225068   4.398   1.745   4.208
 8057SOL     OW25069   2.986   2.251   3.468
 8057SOL    HW125070   3.039   2.195   3.404
 8057SOL    HW225071   3.028   2.246   3.559
 8058SOL     OW25072   4.400   0.183   2.966
 8058SOL    HW125073   4.484   0.195   2.913
 8058SOL    HW225074   4.406   0.237   3.050
 8059SOL     OW25075   4.435   2.425   4.634
 8059SOL    HW125076   4.340   2.396   4.627
 8059SOL    HW225077   4.455   2.493   4.564
 8060SOL     OW25078   0.289   2.237   4.362
 8060SOL    HW125079   0.343   2.283   4.292
 8060SOL    HW225080   0.345   2.167   4.406
 8061SOL     OW25081   6.566   6.684   1.671
 8061SOL    HW125082   6.598   6.776   1.693
 8061SOL    HW225083   6.466   6.683   1.667
 8062SOL     OW25084   2.810   4.790   4.327
 8062SOL    HW125085   2.776   4.753   4.413
 8062SOL    HW225086   2.868   4.870   4.345
 8063SOL     OW25087   1.386   2.495   0.840
 8063SOL    HW125088   1.394   2.593   0.854
 8063SOL    HW225089   1.325   2.476   0.763
 8064SOL     OW25090   6.822   4.957   1.400
 8064SOL    HW125091   6.755   4.887   1.424
 8064SOL    HW225092   6.893   4.917   1.343
 8065SOL     OW25093   4.667   6.526   3.938
 8065SOL    HW125094   4.623   6.460   3.877
 8065SOL    HW225095   4.633   6.513   4.031
 8066SOL     OW25096   0.979   1.688   6.050
 8066SOL    HW125097   1.031   1.698   5.965
 8066SOL    HW225098   0.882   1.674   6.028
 8067SOL     OW25099   4.691   3.189   1.655
 8067SOL    HW125100   4.636   3.133   1.718
 8067SOL    HW225101   4.647   3.189   1.565
 8068SOL     OW25102   5.793   4.313   0.025
 8068SOL    HW125103   5.767   4.271   0.112
 8068SOL    HW225104   5.722   4.377   7.014
 8069SOL     OW25105   1.962   6.100   1.386
 8069SOL    HW125106   1.881   6.070   1.436
 8069SOL    HW225107   1.997   6.184   1.427
 8070SOL     OW25108   2.724   3.300   0.313
 8070SOL    HW125109   2.762   3.231   0.252
 8070SOL    HW225110   2.676   3.255   0.389
 8071SOL     OW25111   3.271   6.216   4.876
 8071SOL    HW125112   3.178   6.223   4.839
 8071SOL    HW225113   3.283   6.283   4.949
 8072SOL     OW25114   3.319   0.447   6.768
 8072SOL    HW125115   3.295   0.522   6.830
 8072SOL    HW225116   3.314   0.479   6.674
 8073SOL     OW25117   3.976   6.096   6.062
 8073SOL    HW125118   3.992   6.194   6.048
 8073SOL    HW225119   4.012   6.045   5.985
 8074SOL     OW25120   3.095   2.750   0.004
 8074SOL    HW125121   3.092   2.651   7.006
 8074SOL    HW225122   3.026   2.795   6.965
 8075SOL     OW25123   6.572   1.298   1.038
 8075SOL    HW125124   6.633   1.377   1.036
 8075SOL    HW225125   6.530   1.291   1.128
 8076SOL     OW25126   5.007   2.586   5.794
 8076SOL    HW125127   5.088   2.635   5.827
 8076SOL    HW225128   4.946   2.651   5.748
 8077SOL     OW25129   1.598   5.682   1.601
 8077SOL    HW125130   1.689   5.645   1.589
 8077SOL    HW225131   1.602   5.762   1.662
 8078SOL     OW25132   6.216   1.209   6.640
 8078SOL    HW125133   6.175   1.149   6.709
 8078SOL    HW225134   6.295   1.164   6.599
 8079SOL     OW25135   5.623   1.151   3.348
 8079SOL    HW125136   5.526   1.151   3.373
 8079SOL    HW225137   5.677   1.128   3.429
 8080SOL     OW25138   0.465   4.041   6.984
 8080SOL    HW125139   0.472   4.138   7.009
 8080SOL    HW225140   0.537   4.019   6.918
 8081SOL     OW25141   4.881   0.099   4.629
 8081SOL    HW125142   4.956   0.138   4.683
 8081SOL    HW225143   4.813   0.059   4.691
 8082SOL     OW25144   5.948   0.882   1.669
 8082SOL    HW125145   6.004   0.810   1.710
 8082SOL    HW225146   5.874   0.840   1.615
 8083SOL     OW25147   5.327   3.527   2.332
 8083SOL    HW125148   5.362   3.442   2.370
 8083SOL    HW225149   5.228   3.531   2.345
 8084SOL     OW25150   5.317   6.991   0.783
 8084SOL    HW125151   5.332   6.899   0.746
 8084SOL    HW225152   5.331   0.040   0.710
 8085SOL     OW25153   6.484   0.170   2.422
 8085SOL    HW125154   6.399   0.214   2.451
 8085SOL    HW225155   6.562   0.218   2.463
 8086SOL     OW25156   4.771   1.082   4.031
 8086SOL    HW125157   4.860   1.102   4.073
 8086SOL    HW225158   4.783   1.067   3.933
 8087SOL     OW25159   2.896   1.879   1.215
 8087SOL    HW125160   2.799   1.900   1.229
 8087SOL    HW225161   2.951   1.941   1.270
 8088SOL     OW25162   5.320   2.016   1.326
 8088SOL    HW125163   5.233   1.986   1.287
 8088SOL    HW225164   5.330   1.977   1.418
 8089SOL     OW25165   5.154   3.091   0.770
 8089SOL    HW125166   5.059   3.058   0.761
 8089SOL    HW225167   5.154   3.183   0.809
 8090SOL     OW25168   4.289   2.522   6.803
 8090SOL    HW125169   4.262   2.615   6.828
 8090SOL    HW225170   4.305   2.518   6.704
 8091SOL     OW25171   2.623   3.629   0.069
 8091SOL    HW125172   2.672   3.700   0.019
 8091SOL    HW225173   2.529   3.658   0.085
 8092SOL     OW25174   0.915   2.294   4.742
 8092SOL    HW125175   0.818   2.317   4.735
 8092SOL    HW225176   0.929   2.234   4.821
 8093SOL     OW25177   4.736   5.951   1.579
 8093SOL    HW125178   4.725   5.951   1.678
 8093SOL    HW225179   4.666   5.892   1.538
 8094SOL     OW25180   2.163   3.834   4.360
 8094SOL    HW125181   2.207   3.752   4.323
 8094SOL    HW225182   2.064   3.820   4.363
 8095SOL     OW25183   5.623   4.375   4.447
 8095SOL    HW125184   5.642   4.453   4.506
 8095SOL    HW225185   5.581   4.302   4.501
 8096SOL     OW25186   3.205   5.547   3.789
 8096SOL    HW125187   3.242   5.595   3.709
 8096SOL    HW225188   3.106   5.560   3.792
 8097SOL     OW25189   4.971   0.021   3.155
 8097SOL    HW125190   4.940   6.950   3.188
 8097SOL    HW225191   4.972   0.086   3.231
 8098SOL     OW25192   1.917   6.712   4.222
 8098SOL    HW125193   1.965   6.732   4.307
 8098SOL    HW225194   1.821   6.739   4.230
 8099SOL     OW25195   5.471   0.666   3.917
 8099SOL    HW125196   5.520   0.636   3.834
 8099SOL    HW225197   5.402   0.734   3.892
 8100SOL     OW25198   0.477   6.791   0.011
 8100SOL    HW125199   0.492   6.890   0.015
 8100SOL    HW225200   0.485   6.760   6.934
 8101SOL     OW25201   2.260   0.253   4.008
 8101SOL    HW125202   2.261   0.265   3.909
 8101SOL    HW225203   2.309   0.169   4.032
 8102SOL     OW25204   1.103   4.790   4.942
 8102SOL    HW125205   1.103   4.697   4.905
 8102SOL    HW225206   1.020   4.805   4.995
 8103SOL     OW25207   4.442   0.660   0.616
 8103SOL    HW125208   4.345   0.636   0.621
 8103SOL    HW225209   4.477   0.638   0.524
 8104SOL     OW25210   2.717   6.246   5.919
 8104SOL    HW125211   2.675   6.270   5.831
 8104SOL    HW225212   2.733   6.329   5.972
 8105SOL     OW25213   1.815   2.396   2.709
 8105SOL    HW125214   1.822   2.326   2.638
 8105SOL    HW225215   1.814   2.353   2.799
 8106SOL     OW25216   2.505   5.887   3.714
 8106SOL    HW125217   2.604   5.887   3.728
 8106SOL    HW225218   2.475   5.795   3.690
 8107SOL     OW25219   1.208   5.936   4.970
 8107SOL    HW125220   1.143   6.000   4.929
 8107SOL    HW225221   1.252   5.883   4.898
 8108SOL     OW25222   5.567   3.357   5.057
 8108SOL    HW125223   5.587   3.454   5.072
 8108SOL    HW225224   5.573   3.309   5.144
 8109SOL     OW25225   1.005   3.870   3.924
 8109SOL    HW125226   0.971   3.902   3.835
 8109SOL    HW225227   0.979   3.935   3.995
 8110SOL     OW25228   3.468   6.705   1.054
 8110SOL    HW125229   3.451   6.781   1.116
 8110SOL    HW225230   3.564   6.679   1.058
 8111SOL     OW25231   4.232   0.605   5.694
 8111SOL    HW125232   4.185   0.638   5.612
 8111SOL    HW225233   4.330   0.623   5.686
 8112SOL     OW25234   1.571   1.424   4.570
 8112SOL    HW125235   1.608   1.505   4.524
 8112SOL    HW225236   1.608   1.341   4.527
 8113SOL     OW25237   3.027   3.582   0.098
 8113SOL    HW125238   3.033   3.681   0.109
 8113SOL    HW225239   2.999   3.540   0.185
 8114SOL     OW25240   1.928   3.074   1.508
 8114SOL    HW125241   2.020   3.089   1.544
 8114SOL    HW225242   1.863   3.136   1.552
 8115SOL     OW25243   4.291   1.489   1.687
 8115SOL    HW125244   4.323   1.502   1.593
 8115SOL    HW225245   4.257   1.395   1.698
 8116SOL     OW25246   5.018   0.345   4.704
 8116SOL    HW125247   5.002   0.338   4.606
 8116SOL    HW225248   4.953   0.411   4.744
 8117SOL     OW25249   2.273   1.347   4.798
 8117SOL    HW125250   2.363   1.362   4.756
 8117SOL    HW225251   2.203   1.348   4.728
 8118SOL     OW25252   6.275   3.214   5.644
 8118SOL    HW125253   6.282   3.249   5.738
 8118SOL    HW225254   6.295   3.116   5.644
 8119SOL     OW25255   6.389   5.433   5.178
 8119SOL    HW125256   6.317   5.365   5.196
 8119SOL    HW225257   6.478   5.387   5.173
 8120SOL     OW25258   3.528   4.564   6.913
 8120SOL    HW125259   3.521   4.656   6.873
 8120SOL    HW225260   3.545   4.572   7.011
 8121SOL     OW25261   0.265   5.131   2.571
 8121SOL    HW125262   0.243   5.041   2.610
 8121SOL    HW225263   0.364   5.137   2.555
 8122SOL     OW25264   0.986   5.751   2.416
 8122SOL    HW125265   0.890   5.725   2.407
 8122SOL    HW225266   1.035   5.680   2.467
 8123SOL     OW25267   0.038   0.221   6.836
 8123SOL    HW125268   0.103   0.199   6.909
 8123SOL    HW225269   6.973   0.166   6.847
 8124SOL     OW25270   0.460   6.049   1.025
 8124SOL    HW125271   0.465   5.949   1.026
 8124SOL    HW225272   0.364   6.077   1.014
 8125SOL     OW25273   1.041   6.397   2.816
 8125SOL    HW125274   0.946   6.425   2.803
 8125SOL    HW225275   1.083   6.380   2.727
 8126SOL     OW25276   6.479   3.724   2.335
 8126SOL    HW125277   6.504   3.680   2.249
 8126SOL    HW225278   6.506   3.820   2.333
 8127SOL     OW25279   2.186   6.231   1.089
 8127SOL    HW125280   2.216   6.318   1.049
 8127SOL    HW225281   2.157   6.170   1.016
 8128SOL     OW25282   2.736   2.990   0.798
 8128SOL    HW125283   2.695   3.081   0.786
 8128SOL    HW225284   2.830   2.992   0.763
 8129SOL     OW25285   4.242   1.650   5.953
 8129SOL    HW125286   4.274   1.583   5.886
 8129SOL    HW225287   4.306   1.655   6.029
 8130SOL     OW25288   0.370   4.587   6.639
 8130SOL    HW125289   0.315   4.620   6.563
 8130SOL    HW225290   0.320   4.517   6.689
 8131SOL     OW25291   2.655   0.585   0.714
 8131SOL    HW125292   2.659   0.681   0.744
 8131SOL    HW225293   2.584   0.537   0.766
 8132SOL     OW25294   5.507   6.299   6.370
 8132SOL    HW125295   5.430   6.356   6.340
 8132SOL    HW225296   5.506   6.292   6.470
 8133SOL     OW25297   3.505   4.856   1.685
 8133SOL    HW125298   3.519   4.812   1.774
 8133SOL    HW225299   3.502   4.785   1.614
 8134SOL     OW25300   0.859   1.473   4.513
 8134SOL    HW125301   0.842   1.375   4.496
 8134SOL    HW225302   0.913   1.483   4.597
 8135SOL     OW25303   2.372   5.578   1.543
 8135SOL    HW125304   2.333   5.669   1.529
 8135SOL    HW225305   2.312   5.509   1.502
 8136SOL     OW25306   4.632   4.651   2.658
 8136SOL    HW125307   4.692   4.571   2.656
 8136SOL    HW225308   4.615   4.678   2.753
 8137SOL     OW25309   2.187   1.403   4.023
 8137SOL    HW125310   2.211   1.459   4.102
 8137SOL    HW225311   2.185   1.307   4.048
 8138SOL     OW25312   5.363   2.242   0.657
 8138SOL    HW125313   5.439   2.182   0.630
 8138SOL    HW225314   5.375   2.332   0.616
 8139SOL     OW25315   1.960   2.521   3.426
 8139SOL    HW125316   2.039   2.483   3.376
 8139SOL    HW225317   1.936   2.460   3.501
 8140SOL     OW25318   3.586   6.860   0.664
 8140SOL    HW125319   3.663   6.891   0.610
 8140SOL    HW225320   3.552   6.936   0.720
 8141SOL     OW25321   4.707   6.626   5.420
 8141SOL    HW125322   4.685   6.608   5.324
 8141SOL    HW225323   4.759   6.550   5.458
 8142SOL     OW25324   2.026   5.071   0.674
 8142SOL    HW125325   2.105   5.082   0.614
 8142SOL    HW225326   2.041   5.120   0.759
 8143SOL     OW25327   5.181   5.254   0.484
 8143SOL    HW125328   5.132   5.172   0.514
 8143SOL    HW225329   5.244   5.283   0.556
 8144SOL     OW25330   0.835   6.114   5.485
 8144SOL    HW125331   0.787   6.048   5.427
 8144SOL    HW225332   0.782   6.130   5.568
 8145SOL     OW25333   5.116   5.035   0.833
 8145SOL    HW125334   5.207   5.043   0.876
 8145SOL    HW225335   5.122   5.063   0.737
 8146SOL     OW25336   5.610   0.140   5.723
 8146SOL    HW125337   5.643   0.101   5.637
 8146SOL    HW225338   5.621   0.240   5.720
 8147SOL     OW25339   6.725   0.634   0.830
 8147SOL    HW125340   6.755   0.728   0.847
 8147SOL    HW225341   6.662   0.632   0.753
 8148SOL     OW25342   4.585   4.652   6.601
 8148SOL    HW125343   4.492   4.655   6.565
 8148SOL    HW225344   4.606   4.738   6.646
 8149SOL     OW25345   1.973   6.792   2.966
 8149SOL    HW125346   2.012   6.860   2.904
 8149SOL    HW225347   1.987   6.701   2.927
 8150SOL     OW25348   0.864   3.984   1.151
 8150SOL    HW125349   0.787   4.026   1.103
 8150SOL    HW225350   0.941   3.976   1.088
 8151SOL     OW25351   5.692   5.283   3.763
 8151SOL    HW125352   5.666   5.294   3.859
 8151SOL    HW225353   5.653   5.358   3.709
 8152SOL     OW25354   6.103   3.192   3.216
 8152SOL    HW125355   6.054   3.120   3.168
 8152SOL    HW225356   6.161   3.242   3.152
 8153SOL     OW25357   1.074   1.403   2.689
 8153SOL    HW125358   1.107   1.370   2.777
 8153SOL    HW225359   0.978   1.377   2.677
 8154SOL     OW25360   3.658   6.509   2.350
 8154SOL    HW125361   3.662   6.543   2.444
 8154SOL    HW225362   3.661   6.586   2.287
 8155SOL     OW25363   1.470   4.098   2.134
 8155SOL    HW125364   1.509   4.131   2.220
 8155SOL    HW225365   1.461   3.999   2.137
 8156SOL     OW25366   4.767   6.369   1.184
 8156SOL    HW125367   4.776   6.417   1.097
 8156SOL    HW225368   4.797   6.274   1.173
 8157SOL     OW25369   6.478   4.398   6.200
 8157SOL    HW125370   6.395   4.417   6.148
 8157SOL    HW225371   6.506   4.303   6.185
 8158SOL     OW25372   5.091   4.407   0.098
 8158SOL    HW125373   4.994   4.428   0.111
 8158SOL    HW225374   5.136   4.484   0.053
 8159SOL     OW25375   3.181   5.700   4.890
 8159SOL    HW125376   3.105   5.755   4.857
 8159SOL    HW225377   3.204   5.630   4.822
 8160SOL     OW25378   4.924   0.610   3.822
 8160SOL    HW125379   4.983   0.570   3.751
 8160SOL    HW225380   4.899   0.703   3.796
 8161SOL     OW25381   5.972   3.959   6.510
 8161SOL    HW125382   6.026   3.997   6.584
 8161SOL    HW225383   6.004   3.867   6.488
 8162SOL     OW25384   6.749   5.271   6.612
 8162SOL    HW125385   6.698   5.251   6.528
 8162SOL    HW225386   6.694   5.330   6.671
 8163SOL     OW25387   2.588   4.729   5.438
 8163SOL    HW125388   2.584   4.805   5.502
 8163SOL    HW225389   2.562   4.645   5.485
 8164SOL     OW25390   4.488   1.472   0.120
 8164SOL    HW125391   4.497   1.373   0.106
 8164SOL    HW225392   4.576   1.516   0.105
 8165SOL     OW25393   6.963   3.883   6.436
 8165SOL    HW125394   0.035   3.914   6.468
 8165SOL    HW225395   6.901   3.962   6.428
 8166SOL     OW25396   1.633   0.579   3.471
 8166SOL    HW125397   1.548   0.628   3.450
 8166SOL    HW225398   1.679   0.554   3.386
 8167SOL     OW25399   0.328   0.914   2.871
 8167SOL    HW125400   0.230   0.912   2.890
 8167SOL    HW225401   0.378   0.868   2.944
 8168SOL     OW25402   2.459   0.188   1.643
 8168SOL    HW125403   2.530   0.168   1.710
 8168SOL    HW225404   2.400   0.108   1.632
 8169SOL     OW25405   3.927   2.154   0.035
 8169SOL    HW125406   3.938   2.057   0.016
 8169SOL    HW225407   3.998   2.183   0.100
 8170SOL     OW25408   6.522   4.665   1.524
 8170SOL    HW125409   6.510   4.754   1.568
 8170SOL    HW225410   6.442   4.647   1.466
 8171SOL     OW25411   2.144   1.284   6.725
 8171SOL    HW125412   2.193   1.336   6.655
 8171SOL    HW225413   2.201   1.207   6.754
 8172SOL     OW25414   6.949   2.024   1.726
 8172SOL    HW125415   6.891   2.099   1.757
 8172SOL    HW225416   6.912   1.937   1.760
 8173SOL     OW25417   5.379   1.510   2.089
 8173SOL    HW125418   5.445   1.517   2.014
 8173SOL    HW225419   5.426   1.485   2.173
 8174SOL     OW25420   0.769   6.916   2.652
 8174SOL    HW125421   0.714   6.961   2.722
 8174SOL    HW225422   0.865   6.920   2.678
 8175SOL     OW25423   0.283   2.802   4.899
 8175SOL    HW125424   0.379   2.808   4.870
 8175SOL    HW225425   0.266   2.869   4.971
 8176SOL     OW25426   2.278   4.745   1.815
 8176SOL    HW125427   2.371   4.773   1.791
 8176SOL    HW225428   2.235   4.816   1.870
 8177SOL     OW25429   5.118   1.054   3.817
 8177SOL    HW125430   5.066   1.019   3.739
 8177SOL    HW225431   5.216   1.055   3.794
 8178SOL     OW25432   3.046   6.897   0.879
 8178SOL    HW125433   3.017   6.944   0.795
 8178SOL    HW225434   3.145   6.890   0.881
 8179SOL     OW25435   5.805   0.909   4.813
 8179SOL    HW125436   5.735   0.973   4.783
 8179SOL    HW225437   5.808   0.831   4.750
 8180SOL     OW25438   6.090   0.528   6.547
 8180SOL    HW125439   6.066   0.592   6.474
 8180SOL    HW225440   6.157   0.463   6.514
 8181SOL     OW25441   1.865   1.076   0.520
 8181SOL    HW125442   1.832   1.133   0.595
 8181SOL    HW225443   1.931   1.128   0.465
 8182SOL     OW25444   2.945   3.038   5.310
 8182SOL    HW125445   3.025   3.041   5.368
 8182SOL    HW225446   2.968   2.992   5.224
 8183SOL     OW25447   6.438   2.003   4.591
 8183SOL    HW125448   6.435   2.102   4.582
 8183SOL    HW225449   6.524   1.968   4.552
 8184SOL     OW25450   0.476   6.556   0.417
 8184SOL    HW125451   0.427   6.477   0.454
 8184SOL    HW225452   0.435   6.581   0.329
 8185SOL     OW25453   2.057   0.274   0.247
 8185SOL    HW125454   2.041   0.202   0.314
 8185SOL    HW225455   2.065   0.233   0.156
 8186SOL     OW25456   2.769   4.625   5.831
 8186SOL    HW125457   2.805   4.580   5.749
 8186SOL    HW225458   2.837   4.620   5.904
 8187SOL     OW25459   2.160   1.087   4.984
 8187SOL    HW125460   2.189   0.995   5.009
 8187SOL    HW225461   2.155   1.095   4.884
 8188SOL     OW25462   4.726   2.744   3.791
 8188SOL    HW125463   4.703   2.752   3.888
 8188SOL    HW225464   4.670   2.673   3.749
 8189SOL     OW25465   5.008   4.875   2.890
 8189SOL    HW125466   5.067   4.797   2.910
 8189SOL    HW225467   5.017   4.943   2.963
 8190SOL     OW25468   5.092   4.001   3.967
 8190SOL    HW125469   5.033   4.051   4.031
 8190SOL    HW225470   5.125   4.064   3.897
 8191SOL     OW25471   3.640   5.160   2.749
 8191SOL    HW125472   3.581   5.234   2.783
 8191SOL    HW225473   3.583   5.088   2.709
 8192SOL     OW25474   2.139   5.517   2.356
 8192SOL    HW125475   2.124   5.436   2.300
 8192SOL    HW225476   2.053   5.543   2.400
 8193SOL     OW25477   6.219   5.842   5.866
 8193SOL    HW125478   6.302   5.886   5.902
 8193SOL    HW225479   6.144   5.908   5.864
 8194SOL     OW25480   5.034   0.581   1.423
 8194SOL    HW125481   4.938   0.608   1.416
 8194SOL    HW225482   5.065   0.596   1.517
 8195SOL     OW25483   6.539   0.228   3.347
 8195SOL    HW125484   6.590   0.150   3.312
 8195SOL    HW225485   6.604   0.300   3.374
 8196SOL     OW25486   4.333   6.011   0.229
 8196SOL    HW125487   4.285   5.931   0.193
 8196SOL    HW225488   4.298   6.094   0.185
 8197SOL     OW25489   3.677   1.054   0.430
 8197SOL    HW125490   3.598   1.089   0.381
 8197SOL    HW225491   3.728   0.991   0.371
 8198SOL     OW25492   3.305   6.447   2.413
 8198SOL    HW125493   3.250   6.490   2.341
 8198SOL    HW225494   3.381   6.397   2.372
 8199SOL     OW25495   5.835   3.421   5.634
 8199SOL    HW125496   5.780   3.494   5.593
 8199SOL    HW225497   5.776   3.363   5.690
 8200SOL     OW25498   5.929   4.210   1.487
 8200SOL    HW125499   5.984   4.242   1.564
 8200SOL    HW225500   5.980   4.223   1.402
 8201SOL     OW25501   6.182   0.711   5.006
 8201SOL    HW125502   6.135   0.628   5.036
 8201SOL    HW225503   6.196   0.772   5.085
 8202SOL     OW25504   0.759   5.477   3.775
 8202SOL    HW125505   0.806   5.524   3.701
 8202SOL    HW225506   0.661   5.496   3.771
 8203SOL     OW25507   2.852   2.163   6.917
 8203SOL    HW125508   2.856   2.063   6.913
 8203SOL    HW225509   2.941   2.201   6.893
 8204SOL     OW25510   3.749   4.801   6.927
 8204SOL    HW125511   3.778   4.856   6.849
 8204SOL    HW225512   3.746   4.858   7.009
 8205SOL     OW25513   0.444   4.677   0.259
 8205SOL    HW125514   0.455   4.641   0.166
 8205SOL    HW225515   0.393   4.762   0.257
 8206SOL     OW25516   4.652   2.373   0.261
 8206SOL    HW125517   4.678   2.427   0.181
 8206SOL    HW225518   4.579   2.310   0.236
 8207SOL     OW25519   2.892   3.664   4.565
 8207SOL    HW125520   2.942   3.608   4.499
 8207SOL    HW225521   2.861   3.748   4.520
 8208SOL     OW25522   0.985   0.821   1.267
 8208SOL    HW125523   0.947   0.897   1.320
 8208SOL    HW225524   0.975   0.840   1.169
 8209SOL     OW25525   0.171   1.528   4.681
 8209SOL    HW125526   0.195   1.603   4.619
 8209SOL    HW225527   0.159   1.444   4.629
 8210SOL     OW25528   2.520   1.923   0.617
 8210SOL    HW125529   2.427   1.943   0.587
 8210SOL    HW225530   2.566   1.865   0.550
 8211SOL     OW25531   3.821   4.490   1.506
 8211SOL    HW125532   3.752   4.419   1.495
 8211SOL    HW225533   3.780   4.580   1.489
 8212SOL     OW25534   1.793   2.585   2.521
 8212SOL    HW125535   1.701   2.606   2.491
 8212SOL    HW225536   1.789   2.532   2.606
 8213SOL     OW25537   6.736   4.486   1.932
 8213SOL    HW125538   6.669   4.521   1.998
 8213SOL    HW225539   6.690   4.425   1.867
 8214SOL     OW25540   5.998   5.222   3.733
 8214SOL    HW125541   6.042   5.239   3.822
 8214SOL    HW225542   5.899   5.224   3.744
 8215SOL     OW25543   3.312   5.991   5.653
 8215SOL    HW125544   3.367   6.069   5.681
 8215SOL    HW225545   3.371   5.912   5.639
 8216SOL     OW25546   5.583   5.275   4.025
 8216SOL    HW125547   5.502   5.230   3.987
 8216SOL    HW225548   5.639   5.208   4.074
 8217SOL     OW25549   1.754   4.826   0.339
 8217SOL    HW125550   1.759   4.886   0.419
 8217SOL    HW225551   1.727   4.880   0.259
 8218SOL     OW25552   0.092   6.822   6.394
 8218SOL    HW125553   0.163   6.820   6.324
 8218SOL    HW225554   0.005   6.848   6.352
 8219SOL     OW25555   4.314   2.449   0.857
 8219SOL    HW125556   4.324   2.474   0.953
 8219SOL    HW225557   4.218   2.458   0.831
 8220SOL     OW25558   3.768   2.950   3.486
 8220SOL    HW125559   3.812   2.863   3.463
 8220SOL    HW225560   3.669   2.941   3.475
 8221SOL     OW25561   5.422   6.300   4.168
 8221SOL    HW125562   5.428   6.395   4.136
 8221SOL    HW225563   5.496   6.246   4.127
 8222SOL     OW25564   5.851   1.189   1.605
 8222SOL    HW125565   5.816   1.175   1.698
 8222SOL    HW225566   5.864   1.100   1.561
 8223SOL     OW25567   1.102   4.781   5.856
 8223SOL    HW125568   1.158   4.740   5.927
 8223SOL    HW225569   1.047   4.855   5.896
 8224SOL     OW25570   6.426   0.896   2.579
 8224SOL    HW125571   6.488   0.962   2.622
 8224SOL    HW225572   6.371   0.851   2.649
 8225SOL     OW25573   3.384   1.066   6.974
 8225SOL    HW125574   3.322   0.989   6.986
 8225SOL    HW225575   3.341   1.149   7.009
 8226SOL     OW25576   4.287   0.036   1.111
 8226SOL    HW125577   4.220   7.005   1.054
 8226SOL    HW225578   4.376   7.010   1.103
 8227SOL     OW25579   6.586   1.835   3.035
 8227SOL    HW125580   6.628   1.745   3.050
 8227SOL    HW225581   6.491   1.833   3.066
 8228SOL     OW25582   6.492   2.293   5.521
 8228SOL    HW125583   6.484   2.341   5.434
 8228SOL    HW225584   6.572   2.327   5.570
 8229SOL     OW25585   3.978   3.282   0.773
 8229SOL    HW125586   3.963   3.380   0.790
 8229SOL    HW225587   4.070   3.268   0.738
 8230SOL     OW25588   4.753   6.881   5.513
 8230SOL    HW125589   4.757   6.782   5.502
 8230SOL    HW225590   4.696   6.903   5.593
 8231SOL     OW25591   3.865   5.078   0.850
 8231SOL    HW125592   3.881   5.150   0.783
 8231SOL    HW225593   3.794   5.016   0.817
 8232SOL     OW25594   4.945   1.307   1.878
 8232SOL    HW125595   4.992   1.394   1.892
 8232SOL    HW225596   4.970   1.243   1.951
 8233SOL     OW25597   1.296   6.243   6.564
 8233SOL    HW125598   1.279   6.146   6.584
 8233SOL    HW225599   1.227   6.299   6.610
 8234SOL     OW25600   3.138   4.373   6.723
 8234SOL    HW125601   3.044   4.403   6.713
 8234SOL    HW225602   3.157   4.352   6.819
 8235SOL     OW25603   0.827   3.830   0.030
 8235SOL    HW125604   0.760   3.880   6.992
 8235SOL    HW225605   0.854   3.746   6.999
 8236SOL     OW25606   0.535   4.883   0.520
 8236SOL    HW125607   0.446   4.899   0.563
 8236SOL    HW225608   0.536   4.791   0.480
 8237SOL     OW25609   4.239   6.771   4.617
 8237SOL    HW125610   4.311   6.703   4.629
 8237SOL    HW225611   4.246   6.812   4.526
 8238SOL     OW25612   1.055   5.330   6.608
 8238SOL    HW125613   1.052   5.298   6.703
 8238SOL    HW225614   0.964   5.319   6.567
 8239SOL     OW25615   6.010   1.133   5.787
 8239SOL    HW125616   5.955   1.211   5.758
 8239SOL    HW225617   6.040   1.147   5.882
 8240SOL     OW25618   3.588   4.152   2.606
 8240SOL    HW125619   3.508   4.149   2.665
 8240SOL    HW225620   3.671   4.147   2.662
 8241SOL     OW25621   3.794   0.337   6.286
 8241SOL    HW125622   3.763   0.366   6.196
 8241SOL    HW225623   3.841   0.413   6.332
 8242SOL     OW25624   0.233   4.717   6.073
 8242SOL    HW125625   0.181   4.803   6.076
 8242SOL    HW225626   0.270   4.704   5.981
 8243SOL     OW25627   0.750   2.467   0.569
 8243SOL    HW125628   0.783   2.560   0.582
 8243SOL    HW225629   0.758   2.442   0.472
 8244SOL     OW25630   0.064   0.534   4.831
 8244SOL    HW125631   0.007   0.596   4.884
 8244SOL    HW225632   0.037   0.536   4.735
 8245SOL     OW25633   4.399   1.905   2.589
 8245SOL    HW125634   4.459   1.984   2.579
 8245SOL    HW225635   4.400   1.873   2.683
 8246SOL     OW25636   1.255   2.669   5.960
 8246SOL    HW125637   1.209   2.628   5.881
 8246SOL    HW225638   1.286   2.761   5.936
 8247SOL     OW25639   1.241   6.862   2.639
 8247SOL    HW125640   1.241   6.782   2.698
 8247SOL    HW225641   1.283   6.839   2.552
 8248SOL     OW25642   6.089   4.872   4.758
 8248SOL    HW125643   6.128   4.960   4.785
 8248SOL    HW225644   6.157   4.820   4.706
 8249SOL     OW25645   1.707   2.781   5.253
 8249SOL    HW125646   1.658   2.694   5.247
 8249SOL    HW225647   1.755   2.786   5.341
 8250SOL     OW25648   3.247   3.893   2.001
 8250SOL    HW125649   3.305   3.842   1.938
 8250SOL    HW225650   3.304   3.932   2.074
 8251SOL     OW25651   5.614   3.682   3.759
 8251SOL    HW125652   5.688   3.628   3.801
 8251SOL    HW225653   5.544   3.700   3.827
 8252SOL     OW25654   2.732   1.629   5.438
 8252SOL    HW125655   2.755   1.722   5.465
 8252SOL    HW225656   2.676   1.631   5.355
 8253SOL     OW25657   4.193   4.734   5.548
 8253SOL    HW125658   4.113   4.720   5.489
 8253SOL    HW225659   4.197   4.829   5.578
 8254SOL     OW25660   4.629   4.769   5.011
 8254SOL    HW125661   4.565   4.814   5.073
 8254SOL    HW225662   4.698   4.835   4.982
 8255SOL     OW25663   2.132   0.194   4.818
 8255SOL    HW125664   2.168   0.254   4.746
 8255SOL    HW225665   2.052   0.236   4.860
 8256SOL     OW25666   6.820   6.712   2.202
 8256SOL    HW125667   6.855   6.786   2.260
 8256SOL    HW225668   6.728   6.737   2.169
 8257SOL     OW25669   6.036   3.773   3.114
 8257SOL    HW125670   6.072   3.856   3.157
 8257SOL    HW225671   5.938   3.765   3.135
 8258SOL     OW25672   5.656   2.132   0.367
 8258SOL    HW125673   5.592   2.058   0.348
 8258SOL    HW225674   5.708   2.154   0.284
 8259SOL     OW25675   3.753   1.813   3.386
 8259SOL    HW125676   3.727   1.770   3.473
 8259SOL    HW225677   3.835   1.869   3.400
 8260SOL     OW25678   2.398   6.709   1.702
 8260SOL    HW125679   2.366   6.802   1.684
 8260SOL    HW225680   2.444   6.673   1.620
 8261SOL     OW25681   5.663   0.489   2.140
 8261SOL    HW125682   5.690   0.465   2.233
 8261SOL    HW225683   5.716   0.434   2.075
 8262SOL     OW25684   0.301   3.218   0.248
 8262SOL    HW125685   0.364   3.295   0.244
 8262SOL    HW225686   0.259   3.205   0.158
 8263SOL     OW25687   0.918   2.265   6.552
 8263SOL    HW125688   0.866   2.336   6.504
 8263SOL    HW225689   0.998   2.306   6.596
 8264SOL     OW25690   2.994   6.618   2.599
 8264SOL    HW125691   3.039   6.536   2.635
 8264SOL    HW225692   2.928   6.653   2.665
 8265SOL     OW25693   7.004   0.058   1.124
 8265SOL    HW125694   0.001   0.024   1.031
 8265SOL    HW225695   0.076   0.078   1.166
 8266SOL     OW25696   2.158   0.931   3.426
 8266SOL    HW125697   2.244   0.941   3.475
 8266SOL    HW225698   2.106   1.016   3.430
 8267SOL     OW25699   1.623   2.944   1.792
 8267SOL    HW125700   1.579   2.884   1.859
 8267SOL    HW225701   1.720   2.952   1.813
 8268SOL     OW25702   1.927   6.249   5.881
 8268SOL    HW125703   1.951   6.323   5.944
 8268SOL    HW225704   1.923   6.162   5.931
 8269SOL     OW25705   4.416   1.746   2.059
 8269SOL    HW125706   4.468   1.831   2.061
 8269SOL    HW225707   4.450   1.684   2.129
 8270SOL     OW25708   2.827   6.757   5.669
 8270SOL    HW125709   2.802   6.724   5.578
 8270SOL    HW225710   2.870   6.847   5.660
 8271SOL     OW25711   0.294   0.321   2.993
 8271SOL    HW125712   0.283   0.421   2.991
 8271SOL    HW225713   0.218   0.278   2.945
 8272SOL     OW25714   5.475   1.875   2.348
 8272SOL    HW125715   5.432   1.854   2.260
 8272SOL    HW225716   5.405   1.906   2.413
 8273SOL     OW25717   3.032   0.913   6.947
 8273SOL    HW125718   2.995   0.956   6.865
 8273SOL    HW225719   3.015   0.814   6.944
 8274SOL     OW25720   5.314   4.930   4.125
 8274SOL    HW125721   5.229   4.980   4.109
 8274SOL    HW225722   5.384   4.994   4.160
 8275SOL     OW25723   5.440   1.481   5.643
 8275SOL    HW125724   5.506   1.467   5.717
 8275SOL    HW225725   5.351   1.446   5.671
 8276SOL     OW25726   0.489   2.163   3.428
 8276SOL    HW125727   0.456   2.109   3.351
 8276SOL    HW225728   0.491   2.106   3.510
 8277SOL     OW25729   0.011   6.121   6.752
 8277SOL    HW125730   6.982   6.041   6.716
 8277SOL    HW225731   6.979   6.204   6.724
 8278SOL     OW25732   2.698   2.421   5.718
 8278SOL    HW125733   2.771   2.480   5.753
 8278SOL    HW225734   2.675   2.351   5.786
 8279SOL     OW25735   1.282   6.763   5.020
 8279SOL    HW125736   1.337   6.694   4.973
 8279SOL    HW225737   1.271   6.737   5.116
 8280SOL     OW25738   2.571   3.866   1.045
 8280SOL    HW125739   2.512   3.785   1.040
 8280SOL    HW225740   2.667   3.838   1.049
 8281SOL     OW25741   3.154   4.456   1.695
 8281SOL    HW125742   3.216   4.388   1.734
 8281SOL    HW225743   3.070   4.461   1.750
 8282SOL     OW25744   4.258   3.721   6.846
 8282SOL    HW125745   4.219   3.812   6.832
 8282SOL    HW225746   4.305   3.692   6.763
 8283SOL     OW25747   1.582   5.419   5.937
 8283SOL    HW125748   1.529   5.502   5.953
 8283SOL    HW225749   1.679   5.441   5.936
 8284SOL     OW25750   1.031   3.592   1.000
 8284SOL    HW125751   1.079   3.676   1.024
 8284SOL    HW225752   0.934   3.601   1.023
 8285SOL     OW25753   2.994   3.911   4.764
 8285SOL    HW125754   3.059   3.915   4.840
 8285SOL    HW225755   2.909   3.869   4.795
 8286SOL     OW25756   5.946   2.148   6.465
 8286SOL    HW125757   5.955   2.207   6.384
 8286SOL    HW225758   6.037   2.128   6.501
 8287SOL     OW25759   2.135   5.265   4.690
 8287SOL    HW125760   2.107   5.208   4.612
 8287SOL    HW225761   2.142   5.209   4.772
 8288SOL     OW25762   3.245   2.059   1.441
 8288SOL    HW125763   3.221   2.152   1.413
 8288SOL    HW225764   3.209   2.042   1.533
 8289SOL     OW25765   0.400   5.362   0.910
 8289SOL    HW125766   0.433   5.456   0.899
 8289SOL    HW225767   0.468   5.298   0.874
 8290SOL     OW25768   5.799   1.354   1.228
 8290SOL    HW125769   5.728   1.286   1.248
 8290SOL    HW225770   5.885   1.307   1.206
 8291SOL     OW25771   5.062   6.495   5.350
 8291SOL    HW125772   5.036   6.501   5.254
 8291SOL    HW225773   5.136   6.560   5.369
 8292SOL     OW25774   2.624   6.631   6.913
 8292SOL    HW125775   2.581   6.616   6.825
 8292SOL    HW225776   2.718   6.662   6.900
 8293SOL     OW25777   3.191   6.019   0.462
 8293SOL    HW125778   3.274   5.971   0.491
 8293SOL    HW225779   3.141   6.051   0.542
 8294SOL     OW25780   5.378   3.809   5.461
 8294SOL    HW125781   5.330   3.831   5.545
 8294SOL    HW225782   5.476   3.804   5.479
 8295SOL     OW25783   5.293   5.197   2.035
 8295SOL    HW125784   5.215   5.171   1.978
 8295SOL    HW225785   5.367   5.231   1.976
 8296SOL     OW25786   1.166   5.011   6.665
 8296SOL    HW125787   1.099   5.030   6.593
 8296SOL    HW225788   1.124   4.954   6.735
 8297SOL     OW25789   6.526   2.867   2.229
 8297SOL    HW125790   6.532   2.780   2.279
 8297SOL    HW225791   6.520   2.847   2.131
 8298SOL     OW25792   6.571   1.397   1.710
 8298SOL    HW125793   6.588   1.480   1.764
 8298SOL    HW225794   6.597   1.412   1.615
 8299SOL     OW25795   6.347   2.791   1.317
 8299SOL    HW125796   6.255   2.811   1.350
 8299SOL    HW225797   6.411   2.796   1.393
 8300SOL     OW25798   0.203   6.327   4.880
 8300SOL    HW125799   0.261   6.402   4.913
 8300SOL    HW225800   0.250   6.240   4.896
 8301SOL     OW25801   3.870   1.631   1.259
 8301SOL    HW125802   3.852   1.721   1.220
 8301SOL    HW225803   3.844   1.631   1.356
 8302SOL     OW25804   6.071   6.885   6.850
 8302SOL    HW125805   6.075   6.938   6.765
 8302SOL    HW225806   5.980   6.846   6.862
 8303SOL     OW25807   6.490   0.860   3.518
 8303SOL    HW125808   6.496   0.768   3.479
 8303SOL    HW225809   6.462   0.854   3.614
 8304SOL     OW25810   0.197   3.288   0.684
 8304SOL    HW125811   0.183   3.352   0.759
 8304SOL    HW225812   0.108   3.259   0.648
 8305SOL     OW25813   4.924   4.970   4.290
 8305SOL    HW125814   4.964   4.879   4.285
 8305SOL    HW225815   4.882   4.984   4.379
 8306SOL     OW25816   6.387   2.496   5.944
 8306SOL    HW125817   6.433   2.580   5.973
 8306SOL    HW225818   6.331   2.514   5.864
 8307SOL     OW25819   3.402   5.410   1.661
 8307SOL    HW125820   3.366   5.354   1.586
 8307SOL    HW225821   3.349   5.494   1.669
 8308SOL     OW25822   3.373   5.870   1.478
 8308SOL    HW125823   3.431   5.949   1.498
 8308SOL    HW225824   3.415   5.815   1.406
 8309SOL     OW25825   0.054   5.038   4.147
 8309SOL    HW125826   0.149   5.062   4.129
 8309SOL    HW225827   0.049   4.945   4.184
 8310SOL     OW25828   6.927   4.777   0.634
 8310SOL    HW125829   6.987   4.819   0.566
 8310SOL    HW225830   6.831   4.794   0.610
 8311SOL     OW25831   0.463   1.383   4.286
 8311SOL    HW125832   0.371   1.416   4.262
 8311SOL    HW225833   0.456   1.319   4.363
 8312SOL     OW25834   5.096   0.423   0.062
 8312SOL    HW125835   4.996   0.421   0.059
 8312SOL    HW225836   5.127   0.517   0.080
 8313SOL     OW25837   5.101   0.363   0.945
 8313SOL    HW125838   5.181   0.311   0.915
 8313SOL    HW225839   5.023   0.301   0.956
 8314SOL     OW25840   4.747   0.681   0.535
 8314SOL    HW125841   4.710   0.701   0.626
 8314SOL    HW225842   4.844   0.705   0.533
 8315SOL     OW25843   4.172   2.857   1.441
 8315SOL    HW125844   4.239   2.915   1.395
 8315SOL    HW225845   4.204   2.833   1.532
 8316SOL     OW25846   0.992   2.237   1.964
 8316SOL    HW125847   0.973   2.325   2.008
 8316SOL    HW225848   1.089   2.216   1.973
 8317SOL     OW25849   1.964   2.956   2.691
 8317SOL    HW125850   2.056   2.993   2.684
 8317SOL    HW225851   1.969   2.856   2.695
 8318SOL     OW25852   4.329   1.436   4.962
 8318SOL    HW125853   4.319   1.346   4.918
 8318SOL    HW225854   4.411   1.436   5.019
 8319SOL     OW25855   1.845   1.941   0.004
 8319SOL    HW125856   1.807   1.903   6.937
 8319SOL    HW225857   1.926   1.996   6.999
 8320SOL     OW25858   3.144   3.595   1.965
 8320SOL    HW125859   3.152   3.695   1.966
 8320SOL    HW225860   3.048   3.569   1.955
 8321SOL     OW25861   6.720   0.583   6.360
 8321SOL    HW125862   6.640   0.580   6.301
 8321SOL    HW225863   6.771   0.497   6.353
 8322SOL     OW25864   6.539   6.842   0.752
 8322SOL    HW125865   6.571   6.756   0.791
 8322SOL    HW225866   6.439   6.848   0.761
 8323SOL     OW25867   5.480   5.406   2.544
 8323SOL    HW125868   5.531   5.345   2.484
 8323SOL    HW225869   5.447   5.484   2.492
 8324SOL     OW25870   5.535   6.936   1.233
 8324SOL    HW125871   5.443   6.962   1.202
 8324SOL    HW225872   5.581   7.017   1.270
 8325SOL     OW25873   2.747   3.641   5.379
 8325SOL    HW125874   2.734   3.543   5.367
 8325SOL    HW225875   2.842   3.659   5.404
 8326SOL     OW25876   5.060   3.597   5.555
 8326SOL    HW125877   5.012   3.513   5.527
 8326SOL    HW225878   4.994   3.672   5.560
 8327SOL     OW25879   6.583   1.295   6.382
 8327SOL    HW125880   6.501   1.274   6.435
 8327SOL    HW225881   6.662   1.295   6.443
 8328SOL     OW25882   2.631   5.950   5.872
 8328SOL    HW125883   2.594   5.916   5.785
 8328SOL    HW225884   2.634   6.050   5.869
 8329SOL     OW25885   0.778   2.939   5.976
 8329SOL    HW125886   0.765   3.035   6.000
 8329SOL    HW225887   0.868   2.927   5.934
 8330SOL     OW25888   2.701   1.045   6.971
 8330SOL    HW125889   2.648   1.085   0.028
 8330SOL    HW225890   2.762   0.974   7.006
 8331SOL     OW25891   3.565   1.402   1.373
 8331SOL    HW125892   3.641   1.373   1.431
 8331SOL    HW225893   3.554   1.501   1.379
 8332SOL     OW25894   4.558   5.162   2.646
 8332SOL    HW125895   4.551   5.165   2.746
 8332SOL    HW225896   4.620   5.089   2.619
 8333SOL     OW25897   7.012   6.313   6.095
 8333SOL    HW125898   0.093   6.332   6.092
 8333SOL    HW225899   6.964   6.395   6.127
 8334SOL     OW25900   3.897   1.205   3.849
 8334SOL    HW125901   3.808   1.162   3.835
 8334SOL    HW225902   3.942   1.218   3.761
 8335SOL     OW25903   6.048   6.310   6.859
 8335SOL    HW125904   6.095   6.390   6.822
 8335SOL    HW225905   6.094   6.281   6.943
 8336SOL     OW25906   7.002   5.592   3.151
 8336SOL    HW125907   7.002   5.582   3.051
 8336SOL    HW225908   6.979   5.686   3.175
 8337SOL     OW25909   2.089   6.008   2.616
 8337SOL    HW125910   2.118   6.033   2.523
 8337SOL    HW225911   2.046   5.918   2.614
 8338SOL     OW25912   2.994   5.449   1.626
 8338SOL    HW125913   3.024   5.517   1.692
 8338SOL    HW225914   2.978   5.493   1.538
 8339SOL     OW25915   5.821   0.648   0.960
 8339SOL    HW125916   5.853   0.570   1.014
 8339SOL    HW225917   5.896   0.684   0.905
 8340SOL     OW25918   4.984   2.824   1.586
 8340SOL    HW125919   4.934   2.738   1.597
 8340SOL    HW225920   4.955   2.889   1.656
 8341SOL     OW25921   2.608   6.462   0.356
 8341SOL    HW125922   2.659   6.400   0.296
 8341SOL    HW225923   2.659   6.547   0.368
 8342SOL     OW25924   4.507   6.432   2.055
 8342SOL    HW125925   4.518   6.531   2.067
 8342SOL    HW225926   4.412   6.412   2.028
 8343SOL     OW25927   1.581   5.900   5.393
 8343SOL    HW125928   1.628   5.971   5.446
 8343SOL    HW225929   1.636   5.877   5.313
 8344SOL     OW25930   4.811   6.328   4.886
 8344SOL    HW125931   4.730   6.383   4.867
 8344SOL    HW225932   4.869   6.324   4.805
 8345SOL     OW25933   4.293   1.552   3.116
 8345SOL    HW125934   4.315   1.612   3.039
 8345SOL    HW225935   4.255   1.467   3.081
 8346SOL     OW25936   3.278   5.039   0.924
 8346SOL    HW125937   3.369   5.048   0.963
 8346SOL    HW225938   3.264   4.945   0.894
 8347SOL     OW25939   3.282   5.475   4.738
 8347SOL    HW125940   3.234   5.394   4.706
 8347SOL    HW225941   3.358   5.448   4.797
 8348SOL     OW25942   2.387   0.460   2.569
 8348SOL    HW125943   2.338   0.516   2.502
 8348SOL    HW225944   2.355   0.483   2.661
 8349SOL     OW25945   5.673   6.409   1.643
 8349SOL    HW125946   5.634   6.344   1.708
 8349SOL    HW225947   5.608   6.423   1.567
 8350SOL     OW25948   4.316   6.747   5.625
 8350SOL    HW125949   4.336   6.658   5.666
 8350SOL    HW225950   4.343   6.819   5.689
 8351SOL     OW25951   5.268   4.603   4.362
 8351SOL    HW125952   5.212   4.520   4.365
 8351SOL    HW225953   5.303   4.624   4.453
 8352SOL     OW25954   0.716   0.060   3.303
 8352SOL    HW125955   0.749   0.147   3.342
 8352SOL    HW225956   0.621   0.071   3.275
 8353SOL     OW25957   0.061   2.985   1.312
 8353SOL    HW125958   0.064   3.002   1.410
 8353SOL    HW225959   0.039   3.070   1.264
 8354SOL     OW25960   3.685   6.649   6.427
 8354SOL    HW125961   3.650   6.651   6.333
 8354SOL    HW225962   3.706   6.554   6.452
 8355SOL     OW25963   2.841   0.988   6.516
 8355SOL    HW125964   2.928   0.996   6.565
 8355SOL    HW225965   2.854   1.012   6.420
 8356SOL     OW25966   1.106   6.126   1.051
 8356SOL    HW125967   1.128   6.171   1.137
 8356SOL    HW225968   1.040   6.182   1.000
 8357SOL     OW25969   4.203   0.195   4.864
 8357SOL    HW125970   4.300   0.188   4.840
 8357SOL    HW225971   4.169   0.106   4.893
 8358SOL     OW25972   0.919   4.323   5.686
 8358SOL    HW125973   0.894   4.243   5.632
 8358SOL    HW225974   0.924   4.404   5.627
 8359SOL     OW25975   2.902   0.906   5.118
 8359SOL    HW125976   2.890   0.922   5.216
 8359SOL    HW225977   2.996   0.877   5.100
 8360SOL     OW25978   2.877   6.021   1.700
 8360SOL    HW125979   2.938   5.986   1.629
 8360SOL    HW225980   2.786   6.037   1.662
 8361SOL     OW25981   3.306   0.295   2.481
 8361SOL    HW125982   3.317   0.388   2.443
 8361SOL    HW225983   3.386   0.271   2.535
 8362SOL     OW25984   3.786   2.089   0.646
 8362SOL    HW125985   3.722   2.165   0.633
 8362SOL    HW225986   3.853   2.090   0.572
 8363SOL     OW25987   0.238   2.756   6.375
 8363SOL    HW125988   0.253   2.657   6.366
 8363SOL    HW225989   0.141   2.773   6.395
 8364SOL     OW25990   0.973   3.197   2.598
 8364SOL    HW125991   1.022   3.266   2.546
 8364SOL    HW225992   1.012   3.190   2.690
 8365SOL     OW25993   2.225   4.368   1.804
 8365SOL    HW125994   2.245   4.352   1.900
 8365SOL    HW225995   2.135   4.332   1.781
 8366SOL     OW25996   2.054   5.906   1.842
 8366SOL    HW125997   2.013   5.951   1.921
 8366SOL    HW225998   2.092   5.817   1.869
 8367SOL     OW25999   4.072   6.414   3.786
 8367SOL    HW126000   4.016   6.475   3.842
 8367SOL    HW226001   4.069   6.444   3.691
 8368SOL     OW26002   2.285   6.387   6.806
 8368SOL    HW126003   2.207   6.441   6.836
 8368SOL    HW226004   2.253   6.303   6.763
 8369SOL     OW26005   2.288   6.811   6.645
 8369SOL    HW126006   2.345   6.729   6.644
 8369SOL    HW226007   2.346   6.892   6.643
 8370SOL     OW26008   2.754   1.868   5.527
 8370SOL    HW126009   2.820   1.943   5.526
 8370SOL    HW226010   2.661   1.906   5.537
 8371SOL     OW26011   2.101   4.123   0.832
 8371SOL    HW126012   2.169   4.064   0.875
 8371SOL    HW226013   2.028   4.143   0.898
 8372SOL     OW26014   0.571   5.332   2.172
 8372SOL    HW126015   0.519   5.248   2.188
 8372SOL    HW226016   0.565   5.391   2.253
 8373SOL     OW26017   1.463   6.983   3.671
 8373SOL    HW126018   1.369   6.976   3.705
 8373SOL    HW226019   1.511   6.898   3.692
 8374SOL     OW26020   6.701   0.919   5.470
 8374SOL    HW126021   6.772   0.864   5.425
 8374SOL    HW226022   6.726   0.933   5.566
 8375SOL     OW26023   3.927   6.780   4.966
 8375SOL    HW126024   3.958   6.687   4.948
 8375SOL    HW226025   3.838   6.795   4.922
 8376SOL     OW26026   1.705   0.582   4.329
 8376SOL    HW126027   1.716   0.599   4.232
 8376SOL    HW226028   1.610   0.597   4.355
 8377SOL     OW26029   5.348   6.093   1.361
 8377SOL    HW126030   5.388   6.127   1.446
 8377SOL    HW226031   5.256   6.059   1.379
 8378SOL     OW26032   4.277   4.658   2.709
 8378SOL    HW126033   4.268   4.561   2.688
 8378SOL    HW226034   4.267   4.672   2.807
 8379SOL     OW26035   6.002   2.363   1.245
 8379SOL    HW126036   6.028   2.316   1.329
 8379SOL    HW226037   5.963   2.298   1.180
 8380SOL     OW26038   0.035   0.246   2.337
 8380SOL    HW126039   0.066   0.185   2.410
 8380SOL    HW226040   6.953   0.241   2.329
 8381SOL     OW26041   6.918   2.780   5.117
 8381SOL    HW126042   6.967   2.828   5.190
 8381SOL    HW226043   6.955   2.807   5.029
 8382SOL     OW26044   2.653   0.729   2.633
 8382SOL    HW126045   2.554   0.724   2.616
 8382SOL    HW226046   2.670   0.779   2.718
 8383SOL     OW26047   2.095   6.975   5.587
 8383SOL    HW126048   2.136   0.033   5.536
 8383SOL    HW226049   2.144   6.890   5.567
 8384SOL     OW26050   0.017   0.763   0.684
 8384SOL    HW126051   6.950   0.816   0.694
 8384SOL    HW226052   0.031   0.707   0.765
 8385SOL     OW26053   6.440   1.708   1.131
 8385SOL    HW126054   6.531   1.746   1.113
 8385SOL    HW226055   6.448   1.632   1.195
 8386SOL     OW26056   1.581   5.024   1.770
 8386SOL    HW126057   1.498   5.074   1.794
 8386SOL    HW226058   1.555   4.941   1.720
 8387SOL     OW26059   1.802   1.218   2.368
 8387SOL    HW126060   1.742   1.298   2.368
 8387SOL    HW226061   1.747   1.135   2.354
 8388SOL     OW26062   2.565   6.302   0.581
 8388SOL    HW126063   2.584   6.377   0.519
 8388SOL    HW226064   2.552   6.337   0.674
 8389SOL     OW26065   6.930   2.897   3.031
 8389SOL    HW126066   6.832   2.914   3.028
 8389SOL    HW226067   6.962   2.863   2.943
 8390SOL     OW26068   3.946   1.265   6.043
 8390SOL    HW126069   4.032   1.214   6.037
 8390SOL    HW226070   3.882   1.217   6.103
 8391SOL     OW26071   6.527   4.963   0.874
 8391SOL    HW126072   6.523   4.992   0.969
 8391SOL    HW226073   6.451   4.903   0.853
 8392SOL     OW26074   6.429   3.378   4.614
 8392SOL    HW126075   6.349   3.332   4.576
 8392SOL    HW226076   6.465   3.444   4.548
 8393SOL     OW26077   0.102   0.105   3.112
 8393SOL    HW126078   0.016   0.101   3.163
 8393SOL    HW226079   0.172   0.052   3.158
 8394SOL     OW26080   6.246   2.515   0.898
 8394SOL    HW126081   6.313   2.561   0.841
 8394SOL    HW226082   6.197   2.446   0.844
 8395SOL     OW26083   2.990   6.998   5.559
 8395SOL    HW126084   3.016   0.018   5.648
 8395SOL    HW226085   2.917   0.035   5.519
 8396SOL     OW26086   4.655   5.790   3.392
 8396SOL    HW126087   4.741   5.749   3.363
 8396SOL    HW226088   4.669   5.887   3.409
 8397SOL     OW26089   1.442   0.673   2.375
 8397SOL    HW126090   1.448   0.752   2.436
 8397SOL    HW226091   1.446   0.704   2.280
 8398SOL     OW26092   3.800   2.202   6.027
 8398SOL    HW126093   3.776   2.293   6.060
 8398SOL    HW226094   3.895   2.181   6.052
 8399SOL     OW26095   5.682   0.038   6.859
 8399SOL    HW126096   5.618   7.008   6.919
 8399SOL    HW226097   5.761   6.997   6.841
 8400SOL     OW26098   1.909   0.920   3.954
 8400SOL    HW126099   1.947   0.980   4.024
 8400SOL    HW226100   1.843   0.971   3.899
 8401SOL     OW26101   2.437   1.273   5.264
 8401SOL    HW126102   2.444   1.332   5.183
 8401SOL    HW226103   2.440   1.177   5.235
 8402SOL     OW26104   4.901   1.983   6.432
 8402SOL    HW126105   4.953   2.043   6.371
 8402SOL    HW226106   4.936   1.890   6.423
 8403SOL     OW26107   6.857   3.425   4.173
 8403SOL    HW126108   6.860   3.340   4.225
 8403SOL    HW226109   6.763   3.458   4.169
 8404SOL     OW26110   3.670   6.473   5.769
 8404SOL    HW126111   3.749   6.436   5.819
 8404SOL    HW226112   3.663   6.427   5.680
 8405SOL     OW26113   2.179   1.560   5.602
 8405SOL    HW126114   2.249   1.584   5.535
 8405SOL    HW226115   2.223   1.526   5.685
 8406SOL     OW26116   4.091   0.620   0.023
 8406SOL    HW126117   4.155   0.572   0.084
 8406SOL    HW226118   4.141   0.685   6.983
 8407SOL     OW26119   3.541   6.360   3.137
 8407SOL    HW126120   3.552   6.288   3.069
 8407SOL    HW226121   3.563   6.324   3.227
 8408SOL     OW26122   5.482   4.008   1.348
 8408SOL    HW126123   5.581   4.020   1.358
 8408SOL    HW226124   5.460   3.911   1.343
 8409SOL     OW26125   4.825   1.386   3.360
 8409SOL    HW126126   4.743   1.398   3.304
 8409SOL    HW226127   4.896   1.450   3.330
 8410SOL     OW26128   5.794   0.754   1.497
 8410SOL    HW126129   5.789   0.670   1.443
 8410SOL    HW226130   5.716   0.758   1.559
 8411SOL     OW26131   0.912   5.076   0.199
 8411SOL    HW126132   0.877   4.997   0.248
 8411SOL    HW226133   0.850   5.100   0.124
 8412SOL     OW26134   3.373   2.657   1.090
 8412SOL    HW126135   3.424   2.651   1.176
 8412SOL    HW226136   3.304   2.584   1.087
 8413SOL     OW26137   4.747   5.770   6.759
 8413SOL    HW126138   4.685   5.693   6.772
 8413SOL    HW226139   4.782   5.800   6.847
 8414SOL     OW26140   3.481   6.953   3.661
 8414SOL    HW126141   3.466   6.872   3.605
 8414SOL    HW226142   3.578   6.959   3.686
 8415SOL     OW26143   0.520   5.985   3.993
 8415SOL    HW126144   0.485   6.052   3.927
 8415SOL    HW226145   0.609   6.015   4.027
 8416SOL     OW26146   5.961   2.600   3.025
 8416SOL    HW126147   5.891   2.610   3.096
 8416SOL    HW226148   6.051   2.610   3.066
 8417SOL     OW26149   0.911   3.267   5.700
 8417SOL    HW126150   0.900   3.308   5.790
 8417SOL    HW226151   1.006   3.279   5.669
 8418SOL     OW26152   6.038   5.530   1.338
 8418SOL    HW126153   6.093   5.606   1.305
 8418SOL    HW226154   6.067   5.445   1.293
 8419SOL     OW26155   5.692   0.369   1.908
 8419SOL    HW126156   5.632   0.289   1.905
 8419SOL    HW226157   5.770   0.354   1.846
 8420SOL     OW26158   4.196   0.151   0.724
 8420SOL    HW126159   4.199   0.091   0.644
 8420SOL    HW226160   4.148   0.235   0.700
 8421SOL     OW26161   3.116   5.726   0.099
 8421SOL    HW126162   3.121   5.820   0.066
 8421SOL    HW226163   3.117   5.663   0.021
 8422SOL     OW26164   4.179   1.317   2.017
 8422SOL    HW126165   4.247   1.285   2.082
 8422SOL    HW226166   4.185   1.417   2.009
 8423SOL     OW26167   3.306   5.141   5.959
 8423SOL    HW126168   3.280   5.231   5.924
 8423SOL    HW226169   3.224   5.092   5.990
 8424SOL     OW26170   1.861   2.189   2.523
 8424SOL    HW126171   1.766   2.156   2.523
 8424SOL    HW226172   1.923   2.111   2.510
 8425SOL     OW26173   4.378   4.689   5.899
 8425SOL    HW126174   4.439   4.681   5.821
 8425SOL    HW226175   4.420   4.648   5.980
 8426SOL     OW26176   3.852   3.371   3.064
 8426SOL    HW126177   3.773   3.325   3.105
 8426SOL    HW226178   3.933   3.355   3.120
 8427SOL     OW26179   3.935   3.978   3.844
 8427SOL    HW126180   3.837   3.996   3.836
 8427SOL    HW226181   3.985   4.065   3.847
 8428SOL     OW26182   0.487   5.998   1.325
 8428SOL    HW126183   0.532   5.997   1.236
 8428SOL    HW226184   0.529   5.930   1.385
 8429SOL     OW26185   1.733   6.165   5.188
 8429SOL    HW126186   1.723   6.252   5.237
 8429SOL    HW226187   1.794   6.105   5.238
 8430SOL     OW26188   3.533   5.163   3.956
 8430SOL    HW126189   3.603   5.193   3.892
 8430SOL    HW226190   3.444   5.162   3.911
 8431SOL     OW26191   3.673   3.667   0.840
 8431SOL    HW126192   3.724   3.633   0.761
 8431SOL    HW226193   3.694   3.610   0.920
 8432SOL     OW26194   5.885   6.223   5.176
 8432SOL    HW126195   5.985   6.234   5.179
 8432SOL    HW226196   5.859   6.183   5.088
 8433SOL     OW26197   4.254   2.916   0.570
 8433SOL    HW126198   4.182   2.879   0.628
 8433SOL    HW226199   4.335   2.857   0.575
 8434SOL     OW26200   2.728   0.494   4.610
 8434SOL    HW126201   2.681   0.438   4.678
 8434SOL    HW226202   2.783   0.564   4.656
 8435SOL     OW26203   6.083   0.699   1.800
 8435SOL    HW126204   6.167   0.652   1.826
 8435SOL    HW226205   6.019   0.697   1.877
 8436SOL     OW26206   3.199   6.346   3.345
 8436SOL    HW126207   3.144   6.266   3.320
 8436SOL    HW226208   3.174   6.376   3.437
 8437SOL     OW26209   2.170   1.083   3.852
 8437SOL    HW126210   2.193   1.127   3.939
 8437SOL    HW226211   2.159   0.985   3.867
 8438SOL     OW26212   2.091   4.245   2.541
 8438SOL    HW126213   2.117   4.221   2.634
 8438SOL    HW226214   2.005   4.200   2.517
 8439SOL     OW26215   5.695   5.116   2.726
 8439SOL    HW126216   5.632   5.185   2.762
 8439SOL    HW226217   5.782   5.122   2.775
 8440SOL     OW26218   2.219   1.477   3.756
 8440SOL    HW126219   2.224   1.444   3.850
 8440SOL    HW226220   2.203   1.576   3.756
 8441SOL     OW26221   5.319   6.947   0.354
 8441SOL    HW126222   5.312   6.847   0.354
 8441SOL    HW226223   5.298   6.982   0.262
 8442SOL     OW26224   3.508   2.401   5.447
 8442SOL    HW126225   3.427   2.345   5.429
 8442SOL    HW226226   3.576   2.346   5.495
 8443SOL     OW26227   2.456   4.441   3.723
 8443SOL    HW126228   2.451   4.509   3.650
 8443SOL    HW226229   2.506   4.479   3.801
 8444SOL     OW26230   3.122   6.655   4.472
 8444SOL    HW126231   3.062   6.726   4.509
 8444SOL    HW226232   3.072   6.600   4.405
 8445SOL     OW26233   2.783   0.478   1.464
 8445SOL    HW126234   2.879   0.454   1.446
 8445SOL    HW226235   2.774   0.508   1.559
 8446SOL     OW26236   5.504   5.674   5.894
 8446SOL    HW126237   5.488   5.603   5.962
 8446SOL    HW226238   5.486   5.764   5.935
 8447SOL     OW26239   4.484   1.735   2.394
 8447SOL    HW126240   4.568   1.763   2.347
 8447SOL    HW226241   4.464   1.801   2.467
 8448SOL     OW26242   3.921   6.302   4.034
 8448SOL    HW126243   3.854   6.239   3.995
 8448SOL    HW226244   3.902   6.395   4.001
 8449SOL     OW26245   6.959   3.596   3.777
 8449SOL    HW126246   6.945   3.519   3.838
 8449SOL    HW226247   6.968   3.562   3.683
 8450SOL     OW26248   0.758   0.264   1.402
 8450SOL    HW126249   0.835   0.305   1.351
 8450SOL    HW226250   0.673   0.280   1.352
 8451SOL     OW26251   3.321   1.664   0.437
 8451SOL    HW126252   3.364   1.622   0.517
 8451SOL    HW226253   3.280   1.751   0.463
 8452SOL     OW26254   6.231   2.446   3.692
 8452SOL    HW126255   6.285   2.378   3.742
 8452SOL    HW226256   6.248   2.436   3.594
 8453SOL     OW26257   0.362   4.955   0.178
 8453SOL    HW126258   0.322   5.046   0.192
 8453SOL    HW226259   0.338   4.922   0.087
 8454SOL     OW26260   0.113   5.765   1.389
 8454SOL    HW126261   0.015   5.779   1.401
 8454SOL    HW226262   0.163   5.836   1.438
 8455SOL     OW26263   6.977   1.786   1.889
 8455SOL    HW126264   0.017   1.835   1.956
 8455SOL    HW226265   7.009   1.692   1.881
 8456SOL     OW26266   4.131   6.171   3.305
 8456SOL    HW126267   4.035   6.200   3.300
 8456SOL    HW226268   4.143   6.088   3.250
 8457SOL     OW26269   0.283   7.012   4.475
 8457SOL    HW126270   0.332   6.950   4.413
 8457SOL    HW226271   0.233   6.958   4.543
 8458SOL     OW26272   3.085   0.651   0.507
 8458SOL    HW126273   3.087   0.653   0.407
 8458SOL    HW226274   3.129   0.733   0.544
 8459SOL     OW26275   2.869   5.559   2.300
 8459SOL    HW126276   2.832   5.505   2.376
 8459SOL    HW226277   2.965   5.535   2.287
 8460SOL     OW26278   4.426   4.385   5.301
 8460SOL    HW126279   4.339   4.415   5.262
 8460SOL    HW226280   4.414   4.294   5.342
 8461SOL     OW26281   0.503   3.375   4.878
 8461SOL    HW126282   0.418   3.368   4.827
 8461SOL    HW226283   0.574   3.414   4.820
 8462SOL     OW26284   2.321   2.541   6.659
 8462SOL    HW126285   2.240   2.548   6.718
 8462SOL    HW226286   2.359   2.632   6.643
 8463SOL     OW26287   0.210   6.963   1.436
 8463SOL    HW126288   0.149   6.884   1.434
 8463SOL    HW226289   0.182   0.007   1.510
 8464SOL     OW26290   5.738   4.386   4.183
 8464SOL    HW126291   5.706   4.364   4.275
 8464SOL    HW226292   5.767   4.482   4.180
 8465SOL     OW26293   0.782   3.377   0.441
 8465SOL    HW126294   0.874   3.349   0.411
 8465SOL    HW226295   0.730   3.297   0.467
 8466SOL     OW26296   0.548   0.116   4.248
 8466SOL    HW126297   0.639   0.092   4.217
 8466SOL    HW226298   0.480   0.072   4.190
 8467SOL     OW26299   3.172   6.658   0.582
 8467SOL    HW126300   3.134   6.618   0.666
 8467SOL    HW226301   3.139   6.752   0.573
 8468SOL     OW26302   3.796   1.828   0.225
 8468SOL    HW126303   3.770   1.920   0.254
 8468SOL    HW226304   3.722   1.764   0.248
 8469SOL     OW26305   3.784   1.975   6.488
 8469SOL    HW126306   3.742   2.050   6.539
 8469SOL    HW226307   3.875   2.002   6.457
 8470SOL     OW26308   1.108   3.570   0.010
 8470SOL    HW126309   1.066   3.620   0.086
 8470SOL    HW226310   1.203   3.599   0.000
 8471SOL     OW26311   3.065   1.261   3.018
 8471SOL    HW126312   3.142   1.310   2.977
 8471SOL    HW226313   3.096   1.213   3.101
 8472SOL     OW26314   0.458   0.696   4.704
 8472SOL    HW126315   0.516   0.619   4.679
 8472SOL    HW226316   0.515   0.778   4.719
 8473SOL     OW26317   5.997   5.050   6.484
 8473SOL    HW126318   6.003   4.985   6.408
 8473SOL    HW226319   6.054   5.130   6.465
 8474SOL     OW26320   3.183   3.150   2.330
 8474SOL    HW126321   3.164   3.068   2.276
 8474SOL    HW226322   3.146   3.230   2.282
 8475SOL     OW26323   0.446   2.020   3.145
 8475SOL    HW126324   0.426   2.116   3.123
 8475SOL    HW226325   0.454   1.968   3.060
 8476SOL     OW26326   6.454   0.959   1.312
 8476SOL    HW126327   6.455   0.965   1.412
 8476SOL    HW226328   6.410   0.874   1.284
 8477SOL     OW26329   4.332   6.453   2.477
 8477SOL    HW126330   4.242   6.496   2.484
 8477SOL    HW226331   4.363   6.427   2.569
 8478SOL     OW26332   1.301   0.902   6.159
 8478SOL    HW126333   1.375   0.967   6.175
 8478SOL    HW226334   1.335   0.809   6.170
 8479SOL     OW26335   6.058   2.619   1.132
 8479SOL    HW126336   6.074   2.527   1.169
 8479SOL    HW226337   5.966   2.624   1.094
 8480SOL     OW26338   3.912   1.077   7.005
 8480SOL    HW126339   3.819   1.106   6.982
 8480SOL    HW226340   3.974   1.155   6.996
 8481SOL     OW26341   4.741   1.937   3.907
 8481SOL    HW126342   4.707   1.976   3.993
 8481SOL    HW226343   4.799   1.859   3.927
 8482SOL     OW26344   3.916   6.818   3.279
 8482SOL    HW126345   3.871   6.731   3.300
 8482SOL    HW226346   3.963   6.851   3.360
 8483SOL     OW26347   4.116   5.371   2.369
 8483SOL    HW126348   4.175   5.450   2.347
 8483SOL    HW226349   4.158   5.318   2.442
 8484SOL     OW26350   0.594   5.537   3.122
 8484SOL    HW126351   0.620   5.449   3.082
 8484SOL    HW226352   0.593   5.607   3.050
 8485SOL     OW26353   2.931   3.648   6.872
 8485SOL    HW126354   2.990   3.712   6.823
 8485SOL    HW226355   2.979   3.613   6.953
 8486SOL     OW26356   4.869   1.145   2.836
 8486SOL    HW126357   4.930   1.202   2.891
 8486SOL    HW226358   4.923   1.081   2.781
 8487SOL     OW26359   5.942   0.542   6.766
 8487SOL    HW126360   6.011   0.524   6.696
 8487SOL    HW226361   5.893   0.458   6.787
 8488SOL     OW26362   5.833   4.568   5.162
 8488SOL    HW126363   5.907   4.618   5.206
 8488SOL    HW226364   5.872   4.502   5.098
 8489SOL     OW26365   6.112   0.914   1.082
 8489SOL    HW126366   6.133   0.866   0.997
 8489SOL    HW226367   6.045   0.862   1.134
 8490SOL     OW26368   4.329   6.860   4.384
 8490SOL    HW126369   4.397   6.931   4.399
 8490SOL    HW226370   4.364   6.793   4.318
 8491SOL     OW26371   1.767   0.059   1.224
 8491SOL    HW126372   1.747   0.141   1.278
 8491SOL    HW226373   1.685   0.002   1.219
 8492SOL     OW26374   4.161   3.987   6.909
 8492SOL    HW126375   4.237   4.042   6.875
 8492SOL    HW226376   4.158   3.992   7.009
 8493SOL     OW26377   2.724   1.961   6.192
 8493SOL    HW126378   2.816   1.991   6.217
 8493SOL    HW226379   2.729   1.890   6.123
 8494SOL     OW26380   2.965   4.965   0.640
 8494SOL    HW126381   2.939   4.951   0.735
 8494SOL    HW226382   3.021   5.047   0.631
 8495SOL     OW26383   6.515   3.959   0.912
 8495SOL    HW126384   6.610   3.964   0.944
 8495SOL    HW226385   6.514   3.967   0.812
 8496SOL     OW26386   0.489   2.009   1.739
 8496SOL    HW126387   0.492   2.019   1.640
 8496SOL    HW226388   0.543   2.081   1.782
 8497SOL     OW26389   6.463   0.790   3.818
 8497SOL    HW126390   6.400   0.744   3.881
 8497SOL    HW226391   6.522   0.852   3.870
 8498SOL     OW26392   0.419   5.888   2.636
 8498SOL    HW126393   0.364   5.813   2.673
 8498SOL    HW226394   0.367   5.936   2.565
 8499SOL     OW26395   2.598   5.286   6.958
 8499SOL    HW126396   2.533   5.271   6.883
 8499SOL    HW226397   2.599   5.206   0.000
 8500SOL     OW26398   2.199   0.194   5.466
 8500SOL    HW126399   2.296   0.215   5.465
 8500SOL    HW226400   2.152   0.254   5.531
 8501SOL     OW26401   0.610   2.877   0.327
 8501SOL    HW126402   0.695   2.890   0.276
 8501SOL    HW226403   0.569   2.790   0.302
 8502SOL     OW26404   1.485   5.000   1.149
 8502SOL    HW126405   1.579   5.026   1.124
 8502SOL    HW226406   1.446   5.070   1.208
 8503SOL     OW26407   1.336   6.392   3.434
 8503SOL    HW126408   1.321   6.293   3.442
 8503SOL    HW226409   1.249   6.440   3.450
 8504SOL     OW26410   2.375   5.695   3.555
 8504SOL    HW126411   2.284   5.711   3.592
 8504SOL    HW226412   2.401   5.600   3.568
 8505SOL     OW26413   4.952   3.869   3.720
 8505SOL    HW126414   5.029   3.913   3.767
 8505SOL    HW226415   4.945   3.774   3.749
 8506SOL     OW26416   6.646   0.846   0.144
 8506SOL    HW126417   6.609   0.888   0.061
 8506SOL    HW226418   6.721   0.902   0.179
 8507SOL     OW26419   3.094   1.197   5.600
 8507SOL    HW126420   3.162   1.139   5.646
 8507SOL    HW226421   3.049   1.255   5.667
 8508SOL     OW26422   6.962   2.550   4.971
 8508SOL    HW126423   6.954   2.624   5.037
 8508SOL    HW226424   6.998   2.468   5.016
 8509SOL     OW26425   4.999   1.799   3.469
 8509SOL    HW126426   4.959   1.723   3.418
 8509SOL    HW226427   4.947   1.815   3.553
 8510SOL     OW26428   5.135   4.236   3.090
 8510SOL    HW126429   5.116   4.260   3.186
 8510SOL    HW226430   5.226   4.271   3.065
 8511SOL     OW26431   5.989   4.127   1.999
 8511SOL    HW126432   5.909   4.145   1.942
 8511SOL    HW226433   6.068   4.109   1.940
 8512SOL     OW26434   2.977   2.388   0.892
 8512SOL    HW126435   2.877   2.390   0.889
 8512SOL    HW226436   3.006   2.341   0.975
 8513SOL     OW26437   4.977   4.209   1.587
 8513SOL    HW126438   4.975   4.200   1.687
 8513SOL    HW226439   5.072   4.214   1.556
 8514SOL     OW26440   2.852   1.714   3.967
 8514SOL    HW126441   2.910   1.776   3.915
 8514SOL    HW226442   2.892   1.699   4.058
 8515SOL     OW26443   6.070   1.455   6.647
 8515SOL    HW126444   5.972   1.439   6.655
 8515SOL    HW226445   6.116   1.367   6.630
 8516SOL     OW26446   6.801   1.579   1.180
 8516SOL    HW126447   6.773   1.675   1.176
 8516SOL    HW226448   6.830   1.549   1.090
 8517SOL     OW26449   1.732   3.229   6.435
 8517SOL    HW126450   1.760   3.173   6.514
 8517SOL    HW226451   1.645   3.195   6.400
 8518SOL     OW26452   4.901   4.551   6.329
 8518SOL    HW126453   4.862   4.637   6.294
 8518SOL    HW226454   4.964   4.513   6.262
 8519SOL     OW26455   1.625   4.786   1.398
 8519SOL    HW126456   1.675   4.704   1.425
 8519SOL    HW226457   1.667   4.825   1.316
 8520SOL     OW26458   3.298   3.478   6.669
 8520SOL    HW126459   3.396   3.497   6.656
 8520SOL    HW226460   3.280   3.466   6.767
 8521SOL     OW26461   2.364   4.748   5.659
 8521SOL    HW126462   2.359   4.836   5.706
 8521SOL    HW226463   2.376   4.675   5.725
 8522SOL     OW26464   1.632   6.392   1.340
 8522SOL    HW126465   1.722   6.435   1.350
 8522SOL    HW226466   1.564   6.445   1.391
 8523SOL     OW26467   1.925   6.452   6.636
 8523SOL    HW126468   2.002   6.397   6.667
 8523SOL    HW226469   1.871   6.480   6.716
 8524SOL     OW26470   0.302   2.308   5.425
 8524SOL    HW126471   0.245   2.235   5.462
 8524SOL    HW226472   0.383   2.319   5.483
 8525SOL     OW26473   6.227   3.979   1.845
 8525SOL    HW126474   6.303   4.032   1.807
 8525SOL    HW226475   6.241   3.965   1.943
 8526SOL     OW26476   4.201   6.416   6.828
 8526SOL    HW126477   4.296   6.412   6.798
 8526SOL    HW226478   4.183   6.340   6.891
 8527SOL     OW26479   3.036   1.090   6.669
 8527SOL    HW126480   2.980   1.173   6.673
 8527SOL    HW226481   3.125   1.113   6.630
 8528SOL     OW26482   4.252   1.114   6.822
 8528SOL    HW126483   4.234   1.019   6.849
 8528SOL    HW226484   4.346   1.138   6.844
 8529SOL     OW26485   1.229   6.890   0.758
 8529SOL    HW126486   1.321   6.888   0.720
 8529SOL    HW226487   1.232   6.918   0.854
 8530SOL     OW26488   4.150   3.963   5.557
 8530SOL    HW126489   4.105   3.904   5.623
 8530SOL    HW226490   4.140   4.058   5.585
 8531SOL     OW26491   6.093   4.939   2.401
 8531SOL    HW126492   6.130   4.975   2.316
 8531SOL    HW226493   6.113   5.002   2.476
 8532SOL     OW26494   4.408   5.251   4.578
 8532SOL    HW126495   4.471   5.327   4.594
 8532SOL    HW226496   4.426   5.211   4.488
 8533SOL     OW26497   1.966   6.116   0.293
 8533SOL    HW126498   1.920   6.029   0.311
 8533SOL    HW226499   2.053   6.118   0.342
 8534SOL     OW26500   6.011   2.436   4.279
 8534SOL    HW126501   6.095   2.490   4.282
 8534SOL    HW226502   5.947   2.478   4.214
 8535SOL     OW26503   6.392   0.962   3.283
 8535SOL    HW126504   6.300   0.993   3.306
 8535SOL    HW226505   6.433   0.914   3.361
 8536SOL     OW26506   6.985   2.286   4.563
 8536SOL    HW126507   0.039   2.253   4.624
 8536SOL    HW226508   0.005   2.356   4.502
 8537SOL     OW26509   5.793   0.517   3.201
 8537SOL    HW126510   5.853   0.474   3.134
 8537SOL    HW226511   5.754   0.601   3.163
 8538SOL     OW26512   1.245   0.961   0.349
 8538SOL    HW126513   1.213   0.953   0.254
 8538SOL    HW226514   1.331   0.911   0.359
 8539SOL     OW26515   6.170   0.821   2.708
 8539SOL    HW126516   6.134   0.878   2.634
 8539SOL    HW226517   6.129   0.729   2.702
 8540SOL     OW26518   5.044   0.597   6.302
 8540SOL    HW126519   5.019   0.667   6.368
 8540SOL    HW226520   4.974   0.592   6.231
 8541SOL     OW26521   2.604   1.712   3.850
 8541SOL    HW126522   2.696   1.716   3.890
 8541SOL    HW226523   2.586   1.620   3.816
 8542SOL     OW26524   4.343   4.655   6.483
 8542SOL    HW126525   4.301   4.633   6.571
 8542SOL    HW226526   4.314   4.588   6.414
 8543SOL     OW26527   2.680   1.405   1.223
 8543SOL    HW126528   2.773   1.373   1.244
 8543SOL    HW226529   2.638   1.442   1.306
 8544SOL     OW26530   5.347   3.231   3.842
 8544SOL    HW126531   5.401   3.150   3.817
 8544SOL    HW226532   5.310   3.274   3.759
 8545SOL     OW26533   4.782   0.073   5.008
 8545SOL    HW126534   4.692   0.044   4.975
 8545SOL    HW226535   4.774   0.110   5.100
 8546SOL     OW26536   5.822   1.795   4.208
 8546SOL    HW126537   5.741   1.854   4.210
 8546SOL    HW226538   5.902   1.850   4.183
 8547SOL     OW26539   1.376   6.694   6.056
 8547SOL    HW126540   1.384   6.643   5.970
 8547SOL    HW226541   1.317   6.643   6.119
 8548SOL     OW26542   5.974   2.329   6.228
 8548SOL    HW126543   6.066   2.359   6.201
 8548SOL    HW226544   5.923   2.406   6.265
 8549SOL     OW26545   1.157   2.972   4.033
 8549SOL    HW126546   1.075   2.967   4.089
 8549SOL    HW226547   1.132   2.997   3.939
 8550SOL     OW26548   1.844   4.620   0.193
 8550SOL    HW126549   1.944   4.611   0.188
 8550SOL    HW226550   1.820   4.693   0.257
 8551SOL     OW26551   3.667   3.936   6.007
 8551SOL    HW126552   3.687   3.843   5.976
 8551SOL    HW226553   3.574   3.940   6.042
 8552SOL     OW26554   1.929   6.877   3.668
 8552SOL    HW126555   1.898   6.783   3.661
 8552SOL    HW226556   1.851   6.938   3.675
 8553SOL     OW26557   5.135   4.828   6.417
 8553SOL    HW126558   5.224   4.812   6.459
 8553SOL    HW226559   5.146   4.885   6.336
 8554SOL     OW26560   0.775   4.887   0.407
 8554SOL    HW126561   0.682   4.915   0.432
 8554SOL    HW226562   0.773   4.837   0.320
 8555SOL     OW26563   1.569   0.602   2.092
 8555SOL    HW126564   1.512   0.681   2.070
 8555SOL    HW226565   1.656   0.633   2.128
 8556SOL     OW26566   0.763   6.753   5.048
 8556SOL    HW126567   0.756   6.695   4.967
 8556SOL    HW226568   0.683   6.814   5.051
 8557SOL     OW26569   5.926   7.014   2.658
 8557SOL    HW126570   5.868   0.078   2.665
 8557SOL    HW226571   5.937   6.989   2.562
 8558SOL     OW26572   2.693   5.656   3.472
 8558SOL    HW126573   2.701   5.756   3.471
 8558SOL    HW226574   2.775   5.617   3.429
 8559SOL     OW26575   6.751   0.282   2.045
 8559SOL    HW126576   6.750   0.204   2.108
 8559SOL    HW226577   6.834   0.278   1.989
 8560SOL     OW26578   0.245   6.196   2.020
 8560SOL    HW126579   0.203   6.265   1.961
 8560SOL    HW226580   0.315   6.239   2.076
 8561SOL     OW26581   3.515   0.394   2.226
 8561SOL    HW126582   3.527   0.315   2.285
 8561SOL    HW226583   3.429   0.385   2.175
 8562SOL     OW26584   3.955   6.254   5.006
 8562SOL    HW126585   3.999   6.239   5.095
 8562SOL    HW226586   4.001   6.198   4.937
 8563SOL     OW26587   2.871   4.659   0.200
 8563SOL    HW126588   2.920   4.664   0.287
 8563SOL    HW226589   2.925   4.606   0.135
 8564SOL     OW26590   3.230   1.248   4.022
 8564SOL    HW126591   3.194   1.280   3.934
 8564SOL    HW226592   3.328   1.267   4.027
 8565SOL     OW26593   4.259   5.717   1.044
 8565SOL    HW126594   4.246   5.619   1.059
 8565SOL    HW226595   4.172   5.759   1.019
 8566SOL     OW26596   1.209   0.612   1.263
 8566SOL    HW126597   1.137   0.680   1.253
 8566SOL    HW226598   1.260   0.629   1.348
 8567SOL     OW26599   6.753   1.572   2.653
 8567SOL    HW126600   6.756   1.558   2.751
 8567SOL    HW226601   6.690   1.507   2.611
 8568SOL     OW26602   5.593   1.409   5.865
 8568SOL    HW126603   5.560   1.408   5.960
 8568SOL    HW226604   5.617   1.315   5.838
 8569SOL     OW26605   4.883   1.589   5.802
 8569SOL    HW126606   4.795   1.541   5.797
 8569SOL    HW226607   4.936   1.554   5.880
 8570SOL     OW26608   1.012   2.415   5.174
 8570SOL    HW126609   0.924   2.380   5.142
 8570SOL    HW226610   1.084   2.387   5.110
 8571SOL     OW26611   1.303   5.155   5.631
 8571SOL    HW126612   1.224   5.211   5.656
 8571SOL    HW226613   1.313   5.081   5.697
 8572SOL     OW26614   3.573   5.009   6.426
 8572SOL    HW126615   3.671   4.997   6.441
 8572SOL    HW226616   3.533   5.061   6.501
 8573SOL     OW26617   3.304   6.397   5.854
 8573SOL    HW126618   3.207   6.390   5.832
 8573SOL    HW226619   3.343   6.477   5.808
 8574SOL     OW26620   0.075   5.628   5.798
 8574SOL    HW126621   0.002   5.643   5.731
 8574SOL    HW226622   0.056   5.682   5.880
 8575SOL     OW26623   2.987   2.531   5.598
 8575SOL    HW126624   2.943   2.605   5.548
 8575SOL    HW226625   3.012   2.458   5.534
 8576SOL     OW26626   1.706   5.832   6.861
 8576SOL    HW126627   1.786   5.891   6.867
 8576SOL    HW226628   1.727   5.742   6.899
 8577SOL     OW26629   0.572   6.240   4.304
 8577SOL    HW126630   0.626   6.250   4.388
 8577SOL    HW226631   0.625   6.190   4.236
 8578SOL     OW26632   5.571   0.846   4.563
 8578SOL    HW126633   5.485   0.796   4.570
 8578SOL    HW226634   5.574   0.917   4.634
 8579SOL     OW26635   1.373   0.148   3.150
 8579SOL    HW126636   1.447   0.209   3.122
 8579SOL    HW226637   1.357   0.160   3.248
 8580SOL     OW26638   2.325   6.700   2.533
 8580SOL    HW126639   2.387   6.731   2.461
 8580SOL    HW226640   2.373   6.698   2.621
 8581SOL     OW26641   3.165   3.334   1.951
 8581SOL    HW126642   3.174   3.433   1.966
 8581SOL    HW226643   3.075   3.304   1.982
 8582SOL     OW26644   4.049   4.820   2.702
 8582SOL    HW126645   3.998   4.813   2.787
 8582SOL    HW226646   4.131   4.764   2.707
 8583SOL     OW26647   5.763   0.342   5.097
 8583SOL    HW126648   5.693   0.410   5.118
 8583SOL    HW226649   5.722   0.251   5.096
 8584SOL     OW26650   0.021   3.604   5.879
 8584SOL    HW126651   6.966   3.643   5.935
 8584SOL    HW226652   0.083   3.551   5.936
 8585SOL     OW26653   0.780   6.141   6.032
 8585SOL    HW126654   0.706   6.074   6.026
 8585SOL    HW226655   0.844   6.127   5.957
 8586SOL     OW26656   3.159   0.359   3.506
 8586SOL    HW126657   3.060   0.357   3.496
 8586SOL    HW226658   3.189   0.280   3.559
 8587SOL     OW26659   2.078   0.051   2.913
 8587SOL    HW126660   2.102   0.044   2.816
 8587SOL    HW226661   2.161   0.040   2.968
 8588SOL     OW26662   2.756   0.434   0.166
 8588SOL    HW126663   2.716   0.345   0.187
 8588SOL    HW226664   2.760   0.490   0.249
 8589SOL     OW26665   5.066   2.706   4.790
 8589SOL    HW126666   5.012   2.774   4.741
 8589SOL    HW226667   5.142   2.751   4.837
 8590SOL     OW26668   6.756   6.580   3.938
 8590SOL    HW126669   6.725   6.527   4.016
 8590SOL    HW226670   6.727   6.535   3.853
 8591SOL     OW26671   0.516   4.491   6.409
 8591SOL    HW126672   0.613   4.464   6.412
 8591SOL    HW226673   0.487   4.521   6.500
 8592SOL     OW26674   0.265   3.169   6.799
 8592SOL    HW126675   0.215   3.132   6.721
 8592SOL    HW226676   0.361   3.141   6.793
 8593SOL     OW26677   1.856   0.511   2.097
 8593SOL    HW126678   1.940   0.566   2.099
 8593SOL    HW226679   1.799   0.536   2.175
 8594SOL     OW26680   3.562   3.039   5.134
 8594SOL    HW126681   3.484   3.090   5.169
 8594SOL    HW226682   3.646   3.069   5.179
 8595SOL     OW26683   1.803   2.230   2.940
 8595SOL    HW126684   1.706   2.252   2.943
 8595SOL    HW226685   1.852   2.284   3.009
 8596SOL     OW26686   6.281   5.347   3.543
 8596SOL    HW126687   6.290   5.427   3.602
 8596SOL    HW226688   6.368   5.330   3.496
 8597SOL     OW26689   4.544   1.269   1.005
 8597SOL    HW126690   4.502   1.238   1.090
 8597SOL    HW226691   4.550   1.192   0.941
 8598SOL     OW26692   6.926   5.742   0.865
 8598SOL    HW126693   6.894   5.827   0.906
 8598SOL    HW226694   0.008   5.738   0.870
 8599SOL     OW26695   1.016   2.324   3.749
 8599SOL    HW126696   0.997   2.271   3.832
 8599SOL    HW226697   0.930   2.342   3.701
 8600SOL     OW26698   5.553   4.974   5.584
 8600SOL    HW126699   5.524   4.898   5.525
 8600SOL    HW226700   5.637   4.950   5.632
 8601SOL     OW26701   0.709   0.776   5.048
 8601SOL    HW126702   0.645   0.850   5.066
 8601SOL    HW226703   0.768   0.762   5.128
 8602SOL     OW26704   3.303   5.671   3.587
 8602SOL    HW126705   3.389   5.720   3.600
 8602SOL    HW226706   3.283   5.663   3.489
 8603SOL     OW26707   3.924   5.601   0.530
 8603SOL    HW126708   3.922   5.577   0.433
 8603SOL    HW226709   3.955   5.522   0.584
 8604SOL     OW26710   0.548   3.352   3.784
 8604SOL    HW126711   0.512   3.267   3.747
 8604SOL    HW226712   0.534   3.355   3.883
 8605SOL     OW26713   3.130   5.075   4.465
 8605SOL    HW126714   3.125   5.069   4.365
 8605SOL    HW226715   3.039   5.061   4.504
 8606SOL     OW26716   1.770   4.429   6.294
 8606SOL    HW126717   1.787   4.518   6.336
 8606SOL    HW226718   1.772   4.439   6.194
 8607SOL     OW26719   3.624   5.786   0.769
 8607SOL    HW126720   3.545   5.769   0.711
 8607SOL    HW226721   3.637   5.710   0.832
 8608SOL     OW26722   4.577   4.819   3.311
 8608SOL    HW126723   4.527   4.892   3.358
 8608SOL    HW226724   4.674   4.825   3.334
 8609SOL     OW26725   5.298   0.980   3.248
 8609SOL    HW126726   5.323   1.043   3.322
 8609SOL    HW226727   5.281   1.031   3.164
 8610SOL     OW26728   1.592   1.545   2.436
 8610SOL    HW126729   1.534   1.611   2.483
 8610SOL    HW226730   1.633   1.483   2.503
 8611SOL     OW26731   2.101   2.062   4.088
 8611SOL    HW126732   2.112   1.971   4.049
 8611SOL    HW226733   2.010   2.097   4.067
 8612SOL     OW26734   3.398   3.151   0.457
 8612SOL    HW126735   3.447   3.068   0.482
 8612SOL    HW226736   3.303   3.129   0.434
 8613SOL     OW26737   2.365   2.079   1.506
 8613SOL    HW126738   2.392   2.017   1.580
 8613SOL    HW226739   2.440   2.086   1.440
 8614SOL     OW26740   0.713   3.273   2.879
 8614SOL    HW126741   0.655   3.351   2.902
 8614SOL    HW226742   0.710   3.256   2.781
 8615SOL     OW26743   5.013   1.505   5.523
 8615SOL    HW126744   5.012   1.569   5.600
 8615SOL    HW226745   4.987   1.553   5.439
 8616SOL     OW26746   2.518   5.130   1.257
 8616SOL    HW126747   2.434   5.137   1.310
 8616SOL    HW226748   2.580   5.204   1.284
 8617SOL     OW26749   0.032   1.045   6.649
 8617SOL    HW126750   0.067   1.107   6.579
 8617SOL    HW226751   6.957   1.073   6.674
 8618SOL     OW26752   6.011   6.442   1.103
 8618SOL    HW126753   5.943   6.491   1.048
 8618SOL    HW226754   5.966   6.391   1.176
 8619SOL     OW26755   3.310   4.852   2.128
 8619SOL    HW126756   3.358   4.894   2.052
 8619SOL    HW226757   3.308   4.753   2.116
 8620SOL     OW26758   0.989   0.360   3.654
 8620SOL    HW126759   1.011   0.332   3.748
 8620SOL    HW226760   0.891   0.347   3.638
 8621SOL     OW26761   6.247   1.182   3.160
 8621SOL    HW126762   6.198   1.096   3.147
 8621SOL    HW226763   6.295   1.206   3.075
 8622SOL     OW26764   4.838   3.721   0.319
 8622SOL    HW126765   4.920   3.667   0.336
 8622SOL    HW226766   4.863   3.818   0.316
 8623SOL     OW26767   0.895   4.038   3.374
 8623SOL    HW126768   0.970   4.050   3.309
 8623SOL    HW226769   0.825   3.979   3.334
 8624SOL     OW26770   1.259   3.846   4.006
 8624SOL    HW126771   1.168   3.875   3.977
 8624SOL    HW226772   1.326   3.871   3.936
 8625SOL     OW26773   4.928   6.811   4.534
 8625SOL    HW126774   4.870   6.766   4.467
 8625SOL    HW226775   4.889   6.801   4.625
 8626SOL     OW26776   3.795   2.910   4.973
 8626SOL    HW126777   3.698   2.930   4.989
 8626SOL    HW226778   3.813   2.909   4.875
 8627SOL     OW26779   0.276   1.042   3.513
 8627SOL    HW126780   0.334   1.112   3.470
 8627SOL    HW226781   0.216   1.003   3.444
 8628SOL     OW26782   5.856   0.184   1.014
 8628SOL    HW126783   5.894   0.197   0.923
 8628SOL    HW226784   5.913   0.120   1.066
 8629SOL     OW26785   1.441   4.970   5.461
 8629SOL    HW126786   1.387   5.047   5.495
 8629SOL    HW226787   1.473   4.989   5.368
 8630SOL     OW26788   5.753   4.412   3.878
 8630SOL    HW126789   5.675   4.356   3.849
 8630SOL    HW226790   5.794   4.371   3.959
 8631SOL     OW26791   3.008   5.862   6.058
 8631SOL    HW126792   2.963   5.836   6.144
 8631SOL    HW226793   3.100   5.823   6.056
 8632SOL     OW26794   3.036   6.935   3.977
 8632SOL    HW126795   3.069   0.011   3.973
 8632SOL    HW226796   3.113   6.871   3.969
 8633SOL     OW26797   5.666   1.622   4.399
 8633SOL    HW126798   5.746   1.646   4.454
 8633SOL    HW226799   5.671   1.670   4.311
 8634SOL     OW26800   5.375   3.218   0.547
 8634SOL    HW126801   5.474   3.216   0.531
 8634SOL    HW226802   5.328   3.174   0.470
 8635SOL     OW26803   6.060   4.571   6.309
 8635SOL    HW126804   5.975   4.561   6.258
 8635SOL    HW226805   6.090   4.667   6.306
 8636SOL     OW26806   5.030   5.859   0.657
 8636SOL    HW126807   5.077   5.815   0.733
 8636SOL    HW226808   5.016   5.793   0.583
 8637SOL     OW26809   2.117   1.141   0.090
 8637SOL    HW126810   2.164   1.203   0.027
 8637SOL    HW226811   2.152   1.048   0.078
 8638SOL     OW26812   2.878   2.844   6.868
 8638SOL    HW126813   2.784   2.877   6.861
 8638SOL    HW226814   2.927   2.864   6.784
 8639SOL     OW26815   5.773   1.916   1.824
 8639SOL    HW126816   5.763   1.971   1.742
 8639SOL    HW226817   5.757   1.973   1.905
 8640SOL     OW26818   4.452   4.024   0.866
 8640SOL    HW126819   4.370   3.981   0.903
 8640SOL    HW226820   4.443   4.034   0.767
 8641SOL     OW26821   6.133   5.053   4.127
 8641SOL    HW126822   6.195   5.076   4.052
 8641SOL    HW226823   6.046   5.100   4.115
 8642SOL     OW26824   3.600   1.028   2.835
 8642SOL    HW126825   3.568   1.122   2.820
 8642SOL    HW226826   3.621   0.986   2.746
 8643SOL     OW26827   3.489   0.500   6.395
 8643SOL    HW126828   3.528   0.441   6.466
 8643SOL    HW226829   3.419   0.559   6.435
 8644SOL     OW26830   4.565   2.428   5.680
 8644SOL    HW126831   4.494   2.436   5.610
 8644SOL    HW226832   4.524   2.393   5.765
 8645SOL     OW26833   4.641   4.324   1.247
 8645SOL    HW126834   4.695   4.286   1.172
 8645SOL    HW226835   4.701   4.340   1.326
 8646SOL     OW26836   6.448   1.200   1.868
 8646SOL    HW126837   6.502   1.258   1.806
 8646SOL    HW226838   6.383   1.257   1.918
 8647SOL     OW26839   2.614   5.363   5.879
 8647SOL    HW126840   2.667   5.330   5.956
 8647SOL    HW226841   2.524   5.319   5.878
 8648SOL     OW26842   6.195   0.746   3.722
 8648SOL    HW126843   6.284   0.703   3.705
 8648SOL    HW226844   6.207   0.845   3.726
 8649SOL     OW26845   5.454   4.325   6.762
 8649SOL    HW126846   5.357   4.325   6.737
 8649SOL    HW226847   5.505   4.383   6.698
 8650SOL     OW26848   2.258   4.235   6.176
 8650SOL    HW126849   2.303   4.309   6.125
 8650SOL    HW226850   2.194   4.187   6.117
 8651SOL     OW26851   3.435   0.959   0.852
 8651SOL    HW126852   3.338   0.957   0.825
 8651SOL    HW226853   3.490   0.917   0.780
 8652SOL     OW26854   1.418   3.845   3.768
 8652SOL    HW126855   1.422   3.938   3.731
 8652SOL    HW226856   1.422   3.779   3.694
 8653SOL     OW26857   5.691   1.172   6.747
 8653SOL    HW126858   5.670   1.077   6.724
 8653SOL    HW226859   5.697   1.226   6.662
 8654SOL     OW26860   1.116   5.615   1.190
 8654SOL    HW126861   1.216   5.618   1.194
 8654SOL    HW226862   1.079   5.589   1.279
 8655SOL     OW26863   5.945   1.480   3.445
 8655SOL    HW126864   6.031   1.435   3.470
 8655SOL    HW226865   5.873   1.452   3.508
 8656SOL     OW26866   6.319   0.881   0.299
 8656SOL    HW126867   6.299   0.949   0.370
 8656SOL    HW226868   6.382   0.921   0.232
 8657SOL     OW26869   4.987   4.770   0.346
 8657SOL    HW126870   5.072   4.729   0.314
 8657SOL    HW226871   4.970   4.741   0.440
 8658SOL     OW26872   4.000   6.519   6.961
 8658SOL    HW126873   3.984   6.615   6.939
 8658SOL    HW226874   4.083   6.487   6.915
 8659SOL     OW26875   4.183   1.753   3.269
 8659SOL    HW126876   4.209   1.742   3.365
 8659SOL    HW226877   4.222   1.678   3.216
 8660SOL     OW26878   5.826   3.786   0.913
 8660SOL    HW126879   5.754   3.744   0.969
 8660SOL    HW226880   5.796   3.791   0.818
 8661SOL     OW26881   5.901   4.097   1.197
 8661SOL    HW126882   5.824   4.139   1.149
 8661SOL    HW226883   5.959   4.049   1.132
 8662SOL     OW26884   4.613   5.960   1.261
 8662SOL    HW126885   4.521   5.933   1.235
 8662SOL    HW226886   4.609   6.038   1.322
 8663SOL     OW26887   2.814   5.732   1.074
 8663SOL    HW126888   2.743   5.725   1.004
 8663SOL    HW226889   2.904   5.722   1.031
 8664SOL     OW26890   3.228   6.623   1.152
 8664SOL    HW126891   3.157   6.621   1.081
 8664SOL    HW226892   3.317   6.640   1.110
 8665SOL     OW26893   5.332   6.061   4.711
 8665SOL    HW126894   5.270   6.013   4.650
 8665SOL    HW226895   5.422   6.016   4.709
 8666SOL     OW26896   4.925   1.763   4.035
 8666SOL    HW126897   5.012   1.717   4.016
 8666SOL    HW226898   4.872   1.708   4.100
 8667SOL     OW26899   4.933   2.368   3.195
 8667SOL    HW126900   5.001   2.412   3.136
 8667SOL    HW226901   4.909   2.279   3.158
 8668SOL     OW26902   5.869   3.497   2.868
 8668SOL    HW126903   5.891   3.502   2.770
 8668SOL    HW226904   5.810   3.574   2.893
 8669SOL     OW26905   2.394   6.264   0.208
 8669SOL    HW126906   2.323   6.333   0.221
 8669SOL    HW226907   2.422   6.264   0.112
 8670SOL     OW26908   3.705   4.615   5.651
 8670SOL    HW126909   3.761   4.553   5.597
 8670SOL    HW226910   3.619   4.633   5.603
 8671SOL     OW26911   5.449   1.926   3.201
 8671SOL    HW126912   5.388   1.952   3.126
 8671SOL    HW226913   5.422   1.975   3.284
 8672SOL     OW26914   1.710   4.969   3.755
 8672SOL    HW126915   1.617   5.004   3.763
 8672SOL    HW226916   1.755   4.974   3.845
 8673SOL     OW26917   6.806   2.119   0.015
 8673SOL    HW126918   6.860   2.199   7.009
 8673SOL    HW226919   6.710   2.136   7.013
 8674SOL     OW26920   5.587   5.373   2.807
 8674SOL    HW126921   5.547   5.414   2.725
 8674SOL    HW226922   5.559   5.426   2.887
 8675SOL     OW26923   3.144   2.135   4.344
 8675SOL    HW126924   3.082   2.086   4.282
 8675SOL    HW226925   3.090   2.179   4.417
 8676SOL     OW26926   3.916   0.132   2.407
 8676SOL    HW126927   4.005   0.131   2.453
 8676SOL    HW226928   3.847   0.169   2.468
 8677SOL     OW26929   2.650   6.314   5.666
 8677SOL    HW126930   2.687   6.370   5.592
 8677SOL    HW226931   2.635   6.221   5.632
 8678SOL     OW26932   6.774   6.994   1.267
 8678SOL    HW126933   6.762   0.018   1.357
 8678SOL    HW226934   6.863   0.002   1.229
 8679SOL     OW26935   6.346   2.222   3.820
 8679SOL    HW126936   6.349   2.131   3.779
 8679SOL    HW226937   6.311   2.215   3.914
 8680SOL     OW26938   1.205   4.157   1.765
 8680SOL    HW126939   1.267   4.080   1.757
 8680SOL    HW226940   1.207   4.192   1.859
 8681SOL     OW26941   4.865   5.169   6.784
 8681SOL    HW126942   4.800   5.152   6.858
 8681SOL    HW226943   4.818   5.163   6.696
 8682SOL     OW26944   5.067   6.653   1.570
 8682SOL    HW126945   5.018   6.725   1.618
 8682SOL    HW226946   5.011   6.617   1.496
 8683SOL     OW26947   1.993   2.698   2.731
 8683SOL    HW126948   1.908   2.692   2.678
 8683SOL    HW226949   2.062   2.638   2.690
 8684SOL     OW26950   0.754   2.646   4.618
 8684SOL    HW126951   0.741   2.707   4.540
 8684SOL    HW226952   0.737   2.552   4.590
 8685SOL     OW26953   0.117   2.106   5.479
 8685SOL    HW126954   0.058   2.033   5.514
 8685SOL    HW226955   0.175   2.070   5.406
 8686SOL     OW26956   0.007   0.697   1.632
 8686SOL    HW126957   0.023   0.774   1.571
 8686SOL    HW226958   6.940   0.711   1.683
 8687SOL     OW26959   3.726   5.471   2.755
 8687SOL    HW126960   3.710   5.475   2.854
 8687SOL    HW226961   3.821   5.495   2.735
 8688SOL     OW26962   2.803   6.080   6.971
 8688SOL    HW126963   2.724   6.084   0.015
 8688SOL    HW226964   2.784   6.133   6.888
 8689SOL     OW26965   3.353   4.222   1.695
 8689SOL    HW126966   3.394   4.183   1.778
 8689SOL    HW226967   3.314   4.149   1.640
 8690SOL     OW26968   1.564   3.066   3.280
 8690SOL    HW126969   1.554   3.130   3.204
 8690SOL    HW226970   1.661   3.044   3.293
 8691SOL     OW26971   3.293   2.052   6.870
 8691SOL    HW126972   3.285   1.991   6.791
 8691SOL    HW226973   3.390   2.070   6.889
 8692SOL     OW26974   2.060   1.167   3.427
 8692SOL    HW126975   2.052   1.209   3.517
 8692SOL    HW226976   2.009   1.222   3.360
 8693SOL     OW26977   6.714   1.222   0.005
 8693SOL    HW126978   6.699   1.131   6.985
 8693SOL    HW226979   6.628   1.274   0.003
 8694SOL     OW26980   4.067   0.988   4.928
 8694SOL    HW126981   4.056   0.982   5.028
 8694SOL    HW226982   3.985   1.030   4.889
 8695SOL     OW26983   3.836   2.665   5.970
 8695SOL    HW126984   3.850   2.761   5.945
 8695SOL    HW226985   3.764   2.625   5.914
 8696SOL     OW26986   2.408   6.048   0.713
 8696SOL    HW126987   2.405   5.949   0.713
 8696SOL    HW226988   2.497   6.079   0.680
 8697SOL     OW26989   6.930   2.980   0.340
 8697SOL    HW126990   6.937   3.061   0.399
 8697SOL    HW226991   6.897   2.902   0.394
 8698SOL     OW26992   5.597   5.886   4.702
 8698SOL    HW126993   5.524   5.852   4.643
 8698SOL    HW226994   5.676   5.824   4.696
 8699SOL     OW26995   2.011   2.594   5.200
 8699SOL    HW126996   2.062   2.665   5.249
 8699SOL    HW226997   2.032   2.601   5.102
 8700SOL     OW26998   1.065   0.794   4.411
 8700SOL    HW126999   1.005   0.741   4.351
 8700SOL    HW227000   1.132   0.734   4.453
 8701SOL     OW27001   1.699   0.756   0.247
 8701SOL    HW127002   1.667   0.752   0.152
 8701SOL    HW227003   1.793   0.792   0.248
 8702SOL     OW27004   5.215   4.489   0.660
 8702SOL    HW127005   5.314   4.479   0.654
 8702SOL    HW227006   5.191   4.524   0.751
 8703SOL     OW27007   3.254   5.708   0.838
 8703SOL    HW127008   3.306   5.748   0.913
 8703SOL    HW227009   3.158   5.698   0.866
 8704SOL     OW27010   0.420   3.389   2.574
 8704SOL    HW127011   0.358   3.446   2.630
 8704SOL    HW227012   0.400   3.403   2.477
 8705SOL     OW27013   5.073   0.819   0.013
 8705SOL    HW127014   5.041   0.836   0.106
 8705SOL    HW227015   5.153   0.876   7.011
 8706SOL     OW27016   4.490   2.257   5.880
 8706SOL    HW127017   4.444   2.173   5.852
 8706SOL    HW227018   4.589   2.240   5.886
 8707SOL     OW27019   6.774   2.807   0.028
 8707SOL    HW127020   6.848   2.743   0.008
 8707SOL    HW227021   6.688   2.771   7.008
 8708SOL     OW27022   4.331   1.514   2.342
 8708SOL    HW127023   4.384   1.597   2.359
 8708SOL    HW227024   4.298   1.477   2.429
 8709SOL     OW27025   6.845   5.893   0.616
 8709SOL    HW127026   6.889   5.836   0.685
 8709SOL    HW227027   6.911   5.917   0.545
 8710SOL     OW27028   2.038   3.167   4.247
 8710SOL    HW127029   1.967   3.143   4.181
 8710SOL    HW227030   2.071   3.084   4.292
 8711SOL     OW27031   1.263   6.150   3.217
 8711SOL    HW127032   1.210   6.178   3.137
 8711SOL    HW227033   1.355   6.190   3.213
 8712SOL     OW27034   4.147   2.191   4.960
 8712SOL    HW127035   4.161   2.268   5.022
 8712SOL    HW227036   4.217   2.193   4.889
 8713SOL     OW27037   0.594   3.773   3.807
 8713SOL    HW127038   0.548   3.856   3.837
 8713SOL    HW227039   0.528   3.712   3.764
 8714SOL     OW27040   1.369   1.295   6.019
 8714SOL    HW127041   1.434   1.262   6.087
 8714SOL    HW227042   1.277   1.298   6.058
 8715SOL     OW27043   4.718   0.808   1.047
 8715SOL    HW127044   4.665   0.803   1.132
 8715SOL    HW227045   4.666   0.766   0.973
 8716SOL     OW27046   0.247   0.102   1.203
 8716SOL    HW127047   0.236   0.049   1.286
 8716SOL    HW227048   0.292   0.046   1.133
 8717SOL     OW27049   3.451   3.210   3.611
 8717SOL    HW127050   3.483   3.267   3.535
 8717SOL    HW227051   3.488   3.118   3.601
 8718SOL     OW27052   0.508   4.515   4.564
 8718SOL    HW127053   0.454   4.496   4.481
 8718SOL    HW227054   0.593   4.462   4.561
 8719SOL     OW27055   2.363   0.068   6.363
 8719SOL    HW127056   2.417   0.024   6.435
 8719SOL    HW227057   2.382   0.166   6.363
 8720SOL     OW27058   6.449   5.288   5.828
 8720SOL    HW127059   6.351   5.291   5.810
 8720SOL    HW227060   6.475   5.196   5.855
 8721SOL     OW27061   6.905   2.440   2.764
 8721SOL    HW127062   6.994   2.394   2.769
 8721SOL    HW227063   6.841   2.394   2.826
 8722SOL     OW27064   3.776   1.334   6.446
 8722SOL    HW127065   3.696   1.345   6.505
 8722SOL    HW227066   3.857   1.320   6.502
 8723SOL     OW27067   4.673   5.686   1.280
 8723SOL    HW127068   4.662   5.782   1.308
 8723SOL    HW227069   4.644   5.676   1.185
 8724SOL     OW27070   5.523   0.060   5.953
 8724SOL    HW127071   5.494   0.148   5.990
 8724SOL    HW227072   5.552   0.071   5.858
 8725SOL     OW27073   2.156   0.078   6.686
 8725SOL    HW127074   2.163   0.033   6.598
 8725SOL    HW227075   2.066   0.120   6.696
 8726SOL     OW27076   6.267   0.353   2.082
 8726SOL    HW127077   6.360   0.342   2.116
 8726SOL    HW227078   6.231   0.264   2.054
 8727SOL     OW27079   0.420   5.983   2.073
 8727SOL    HW127080   0.483   6.054   2.041
 8727SOL    HW227081   0.328   6.003   2.041
 8728SOL     OW27082   4.594   0.591   4.000
 8728SOL    HW127083   4.639   0.591   3.911
 8728SOL    HW227084   4.496   0.600   3.988
 8729SOL     OW27085   5.044   6.108   3.897
 8729SOL    HW127086   4.986   6.052   3.955
 8729SOL    HW227087   5.139   6.099   3.926
 8730SOL     OW27088   6.510   4.129   2.816
 8730SOL    HW127089   6.480   4.035   2.799
 8730SOL    HW227090   6.468   4.190   2.748
 8731SOL     OW27091   2.325   2.829   2.868
 8731SOL    HW127092   2.318   2.748   2.926
 8731SOL    HW227093   2.413   2.874   2.884
 8732SOL     OW27094   5.716   4.461   1.711
 8732SOL    HW127095   5.679   4.543   1.754
 8732SOL    HW227096   5.771   4.487   1.632
 8733SOL     OW27097   2.218   5.360   1.409
 8733SOL    HW127098   2.126   5.361   1.371
 8733SOL    HW227099   2.237   5.269   1.447
 8734SOL     OW27100   1.442   4.866   2.321
 8734SOL    HW127101   1.472   4.815   2.401
 8734SOL    HW227102   1.504   4.942   2.304
 8735SOL     OW27103   1.001   1.886   0.482
 8735SOL    HW127104   0.911   1.842   0.482
 8735SOL    HW227105   0.991   1.983   0.503
 8736SOL     OW27106   0.539   6.008   6.010
 8736SOL    HW127107   0.455   6.061   5.995
 8736SOL    HW227108   0.546   5.983   6.106
 8737SOL     OW27109   2.370   6.647   6.220
 8737SOL    HW127110   2.423   6.645   6.135
 8737SOL    HW227111   2.336   6.740   6.236
 8738SOL     OW27112   2.063   5.105   4.447
 8738SOL    HW127113   2.092   5.015   4.480
 8738SOL    HW227114   1.993   5.094   4.376
 8739SOL     OW27115   5.635   5.358   6.213
 8739SOL    HW127116   5.679   5.430   6.160
 8739SOL    HW227117   5.689   5.274   6.206
 8740SOL     OW27118   5.104   1.132   5.300
 8740SOL    HW127119   5.131   1.084   5.216
 8740SOL    HW227120   5.135   1.228   5.295
 8741SOL     OW27121   2.956   1.309   1.268
 8741SOL    HW127122   3.015   1.295   1.189
 8741SOL    HW227123   2.939   1.221   1.313
 8742SOL     OW27124   5.518   6.413   1.429
 8742SOL    HW127125   5.438   6.428   1.489
 8742SOL    HW227126   5.537   6.497   1.378
 8743SOL     OW27127   1.726   0.556   2.344
 8743SOL    HW127128   1.635   0.582   2.376
 8743SOL    HW227129   1.793   0.622   2.379
 8744SOL     OW27130   3.604   2.840   6.327
 8744SOL    HW127131   3.703   2.838   6.319
 8744SOL    HW227132   3.563   2.837   6.236
 8745SOL     OW27133   5.988   3.124   6.093
 8745SOL    HW127134   5.976   3.113   6.192
 8745SOL    HW227135   6.065   3.068   6.063
 8746SOL     OW27136   5.199   3.827   4.781
 8746SOL    HW127137   5.167   3.839   4.875
 8746SOL    HW227138   5.279   3.767   4.780
 8747SOL     OW27139   0.316   2.264   2.583
 8747SOL    HW127140   0.360   2.349   2.553
 8747SOL    HW227141   0.360   2.186   2.538
 8748SOL     OW27142   6.980   1.945   5.214
 8748SOL    HW127143   0.061   1.959   5.203
 8748SOL    HW227144   6.955   1.855   5.179
 8749SOL     OW27145   2.758   0.755   6.667
 8749SOL    HW127146   2.813   0.829   6.628
 8749SOL    HW227147   2.680   0.737   6.608
 8750SOL     OW27148   3.014   3.409   5.382
 8750SOL    HW127149   3.000   3.505   5.358
 8750SOL    HW227150   3.112   3.390   5.388
 8751SOL     OW27151   6.600   0.054   3.092
 8751SOL    HW127152   6.625   0.133   3.036
 8751SOL    HW227153   6.501   0.041   3.087
 8752SOL     OW27154   2.488   4.570   0.311
 8752SOL    HW127155   2.498   4.628   0.231
 8752SOL    HW227156   2.565   4.583   0.373
 8753SOL     OW27157   4.615   1.718   5.267
 8753SOL    HW127158   4.641   1.728   5.363
 8753SOL    HW227159   4.542   1.784   5.245
 8754SOL     OW27160   1.143   2.739   4.826
 8754SOL    HW127161   1.158   2.838   4.821
 8754SOL    HW227162   1.188   2.695   4.749
 8755SOL     OW27163   2.685   0.568   0.422
 8755SOL    HW127164   2.702   0.596   0.516
 8755SOL    HW227165   2.635   0.640   0.374
 8756SOL     OW27166   1.906   3.046   3.571
 8756SOL    HW127167   1.878   3.040   3.476
 8756SOL    HW227168   1.901   2.956   3.614
 8757SOL     OW27169   4.536   6.222   5.753
 8757SOL    HW127170   4.530   6.272   5.667
 8757SOL    HW227171   4.541   6.124   5.734
 8758SOL     OW27172   4.514   6.686   2.097
 8758SOL    HW127173   4.472   6.766   2.055
 8758SOL    HW227174   4.489   6.681   2.193
 8759SOL     OW27175   3.788   2.470   0.622
 8759SOL    HW127176   3.850   2.527   0.568
 8759SOL    HW227177   3.755   2.394   0.565
 8760SOL     OW27178   1.070   1.096   5.051
 8760SOL    HW127179   1.143   1.163   5.067
 8760SOL    HW227180   0.989   1.143   5.015
 8761SOL     OW27181   5.003   1.947   2.547
 8761SOL    HW127182   5.016   1.890   2.466
 8761SOL    HW227183   4.917   1.998   2.538
 8762SOL     OW27184   0.752   4.392   1.783
 8762SOL    HW127185   0.661   4.395   1.740
 8762SOL    HW227186   0.821   4.376   1.713
 8763SOL     OW27187   6.121   6.295   5.902
 8763SOL    HW127188   6.168   6.310   5.989
 8763SOL    HW227189   6.035   6.247   5.918
 8764SOL     OW27190   5.096   1.358   4.751
 8764SOL    HW127191   5.013   1.324   4.706
 8764SOL    HW227192   5.171   1.361   4.686
 8765SOL     OW27193   6.132   6.542   5.484
 8765SOL    HW127194   6.102   6.616   5.424
 8765SOL    HW227195   6.199   6.485   5.436
 8766SOL     OW27196   4.498   4.492   3.923
 8766SOL    HW127197   4.528   4.408   3.968
 8766SOL    HW227198   4.427   4.535   3.978
 8767SOL     OW27199   3.922   6.928   3.029
 8767SOL    HW127200   3.904   6.910   3.126
 8767SOL    HW227201   3.992   6.865   2.996
 8768SOL     OW27202   1.381   2.986   0.456
 8768SOL    HW127203   1.457   3.004   0.519
 8768SOL    HW227204   1.295   2.983   0.508
 8769SOL     OW27205   1.518   6.894   4.548
 8769SOL    HW127206   1.612   6.900   4.516
 8769SOL    HW227207   1.456   6.930   4.477
 8770SOL     OW27208   5.754   3.820   2.199
 8770SOL    HW127209   5.790   3.771   2.120
 8770SOL    HW227210   5.717   3.754   2.265
 8771SOL     OW27211   0.995   0.635   6.135
 8771SOL    HW127212   1.014   0.675   6.225
 8771SOL    HW227213   1.060   0.561   6.117
 8772SOL     OW27214   4.945   6.385   6.690
 8772SOL    HW127215   4.876   6.312   6.691
 8772SOL    HW227216   4.902   6.472   6.715
 8773SOL     OW27217   4.327   2.362   3.680
 8773SOL    HW127218   4.241   2.354   3.731
 8773SOL    HW227219   4.397   2.307   3.726
 8774SOL     OW27220   1.887   1.246   6.842
 8774SOL    HW127221   1.970   1.290   6.808
 8774SOL    HW227222   1.876   1.266   6.939
 8775SOL     OW27223   6.716   0.155   4.937
 8775SOL    HW127224   6.685   0.241   4.896
 8775SOL    HW227225   6.758   0.098   4.866
 8776SOL     OW27226   3.786   3.624   5.503
 8776SOL    HW127227   3.876   3.637   5.461
 8776SOL    HW227228   3.767   3.526   5.511
 8777SOL     OW27229   0.121   4.113   1.612
 8777SOL    HW127230   0.052   4.165   1.562
 8777SOL    HW227231   0.195   4.086   1.550
 8778SOL     OW27232   6.143   1.970   4.593
 8778SOL    HW127233   6.241   1.955   4.606
 8778SOL    HW227234   6.128   2.060   4.552
 8779SOL     OW27235   3.215   5.098   2.278
 8779SOL    HW127236   3.211   5.170   2.209
 8779SOL    HW227237   3.207   5.009   2.234
 8780SOL     OW27238   0.946   5.423   3.225
 8780SOL    HW127239   0.872   5.468   3.275
 8780SOL    HW227240   0.942   5.450   3.128
 8781SOL     OW27241   6.166   1.706   3.252
 8781SOL    HW127242   6.148   1.612   3.224
 8781SOL    HW227243   6.212   1.707   3.341
 8782SOL     OW27244   5.073   7.017   2.034
 8782SOL    HW127245   5.038   0.090   2.058
 8782SOL    HW227246   5.016   6.947   2.076
 8783SOL     OW27247   6.913   4.118   3.657
 8783SOL    HW127248   6.985   4.049   3.655
 8783SOL    HW227249   6.828   4.078   3.624
 8784SOL     OW27250   5.790   4.303   6.501
 8784SOL    HW127251   5.773   4.205   6.500
 8784SOL    HW227252   5.888   4.320   6.488
 8785SOL     OW27253   6.738   3.746   6.536
 8785SOL    HW127254   6.814   3.781   6.481
 8785SOL    HW227255   6.766   3.660   6.579
 8786SOL     OW27256   1.992   0.087   0.406
 8786SOL    HW127257   2.029   7.012   0.403
 8786SOL    HW227258   2.011   0.128   0.496
 8787SOL     OW27259   2.363   2.702   1.607
 8787SOL    HW127260   2.365   2.633   1.680
 8787SOL    HW227261   2.401   2.787   1.642
 8788SOL     OW27262   0.100   2.053   5.898
 8788SOL    HW127263   0.075   2.043   5.995
 8788SOL    HW227264   0.168   2.126   5.889
 8789SOL     OW27265   6.357   0.221   5.799
 8789SOL    HW127266   6.344   0.294   5.867
 8789SOL    HW227267   6.406   0.258   5.720
 8790SOL     OW27268   0.082   0.842   6.822
 8790SOL    HW127269   0.093   0.905   6.745
 8790SOL    HW227270   7.004   0.814   6.829
 8791SOL     OW27271   6.195   6.958   4.914
 8791SOL    HW127272   6.155   6.978   5.003
 8791SOL    HW227273   6.178   0.017   4.852
 8792SOL     OW27274   3.403   6.144   3.367
 8792SOL    HW127275   3.345   6.225   3.371
 8792SOL    HW227276   3.359   6.069   3.418
 8793SOL     OW27277   1.320   5.167   3.412
 8793SOL    HW127278   1.238   5.181   3.357
 8793SOL    HW227279   1.372   5.090   3.375
 8794SOL     OW27280   4.046   6.765   1.844
 8794SOL    HW127281   4.086   6.762   1.752
 8794SOL    HW227282   3.982   6.842   1.850
 8795SOL     OW27283   0.995   6.685   5.184
 8795SOL    HW127284   0.927   6.729   5.125
 8795SOL    HW227285   0.949   6.652   5.267
 8796SOL     OW27286   4.315   1.734   4.513
 8796SOL    HW127287   4.344   1.670   4.585
 8796SOL    HW227288   4.232   1.700   4.469
 8797SOL     OW27289   0.722   0.057   5.271
 8797SOL    HW127290   0.812   0.093   5.246
 8797SOL    HW227291   0.711   0.061   5.370
 8798SOL     OW27292   5.116   5.216   5.499
 8798SOL    HW127293   5.148   5.307   5.473
 8798SOL    HW227294   5.022   5.204   5.469
 8799SOL     OW27295   2.038   4.348   3.881
 8799SOL    HW127296   2.130   4.310   3.872
 8799SOL    HW227297   2.004   4.332   3.974
 8800SOL     OW27298   5.969   4.497   5.562
 8800SOL    HW127299   5.912   4.566   5.607
 8800SOL    HW227300   5.912   4.437   5.507
 8801SOL     OW27301   0.798   1.572   4.857
 8801SOL    HW127302   0.829   1.596   4.949
 8801SOL    HW227303   0.851   1.622   4.790
 8802SOL     OW27304   1.501   0.011   0.976
 8802SOL    HW127305   1.531   6.978   1.057
 8802SOL    HW227306   1.458   0.096   1.004
 8803SOL     OW27307   0.396   5.405   5.930
 8803SOL    HW127308   0.402   5.504   5.918
 8803SOL    HW227309   0.339   5.385   6.010
 8804SOL     OW27310   3.490   0.967   2.337
 8804SOL    HW127311   3.567   0.967   2.273
 8804SOL    HW227312   3.420   0.903   2.306
 8805SOL     OW27313   2.620   6.980   4.260
 8805SOL    HW127314   2.689   7.011   4.195
 8805SOL    HW227315   2.610   6.881   4.254
 8806SOL     OW27316   2.467   5.016   2.104
 8806SOL    HW127317   2.492   5.020   2.007
 8806SOL    HW227318   2.519   5.084   2.155
 8807SOL     OW27319   5.140   0.142   6.441
 8807SOL    HW127320   5.144   0.042   6.448
 8807SOL    HW227321   5.138   0.169   6.345
 8808SOL     OW27322   5.380   2.297   0.087
 8808SOL    HW127323   5.383   2.200   0.061
 8808SOL    HW227324   5.355   2.352   0.008
 8809SOL     OW27325   4.618   5.431   3.646
 8809SOL    HW127326   4.688   5.497   3.675
 8809SOL    HW227327   4.594   5.371   3.723
 8810SOL     OW27328   5.321   0.533   6.323
 8810SOL    HW127329   5.231   0.571   6.301
 8810SOL    HW227330   5.313   0.476   6.405
 8811SOL     OW27331   2.562   1.498   3.679
 8811SOL    HW127332   2.518   1.471   3.594
 8811SOL    HW227333   2.546   1.427   3.748
 8812SOL     OW27334   2.001   7.000   1.621
 8812SOL    HW127335   2.046   0.031   1.546
 8812SOL    HW227336   2.025   0.025   1.708
 8813SOL     OW27337   1.267   4.616   1.647
 8813SOL    HW127338   1.329   4.694   1.645
 8813SOL    HW227339   1.172   4.648   1.638
 8814SOL     OW27340   5.643   0.420   0.474
 8814SOL    HW127341   5.702   0.339   0.470
 8814SOL    HW227342   5.555   0.399   0.433
 8815SOL     OW27343   6.753   6.190   0.927
 8815SOL    HW127344   6.815   6.262   0.960
 8815SOL    HW227345   6.746   6.194   0.828
 8816SOL     OW27346   1.529   0.870   0.425
 8816SOL    HW127347   1.583   0.822   0.356
 8816SOL    HW227348   1.543   0.828   0.515
 8817SOL     OW27349   1.028   6.140   4.899
 8817SOL    HW127350   1.020   6.240   4.899
 8817SOL    HW227351   1.009   6.104   4.990
 8818SOL     OW27352   0.405   3.564   4.507
 8818SOL    HW127353   0.477   3.505   4.545
 8818SOL    HW227354   0.317   3.538   4.546
 8819SOL     OW27355   5.388   4.964   4.624
 8819SOL    HW127356   5.463   4.911   4.584
 8819SOL    HW227357   5.361   4.925   4.711
 8820SOL     OW27358   2.189   0.991   5.284
 8820SOL    HW127359   2.165   0.959   5.376
 8820SOL    HW227360   2.116   1.050   5.250
 8821SOL     OW27361   3.012   6.288   0.487
 8821SOL    HW127362   2.979   6.254   0.399
 8821SOL    HW227363   3.095   6.342   0.473
 8822SOL     OW27364   0.715   0.255   4.815
 8822SOL    HW127365   0.627   0.233   4.857
 8822SOL    HW227366   0.767   0.313   4.878
 8823SOL     OW27367   2.268   0.976   0.876
 8823SOL    HW127368   2.243   1.064   0.918
 8823SOL    HW227369   2.359   0.983   0.835
 8824SOL     OW27370   0.806   3.306   1.116
 8824SOL    HW127371   0.738   3.234   1.104
 8824SOL    HW227372   0.810   3.362   1.033
 8825SOL     OW27373   1.392   0.521   3.046
 8825SOL    HW127374   1.447   0.602   3.024
 8825SOL    HW227375   1.363   0.477   2.961
 8826SOL     OW27376   6.414   2.931   0.863
 8826SOL    HW127377   6.396   2.962   0.769
 8826SOL    HW227378   6.478   2.994   0.907
 8827SOL     OW27379   3.628   0.986   3.255
 8827SOL    HW127380   3.675   1.015   3.338
 8827SOL    HW227381   3.686   1.006   3.176
 8828SOL     OW27382   4.371   5.359   5.488
 8828SOL    HW127383   4.405   5.410   5.409
 8828SOL    HW227384   4.345   5.267   5.460
 8829SOL     OW27385   6.396   2.383   0.580
 8829SOL    HW127386   6.391   2.476   0.615
 8829SOL    HW227387   6.434   2.323   0.651
 8830SOL     OW27388   0.893   1.604   2.144
 8830SOL    HW127389   0.876   1.623   2.047
 8830SOL    HW227390   0.872   1.509   2.163
 8831SOL     OW27391   5.021   1.312   4.305
 8831SOL    HW127392   5.030   1.220   4.267
 8831SOL    HW227393   5.102   1.366   4.284
 8832SOL     OW27394   6.984   5.932   2.853
 8832SOL    HW127395   6.936   5.972   2.932
 8832SOL    HW227396   0.057   5.901   2.881
 8833SOL     OW27397   2.221   6.177   5.701
 8833SOL    HW127398   2.250   6.255   5.757
 8833SOL    HW227399   2.141   6.135   5.743
 8834SOL     OW27400   5.462   3.587   4.678
 8834SOL    HW127401   5.468   3.624   4.771
 8834SOL    HW227402   5.508   3.498   4.675
 8835SOL     OW27403   5.496   1.122   6.149
 8835SOL    HW127404   5.492   1.162   6.240
 8835SOL    HW227405   5.409   1.137   6.102
 8836SOL     OW27406   4.426   2.395   6.990
 8836SOL    HW127407   4.358   2.433   6.927
 8836SOL    HW227408   4.460   2.309   6.953
 8837SOL     OW27409   0.120   6.039   3.386
 8837SOL    HW127410   0.045   6.081   3.437
 8837SOL    HW227411   0.116   5.939   3.397
 8838SOL     OW27412   2.288   4.544   2.745
 8838SOL    HW127413   2.293   4.601   2.664
 8838SOL    HW227414   2.272   4.449   2.718
 8839SOL     OW27415   4.934   5.002   3.107
 8839SOL    HW127416   4.988   4.949   3.173
 8839SOL    HW227417   4.849   5.031   3.151
 8840SOL     OW27418   6.533   1.926   1.885
 8840SOL    HW127419   6.521   1.829   1.907
 8840SOL    HW227420   6.613   1.962   1.933
 8841SOL     OW27421   0.338   0.564   5.400
 8841SOL    HW127422   0.281   0.540   5.322
 8841SOL    HW227423   0.375   0.657   5.387
 8842SOL     OW27424   3.100   2.971   2.186
 8842SOL    HW127425   3.076   2.892   2.244
 8842SOL    HW227426   3.138   2.938   2.100
 8843SOL     OW27427   2.052   3.471   5.435
 8843SOL    HW127428   2.018   3.383   5.402
 8843SOL    HW227429   2.009   3.545   5.383
 8844SOL     OW27430   6.076   2.489   6.645
 8844SOL    HW127431   6.079   2.492   6.745
 8844SOL    HW227432   6.169   2.492   6.609
 8845SOL     OW27433   3.640   3.762   0.160
 8845SOL    HW127434   3.704   3.832   0.129
 8845SOL    HW227435   3.571   3.803   0.219
 8846SOL     OW27436   3.483   5.858   3.712
 8846SOL    HW127437   3.486   5.958   3.708
 8846SOL    HW227438   3.568   5.824   3.752
 8847SOL     OW27439   3.017   1.771   3.163
 8847SOL    HW127440   2.959   1.729   3.233
 8847SOL    HW227441   3.045   1.862   3.193
 8848SOL     OW27442   2.632   0.981   1.797
 8848SOL    HW127443   2.623   0.898   1.743
 8848SOL    HW227444   2.716   1.029   1.772
 8849SOL     OW27445   3.719   6.141   2.995
 8849SOL    HW127446   3.726   6.217   2.931
 8849SOL    HW227447   3.626   6.104   2.994
 8850SOL     OW27448   1.548   2.675   6.944
 8850SOL    HW127449   1.622   2.667   6.877
 8850SOL    HW227450   1.541   2.770   6.974
 8851SOL     OW27451   1.354   3.933   3.210
 8851SOL    HW127452   1.290   3.856   3.205
 8851SOL    HW227453   1.399   3.933   3.299
 8852SOL     OW27454   0.455   2.156   4.958
 8852SOL    HW127455   0.414   2.214   5.028
 8852SOL    HW227456   0.552   2.141   4.979
 8853SOL     OW27457   2.910   0.751   1.599
 8853SOL    HW127458   2.960   0.831   1.632
 8853SOL    HW227459   2.835   0.730   1.661
 8854SOL     OW27460   2.111   2.641   5.607
 8854SOL    HW127461   2.149   2.665   5.518
 8854SOL    HW227462   2.042   2.569   5.596
 8855SOL     OW27463   6.529   4.934   1.191
 8855SOL    HW127464   6.445   4.889   1.220
 8855SOL    HW227465   6.608   4.883   1.226
 8856SOL     OW27466   1.042   6.588   6.632
 8856SOL    HW127467   0.993   6.675   6.630
 8856SOL    HW227468   0.980   6.514   6.604
 8857SOL     OW27469   6.368   1.794   4.122
 8857SOL    HW127470   6.352   1.892   4.131
 8857SOL    HW227471   6.453   1.770   4.168
 8858SOL     OW27472   0.075   3.698   4.459
 8858SOL    HW127473   0.089   3.795   4.440
 8858SOL    HW227474   0.098   3.645   4.377
 8859SOL     OW27475   1.441   1.604   3.753
 8859SOL    HW127476   1.467   1.640   3.664
 8859SOL    HW227477   1.383   1.670   3.800
 8860SOL     OW27478   6.881   2.211   1.308
 8860SOL    HW127479   6.977   2.181   1.317
 8860SOL    HW227480   6.833   2.195   1.395
 8861SOL     OW27481   3.886   1.305   5.769
 8861SOL    HW127482   3.930   1.274   5.853
 8861SOL    HW227483   3.914   1.400   5.750
 8862SOL     OW27484   5.781   6.934   3.727
 8862SOL    HW127485   5.856   7.001   3.719
 8862SOL    HW227486   5.772   6.884   3.641
 8863SOL     OW27487   2.803   4.787   3.676
 8863SOL    HW127488   2.731   4.776   3.744
 8863SOL    HW227489   2.785   4.728   3.598
 8864SOL     OW27490   3.338   4.841   6.430
 8864SOL    HW127491   3.363   4.746   6.412
 8864SOL    HW227492   3.415   4.900   6.405
 8865SOL     OW27493   2.986   0.711   4.443
 8865SOL    HW127494   3.079   0.674   4.448
 8865SOL    HW227495   2.931   0.670   4.516
 8866SOL     OW27496   5.591   6.853   2.801
 8866SOL    HW127497   5.560   6.779   2.860
 8866SOL    HW227498   5.656   6.817   2.734
 8867SOL     OW27499   5.892   4.715   3.604
 8867SOL    HW127500   5.794   4.736   3.609
 8867SOL    HW227501   5.937   4.783   3.547
 8868SOL     OW27502   6.999   2.981   2.029
 8868SOL    HW127503   0.065   2.969   1.976
 8868SOL    HW227504   7.014   2.949   2.123
 8869SOL     OW27505   3.882   5.872   5.134
 8869SOL    HW127506   3.799   5.917   5.104
 8869SOL    HW227507   3.953   5.881   5.064
 8870SOL     OW27508   2.347   6.800   2.070
 8870SOL    HW127509   2.269   6.748   2.035
 8870SOL    HW227510   2.347   6.891   2.029
 8871SOL     OW27511   1.916   0.216   3.485
 8871SOL    HW127512   1.821   0.247   3.486
 8871SOL    HW227513   1.977   0.295   3.485
 8872SOL     OW27514   1.308   4.974   5.844
 8872SOL    HW127515   1.225   4.923   5.867
 8872SOL    HW227516   1.333   5.033   5.921
 8873SOL     OW27517   2.169   6.895   2.424
 8873SOL    HW127518   2.224   6.835   2.482
 8873SOL    HW227519   2.168   6.860   2.330
 8874SOL     OW27520   2.267   5.637   2.122
 8874SOL    HW127521   2.233   5.594   2.206
 8874SOL    HW227522   2.366   5.631   2.120
 8875SOL     OW27523   6.374   3.374   4.947
 8875SOL    HW127524   6.415   3.419   4.868
 8875SOL    HW227525   6.423   3.400   5.030
 8876SOL     OW27526   2.573   0.603   5.877
 8876SOL    HW127527   2.521   0.677   5.835
 8876SOL    HW227528   2.539   0.515   5.843
 8877SOL     OW27529   2.504   2.495   4.149
 8877SOL    HW127530   2.417   2.530   4.184
 8877SOL    HW227531   2.512   2.397   4.171
 8878SOL     OW27532   4.082   4.884   1.501
 8878SOL    HW127533   4.138   4.806   1.525
 8878SOL    HW227534   3.985   4.862   1.517
 8879SOL     OW27535   4.551   4.950   2.302
 8879SOL    HW127536   4.488   5.027   2.288
 8879SOL    HW227537   4.509   4.883   2.362
 8880SOL     OW27538   3.919   6.722   4.627
 8880SOL    HW127539   4.016   6.728   4.649
 8880SOL    HW227540   3.895   6.628   4.606
 8881SOL     OW27541   5.325   5.931   4.227
 8881SOL    HW127542   5.340   5.995   4.302
 8881SOL    HW227543   5.395   5.860   4.228
 8882SOL     OW27544   4.843   1.006   1.164
 8882SOL    HW127545   4.800   0.920   1.139
 8882SOL    HW227546   4.775   1.068   1.202
 8883SOL     OW27547   2.255   6.328   6.375
 8883SOL    HW127548   2.230   6.392   6.302
 8883SOL    HW227549   2.352   6.335   6.394
 8884SOL     OW27550   5.843   3.363   5.992
 8884SOL    HW127551   5.903   3.399   5.921
 8884SOL    HW227552   5.885   3.284   6.035
 8885SOL     OW27553   5.022   4.745   0.844
 8885SOL    HW127554   5.073   4.668   0.882
 8885SOL    HW227555   5.084   4.821   0.824
 8886SOL     OW27556   3.127   5.924   5.420
 8886SOL    HW127557   3.171   5.935   5.509
 8886SOL    HW227558   3.102   6.015   5.385
 8887SOL     OW27559   4.056   0.706   0.908
 8887SOL    HW127560   4.116   0.732   0.983
 8887SOL    HW227561   3.961   0.725   0.934
 8888SOL     OW27562   2.217   2.087   5.050
 8888SOL    HW127563   2.278   2.073   4.973
 8888SOL    HW227564   2.131   2.127   5.018
 8889SOL     OW27565   6.371   6.869   6.981
 8889SOL    HW127566   6.380   6.897   0.059
 8889SOL    HW227567   6.311   6.790   6.975
 8890SOL     OW27568   0.310   5.726   5.582
 8890SOL    HW127569   0.403   5.759   5.603
 8890SOL    HW227570   0.244   5.778   5.636
 8891SOL     OW27571   3.816   4.161   0.321
 8891SOL    HW127572   3.809   4.104   0.238
 8891SOL    HW227573   3.829   4.101   0.400
 8892SOL     OW27574   3.622   4.977   3.614
 8892SOL    HW127575   3.596   4.939   3.702
 8892SOL    HW227576   3.705   4.933   3.581
 8893SOL     OW27577   1.172   5.057   4.874
 8893SOL    HW127578   1.150   4.963   4.902
 8893SOL    HW227579   1.090   5.101   4.838
 8894SOL     OW27580   3.145   2.056   6.487
 8894SOL    HW127581   3.211   2.003   6.541
 8894SOL    HW227582   3.194   2.127   6.435
 8895SOL     OW27583   6.732   2.189   1.534
 8895SOL    HW127584   6.634   2.188   1.550
 8895SOL    HW227585   6.779   2.205   1.621
 8896SOL     OW27586   2.142   2.908   4.870
 8896SOL    HW127587   2.222   2.934   4.925
 8896SOL    HW227588   2.079   2.985   4.865
 8897SOL     OW27589   2.456   2.648   3.762
 8897SOL    HW127590   2.357   2.639   3.752
 8897SOL    HW227591   2.481   2.745   3.760
 8898SOL     OW27592   5.143   3.081   2.434
 8898SOL    HW127593   5.106   3.174   2.436
 8898SOL    HW227594   5.099   3.030   2.360
 8899SOL     OW27595   1.745   4.405   0.513
 8899SOL    HW127596   1.841   4.430   0.526
 8899SOL    HW227597   1.705   4.461   0.440
 8900SOL     OW27598   5.348   3.065   3.128
 8900SOL    HW127599   5.301   3.075   3.215
 8900SOL    HW227600   5.383   3.154   3.098
 8901SOL     OW27601   0.489   1.162   4.470
 8901SOL    HW127602   0.563   1.095   4.475
 8901SOL    HW227603   0.435   1.146   4.388
 8902SOL     OW27604   1.122   5.703   0.194
 8902SOL    HW127605   1.209   5.708   0.243
 8902SOL    HW227606   1.117   5.778   0.128
 8903SOL     OW27607   0.704   1.856   4.279
 8903SOL    HW127608   0.708   1.757   4.286
 8903SOL    HW227609   0.794   1.892   4.257
 8904SOL     OW27610   0.679   0.888   4.680
 8904SOL    HW127611   0.683   0.921   4.586
 8904SOL    HW227612   0.760   0.834   4.700
 8905SOL     OW27613   2.180   3.066   2.910
 8905SOL    HW127614   2.224   2.977   2.913
 8905SOL    HW227615   2.198   3.109   2.821
 8906SOL     OW27616   0.866   6.199   1.364
 8906SOL    HW127617   0.825   6.182   1.275
 8906SOL    HW227618   0.816   6.272   1.411
 8907SOL     OW27619   3.079   2.960   5.718
 8907SOL    HW127620   3.067   3.009   5.805
 8907SOL    HW227621   3.170   2.978   5.682
 8908SOL     OW27622   1.975   6.245   0.670
 8908SOL    HW127623   1.902   6.183   0.641
 8908SOL    HW227624   1.993   6.311   0.597
 8909SOL     OW27625   2.928   1.337   5.786
 8909SOL    HW127626   2.927   1.275   5.865
 8909SOL    HW227627   2.834   1.354   5.756
 8910SOL     OW27628   0.822   2.939   5.331
 8910SOL    HW127629   0.890   2.869   5.311
 8910SOL    HW227630   0.798   2.987   5.246
 8911SOL     OW27631   4.871   3.270   4.821
 8911SOL    HW127632   4.799   3.284   4.890
 8911SOL    HW227633   4.877   3.351   4.763
 8912SOL     OW27634   2.427   3.542   6.492
 8912SOL    HW127635   2.446   3.454   6.447
 8912SOL    HW227636   2.328   3.558   6.492
 8913SOL     OW27637   4.135   5.322   6.592
 8913SOL    HW127638   4.040   5.296   6.578
 8913SOL    HW227639   4.150   5.345   6.688
 8914SOL     OW27640   4.846   0.612   5.034
 8914SOL    HW127641   4.764   0.652   5.073
 8914SOL    HW227642   4.830   0.588   4.938
 8915SOL     OW27643   1.826   2.182   4.047
 8915SOL    HW127644   1.783   2.158   4.134
 8915SOL    HW227645   1.785   2.129   3.973
 8916SOL     OW27646   6.726   3.148   6.862
 8916SOL    HW127647   6.751   3.141   6.958
 8916SOL    HW227648   6.758   3.066   6.813
 8917SOL     OW27649   5.634   2.425   0.790
 8917SOL    HW127650   5.591   2.472   0.867
 8917SOL    HW227651   5.598   2.461   0.704
 8918SOL     OW27652   0.957   4.719   0.584
 8918SOL    HW127653   0.938   4.809   0.546
 8918SOL    HW227654   1.055   4.702   0.584
 8919SOL     OW27655   5.296   3.993   0.211
 8919SOL    HW127656   5.219   4.040   0.166
 8919SOL    HW227657   5.269   3.965   0.303
 8920SOL     OW27658   6.984   2.171   6.805
 8920SOL    HW127659   0.000   2.104   6.871
 8920SOL    HW227660   6.938   2.245   6.854
 8921SOL     OW27661   1.849   3.070   2.339
 8921SOL    HW127662   1.942   3.077   2.375
 8921SOL    HW227663   1.799   3.155   2.358
 8922SOL     OW27664   3.936   5.188   2.338
 8922SOL    HW127665   4.010   5.255   2.336
 8922SOL    HW227666   3.909   5.171   2.432
 8923SOL     OW27667   1.652   1.600   6.538
 8923SOL    HW127668   1.685   1.683   6.492
 8923SOL    HW227669   1.552   1.598   6.535
 8924SOL     OW27670   4.348   5.510   5.235
 8924SOL    HW127671   4.258   5.483   5.270
 8924SOL    HW227672   4.337   5.576   5.161
 8925SOL     OW27673   0.722   1.070   2.755
 8925SOL    HW127674   0.636   1.077   2.704
 8925SOL    HW227675   0.780   1.000   2.713
 8926SOL     OW27676   6.824   2.887   5.864
 8926SOL    HW127677   6.892   2.954   5.894
 8926SOL    HW227678   6.759   2.931   5.802
 8927SOL     OW27679   6.029   1.020   4.218
 8927SOL    HW127680   6.050   1.031   4.316
 8927SOL    HW227681   6.110   0.985   4.171
 8928SOL     OW27682   1.164   0.406   6.100
 8928SOL    HW127683   1.249   0.407   6.154
 8928SOL    HW227684   1.185   0.422   6.004
 8929SOL     OW27685   6.016   2.002   5.062
 8929SOL    HW127686   6.068   1.977   5.144
 8929SOL    HW227687   6.048   1.949   4.984
 8930SOL     OW27688   1.089   2.728   3.457
 8930SOL    HW127689   1.101   2.634   3.490
 8930SOL    HW227690   1.017   2.730   3.388
 8931SOL     OW27691   3.091   3.918   1.024
 8931SOL    HW127692   3.091   3.922   0.924
 8931SOL    HW227693   3.052   3.831   1.054
 8932SOL     OW27694   5.970   2.089   2.223
 8932SOL    HW127695   5.964   2.031   2.142
 8932SOL    HW227696   5.898   2.064   2.288
 8933SOL     OW27697   2.589   2.523   6.098
 8933SOL    HW127698   2.678   2.568   6.088
 8933SOL    HW227699   2.603   2.427   6.123
 8934SOL     OW27700   2.624   5.253   4.841
 8934SOL    HW127701   2.660   5.282   4.930
 8934SOL    HW227702   2.699   5.220   4.784
 8935SOL     OW27703   0.571   4.481   0.490
 8935SOL    HW127704   0.545   4.535   0.410
 8935SOL    HW227705   0.595   4.388   0.462
 8936SOL     OW27706   1.153   4.509   1.929
 8936SOL    HW127707   1.064   4.550   1.953
 8936SOL    HW227708   1.185   4.547   1.842
 8937SOL     OW27709   0.489   0.071   6.124
 8937SOL    HW127710   0.553   0.010   6.170
 8937SOL    HW227711   0.463   0.146   6.185
 8938SOL     OW27712   0.459   5.846   0.798
 8938SOL    HW127713   0.507   5.908   0.859
 8938SOL    HW227714   0.484   5.866   0.703
 8939SOL     OW27715   5.059   2.673   4.025
 8939SOL    HW127716   4.968   2.678   4.065
 8939SOL    HW227717   5.055   2.629   3.935
 8940SOL     OW27718   0.211   1.425   2.200
 8940SOL    HW127719   0.143   1.374   2.148
 8940SOL    HW227720   0.303   1.401   2.166
 8941SOL     OW27721   6.543   2.520   5.292
 8941SOL    HW127722   6.458   2.564   5.319
 8941SOL    HW227723   6.620   2.563   5.341
 8942SOL     OW27724   6.875   4.769   4.956
 8942SOL    HW127725   6.917   4.766   5.047
 8942SOL    HW227726   6.926   4.710   4.894
 8943SOL     OW27727   3.679   4.558   6.087
 8943SOL    HW127728   3.581   4.561   6.068
 8943SOL    HW227729   3.711   4.650   6.110
 8944SOL     OW27730   5.456   4.491   4.981
 8944SOL    HW127731   5.482   4.573   5.031
 8944SOL    HW227732   5.433   4.515   4.887
 8945SOL     OW27733   0.676   0.638   2.881
 8945SOL    HW127734   0.628   0.725   2.878
 8945SOL    HW227735   0.656   0.585   2.798
 8946SOL     OW27736   3.162   1.266   5.320
 8946SOL    HW127737   3.199   1.185   5.274
 8946SOL    HW227738   3.125   1.240   5.409
 8947SOL     OW27739   1.998   3.725   5.374
 8947SOL    HW127740   1.943   3.757   5.296
 8947SOL    HW227741   2.090   3.761   5.366
 8948SOL     OW27742   6.580   6.736   4.280
 8948SOL    HW127743   6.662   6.681   4.293
 8948SOL    HW227744   6.505   6.700   4.336
 8949SOL     OW27745   2.364   0.013   1.129
 8949SOL    HW127746   2.419   0.097   1.120
 8949SOL    HW227747   2.425   6.954   1.149
 8950SOL     OW27748   4.571   4.383   6.278
 8950SOL    HW127749   4.602   4.399   6.371
 8950SOL    HW227750   4.635   4.321   6.232
 8951SOL     OW27751   0.952   2.054   5.439
 8951SOL    HW127752   0.857   2.053   5.406
 8951SOL    HW227753   1.012   2.016   5.369
 8952SOL     OW27754   1.195   6.883   2.241
 8952SOL    HW127755   1.281   6.850   2.280
 8952SOL    HW227756   1.138   6.921   2.315
 8953SOL     OW27757   1.322   4.334   6.937
 8953SOL    HW127758   1.278   4.416   6.898
 8953SOL    HW227759   1.419   4.334   6.912
 8954SOL     OW27760   0.855   0.318   5.931
 8954SOL    HW127761   0.822   0.362   5.848
 8954SOL    HW227762   0.954   0.305   5.925
 8955SOL     OW27763   0.310   5.232   2.167
 8955SOL    HW127764   0.249   5.171   2.116
 8955SOL    HW227765   0.259   5.313   2.195
 8956SOL     OW27766   1.016   1.932   6.527
 8956SOL    HW127767   1.080   1.921   6.603
 8956SOL    HW227768   0.923   1.912   6.557
 8957SOL     OW27769   2.861   4.261   1.697
 8957SOL    HW127770   2.934   4.198   1.724
 8957SOL    HW227771   2.870   4.347   1.748
 8958SOL     OW27772   0.020   0.557   4.550
 8958SOL    HW127773   0.027   0.464   4.513
 8958SOL    HW227774   6.948   0.595   4.526
 8959SOL     OW27775   1.611   4.611   1.841
 8959SOL    HW127776   1.690   4.671   1.835
 8959SOL    HW227777   1.594   4.568   1.752
 8960SOL     OW27778   4.510   4.750   3.056
 8960SOL    HW127779   4.587   4.772   2.997
 8960SOL    HW227780   4.533   4.772   3.151
 8961SOL     OW27781   2.825   1.554   4.639
 8961SOL    HW127782   2.909   1.503   4.624
 8961SOL    HW227783   2.775   1.561   4.553
 8962SOL     OW27784   6.892   6.102   2.159
 8962SOL    HW127785   6.891   6.157   2.242
 8962SOL    HW227786   6.923   6.158   2.082
 8963SOL     OW27787   5.067   6.401   4.074
 8963SOL    HW127788   5.104   6.372   3.985
 8963SOL    HW227789   5.029   6.493   4.066
 8964SOL     OW27790   5.013   3.465   3.316
 8964SOL    HW127791   4.941   3.399   3.334
 8964SOL    HW227792   5.092   3.419   3.275
 8965SOL     OW27793   2.449   4.675   0.803
 8965SOL    HW127794   2.396   4.592   0.822
 8965SOL    HW227795   2.490   4.708   0.888
 8966SOL     OW27796   6.813   4.039   6.250
 8966SOL    HW127797   6.830   3.949   6.210
 8966SOL    HW227798   6.718   4.066   6.232
 8967SOL     OW27799   3.470   0.075   2.029
 8967SOL    HW127800   3.389   0.132   2.020
 8967SOL    HW227801   3.518   0.098   2.114
 8968SOL     OW27802   5.211   5.252   3.257
 8968SOL    HW127803   5.209   5.179   3.325
 8968SOL    HW227804   5.149   5.326   3.285
 8969SOL     OW27805   6.665   1.384   4.743
 8969SOL    HW127806   6.680   1.297   4.695
 8969SOL    HW227807   6.604   1.369   4.820
 8970SOL     OW27808   2.977   3.463   0.351
 8970SOL    HW127809   3.019   3.480   0.440
 8970SOL    HW227810   2.884   3.430   0.363
 8971SOL     OW27811   4.877   5.492   1.931
 8971SOL    HW127812   4.825   5.409   1.910
 8971SOL    HW227813   4.944   5.471   2.003
 8972SOL     OW27814   5.227   4.327   6.616
 8972SOL    HW127815   5.167   4.404   6.596
 8972SOL    HW227816   5.186   4.271   6.688
 8973SOL     OW27817   1.277   3.370   2.150
 8973SOL    HW127818   1.316   3.400   2.063
 8973SOL    HW227819   1.252   3.450   2.205
 8974SOL     OW27820   1.961   4.531   5.670
 8974SOL    HW127821   1.962   4.628   5.645
 8974SOL    HW227822   1.870   4.493   5.656
 8975SOL     OW27823   2.138   6.974   6.459
 8975SOL    HW127824   2.170   6.886   6.496
 8975SOL    HW227825   2.213   0.001   6.411
 8976SOL     OW27826   0.358   4.983   5.104
 8976SOL    HW127827   0.326   4.939   5.188
 8976SOL    HW227828   0.297   4.957   5.029
 8977SOL     OW27829   6.209   2.133   0.090
 8977SOL    HW127830   6.212   2.154   7.010
 8977SOL    HW227831   6.121   2.162   0.128
 8978SOL     OW27832   5.654   0.291   5.364
 8978SOL    HW127833   5.709   0.251   5.290
 8978SOL    HW227834   5.612   0.376   5.332
 8979SOL     OW27835   1.143   3.387   4.730
 8979SOL    HW127836   1.224   3.331   4.745
 8979SOL    HW227837   1.171   3.479   4.702
 8980SOL     OW27838   2.327   2.789   5.854
 8980SOL    HW127839   2.403   2.763   5.795
 8980SOL    HW227840   2.256   2.833   5.800
 8981SOL     OW27841   4.208   2.047   5.263
 8981SOL    HW127842   4.239   1.973   5.322
 8981SOL    HW227843   4.110   2.038   5.245
 8982SOL     OW27844   1.327   2.379   1.292
 8982SOL    HW127845   1.417   2.421   1.280
 8982SOL    HW227846   1.301   2.331   1.208
 8983SOL     OW27847   1.594   6.668   0.047
 8983SOL    HW127848   1.555   6.743   0.099
 8983SOL    HW227849   1.531   6.641   6.992
 8984SOL     OW27850   0.197   0.382   4.334
 8984SOL    HW127851   0.212   0.377   4.235
 8984SOL    HW227852   0.275   0.342   4.382
 8985SOL     OW27853   2.260   3.699   0.459
 8985SOL    HW127854   2.350   3.676   0.495
 8985SOL    HW227855   2.198   3.718   0.536
 8986SOL     OW27856   5.037   5.130   2.432
 8986SOL    HW127857   5.023   5.095   2.524
 8986SOL    HW227858   4.953   5.119   2.378
 8987SOL     OW27859   4.430   6.662   1.790
 8987SOL    HW127860   4.383   6.595   1.847
 8987SOL    HW227861   4.412   6.754   1.825
 8988SOL     OW27862   1.423   3.898   5.138
 8988SOL    HW127863   1.324   3.904   5.150
 8988SOL    HW227864   1.457   3.983   5.098
 8989SOL     OW27865   5.041   4.130   0.838
 8989SOL    HW127866   4.946   4.138   0.867
 8989SOL    HW227867   5.071   4.035   0.847
 8990SOL     OW27868   1.597   6.276   3.792
 8990SOL    HW127869   1.570   6.186   3.827
 8990SOL    HW227870   1.691   6.295   3.819
 8991SOL     OW27871   1.855   2.117   6.066
 8991SOL    HW127872   1.899   2.096   6.154
 8991SOL    HW227873   1.912   2.083   5.991
 8992SOL     OW27874   5.483   1.680   7.003
 8992SOL    HW127875   5.546   1.693   6.926
 8992SOL    HW227876   5.415   1.754   7.003
 8993SOL     OW27877   5.367   2.584   2.108
 8993SOL    HW127878   5.341   2.551   2.017
 8993SOL    HW227879   5.284   2.606   2.161
 8994SOL     OW27880   1.320   4.279   4.514
 8994SOL    HW127881   1.232   4.242   4.484
 8994SOL    HW227882   1.321   4.289   4.613
 8995SOL     OW27883   1.520   2.965   0.047
 8995SOL    HW127884   1.421   2.953   0.045
 8995SOL    HW227885   1.548   2.997   0.138
 8996SOL     OW27886   6.091   5.218   0.452
 8996SOL    HW127887   6.173   5.160   0.452
 8996SOL    HW227888   6.024   5.181   0.387
 8997SOL     OW27889   4.970   1.731   6.340
 8997SOL    HW127890   4.950   1.720   6.243
 8997SOL    HW227891   5.069   1.721   6.354
 8998SOL     OW27892   6.086   3.986   3.880
 8998SOL    HW127893   6.039   3.904   3.847
 8998SOL    HW227894   6.145   3.962   3.956
 8999SOL     OW27895   4.753   6.180   6.677
 8999SOL    HW127896   4.712   6.143   6.594
 8999SOL    HW227897   4.728   6.123   6.756
 9000SOL     OW27898   1.627   4.043   1.010
 9000SOL    HW127899   1.548   4.029   1.070
 9000SOL    HW227900   1.688   3.964   1.016
 9001SOL     OW27901   1.376   5.490   2.188
 9001SOL    HW127902   1.324   5.507   2.104
 9001SOL    HW227903   1.464   5.448   2.165
 9002SOL     OW27904   0.538   4.945   5.320
 9002SOL    HW127905   0.584   4.884   5.255
 9002SOL    HW227906   0.503   4.891   5.396
 9003SOL     OW27907   5.513   3.185   1.678
 9003SOL    HW127908   5.424   3.146   1.657
 9003SOL    HW227909   5.581   3.148   1.615
 9004SOL     OW27910   3.990   6.503   1.299
 9004SOL    HW127911   3.940   6.586   1.274
 9004SOL    HW227912   4.067   6.490   1.238
 9005SOL     OW27913   5.698   2.805   4.294
 9005SOL    HW127914   5.609   2.840   4.325
 9005SOL    HW227915   5.733   2.740   4.361
 9006SOL     OW27916   2.649   5.611   1.276
 9006SOL    HW127917   2.690   5.621   1.185
 9006SOL    HW227918   2.550   5.615   1.268
 9007SOL     OW27919   3.321   1.260   3.620
 9007SOL    HW127920   3.313   1.164   3.594
 9007SOL    HW227921   3.234   1.292   3.657
 9008SOL     OW27922   1.502   5.632   3.598
 9008SOL    HW127923   1.439   5.698   3.558
 9008SOL    HW227924   1.458   5.542   3.600
 9009SOL     OW27925   2.707   6.880   1.116
 9009SOL    HW127926   2.724   6.784   1.093
 9009SOL    HW227927   2.755   6.938   1.050
 9010SOL     OW27928   1.538   6.465   4.145
 9010SOL    HW127929   1.461   6.500   4.199
 9010SOL    HW227930   1.556   6.527   4.069
 9011SOL     OW27931   5.036   1.778   2.306
 9011SOL    HW127932   5.027   1.680   2.323
 9011SOL    HW227933   5.130   1.798   2.278
 9012SOL     OW27934   2.202   3.959   0.367
 9012SOL    HW127935   2.153   3.990   0.285
 9012SOL    HW227936   2.203   3.859   0.369
 9013SOL     OW27937   0.338   6.664   5.418
 9013SOL    HW127938   0.403   6.726   5.463
 9013SOL    HW227939   0.350   6.669   5.319
 9014SOL     OW27940   6.510   1.827   0.045
 9014SOL    HW127941   6.521   1.897   0.116
 9014SOL    HW227942   6.577   1.843   6.990
 9015SOL     OW27943   4.610   1.416   1.701
 9015SOL    HW127944   4.564   1.469   1.773
 9015SOL    HW227945   4.687   1.469   1.665
 9016SOL     OW27946   0.222   6.525   6.695
 9016SOL    HW127947   0.180   6.456   6.636
 9016SOL    HW227948   0.175   6.612   6.683
 9017SOL     OW27949   4.597   1.996   3.470
 9017SOL    HW127950   4.508   1.988   3.515
 9017SOL    HW227951   4.665   2.028   3.536
 9018SOL     OW27952   3.950   2.704   6.861
 9018SOL    HW127953   3.853   2.729   6.861
 9018SOL    HW227954   3.958   2.605   6.848
 9019SOL     OW27955   1.494   5.599   1.848
 9019SOL    HW127956   1.543   5.682   1.875
 9019SOL    HW227957   1.503   5.586   1.749
 9020SOL     OW27958   6.922   3.479   0.752
 9020SOL    HW127959   6.827   3.508   0.764
 9020SOL    HW227960   6.949   3.421   0.829
 9021SOL     OW27961   6.482   6.721   3.550
 9021SOL    HW127962   6.393   6.677   3.558
 9021SOL    HW227963   6.471   6.820   3.544
 9022SOL     OW27964   3.433   1.697   6.847
 9022SOL    HW127965   3.429   1.706   6.946
 9022SOL    HW227966   3.523   1.724   6.814
 9023SOL     OW27967   3.499   2.874   2.130
 9023SOL    HW127968   3.427   2.880   2.062
 9023SOL    HW227969   3.478   2.935   2.207
 9024SOL     OW27970   0.797   4.547   4.904
 9024SOL    HW127971   0.890   4.583   4.889
 9024SOL    HW227972   0.733   4.595   4.844
 9025SOL     OW27973   0.620   5.205   0.860
 9025SOL    HW127974   0.674   5.123   0.879
 9025SOL    HW227975   0.665   5.257   0.787
 9026SOL     OW27976   3.873   3.059   0.590
 9026SOL    HW127977   3.941   3.123   0.624
 9026SOL    HW227978   3.865   2.982   0.653
 9027SOL     OW27979   1.805   2.512   3.089
 9027SOL    HW127980   1.831   2.594   3.040
 9027SOL    HW227981   1.887   2.459   3.112
 9028SOL     OW27982   3.028   3.679   5.412
 9028SOL    HW127983   3.034   3.757   5.350
 9028SOL    HW227984   3.115   3.669   5.461
 9029SOL     OW27985   4.232   6.520   4.879
 9029SOL    HW127986   4.133   6.528   4.884
 9029SOL    HW227987   4.260   6.525   4.783
 9030SOL     OW27988   2.788   1.750   3.360
 9030SOL    HW127989   2.824   1.839   3.387
 9030SOL    HW227990   2.688   1.751   3.364
 9031SOL     OW27991   3.914   6.143   4.423
 9031SOL    HW127992   3.980   6.181   4.359
 9031SOL    HW227993   3.897   6.047   4.401
 9032SOL     OW27994   3.868   3.993   0.526
 9032SOL    HW127995   3.831   3.904   0.498
 9032SOL    HW227996   3.962   3.981   0.555
 9033SOL     OW27997   0.326   3.769   2.917
 9033SOL    HW127998   0.384   3.802   2.992
 9033SOL    HW227999   0.277   3.846   2.877
 9034SOL     OW28000   3.267   0.121   5.254
 9034SOL    HW128001   3.221   0.150   5.338
 9034SOL    HW228002   3.285   0.023   5.258
 9035SOL     OW28003   1.958   5.398   6.494
 9035SOL    HW128004   1.992   5.308   6.466
 9035SOL    HW228005   2.036   5.460   6.506
 9036SOL     OW28006   1.680   1.632   5.158
 9036SOL    HW128007   1.738   1.576   5.099
 9036SOL    HW228008   1.661   1.719   5.113
 9037SOL     OW28009   1.084   4.005   4.971
 9037SOL    HW128010   1.011   3.942   4.942
 9037SOL    HW228011   1.128   3.969   5.054
 9038SOL     OW28012   4.130   1.069   5.959
 9038SOL    HW128013   4.227   1.062   5.937
 9038SOL    HW228014   4.110   1.012   6.039
 9039SOL     OW28015   2.116   5.577   5.273
 9039SOL    HW128016   2.187   5.547   5.338
 9039SOL    HW228017   2.031   5.528   5.292
 9040SOL     OW28018   3.626   1.905   2.743
 9040SOL    HW128019   3.711   1.957   2.734
 9040SOL    HW228020   3.553   1.952   2.693
 9041SOL     OW28021   1.240   2.283   1.653
 9041SOL    HW128022   1.265   2.225   1.575
 9041SOL    HW228023   1.273   2.241   1.737
 9042SOL     OW28024   3.615   0.351   5.016
 9042SOL    HW128025   3.536   0.394   5.059
 9042SOL    HW228026   3.638   0.267   5.064
 9043SOL     OW28027   1.200   0.697   6.850
 9043SOL    HW128028   1.218   0.673   6.946
 9043SOL    HW228029   1.255   0.777   6.825
 9044SOL     OW28030   6.250   0.371   0.247
 9044SOL    HW128031   6.202   0.430   0.182
 9044SOL    HW228032   6.295   0.297   0.197
 9045SOL     OW28033   2.594   2.027   2.800
 9045SOL    HW128034   2.527   1.968   2.755
 9045SOL    HW228035   2.546   2.094   2.857
 9046SOL     OW28036   3.332   3.460   2.922
 9046SOL    HW128037   3.303   3.379   2.974
 9046SOL    HW228038   3.430   3.474   2.934
 9047SOL     OW28039   1.740   4.131   5.279
 9047SOL    HW128040   1.839   4.117   5.278
 9047SOL    HW228041   1.720   4.226   5.254
 9048SOL     OW28042   5.583   3.628   6.058
 9048SOL    HW128043   5.499   3.598   6.013
 9048SOL    HW228044   5.655   3.641   5.989
 9049SOL     OW28045   3.781   6.928   6.021
 9049SOL    HW128046   3.816   6.955   5.931
 9049SOL    HW228047   3.696   6.979   6.040
 9050SOL     OW28048   0.295   3.011   0.693
 9050SOL    HW128049   0.260   3.104   0.701
 9050SOL    HW228050   0.315   2.992   0.597
 9051SOL     OW28051   3.871   0.235   1.119
 9051SOL    HW128052   3.779   0.263   1.148
 9051SOL    HW228053   3.914   0.310   1.068
 9052SOL     OW28054   2.862   2.239   4.301
 9052SOL    HW128055   2.782   2.240   4.241
 9052SOL    HW228056   2.945   2.230   4.246
 9053SOL     OW28057   2.140   0.534   2.772
 9053SOL    HW128058   2.059   0.569   2.821
 9053SOL    HW228059   2.172   0.451   2.817
 9054SOL     OW28060   3.228   5.973   3.486
 9054SOL    HW128061   3.157   5.953   3.554
 9054SOL    HW228062   3.232   5.898   3.420
 9055SOL     OW28063   6.274   2.796   4.242
 9055SOL    HW128064   6.221   2.873   4.277
 9055SOL    HW228065   6.272   2.797   4.142
 9056SOL     OW28066   0.307   2.110   2.034
 9056SOL    HW128067   0.309   2.111   1.934
 9056SOL    HW228068   0.382   2.054   2.068
 9057SOL     OW28069   4.758   3.919   6.295
 9057SOL    HW128070   4.737   3.888   6.202
 9057SOL    HW228071   4.826   3.857   6.336
 9058SOL     OW28072   2.314   1.186   1.470
 9058SOL    HW128073   2.238   1.234   1.515
 9058SOL    HW228074   2.401   1.218   1.509
 9059SOL     OW28075   1.380   1.906   3.805
 9059SOL    HW128076   1.408   1.870   3.895
 9059SOL    HW228077   1.315   1.980   3.818
 9060SOL     OW28078   6.008   2.863   3.869
 9060SOL    HW128079   6.039   2.775   3.832
 9060SOL    HW228080   5.911   2.877   3.847
 9061SOL     OW28081   1.918   5.371   1.905
 9061SOL    HW128082   1.997   5.369   1.843
 9061SOL    HW228083   1.865   5.287   1.893
 9062SOL     OW28084   1.836   6.455   2.102
 9062SOL    HW128085   1.914   6.480   2.159
 9062SOL    HW228086   1.772   6.399   2.156
 9063SOL     OW28087   3.566   0.277   3.695
 9063SOL    HW128088   3.510   0.350   3.736
 9063SOL    HW228089   3.562   0.195   3.752
 9064SOL     OW28090   6.207   2.174   5.407
 9064SOL    HW128091   6.257   2.234   5.469
 9064SOL    HW228092   6.130   2.224   5.367
 9065SOL     OW28093   3.803   0.274   6.028
 9065SOL    HW128094   3.871   0.202   6.015
 9065SOL    HW228095   3.818   0.347   5.961
 9066SOL     OW28096   4.753   6.831   0.822
 9066SOL    HW128097   4.722   6.884   0.901
 9066SOL    HW228098   4.745   6.733   0.843
 9067SOL     OW28099   0.998   0.411   4.576
 9067SOL    HW128100   0.940   0.479   4.623
 9067SOL    HW228101   0.993   0.426   4.478
 9068SOL     OW28102   2.387   6.978   4.727
 9068SOL    HW128103   2.353   6.971   4.821
 9068SOL    HW228104   2.479   0.001   4.727
 9069SOL     OW28105   1.519   3.355   1.495
 9069SOL    HW128106   1.452   3.287   1.465
 9069SOL    HW228107   1.549   3.409   1.416
 9070SOL     OW28108   1.204   3.006   4.822
 9070SOL    HW128109   1.282   2.994   4.882
 9070SOL    HW228110   1.207   3.098   4.781
 9071SOL     OW28111   5.994   6.372   1.834
 9071SOL    HW128112   5.911   6.325   1.806
 9071SOL    HW228113   6.074   6.315   1.814
 9072SOL     OW28114   0.095   1.791   1.265
 9072SOL    HW128115   0.091   1.702   1.218
 9072SOL    HW228116   0.079   1.778   1.362
 9073SOL     OW28117   2.991   0.014   2.744
 9073SOL    HW128118   2.919   0.082   2.757
 9073SOL    HW228119   3.065   0.032   2.808
 9074SOL     OW28120   1.340   1.667   2.028
 9074SOL    HW128121   1.334   1.705   2.120
 9074SOL    HW228122   1.323   1.569   2.031
 9075SOL     OW28123   0.080   1.546   1.875
 9075SOL    HW128124   0.053   1.451   1.887
 9075SOL    HW228125   0.166   1.550   1.824
 9076SOL     OW28126   0.159   2.479   5.727
 9076SOL    HW128127   0.179   2.500   5.632
 9076SOL    HW228128   0.116   2.559   5.770
 9077SOL     OW28129   4.825   0.385   0.375
 9077SOL    HW128130   4.794   0.470   0.415
 9077SOL    HW228131   4.782   0.308   0.422
 9078SOL     OW28132   3.965   3.441   5.627
 9078SOL    HW128133   3.934   3.469   5.718
 9078SOL    HW228134   4.061   3.466   5.615
 9079SOL     OW28135   2.830   0.059   4.137
 9079SOL    HW128136   2.867   0.102   4.219
 9079SOL    HW228137   2.902   0.006   4.092
 9080SOL     OW28138   4.670   2.647   6.059
 9080SOL    HW128139   4.654   2.695   6.145
 9080SOL    HW228140   4.608   2.568   6.053
 9081SOL     OW28141   3.906   0.114   2.150
 9081SOL    HW128142   3.899   0.211   2.128
 9081SOL    HW228143   3.921   0.103   2.249
 9082SOL     OW28144   2.092   0.402   5.257
 9082SOL    HW128145   2.127   0.324   5.308
 9082SOL    HW228146   1.992   0.397   5.252
 9083SOL     OW28147   3.526   5.247   6.250
 9083SOL    HW128148   3.492   5.223   6.341
 9083SOL    HW228149   3.549   5.163   6.200
 9084SOL     OW28150   3.389   3.852   3.321
 9084SOL    HW128151   3.396   3.950   3.342
 9084SOL    HW228152   3.344   3.840   3.233
 9085SOL     OW28153   2.487   0.778   1.587
 9085SOL    HW128154   2.526   0.722   1.515
 9085SOL    HW228155   2.402   0.737   1.620
 9086SOL     OW28156   0.932   4.535   6.870
 9086SOL    HW128157   0.881   4.621   6.878
 9086SOL    HW228158   1.004   4.532   6.938
 9087SOL     OW28159   4.859   2.342   1.706
 9087SOL    HW128160   4.804   2.294   1.638
 9087SOL    HW228161   4.956   2.337   1.681
 9088SOL     OW28162   6.831   6.787   1.523
 9088SOL    HW128163   6.767   6.711   1.522
 9088SOL    HW228164   6.797   6.858   1.585
 9089SOL     OW28165   5.477   5.494   5.355
 9089SOL    HW128166   5.552   5.446   5.310
 9089SOL    HW228167   5.514   5.558   5.422
 9090SOL     OW28168   6.520   1.548   5.170
 9090SOL    HW128169   6.584   1.569   5.096
 9090SOL    HW228170   6.504   1.629   5.225
 9091SOL     OW28171   2.765   4.156   0.437
 9091SOL    HW128172   2.727   4.191   0.523
 9091SOL    HW228173   2.692   4.143   0.370
 9092SOL     OW28174   6.572   0.742   6.806
 9092SOL    HW128175   6.549   0.665   6.747
 9092SOL    HW228176   6.489   0.793   6.828
 9093SOL     OW28177   1.302   5.948   5.402
 9093SOL    HW128178   1.301   5.893   5.486
 9093SOL    HW228179   1.397   5.964   5.375
 9094SOL     OW28180   6.764   5.094   3.031
 9094SOL    HW128181   6.667   5.092   3.008
 9094SOL    HW228182   6.775   5.120   3.127
 9095SOL     OW28183   5.120   4.867   6.076
 9095SOL    HW128184   5.105   4.966   6.072
 9095SOL    HW228185   5.035   4.819   6.053
 9096SOL     OW28186   6.379   4.917   2.681
 9096SOL    HW128187   6.299   4.974   2.664
 9096SOL    HW228188   6.462   4.968   2.656
 9097SOL     OW28189   1.837   1.886   0.285
 9097SOL    HW128190   1.841   1.885   0.185
 9097SOL    HW228191   1.776   1.813   0.317
 9098SOL     OW28192   3.040   1.896   4.713
 9098SOL    HW128193   3.092   1.979   4.693
 9098SOL    HW228194   3.094   1.836   4.773
 9099SOL     OW28195   2.654   3.172   5.650
 9099SOL    HW128196   2.563   3.201   5.680
 9099SOL    HW228197   2.646   3.104   5.578
 9100SOL     OW28198   0.301   3.657   3.431
 9100SOL    HW128199   0.340   3.612   3.512
 9100SOL    HW228200   0.359   3.636   3.352
 9101SOL     OW28201   2.544   2.512   1.954
 9101SOL    HW128202   2.603   2.468   2.022
 9101SOL    HW228203   2.578   2.493   1.862
 9102SOL     OW28204   3.084   6.993   2.146
 9102SOL    HW128205   3.162   0.001   2.204
 9102SOL    HW228206   3.096   0.015   2.055
 9103SOL     OW28207   5.716   1.679   6.830
 9103SOL    HW128208   5.785   1.701   6.762
 9103SOL    HW228209   5.753   1.615   6.897
 9104SOL     OW28210   6.797   6.456   1.350
 9104SOL    HW128211   6.825   6.477   1.444
 9104SOL    HW228212   6.698   6.446   1.346
 9105SOL     OW28213   0.427   0.266   5.873
 9105SOL    HW128214   0.462   0.352   5.910
 9105SOL    HW228215   0.502   0.200   5.865
 9106SOL     OW28216   5.955   2.974   1.126
 9106SOL    HW128217   5.999   2.932   1.045
 9106SOL    HW228218   5.926   2.902   1.189
 9107SOL     OW28219   1.941   0.376   6.468
 9107SOL    HW128220   1.932   0.462   6.518
 9107SOL    HW228221   1.853   0.353   6.424
 9108SOL     OW28222   4.944   4.546   5.005
 9108SOL    HW128223   4.981   4.463   5.046
 9108SOL    HW228224   4.850   4.560   5.037
 9109SOL     OW28225   5.209   3.266   2.784
 9109SOL    HW128226   5.166   3.176   2.794
 9109SOL    HW228227   5.305   3.254   2.758
 9110SOL     OW28228   1.657   5.228   4.267
 9110SOL    HW128229   1.694   5.135   4.266
 9110SOL    HW228230   1.704   5.282   4.337
 9111SOL     OW28231   4.501   2.795   6.704
 9111SOL    HW128232   4.476   2.832   6.793
 9111SOL    HW228233   4.517   2.870   6.640
 9112SOL     OW28234   1.400   5.074   2.769
 9112SOL    HW128235   1.376   5.080   2.866
 9112SOL    HW228236   1.333   5.017   2.722
 9113SOL     OW28237   5.010   2.314   2.692
 9113SOL    HW128238   4.953   2.253   2.637
 9113SOL    HW228239   5.020   2.402   2.645
 9114SOL     OW28240   0.467   5.505   3.521
 9114SOL    HW128241   0.448   5.602   3.508
 9114SOL    HW228242   0.547   5.479   3.467
 9115SOL     OW28243   6.048   5.455   5.246
 9115SOL    HW128244   5.990   5.483   5.170
 9115SOL    HW228245   6.053   5.528   5.314
 9116SOL     OW28246   0.084   0.156   2.843
 9116SOL    HW128247   0.077   0.059   2.820
 9116SOL    HW228248   0.052   0.171   2.936
 9117SOL     OW28249   3.894   2.618   6.407
 9117SOL    HW128250   3.820   2.574   6.459
 9117SOL    HW228251   3.944   2.680   6.466
 9118SOL     OW28252   6.728   3.295   0.272
 9118SOL    HW128253   6.816   3.272   0.231
 9118SOL    HW228254   6.674   3.349   0.207
 9119SOL     OW28255   4.049   1.294   1.439
 9119SOL    HW128256   3.960   1.320   1.475
 9119SOL    HW228257   4.102   1.376   1.416
 9120SOL     OW28258   6.329   2.707   5.341
 9120SOL    HW128259   6.333   2.652   5.258
 9120SOL    HW228260   6.275   2.790   5.323
 9121SOL     OW28261   3.569   6.443   5.492
 9121SOL    HW128262   3.614   6.532   5.500
 9121SOL    HW228263   3.626   6.382   5.437
 9122SOL     OW28264   2.308   4.282   2.058
 9122SOL    HW128265   2.385   4.320   2.109
 9122SOL    HW228266   2.226   4.336   2.076
 9123SOL     OW28267   1.943   0.406   4.381
 9123SOL    HW128268   1.859   0.461   4.385
 9123SOL    HW228269   1.951   0.363   4.291
 9124SOL     OW28270   3.371   5.370   1.934
 9124SOL    HW128271   3.433   5.299   1.968
 9124SOL    HW228272   3.370   5.369   1.834
 9125SOL     OW28273   4.356   4.535   1.404
 9125SOL    HW128274   4.368   4.446   1.448
 9125SOL    HW228275   4.444   4.583   1.402
 9126SOL     OW28276   4.821   4.038   1.149
 9126SOL    HW128277   4.858   4.008   1.236
 9126SOL    HW228278   4.864   4.125   1.122
 9127SOL     OW28279   6.990   2.422   5.392
 9127SOL    HW128280   6.991   2.377   5.303
 9127SOL    HW228281   6.946   2.362   5.459
 9128SOL     OW28282   5.971   2.490   4.858
 9128SOL    HW128283   5.966   2.392   4.875
 9128SOL    HW228284   5.991   2.538   4.943
 9129SOL     OW28285   0.147   2.023   0.629
 9129SOL    HW128286   0.187   2.108   0.663
 9129SOL    HW228287   0.187   1.945   0.677
 9130SOL     OW28288   0.680   4.426   5.815
 9130SOL    HW128289   0.693   4.518   5.852
 9130SOL    HW228290   0.767   4.378   5.813
 9131SOL     OW28291   5.113   3.174   6.950
 9131SOL    HW128292   5.016   3.182   6.972
 9131SOL    HW228293   5.137   3.244   6.883
 9132SOL     OW28294   0.654   4.291   4.159
 9132SOL    HW128295   0.744   4.303   4.202
 9132SOL    HW228296   0.593   4.364   4.189
 9133SOL     OW28297   3.350   0.573   0.686
 9133SOL    HW128298   3.328   0.654   0.632
 9133SOL    HW228299   3.370   0.599   0.780
 9134SOL     OW28300   4.497   5.794   1.508
 9134SOL    HW128301   4.431   5.812   1.435
 9134SOL    HW228302   4.466   5.838   1.592
 9135SOL     OW28303   1.505   6.183   1.506
 9135SOL    HW128304   1.526   6.185   1.603
 9135SOL    HW228305   1.538   6.268   1.463
 9136SOL     OW28306   4.208   5.825   5.381
 9136SOL    HW128307   4.298   5.866   5.398
 9136SOL    HW228308   4.209   5.730   5.411
 9137SOL     OW28309   4.416   0.394   6.052
 9137SOL    HW128310   4.439   0.296   6.051
 9137SOL    HW228311   4.342   0.410   6.117
 9138SOL     OW28312   1.538   3.253   0.238
 9138SOL    HW128313   1.562   3.211   0.325
 9138SOL    HW228314   1.613   3.240   0.173
 9139SOL     OW28315   0.890   1.235   1.580
 9139SOL    HW128316   0.874   1.307   1.647
 9139SOL    HW228317   0.949   1.271   1.507
 9140SOL     OW28318   0.458   4.935   2.293
 9140SOL    HW128319   0.467   5.004   2.365
 9140SOL    HW228320   0.409   4.856   2.330
 9141SOL     OW28321   6.827   5.911   6.837
 9141SOL    HW128322   6.756   5.857   6.883
 9141SOL    HW228323   6.793   5.944   6.749
 9142SOL     OW28324   0.505   2.947   2.664
 9142SOL    HW128325   0.453   3.031   2.677
 9142SOL    HW228326   0.482   2.908   2.575
 9143SOL     OW28327   0.629   3.809   1.262
 9143SOL    HW128328   0.706   3.872   1.254
 9143SOL    HW228329   0.583   3.823   1.349
 9144SOL     OW28330   2.710   4.765   4.835
 9144SOL    HW128331   2.732   4.689   4.896
 9144SOL    HW228332   2.729   4.852   4.881
 9145SOL     OW28333   1.444   6.580   6.820
 9145SOL    HW128334   1.354   6.613   6.847
 9145SOL    HW228335   1.473   6.626   6.736
 9146SOL     OW28336   5.225   2.826   3.173
 9146SOL    HW128337   5.157   2.771   3.124
 9146SOL    HW228338   5.277   2.880   3.108
 9147SOL     OW28339   6.543   1.086   4.728
 9147SOL    HW128340   6.503   1.159   4.673
 9147SOL    HW228341   6.516   1.098   4.824
 9148SOL     OW28342   5.628   0.041   2.285
 9148SOL    HW128343   5.590   6.978   2.239
 9148SOL    HW228344   5.560   0.114   2.286
 9149SOL     OW28345   5.543   3.515   2.105
 9149SOL    HW128346   5.456   3.512   2.154
 9149SOL    HW228347   5.617   3.485   2.167
 9150SOL     OW28348   3.258   4.211   0.665
 9150SOL    HW128349   3.160   4.208   0.647
 9150SOL    HW228350   3.275   4.184   0.760
 9151SOL     OW28351   2.169   3.997   3.967
 9151SOL    HW128352   2.194   4.047   3.884
 9151SOL    HW228353   2.155   3.901   3.944
 9152SOL     OW28354   1.903   4.292   4.099
 9152SOL    HW128355   1.824   4.231   4.090
 9152SOL    HW228356   1.983   4.240   4.126
 9153SOL     OW28357   0.548   3.452   6.516
 9153SOL    HW128358   0.488   3.397   6.458
 9153SOL    HW228359   0.526   3.435   6.612
 9154SOL     OW28360   4.968   5.125   3.503
 9154SOL    HW128361   4.909   5.044   3.504
 9154SOL    HW228362   5.061   5.098   3.479
 9155SOL     OW28363   1.979   4.422   2.973
 9155SOL    HW128364   2.059   4.441   3.031
 9155SOL    HW228365   1.943   4.332   2.995
 9156SOL     OW28366   6.579   2.724   1.048
 9156SOL    HW128367   6.504   2.662   1.070
 9156SOL    HW228368   6.550   2.786   0.975
 9157SOL     OW28369   3.422   4.104   6.429
 9157SOL    HW128370   3.482   4.110   6.349
 9157SOL    HW228371   3.417   4.193   6.474
 9158SOL     OW28372   6.660   4.798   4.248
 9158SOL    HW128373   6.674   4.890   4.285
 9158SOL    HW228374   6.709   4.731   4.304
 9159SOL     OW28375   1.962   6.931   3.365
 9159SOL    HW128376   1.966   7.010   3.426
 9159SOL    HW228377   1.869   6.894   3.364
 9160SOL     OW28378   0.667   4.867   6.250
 9160SOL    HW128379   0.676   4.913   6.338
 9160SOL    HW228380   0.678   4.933   6.176
 9161SOL     OW28381   5.914   5.153   3.257
 9161SOL    HW128382   5.824   5.192   3.238
 9161SOL    HW228383   5.965   5.213   3.319
 9162SOL     OW28384   3.870   0.667   2.735
 9162SOL    HW128385   3.771   0.654   2.739
 9162SOL    HW228386   3.916   0.578   2.733
 9163SOL     OW28387   6.804   2.833   1.897
 9163SOL    HW128388   6.839   2.750   1.940
 9163SOL    HW228389   6.850   2.913   1.936
 9164SOL     OW28390   1.633   0.659   6.559
 9164SOL    HW128391   1.548   0.607   6.564
 9164SOL    HW228392   1.633   0.731   6.629
 9165SOL     OW28393   5.150   2.117   5.809
 9165SOL    HW128394   5.110   2.055   5.741
 9165SOL    HW228395   5.100   2.204   5.807
 9166SOL     OW28396   3.713   5.556   1.187
 9166SOL    HW128397   3.698   5.567   1.285
 9166SOL    HW228398   3.804   5.517   1.171
 9167SOL     OW28399   1.169   2.355   6.601
 9167SOL    HW128400   1.215   2.267   6.613
 9167SOL    HW228401   1.232   2.429   6.627
 9168SOL     OW28402   6.319   5.768   6.244
 9168SOL    HW128403   6.288   5.681   6.206
 9168SOL    HW228404   6.320   5.763   6.344
 9169SOL     OW28405   6.627   6.191   6.296
 9169SOL    HW128406   6.573   6.202   6.380
 9169SOL    HW228407   6.675   6.103   6.299
 9170SOL     OW28408   1.753   1.394   6.268
 9170SOL    HW128409   1.828   1.454   6.297
 9170SOL    HW228410   1.790   1.314   6.222
 9171SOL     OW28411   2.394   5.379   1.142
 9171SOL    HW128412   2.410   5.369   1.240
 9171SOL    HW228413   2.346   5.298   1.107
 9172SOL     OW28414   4.492   1.691   4.890
 9172SOL    HW128415   4.577   1.652   4.855
 9172SOL    HW228416   4.414   1.636   4.859
 9173SOL     OW28417   6.938   3.218   4.336
 9173SOL    HW128418   6.874   3.209   4.413
 9173SOL    HW228419   0.012   3.190   4.364
 9174SOL     OW28420   0.643   6.082   6.977
 9174SOL    HW128421   0.569   6.088   6.909
 9174SOL    HW228422   0.623   6.007   0.023
 9175SOL     OW28423   1.743   6.105   0.560
 9175SOL    HW128424   1.652   6.135   0.530
 9175SOL    HW228425   1.738   6.009   0.589
 9176SOL     OW28426   2.411   0.242   2.402
 9176SOL    HW128427   2.411   0.153   2.448
 9176SOL    HW228428   2.410   0.315   2.470
 9177SOL     OW28429   1.701   2.701   4.042
 9177SOL    HW128430   1.715   2.718   4.140
 9177SOL    HW228431   1.739   2.612   4.018
 9178SOL     OW28432   2.181   5.527   6.601
 9178SOL    HW128433   2.184   5.562   6.695
 9178SOL    HW228434   2.262   5.470   6.585
 9179SOL     OW28435   2.686   5.917   4.531
 9179SOL    HW128436   2.700   5.994   4.469
 9179SOL    HW228437   2.592   5.883   4.522
 9180SOL     OW28438   6.535   2.077   4.113
 9180SOL    HW128439   6.614   2.137   4.130
 9180SOL    HW228440   6.530   2.056   4.016
 9181SOL     OW28441   4.977   2.565   3.476
 9181SOL    HW128442   4.919   2.620   3.416
 9181SOL    HW228443   4.958   2.588   3.571
 9182SOL     OW28444   2.680   1.108   2.696
 9182SOL    HW128445   2.694   1.092   2.598
 9182SOL    HW228446   2.767   1.134   2.738
 9183SOL     OW28447   4.617   4.044   6.494
 9183SOL    HW128448   4.685   4.001   6.434
 9183SOL    HW228449   4.525   4.028   6.458
 9184SOL     OW28450   3.273   2.062   1.041
 9184SOL    HW128451   3.246   2.148   1.083
 9184SOL    HW228452   3.193   2.004   1.028
 9185SOL     OW28453   0.341   6.980   6.478
 9185SOL    HW128454   0.264   0.010   6.436
 9185SOL    HW228455   0.393   6.931   6.407
 9186SOL     OW28456   5.229   0.595   5.640
 9186SOL    HW128457   5.182   0.666   5.694
 9186SOL    HW228458   5.255   0.520   5.700
 9187SOL     OW28459   4.208   2.093   6.793
 9187SOL    HW128460   4.207   2.054   6.885
 9187SOL    HW228461   4.121   2.139   6.776
 9188SOL     OW28462   1.628   0.822   1.218
 9188SOL    HW128463   1.539   0.855   1.188
 9188SOL    HW228464   1.700   0.867   1.165
 9189SOL     OW28465   3.350   1.005   3.522
 9189SOL    HW128466   3.405   0.922   3.532
 9189SOL    HW228467   3.255   0.980   3.500
 9190SOL     OW28468   6.328   3.940   5.462
 9190SOL    HW128469   6.309   3.852   5.505
 9190SOL    HW228470   6.287   4.013   5.517
 9191SOL     OW28471   4.836   7.013   0.070
 9191SOL    HW128472   4.934   0.012   0.084
 9191SOL    HW228473   4.804   0.055   7.013
 9192SOL     OW28474   5.930   3.904   5.935
 9192SOL    HW128475   5.889   3.994   5.951
 9192SOL    HW228476   5.968   3.870   6.021
 9193SOL     OW28477   3.313   3.741   3.709
 9193SOL    HW128478   3.346   3.680   3.637
 9193SOL    HW228479   3.264   3.688   3.778
 9194SOL     OW28480   3.645   6.119   2.027
 9194SOL    HW128481   3.690   6.207   2.040
 9194SOL    HW228482   3.608   6.087   2.114
 9195SOL     OW28483   1.741   2.828   3.786
 9195SOL    HW128484   1.679   2.798   3.714
 9195SOL    HW228485   1.701   2.808   3.875
 9196SOL     OW28486   4.676   0.343   4.103
 9196SOL    HW128487   4.639   0.420   4.051
 9196SOL    HW228488   4.774   0.336   4.087
 9197SOL     OW28489   2.759   3.545   0.700
 9197SOL    HW128490   2.843   3.571   0.749
 9197SOL    HW228491   2.752   3.445   0.696
 9198SOL     OW28492   5.837   4.287   6.162
 9198SOL    HW128493   5.814   4.269   6.067
 9198SOL    HW228494   5.813   4.381   6.186
 9199SOL     OW28495   0.881   3.112   6.466
 9199SOL    HW128496   0.787   3.083   6.488
 9199SOL    HW228497   0.944   3.067   6.530
 9200SOL     OW28498   1.077   6.129   0.143
 9200SOL    HW128499   1.011   6.143   0.069
 9200SOL    HW228500   1.054   6.190   0.220
 9201SOL     OW28501   1.093   4.023   1.316
 9201SOL    HW128502   1.129   3.944   1.366
 9201SOL    HW228503   1.005   3.999   1.274
 9202SOL     OW28504   2.490   5.609   4.788
 9202SOL    HW128505   2.532   5.699   4.793
 9202SOL    HW228506   2.485   5.569   4.879
 9203SOL     OW28507   5.085   2.117   6.280
 9203SOL    HW128508   5.144   2.058   6.225
 9203SOL    HW228509   5.023   2.167   6.220
 9204SOL     OW28510   5.798   3.848   3.435
 9204SOL    HW128511   5.855   3.785   3.486
 9204SOL    HW228512   5.714   3.867   3.487
 9205SOL     OW28513   4.904   3.319   2.695
 9205SOL    HW128514   4.979   3.296   2.757
 9205SOL    HW228515   4.878   3.237   2.644
 9206SOL     OW28516   3.340   0.696   4.792
 9206SOL    HW128517   3.351   0.741   4.703
 9206SOL    HW228518   3.362   0.599   4.782
 9207SOL     OW28519   3.508   6.389   6.053
 9207SOL    HW128520   3.410   6.378   6.066
 9207SOL    HW228521   3.525   6.431   5.964
 9208SOL     OW28522   5.078   3.334   2.379
 9208SOL    HW128523   5.044   3.351   2.286
 9208SOL    HW228524   5.075   3.419   2.432
 9209SOL     OW28525   4.078   1.123   1.852
 9209SOL    HW128526   4.118   1.199   1.903
 9209SOL    HW228527   4.073   1.042   1.911
 9210SOL     OW28528   1.989   0.306   1.619
 9210SOL    HW128529   1.889   0.314   1.619
 9210SOL    HW228530   2.021   0.300   1.714
 9211SOL     OW28531   5.375   1.515   6.404
 9211SOL    HW128532   5.459   1.552   6.444
 9211SOL    HW228533   5.399   1.451   6.331
 9212SOL     OW28534   4.593   4.418   4.820
 9212SOL    HW128535   4.647   4.497   4.788
 9212SOL    HW228536   4.503   4.450   4.851
 9213SOL     OW28537   6.049   6.751   4.597
 9213SOL    HW128538   6.034   6.763   4.695
 9213SOL    HW228539   6.141   6.783   4.574
 9214SOL     OW28540   1.256   2.413   4.974
 9214SOL    HW128541   1.268   2.504   5.016
 9214SOL    HW228542   1.232   2.424   4.878
 9215SOL     OW28543   6.889   4.468   2.368
 9215SOL    HW128544   6.943   4.499   2.290
 9215SOL    HW228545   6.950   4.450   2.445
 9216SOL     OW28546   2.574   6.712   4.588
 9216SOL    HW128547   2.479   6.683   4.596
 9216SOL    HW228548   2.617   6.667   4.510
 9217SOL     OW28549   5.461   1.196   6.418
 9217SOL    HW128550   5.412   1.141   6.486
 9217SOL    HW228551   5.549   1.224   6.456
 9218SOL     OW28552   4.239   0.101   6.503
 9218SOL    HW128553   4.205   0.020   6.455
 9218SOL    HW228554   4.339   0.096   6.509
 9219SOL     OW28555   4.107   2.919   5.382
 9219SOL    HW128556   4.204   2.925   5.361
 9219SOL    HW228557   4.053   2.948   5.303
 9220SOL     OW28558   2.178   5.648   2.951
 9220SOL    HW128559   2.228   5.586   3.012
 9220SOL    HW228560   2.111   5.700   3.004
 9221SOL     OW28561   2.042   0.636   5.858
 9221SOL    HW128562   2.134   0.630   5.821
 9221SOL    HW228563   1.999   0.720   5.827
 9222SOL     OW28564   2.532   4.543   3.999
 9222SOL    HW128565   2.484   4.609   4.057
 9222SOL    HW228566   2.517   4.451   4.033
 9223SOL     OW28567   1.105   3.320   3.813
 9223SOL    HW128568   1.066   3.406   3.781
 9223SOL    HW228569   1.079   3.304   3.908
 9224SOL     OW28570   1.353   3.313   3.743
 9224SOL    HW128571   1.410   3.363   3.808
 9224SOL    HW228572   1.259   3.308   3.778
 9225SOL     OW28573   3.594   6.607   6.181
 9225SOL    HW128574   3.588   6.517   6.139
 9225SOL    HW228575   3.502   6.642   6.201
 9226SOL     OW28576   1.125   0.344   1.550
 9226SOL    HW128577   1.086   0.262   1.590
 9226SOL    HW228578   1.111   0.422   1.612
 9227SOL     OW28579   1.370   5.289   1.038
 9227SOL    HW128580   1.432   5.249   0.970
 9227SOL    HW228581   1.346   5.382   1.010
 9228SOL     OW28582   2.198   2.423   6.229
 9228SOL    HW128583   2.241   2.510   6.204
 9228SOL    HW228584   2.173   2.374   6.145
 9229SOL     OW28585   1.291   5.244   6.721
 9229SOL    HW128586   1.258   5.165   6.669
 9229SOL    HW228587   1.248   5.327   6.687
 9230SOL     OW28588   4.555   2.506   3.966
 9230SOL    HW128589   4.583   2.456   3.884
 9230SOL    HW228590   4.462   2.479   3.990
 9231SOL     OW28591   0.722   5.267   5.643
 9231SOL    HW128592   0.631   5.264   5.685
 9231SOL    HW228593   0.787   5.306   5.708
 9232SOL     OW28594   1.760   4.961   1.171
 9232SOL    HW128595   1.773   5.047   1.121
 9232SOL    HW228596   1.799   4.885   1.118
 9233SOL     OW28597   0.933   6.740   1.129
 9233SOL    HW128598   0.866   6.761   1.059
 9233SOL    HW228599   0.948   6.641   1.131
 9234SOL     OW28600   2.236   5.182   1.037
 9234SOL    HW128601   2.276   5.091   1.028
 9234SOL    HW228602   2.141   5.180   1.007
 9235SOL     OW28603   2.467   2.403   3.565
 9235SOL    HW128604   2.510   2.463   3.633
 9235SOL    HW228605   2.507   2.421   3.475
 9236SOL     OW28606   2.200   3.323   6.979
 9236SOL    HW128607   2.132   3.389   7.011
 9236SOL    HW228608   2.265   3.369   6.919
 9237SOL     OW28609   6.847   6.069   3.071
 9237SOL    HW128610   6.905   6.149   3.053
 9237SOL    HW228611   6.754   6.100   3.091
 9238SOL     OW28612   2.336   2.618   6.072
 9238SOL    HW128613   2.331   2.695   6.008
 9238SOL    HW228614   2.431   2.587   6.078
 9239SOL     OW28615   6.821   4.587   6.533
 9239SOL    HW128616   6.874   4.662   6.572
 9239SOL    HW228617   6.727   4.593   6.566
 9240SOL     OW28618   5.459   3.278   2.740
 9240SOL    HW128619   5.506   3.195   2.768
 9240SOL    HW228620   5.483   3.301   2.646
 9241SOL     OW28621   0.347   5.568   0.339
 9241SOL    HW128622   0.364   5.528   0.249
 9241SOL    HW228623   0.388   5.510   0.409
 9242SOL     OW28624   1.747   2.251   1.890
 9242SOL    HW128625   1.757   2.350   1.899
 9242SOL    HW228626   1.807   2.206   1.956
 9243SOL     OW28627   1.355   0.436   1.943
 9243SOL    HW128628   1.443   0.465   1.982
 9243SOL    HW228629   1.318   0.510   1.887
 9244SOL     OW28630   2.699   6.478   6.110
 9244SOL    HW128631   2.606   6.514   6.098
 9244SOL    HW228632   2.741   6.520   6.190
 9245SOL     OW28633   1.122   4.038   3.532
 9245SOL    HW128634   1.175   3.999   3.457
 9245SOL    HW228635   1.036   4.073   3.497
 9246SOL     OW28636   6.112   0.418   4.198
 9246SOL    HW128637   6.191   0.408   4.138
 9246SOL    HW228638   6.141   0.456   4.286
 9247SOL     OW28639   4.005   5.439   3.068
 9247SOL    HW128640   3.936   5.502   3.034
 9247SOL    HW228641   4.030   5.374   2.996
 9248SOL     OW28642   2.747   1.344   5.004
 9248SOL    HW128643   2.839   1.381   4.990
 9248SOL    HW228644   2.748   1.284   5.084
 9249SOL     OW28645   3.879   5.019   1.864
 9249SOL    HW128646   3.863   5.039   1.961
 9249SOL    HW228647   3.897   4.921   1.854
 9250SOL     OW28648   6.863   3.871   4.081
 9250SOL    HW128649   6.956   3.903   4.101
 9250SOL    HW228650   6.847   3.875   3.982
 9251SOL     OW28651   3.655   2.831   1.282
 9251SOL    HW128652   3.747   2.847   1.318
 9251SOL    HW228653   3.601   2.914   1.291
 9252SOL     OW28654   5.126   0.703   5.295
 9252SOL    HW128655   5.031   0.731   5.308
 9252SOL    HW228656   5.129   0.625   5.233
 9253SOL     OW28657   5.437   4.764   5.421
 9253SOL    HW128658   5.491   4.731   5.344
 9253SOL    HW228659   5.344   4.728   5.416
 9254SOL     OW28660   5.475   4.247   2.070
 9254SOL    HW128661   5.535   4.167   2.071
 9254SOL    HW228662   5.435   4.260   2.161
 9255SOL     OW28663   5.776   3.618   6.556
 9255SOL    HW128664   5.845   3.597   6.626
 9255SOL    HW228665   5.752   3.533   6.507
 9256SOL     OW28666   2.078   0.135   1.838
 9256SOL    HW128667   2.035   0.175   1.919
 9256SOL    HW228668   2.171   0.107   1.861
 9257SOL     OW28669   6.118   5.899   3.351
 9257SOL    HW128670   6.138   5.996   3.365
 9257SOL    HW228671   6.171   5.844   3.415
 9258SOL     OW28672   3.415   3.430   0.551
 9258SOL    HW128673   3.440   3.363   0.621
 9258SOL    HW228674   3.437   3.522   0.583
 9259SOL     OW28675   1.796   1.436   0.051
 9259SOL    HW128676   1.851   1.500   7.015
 9259SOL    HW228677   1.715   1.484   0.087
 9260SOL     OW28678   6.811   2.879   6.139
 9260SOL    HW128679   6.898   2.917   6.110
 9260SOL    HW228680   6.745   2.887   6.064
 9261SOL     OW28681   4.783   1.255   0.149
 9261SOL    HW128682   4.775   1.231   0.246
 9261SOL    HW228683   4.875   1.289   0.130
 9262SOL     OW28684   0.819   7.005   4.831
 9262SOL    HW128685   0.829   6.983   4.928
 9262SOL    HW228686   0.749   0.058   4.820
 9263SOL     OW28687   3.304   5.523   3.081
 9263SOL    HW128688   3.361   5.476   3.014
 9263SOL    HW228689   3.299   5.470   3.165
 9264SOL     OW28690   4.929   3.574   6.489
 9264SOL    HW128691   5.003   3.602   6.549
 9264SOL    HW228692   4.939   3.619   6.400
 9265SOL     OW28693   4.013   2.134   6.434
 9265SOL    HW128694   4.100   2.086   6.430
 9265SOL    HW228695   4.023   2.225   6.392
 9266SOL     OW28696   0.559   5.582   0.887
 9266SOL    HW128697   0.529   5.676   0.869
 9266SOL    HW228698   0.657   5.573   0.868
 9267SOL     OW28699   0.972   1.673   3.995
 9267SOL    HW128700   0.922   1.610   4.054
 9267SOL    HW228701   1.066   1.683   4.028
 9268SOL     OW28702   1.032   6.219   2.550
 9268SOL    HW128703   0.951   6.268   2.518
 9268SOL    HW228704   1.033   6.126   2.514
 9269SOL     OW28705   4.227   0.433   6.233
 9269SOL    HW128706   4.165   0.359   6.260
 9269SOL    HW228707   4.219   0.510   6.296
 9270SOL     OW28708   3.445   0.991   5.442
 9270SOL    HW128709   3.483   1.082   5.422
 9270SOL    HW228710   3.365   0.976   5.384
 9271SOL     OW28711   0.495   0.040   0.714
 9271SOL    HW128712   0.441   0.087   0.644
 9271SOL    HW228713   0.465   0.071   0.805
 9272SOL     OW28714   0.666   6.490   6.883
 9272SOL    HW128715   0.647   6.404   6.834
 9272SOL    HW228716   0.729   6.471   6.958
 9273SOL     OW28717   5.142   6.280   3.592
 9273SOL    HW128718   5.055   6.317   3.624
 9273SOL    HW228719   5.131   6.243   3.500
 9274SOL     OW28720   0.226   2.270   0.282
 9274SOL    HW128721   0.224   2.171   0.265
 9274SOL    HW228722   0.321   2.301   0.287
 9275SOL     OW28723   0.191   6.685   0.359
 9275SOL    HW128724   0.236   6.652   0.276
 9275SOL    HW228725   0.260   6.708   0.428
 9276SOL     OW28726   2.723   4.385   0.138
 9276SOL    HW128727   2.744   4.423   0.228
 9276SOL    HW228728   2.661   4.446   0.088
 9277SOL     OW28729   4.145   4.834   3.207
 9277SOL    HW128730   4.225   4.775   3.219
 9277SOL    HW228731   4.112   4.863   3.297
 9278SOL     OW28732   0.155   0.475   5.608
 9278SOL    HW128733   0.175   0.387   5.651
 9278SOL    HW228734   0.211   0.487   5.527
 9279SOL     OW28735   3.293   6.163   1.657
 9279SOL    HW128736   3.217   6.104   1.631
 9279SOL    HW228737   3.354   6.174   1.579
 9280SOL     OW28738   2.161   2.405   2.197
 9280SOL    HW128739   2.097   2.422   2.271
 9280SOL    HW228740   2.248   2.450   2.217
 9281SOL     OW28741   3.391   3.874   5.833
 9281SOL    HW128742   3.449   3.804   5.791
 9281SOL    HW228743   3.324   3.907   5.766
 9282SOL     OW28744   4.650   1.244   4.400
 9282SOL    HW128745   4.620   1.154   4.369
 9282SOL    HW228746   4.615   1.260   4.492
 9283SOL     OW28747   5.424   0.298   6.064
 9283SOL    HW128748   5.380   0.272   6.150
 9283SOL    HW228749   5.463   0.390   6.073
 9284SOL     OW28750   2.929   3.842   5.082
 9284SOL    HW128751   2.869   3.878   5.153
 9284SOL    HW228752   2.929   3.742   5.086
 9285SOL     OW28753   5.392   3.354   1.184
 9285SOL    HW128754   5.328   3.344   1.108
 9285SOL    HW228755   5.343   3.384   1.266
 9286SOL     OW28756   4.988   5.625   0.451
 9286SOL    HW128757   5.041   5.582   0.524
 9286SOL    HW228758   4.995   5.570   0.368
 9287SOL     OW28759   2.613   4.024   5.674
 9287SOL    HW128760   2.641   4.059   5.584
 9287SOL    HW228761   2.516   4.043   5.689
 9288SOL     OW28762   4.500   2.574   3.160
 9288SOL    HW128763   4.437   2.496   3.169
 9288SOL    HW228764   4.501   2.625   3.246
 9289SOL     OW28765   4.491   0.715   6.487
 9289SOL    HW128766   4.517   0.811   6.480
 9289SOL    HW228767   4.564   0.658   6.448
 9290SOL     OW28768   6.283   0.694   4.026
 9290SOL    HW128769   6.305   0.598   4.010
 9290SOL    HW228770   6.184   0.707   4.025
 9291SOL     OW28771   1.169   6.374   5.945
 9291SOL    HW128772   1.101   6.370   6.019
 9291SOL    HW228773   1.166   6.288   5.894
 9292SOL     OW28774   1.688   0.820   6.785
 9292SOL    HW128775   1.710   0.746   6.848
 9292SOL    HW228776   1.627   0.885   6.829
 9293SOL     OW28777   5.296   2.727   6.672
 9293SOL    HW128778   5.233   2.656   6.640
 9293SOL    HW228779   5.302   2.725   6.772
 9294SOL     OW28780   4.998   1.187   0.385
 9294SOL    HW128781   5.098   1.182   0.386
 9294SOL    HW228782   4.963   1.173   0.477
 9295SOL     OW28783   6.934   0.866   5.327
 9295SOL    HW128784   6.977   0.940   5.275
 9295SOL    HW228785   6.935   0.782   5.272
 9296SOL     OW28786   2.354   3.703   0.985
 9296SOL    HW128787   2.280   3.770   0.982
 9296SOL    HW228788   2.317   3.613   1.006
 9297SOL     OW28789   0.869   6.075   2.977
 9297SOL    HW128790   0.966   6.077   2.998
 9297SOL    HW228791   0.853   6.015   2.898
 9298SOL     OW28792   1.186   6.883   6.020
 9298SOL    HW128793   1.254   6.810   6.030
 9298SOL    HW228794   1.126   6.862   5.942
 9299SOL     OW28795   1.762   1.328   3.661
 9299SOL    HW128796   1.736   1.417   3.625
 9299SOL    HW228797   1.861   1.316   3.654
 9300SOL     OW28798   0.237   5.634   5.341
 9300SOL    HW128799   0.295   5.647   5.261
 9300SOL    HW228800   0.281   5.676   5.421
 9301SOL     OW28801   0.149   4.416   4.785
 9301SOL    HW128802   0.128   4.514   4.791
 9301SOL    HW228803   0.065   4.363   4.794
 9302SOL     OW28804   2.243   2.821   4.600
 9302SOL    HW128805   2.176   2.855   4.665
 9302SOL    HW228806   2.320   2.781   4.649
 9303SOL     OW28807   3.203   4.785   0.620
 9303SOL    HW128808   3.248   4.727   0.552
 9303SOL    HW228809   3.128   4.835   0.577
 9304SOL     OW28810   4.744   5.257   0.893
 9304SOL    HW128811   4.780   5.349   0.885
 9304SOL    HW228812   4.725   5.219   0.802
 9305SOL     OW28813   3.598   1.638   0.318
 9305SOL    HW128814   3.663   1.568   0.346
 9305SOL    HW228815   3.518   1.635   0.378
 9306SOL     OW28816   6.770   3.469   4.668
 9306SOL    HW128817   6.691   3.531   4.671
 9306SOL    HW228818   6.827   3.485   4.748
 9307SOL     OW28819   1.804   3.702   0.553
 9307SOL    HW128820   1.757   3.733   0.636
 9307SOL    HW228821   1.800   3.774   0.483
 9308SOL     OW28822   1.291   4.825   1.280
 9308SOL    HW128823   1.271   4.849   1.375
 9308SOL    HW228824   1.372   4.875   1.249
 9309SOL     OW28825   4.359   6.495   6.247
 9309SOL    HW128826   4.353   6.595   6.239
 9309SOL    HW228827   4.283   6.462   6.302
 9310SOL     OW28828   5.065   5.847   5.561
 9310SOL    HW128829   5.058   5.924   5.624
 9310SOL    HW228830   5.079   5.763   5.613
 9311SOL     OW28831   4.437   4.249   1.418
 9311SOL    HW128832   4.515   4.275   1.361
 9311SOL    HW228833   4.469   4.236   1.512
 9312SOL     OW28834   1.745   2.204   1.384
 9312SOL    HW128835   1.837   2.243   1.379
 9312SOL    HW228836   1.706   2.199   1.292
 9313SOL     OW28837   0.928   0.810   1.614
 9313SOL    HW128838   0.897   0.717   1.596
 9313SOL    HW228839   1.024   0.819   1.588
 9314SOL     OW28840   5.695   3.453   0.638
 9314SOL    HW128841   5.657   3.445   0.730
 9314SOL    HW228842   5.716   3.362   0.602
 9315SOL     OW28843   6.370   0.679   6.475
 9315SOL    HW128844   6.308   0.745   6.518
 9315SOL    HW228845   6.343   0.666   6.380
 9316SOL     OW28846   6.072   0.185   5.006
 9316SOL    HW128847   6.059   0.281   5.029
 9316SOL    HW228848   6.127   0.141   5.077
 9317SOL     OW28849   3.526   5.211   3.504
 9317SOL    HW128850   3.560   5.127   3.546
 9317SOL    HW228851   3.576   5.228   3.419
 9318SOL     OW28852   4.525   5.817   0.273
 9318SOL    HW128853   4.463   5.896   0.279
 9318SOL    HW228854   4.487   5.750   0.208
 9319SOL     OW28855   2.365   3.108   0.769
 9319SOL    HW128856   2.311   3.062   0.699
 9319SOL    HW228857   2.343   3.070   0.859
 9320SOL     OW28858   4.625   0.008   5.706
 9320SOL    HW128859   4.559   6.980   5.765
 9320SOL    HW228860   4.611   0.107   5.711
 9321SOL     OW28861   0.951   2.112   4.985
 9321SOL    HW128862   0.901   2.177   5.042
 9321SOL    HW228863   0.893   2.033   4.966
 9322SOL     OW28864   6.395   4.764   5.962
 9322SOL    HW128865   6.453   4.699   6.011
 9322SOL    HW228866   6.394   4.741   5.865
 9323SOL     OW28867   2.310   2.564   4.499
 9323SOL    HW128868   2.385   2.544   4.562
 9323SOL    HW228869   2.272   2.654   4.521
 9324SOL     OW28870   1.994   3.751   0.791
 9324SOL    HW128871   1.962   3.807   0.715
 9324SOL    HW228872   1.915   3.710   0.837
 9325SOL     OW28873   1.605   6.183   1.752
 9325SOL    HW128874   1.674   6.157   1.820
 9325SOL    HW228875   1.591   6.282   1.756
 9326SOL     OW28876   3.681   5.717   0.006
 9326SOL    HW128877   3.592   5.738   0.048
 9326SOL    HW228878   3.753   5.770   0.051
 9327SOL     OW28879   4.719   0.046   2.946
 9327SOL    HW128880   4.731   0.024   3.043
 9327SOL    HW228881   4.682   0.138   2.937
 9328SOL     OW28882   2.372   6.940   4.998
 9328SOL    HW128883   2.343   6.979   5.085
 9328SOL    HW228884   2.465   6.906   5.006
 9329SOL     OW28885   0.130   5.542   6.886
 9329SOL    HW128886   0.194   5.526   6.811
 9329SOL    HW228887   0.041   5.505   6.863
 9330SOL     OW28888   0.758   0.028   6.634
 9330SOL    HW128889   0.805   0.055   6.550
 9330SOL    HW228890   0.735   0.109   6.687
 9331SOL     OW28891   1.774   2.428   5.197
 9331SOL    HW128892   1.713   2.496   5.155
 9331SOL    HW228893   1.865   2.468   5.208
 9332SOL     OW28894   4.385   5.674   0.577
 9332SOL    HW128895   4.445   5.660   0.498
 9332SOL    HW228896   4.438   5.670   0.661
 9333SOL     OW28897   3.705   5.923   0.509
 9333SOL    HW128898   3.663   6.010   0.483
 9333SOL    HW228899   3.720   5.922   0.608
 9334SOL     OW28900   5.501   0.486   4.151
 9334SOL    HW128901   5.584   0.520   4.196
 9334SOL    HW228902   5.501   0.518   4.056
 9335SOL     OW28903   1.875   2.162   0.858
 9335SOL    HW128904   1.944   2.198   0.921
 9335SOL    HW228905   1.804   2.231   0.844
 9336SOL     OW28906   5.801   6.843   4.502
 9336SOL    HW128907   5.854   6.783   4.562
 9336SOL    HW228908   5.862   6.887   4.436
 9337SOL     OW28909   4.825   0.428   0.105
 9337SOL    HW128910   4.824   0.405   0.203
 9337SOL    HW228911   4.732   0.425   0.069
 9338SOL     OW28912   0.103   5.650   0.228
 9338SOL    HW128913   0.104   5.606   0.138
 9338SOL    HW228914   0.197   5.663   0.260
 9339SOL     OW28915   5.883   5.382   0.717
 9339SOL    HW128916   5.944   5.451   0.679
 9339SOL    HW228917   5.802   5.374   0.658
 9340SOL     OW28918   3.913   4.812   2.930
 9340SOL    HW128919   3.958   4.746   2.990
 9340SOL    HW228920   3.836   4.853   2.979
 9341SOL     OW28921   6.544   4.613   6.626
 9341SOL    HW128922   6.523   4.657   6.713
 9341SOL    HW228923   6.460   4.604   6.573
 9342SOL     OW28924   2.961   0.519   4.936
 9342SOL    HW128925   2.989   0.494   4.843
 9342SOL    HW228926   2.882   0.463   4.963
 9343SOL     OW28927   5.043   3.468   2.082
 9343SOL    HW128928   4.990   3.450   1.999
 9343SOL    HW228929   5.140   3.449   2.064
 9344SOL     OW28930   5.113   5.491   6.499
 9344SOL    HW128931   5.151   5.400   6.519
 9344SOL    HW228932   5.177   5.541   6.441
 9345SOL     OW28933   6.441   5.566   6.902
 9345SOL    HW128934   6.505   5.636   6.933
 9345SOL    HW228935   6.347   5.595   6.923
 9346SOL     OW28936   4.750   5.604   2.455
 9346SOL    HW128937   4.663   5.647   2.476
 9346SOL    HW228938   4.782   5.635   2.366
 9347SOL     OW28939   3.775   5.805   0.267
 9347SOL    HW128940   3.829   5.722   0.280
 9347SOL    HW228941   3.760   5.849   0.356
 9348SOL     OW28942   2.622   5.328   3.345
 9348SOL    HW128943   2.647   5.409   3.398
 9348SOL    HW228944   2.692   5.257   3.357
 9349SOL     OW28945   6.427   5.643   2.270
 9349SOL    HW128946   6.512   5.694   2.283
 9349SOL    HW228947   6.399   5.648   2.174
 9350SOL     OW28948   6.968   1.451   4.120
 9350SOL    HW128949   6.873   1.469   4.095
 9350SOL    HW228950   6.977   1.456   4.220
 9351SOL     OW28951   2.194   0.905   6.063
 9351SOL    HW128952   2.131   0.908   6.141
 9351SOL    HW228953   2.253   0.825   6.072
 9352SOL     OW28954   1.479   2.775   5.510
 9352SOL    HW128955   1.486   2.745   5.605
 9352SOL    HW228956   1.531   2.859   5.497
 9353SOL     OW28957   1.582   4.292   1.997
 9353SOL    HW128958   1.560   4.362   2.064
 9353SOL    HW228959   1.542   4.205   2.025
 9354SOL     OW28960   6.001   1.812   1.065
 9354SOL    HW128961   6.018   1.815   0.967
 9354SOL    HW228962   5.940   1.735   1.086
 9355SOL     OW28963   6.140   1.217   3.943
 9355SOL    HW128964   6.055   1.165   3.933
 9355SOL    HW228965   6.120   1.308   3.979
 9356SOL     OW28966   4.772   5.120   2.306
 9356SOL    HW128967   4.737   5.213   2.317
 9356SOL    HW228968   4.703   5.054   2.334
 9357SOL     OW28969   2.404   4.498   6.914
 9357SOL    HW128970   2.438   4.577   6.965
 9357SOL    HW228971   2.347   4.441   6.974
 9358SOL     OW28972   5.488   3.446   1.616
 9358SOL    HW128973   5.511   3.349   1.620
 9358SOL    HW228974   5.399   3.458   1.572
 9359SOL     OW28975   0.397   3.518   5.298
 9359SOL    HW128976   0.381   3.555   5.206
 9359SOL    HW228977   0.359   3.581   5.366
 9360SOL     OW28978   1.089   0.202   5.847
 9360SOL    HW128979   1.144   0.188   5.929
 9360SOL    HW228980   1.149   0.201   5.767
 9361SOL     OW28981   2.639   6.798   3.338
 9361SOL    HW128982   2.576   6.723   3.317
 9361SOL    HW228983   2.598   6.885   3.309
 9362SOL     OW28984   1.519   1.189   1.827
 9362SOL    HW128985   1.547   1.250   1.902
 9362SOL    HW228986   1.489   1.244   1.749
 9363SOL     OW28987   3.856   5.295   2.054
 9363SOL    HW128988   3.878   5.281   2.150
 9363SOL    HW228989   3.937   5.274   1.998
 9364SOL     OW28990   4.025   3.407   6.253
 9364SOL    HW128991   3.957   3.354   6.303
 9364SOL    HW228992   3.979   3.482   6.205
 9365SOL     OW28993   2.578   1.492   4.830
 9365SOL    HW128994   2.611   1.458   4.741
 9365SOL    HW228995   2.649   1.480   4.899
 9366SOL     OW28996   3.054   1.831   6.900
 9366SOL    HW128997   3.135   1.883   6.875
 9366SOL    HW228998   2.994   1.821   6.820
 9367SOL     OW28999   0.144   6.215   3.775
 9367SOL    HW129000   0.053   6.205   3.816
 9367SOL    HW229001   0.139   6.193   3.678
 9368SOL     OW29002   3.174   1.823   3.429
 9368SOL    HW129003   3.242   1.800   3.359
 9368SOL    HW229004   3.133   1.738   3.463
 9369SOL     OW29005   0.478   0.550   5.982
 9369SOL    HW129006   0.576   0.550   6.005
 9369SOL    HW229007   0.427   0.602   6.050
 9370SOL     OW29008   5.325   0.392   2.644
 9370SOL    HW129009   5.328   0.340   2.730
 9370SOL    HW229010   5.230   0.419   2.625
 9371SOL     OW29011   2.364   4.919   0.322
 9371SOL    HW129012   2.347   5.011   0.286
 9371SOL    HW229013   2.369   4.922   0.422
 9372SOL     OW29014   5.679   5.879   3.022
 9372SOL    HW129015   5.770   5.921   3.017
 9372SOL    HW229016   5.660   5.832   2.936
 9373SOL     OW29017   4.491   2.163   2.516
 9373SOL    HW129018   4.516   2.192   2.608
 9373SOL    HW229019   4.441   2.237   2.470
 9374SOL     OW29020   6.154   3.180   6.787
 9374SOL    HW129021   6.137   3.106   6.852
 9374SOL    HW229022   6.176   3.142   6.698
 9375SOL     OW29023   6.883   1.728   3.335
 9375SOL    HW129024   6.812   1.666   3.368
 9375SOL    HW229025   6.842   1.798   3.276
 9376SOL     OW29026   2.936   3.704   1.226
 9376SOL    HW129027   2.912   3.734   1.318
 9376SOL    HW229028   2.860   3.724   1.164
 9377SOL     OW29029   1.543   6.000   3.870
 9377SOL    HW129030   1.451   6.012   3.907
 9377SOL    HW229031   1.556   5.904   3.844
 9378SOL     OW29032   0.785   0.391   5.681
 9378SOL    HW129033   0.696   0.348   5.667
 9378SOL    HW229034   0.844   0.371   5.603
 9379SOL     OW29035   4.438   4.910   5.179
 9379SOL    HW129036   4.369   4.941   5.113
 9379SOL    HW229037   4.489   4.989   5.212
 9380SOL     OW29038   6.154   4.683   4.951
 9380SOL    HW129039   6.235   4.681   5.010
 9380SOL    HW229040   6.151   4.768   4.900
 9381SOL     OW29041   2.033   3.300   5.680
 9381SOL    HW129042   2.079   3.327   5.595
 9381SOL    HW229043   1.949   3.251   5.659
 9382SOL     OW29044   3.535   1.578   3.009
 9382SOL    HW129045   3.481   1.580   2.925
 9382SOL    HW229046   3.489   1.632   3.080
 9383SOL     OW29047   2.740   6.411   4.755
 9383SOL    HW129048   2.640   6.405   4.747
 9383SOL    HW229049   2.763   6.448   4.845
 9384SOL     OW29050   3.697   6.054   1.376
 9384SOL    HW129051   3.789   6.086   1.353
 9384SOL    HW229052   3.652   6.120   1.435
 9385SOL     OW29053   4.268   1.141   2.487
 9385SOL    HW129054   4.235   1.204   2.558
 9385SOL    HW229055   4.368   1.139   2.488
 9386SOL     OW29056   2.179   6.514   5.059
 9386SOL    HW129057   2.182   6.445   5.132
 9386SOL    HW229058   2.084   6.525   5.029
 9387SOL     OW29059   3.594   0.727   6.819
 9387SOL    HW129060   3.626   0.817   6.791
 9387SOL    HW229061   3.504   0.710   6.780
 9388SOL     OW29062   1.937   5.473   2.662
 9388SOL    HW129063   1.959   5.411   2.586
 9388SOL    HW229064   1.894   5.422   2.736
 9389SOL     OW29065   2.063   6.909   5.212
 9389SOL    HW129066   2.052   6.912   5.112
 9389SOL    HW229067   2.014   6.986   5.253
 9390SOL     OW29068   3.835   5.622   4.878
 9390SOL    HW129069   3.903   5.689   4.908
 9390SOL    HW229070   3.856   5.593   4.784
 9391SOL     OW29071   2.221   0.527   5.061
 9391SOL    HW129072   2.276   0.454   5.022
 9391SOL    HW229073   2.164   0.490   5.134
 9392SOL     OW29074   6.942   0.616   5.206
 9392SOL    HW129075   6.915   0.618   5.109
 9392SOL    HW229076   6.900   0.538   5.250
 9393SOL     OW29077   3.180   0.894   5.343
 9393SOL    HW129078   3.083   0.908   5.358
 9393SOL    HW229079   3.204   0.799   5.362
 9394SOL     OW29080   6.352   1.379   2.257
 9394SOL    HW129081   6.262   1.418   2.278
 9394SOL    HW229082   6.399   1.356   2.343
 9395SOL     OW29083   2.543   2.591   0.551
 9395SOL    HW129084   2.570   2.661   0.617
 9395SOL    HW229085   2.499   2.635   0.472
 9396SOL     OW29086   0.611   5.275   3.353
 9396SOL    HW129087   0.654   5.205   3.296
 9396SOL    HW229088   0.657   5.277   3.442
 9397SOL     OW29089   2.923   0.148   0.556
 9397SOL    HW129090   2.848   0.214   0.559
 9397SOL    HW229091   2.886   0.058   0.530
 9398SOL     OW29092   1.611   0.162   5.620
 9398SOL    HW129093   1.548   0.136   5.547
 9398SOL    HW229094   1.700   0.118   5.604
 9399SOL     OW29095   0.472   1.554   0.277
 9399SOL    HW129096   0.483   1.648   0.309
 9399SOL    HW229097   0.516   1.544   0.188
 9400SOL     OW29098   5.467   2.552   1.572
 9400SOL    HW129099   5.520   2.621   1.523
 9400SOL    HW229100   5.506   2.461   1.554
 9401SOL     OW29101   4.275   6.841   3.231
 9401SOL    HW129102   4.200   6.776   3.242
 9401SOL    HW229103   4.362   6.793   3.234
 9402SOL     OW29104   1.155   5.053   4.487
 9402SOL    HW129105   1.153   4.963   4.531
 9402SOL    HW229106   1.245   5.095   4.503
 9403SOL     OW29107   5.637   1.368   3.166
 9403SOL    HW129108   5.619   1.285   3.219
 9403SOL    HW229109   5.736   1.379   3.154
 9404SOL     OW29110   0.675   3.200   6.046
 9404SOL    HW129111   0.575   3.199   6.043
 9404SOL    HW229112   0.705   3.221   6.139
 9405SOL     OW29113   0.359   6.144   2.385
 9405SOL    HW129114   0.375   6.194   2.300
 9405SOL    HW229115   0.302   6.064   2.366
 9406SOL     OW29116   6.974   3.204   6.254
 9406SOL    HW129117   6.879   3.183   6.278
 9406SOL    HW229118   0.011   3.213   6.337
 9407SOL     OW29119   2.358   5.267   3.734
 9407SOL    HW129120   2.392   5.311   3.650
 9407SOL    HW229121   2.424   5.198   3.764
 9408SOL     OW29122   3.570   1.721   6.210
 9408SOL    HW129123   3.647   1.737   6.271
 9408SOL    HW229124   3.583   1.771   6.125
 9409SOL     OW29125   5.865   4.590   6.146
 9409SOL    HW129126   5.767   4.608   6.136
 9409SOL    HW229127   5.903   4.565   6.057
 9410SOL     OW29128   3.195   6.358   1.837
 9410SOL    HW129129   3.100   6.329   1.834
 9410SOL    HW229130   3.248   6.307   1.769
 9411SOL     OW29131   3.944   3.804   1.475
 9411SOL    HW129132   3.997   3.846   1.401
 9411SOL    HW229133   4.004   3.785   1.553
 9412SOL     OW29134   0.285   3.227   1.813
 9412SOL    HW129135   0.303   3.272   1.900
 9412SOL    HW229136   0.268   3.130   1.828
 9413SOL     OW29137   3.884   5.864   4.398
 9413SOL    HW129138   3.898   5.800   4.322
 9413SOL    HW229139   3.900   5.817   4.485
 9414SOL     OW29140   3.258   0.920   3.775
 9414SOL    HW129141   3.158   0.922   3.768
 9414SOL    HW229142   3.297   0.943   3.686
 9415SOL     OW29143   2.700   0.133   2.606
 9415SOL    HW129144   2.683   0.127   2.705
 9415SOL    HW229145   2.632   0.194   2.565
 9416SOL     OW29146   0.752   1.516   1.122
 9416SOL    HW129147   0.791   1.603   1.153
 9416SOL    HW229148   0.653   1.527   1.110
 9417SOL     OW29149   3.920   6.779   5.680
 9417SOL    HW129150   3.991   6.782   5.609
 9417SOL    HW229151   3.938   6.701   5.741
 9418SOL     OW29152   2.946   6.800   1.418
 9418SOL    HW129153   2.981   6.828   1.329
 9418SOL    HW229154   2.913   6.881   1.468
 9419SOL     OW29155   2.871   5.069   5.905
 9419SOL    HW129156   2.861   5.137   5.832
 9419SOL    HW229157   2.794   5.005   5.902
 9420SOL     OW29158   0.053   2.199   4.245
 9420SOL    HW129159   0.072   2.230   4.152
 9420SOL    HW229160   0.138   2.198   4.298
 9421SOL     OW29161   2.473   6.404   4.709
 9421SOL    HW129162   2.382   6.378   4.742
 9421SOL    HW229163   2.489   6.501   4.727
 9422SOL     OW29164   4.669   5.919   2.579
 9422SOL    HW129165   4.736   5.958   2.643
 9422SOL    HW229166   4.605   5.989   2.550
 9423SOL     OW29167   4.337   0.819   3.191
 9423SOL    HW129168   4.426   0.783   3.219
 9423SOL    HW229169   4.322   0.797   3.095
 9424SOL     OW29170   5.037   0.959   5.513
 9424SOL    HW129171   5.006   0.870   5.482
 9424SOL    HW229172   5.061   1.016   5.434
 9425SOL     OW29173   0.548   3.721   6.190
 9425SOL    HW129174   0.575   3.784   6.117
 9425SOL    HW229175   0.567   3.627   6.161
 9426SOL     OW29176   2.470   1.862   0.288
 9426SOL    HW129177   2.551   1.914   0.316
 9426SOL    HW229178   2.388   1.904   0.327
 9427SOL     OW29179   2.895   5.197   4.773
 9427SOL    HW129180   2.906   5.241   4.862
 9427SOL    HW229181   2.957   5.119   4.767
 9428SOL     OW29182   5.390   1.012   0.848
 9428SOL    HW129183   5.347   0.938   0.900
 9428SOL    HW229184   5.324   1.048   0.782
 9429SOL     OW29185   1.923   4.456   2.176
 9429SOL    HW129186   2.000   4.510   2.143
 9429SOL    HW229187   1.957   4.374   2.222
 9430SOL     OW29188   6.961   4.521   1.747
 9430SOL    HW129189   6.898   4.506   1.670
 9430SOL    HW229190   6.909   4.529   1.832
 9431SOL     OW29191   5.435   3.933   1.061
 9431SOL    HW129192   5.419   3.865   1.133
 9431SOL    HW229193   5.436   4.025   1.101
 9432SOL     OW29194   5.285   0.801   2.647
 9432SOL    HW129195   5.376   0.776   2.681
 9432SOL    HW229196   5.294   0.865   2.570
 9433SOL     OW29197   3.522   4.870   3.828
 9433SOL    HW129198   3.566   4.913   3.907
 9433SOL    HW229199   3.422   4.879   3.837
 9434SOL     OW29200   5.295   5.156   3.022
 9434SOL    HW129201   5.252   5.172   3.111
 9434SOL    HW229202   5.393   5.174   3.029
 9435SOL     OW29203   0.470   2.027   4.441
 9435SOL    HW129204   0.455   1.963   4.515
 9435SOL    HW229205   0.509   1.979   4.362
 9436SOL     OW29206   1.190   3.960   2.050
 9436SOL    HW129207   1.208   4.058   2.044
 9436SOL    HW229208   1.099   3.945   2.088
 9437SOL     OW29209   1.808   6.464   3.612
 9437SOL    HW129210   1.848   6.373   3.599
 9437SOL    HW229211   1.713   6.463   3.580
 9438SOL     OW29212   0.618   6.962   2.092
 9438SOL    HW129213   0.711   6.941   2.123
 9438SOL    HW229214   0.580   6.883   2.044
 9439SOL     OW29215   0.263   2.366   2.150
 9439SOL    HW129216   0.256   2.269   2.126
 9439SOL    HW229217   0.335   2.379   2.219
 9440SOL     OW29218   4.485   5.690   4.233
 9440SOL    HW129219   4.451   5.740   4.313
 9440SOL    HW229220   4.428   5.712   4.154
 9441SOL     OW29221   1.632   3.515   5.087
 9441SOL    HW129222   1.671   3.588   5.144
 9441SOL    HW229223   1.557   3.552   5.032
 9442SOL     OW29224   4.879   3.431   0.018
 9442SOL    HW129225   4.833   3.347   7.008
 9442SOL    HW229226   4.826   3.510   7.007
 9443SOL     OW29227   2.193   5.783   1.426
 9443SOL    HW129228   2.223   5.867   1.380
 9443SOL    HW229229   2.157   5.719   1.359
 9444SOL     OW29230   1.588   4.008   6.364
 9444SOL    HW129231   1.665   4.014   6.427
 9444SOL    HW229232   1.620   4.019   6.271
 9445SOL     OW29233   5.711   3.667   2.410
 9445SOL    HW129234   5.778   3.706   2.474
 9445SOL    HW229235   5.715   3.567   2.414
 9446SOL     OW29236   6.665   6.827   3.976
 9446SOL    HW129237   6.709   6.738   3.960
 9446SOL    HW229238   6.590   6.815   4.040
 9447SOL     OW29239   6.330   3.461   3.143
 9447SOL    HW129240   6.249   3.474   3.085
 9447SOL    HW229241   6.308   3.398   3.217
 9448SOL     OW29242   6.888   6.890   6.221
 9448SOL    HW129243   6.853   6.930   6.306
 9448SOL    HW229244   6.816   6.890   6.152
 9449SOL     OW29245   6.413   5.807   6.501
 9449SOL    HW129246   6.511   5.797   6.519
 9449SOL    HW229247   6.378   5.887   6.549
 9450SOL     OW29248   3.330   4.923   4.673
 9450SOL    HW129249   3.422   4.963   4.665
 9450SOL    HW229250   3.300   4.892   4.583
 9451SOL     OW29251   3.489   6.134   6.244
 9451SOL    HW129252   3.547   6.067   6.290
 9451SOL    HW229253   3.545   6.211   6.214
 9452SOL     OW29254   1.081   3.492   0.701
 9452SOL    HW129255   1.074   3.564   0.769
 9452SOL    HW229256   1.105   3.532   0.612
 9453SOL     OW29257   1.870   5.025   3.969
 9453SOL    HW129258   1.853   4.949   4.032
 9453SOL    HW229259   1.968   5.029   3.948
 9454SOL     OW29260   2.194   3.382   6.139
 9454SOL    HW129261   2.098   3.400   6.160
 9454SOL    HW229262   2.201   3.304   6.077
 9455SOL     OW29263   4.088   1.617   2.748
 9455SOL    HW129264   4.122   1.683   2.681
 9455SOL    HW229265   4.010   1.657   2.797
 9456SOL     OW29266   1.044   4.027   0.412
 9456SOL    HW129267   0.969   4.090   0.433
 9456SOL    HW229268   1.030   3.988   0.321
 9457SOL     OW29269   2.304   4.142   5.354
 9457SOL    HW129270   2.362   4.073   5.312
 9457SOL    HW229271   2.322   4.146   5.452
 9458SOL     OW29272   1.408   2.984   6.638
 9458SOL    HW129273   1.385   3.079   6.656
 9458SOL    HW229274   1.418   2.970   6.539
 9459SOL     OW29275   5.628   4.719   2.951
 9459SOL    HW129276   5.621   4.622   2.975
 9459SOL    HW229277   5.581   4.735   2.864
 9460SOL     OW29278   6.639   1.877   4.954
 9460SOL    HW129279   6.644   1.962   5.006
 9460SOL    HW229280   6.554   1.829   4.977
 9461SOL     OW29281   6.826   1.868   2.661
 9461SOL    HW129282   6.925   1.876   2.668
 9461SOL    HW229283   6.801   1.774   2.637
 9462SOL     OW29284   2.139   3.757   3.526
 9462SOL    HW129285   2.049   3.760   3.482
 9462SOL    HW229286   2.152   3.669   3.570
 9463SOL     OW29287   0.578   0.873   1.256
 9463SOL    HW129288   0.592   0.900   1.350
 9463SOL    HW229289   0.582   0.953   1.196
 9464SOL     OW29290   5.975   6.652   0.604
 9464SOL    HW129291   5.937   6.743   0.620
 9464SOL    HW229292   6.072   6.659   0.583
 9465SOL     OW29293   0.750   6.348   3.067
 9465SOL    HW129294   0.795   6.258   3.063
 9465SOL    HW229295   0.684   6.355   2.993
 9466SOL     OW29296   3.973   4.124   5.122
 9466SOL    HW129297   3.951   4.121   5.024
 9466SOL    HW229298   3.898   4.167   5.171
 9467SOL     OW29299   1.481   2.475   1.824
 9467SOL    HW129300   1.465   2.435   1.734
 9467SOL    HW229301   1.453   2.411   1.895
 9468SOL     OW29302   5.649   2.438   5.922
 9468SOL    HW129303   5.700   2.523   5.908
 9468SOL    HW229304   5.552   2.460   5.937
 9469SOL     OW29305   5.596   5.840   1.280
 9469SOL    HW129306   5.595   5.900   1.359
 9469SOL    HW229307   5.688   5.804   1.265
 9470SOL     OW29308   4.767   3.988   5.689
 9470SOL    HW129309   4.710   3.980   5.771
 9470SOL    HW229310   4.741   3.917   5.623
 9471SOL     OW29311   5.953   1.278   4.264
 9471SOL    HW129312   5.935   1.341   4.189
 9471SOL    HW229313   5.968   1.186   4.228
 9472SOL     OW29314   6.052   2.896   4.364
 9472SOL    HW129315   6.057   2.801   4.331
 9472SOL    HW229316   5.956   2.926   4.363
 9473SOL     OW29317   2.619   4.965   5.551
 9473SOL    HW129318   2.645   4.965   5.647
 9473SOL    HW229319   2.654   5.048   5.507
 9474SOL     OW29320   6.394   3.104   0.097
 9474SOL    HW129321   6.409   3.124   0.194
 9474SOL    HW229322   6.378   3.189   0.048
 9475SOL     OW29323   3.182   3.738   0.320
 9475SOL    HW129324   3.146   3.776   0.235
 9475SOL    HW229325   3.114   3.751   0.393
 9476SOL     OW29326   3.004   3.241   4.940
 9476SOL    HW129327   2.999   3.332   4.899
 9476SOL    HW229328   2.915   3.216   4.977
 9477SOL     OW29329   0.660   3.263   2.603
 9477SOL    HW129330   0.681   3.236   2.509
 9477SOL    HW229331   0.570   3.307   2.606
 9478SOL     OW29332   4.732   3.246   5.905
 9478SOL    HW129333   4.688   3.213   5.989
 9478SOL    HW229334   4.665   3.297   5.850
 9479SOL     OW29335   5.552   6.451   0.043
 9479SOL    HW129336   5.629   6.401   0.084
 9479SOL    HW229337   5.552   6.435   6.962
 9480SOL     OW29338   5.057   4.053   0.558
 9480SOL    HW129339   5.018   4.061   0.649
 9480SOL    HW229340   5.015   3.976   0.509
 9481SOL     OW29341   5.983   3.559   1.526
 9481SOL    HW129342   5.886   3.581   1.540
 9481SOL    HW229343   5.991   3.477   1.469
 9482SOL     OW29344   6.762   0.618   2.814
 9482SOL    HW129345   6.825   0.547   2.783
 9482SOL    HW229346   6.753   0.687   2.743
 9483SOL     OW29347   1.672   1.567   1.136
 9483SOL    HW129348   1.751   1.608   1.182
 9483SOL    HW229349   1.704   1.516   1.056
 9484SOL     OW29350   4.056   1.027   3.000
 9484SOL    HW129351   3.967   1.036   3.043
 9484SOL    HW229352   4.112   1.108   3.022
 9485SOL     OW29353   0.891   0.226   2.639
 9485SOL    HW129354   0.953   0.248   2.564
 9485SOL    HW229355   0.922   0.142   2.684
 9486SOL     OW29356   2.491   4.880   1.634
 9486SOL    HW129357   2.444   4.964   1.661
 9486SOL    HW229358   2.587   4.885   1.660
 9487SOL     OW29359   3.031   3.195   3.338
 9487SOL    HW129360   3.025   3.178   3.437
 9487SOL    HW229361   2.993   3.285   3.317
 9488SOL     OW29362   2.269   6.396   1.373
 9488SOL    HW129363   2.298   6.335   1.299
 9488SOL    HW229364   2.199   6.350   1.428
 9489SOL     OW29365   4.118   4.176   1.554
 9489SOL    HW129366   4.048   4.145   1.489
 9489SOL    HW229367   4.131   4.106   1.625
 9490SOL     OW29368   6.149   5.845   1.016
 9490SOL    HW129369   6.161   5.766   0.955
 9490SOL    HW229370   6.095   5.915   0.969
 9491SOL     OW29371   6.794   4.616   3.621
 9491SOL    HW129372   6.837   4.528   3.641
 9491SOL    HW229373   6.725   4.603   3.550
 9492SOL     OW29374   3.467   2.870   3.115
 9492SOL    HW129375   3.546   2.867   3.054
 9492SOL    HW229376   3.383   2.859   3.062
 9493SOL     OW29377   4.306   5.225   4.118
 9493SOL    HW129378   4.384   5.202   4.176
 9493SOL    HW229379   4.285   5.147   4.058
 9494SOL     OW29380   4.589   4.662   1.636
 9494SOL    HW129381   4.506   4.710   1.665
 9494SOL    HW229382   4.603   4.678   1.538
 9495SOL     OW29383   5.776   1.752   4.782
 9495SOL    HW129384   5.862   1.726   4.736
 9495SOL    HW229385   5.745   1.677   4.840
 9496SOL     OW29386   5.545   4.610   1.133
 9496SOL    HW129387   5.476   4.670   1.094
 9496SOL    HW229388   5.527   4.515   1.106
 9497SOL     OW29389   5.960   4.871   6.954
 9497SOL    HW129390   5.957   4.773   6.938
 9497SOL    HW229391   6.052   4.905   6.935
 9498SOL     OW29392   5.431   6.965   5.569
 9498SOL    HW129393   5.518   6.977   5.521
 9498SOL    HW229394   5.380   0.034   5.568
 9499SOL     OW29395   2.473   4.660   6.284
 9499SOL    HW129396   2.423   4.602   6.220
 9499SOL    HW229397   2.475   4.616   6.374
 9500SOL     OW29398   4.682   0.499   1.634
 9500SOL    HW129399   4.724   0.566   1.571
 9500SOL    HW229400   4.635   0.547   1.707
 9501SOL     OW29401   3.583   1.531   4.700
 9501SOL    HW129402   3.560   1.547   4.604
 9501SOL    HW229403   3.571   1.615   4.752
 9502SOL     OW29404   0.185   1.972   4.621
 9502SOL    HW129405   0.247   2.043   4.654
 9502SOL    HW229406   0.092   2.008   4.616
 9503SOL     OW29407   0.486   1.540   1.107
 9503SOL    HW129408   0.452   1.467   1.048
 9503SOL    HW229409   0.436   1.539   1.194
 9504SOL     OW29410   0.739   1.960   0.562
 9504SOL    HW129411   0.778   1.912   0.641
 9504SOL    HW229412   0.642   1.978   0.579
 9505SOL     OW29413   5.504   4.255   3.874
 9505SOL    HW129414   5.583   4.208   3.913
 9505SOL    HW229415   5.477   4.330   3.933
 9506SOL     OW29416   0.490   3.361   6.786
 9506SOL    HW129417   0.499   3.441   6.846
 9506SOL    HW229418   0.397   3.325   6.792
 9507SOL     OW29419   1.312   1.310   3.624
 9507SOL    HW129420   1.354   1.295   3.713
 9507SOL    HW229421   1.286   1.407   3.616
 9508SOL     OW29422   5.616   3.467   0.924
 9508SOL    HW129423   5.584   3.434   1.013
 9508SOL    HW229424   5.563   3.548   0.898
 9509SOL     OW29425   0.577   0.669   5.711
 9509SOL    HW129426   0.637   0.694   5.787
 9509SOL    HW229427   0.493   0.628   5.747
 9510SOL     OW29428   0.953   4.303   2.084
 9510SOL    HW129429   0.913   4.390   2.054
 9510SOL    HW229430   1.049   4.299   2.056
 9511SOL     OW29431   0.474   1.630   6.985
 9511SOL    HW129432   0.496   1.533   6.979
 9511SOL    HW229433   0.400   1.652   6.921
 9512SOL     OW29434   5.797   1.195   1.876
 9512SOL    HW129435   5.885   1.151   1.892
 9512SOL    HW229436   5.754   1.218   1.963
 9513SOL     OW29437   1.767   3.387   5.371
 9513SOL    HW129438   1.826   3.307   5.358
 9513SOL    HW229439   1.746   3.428   5.282
 9514SOL     OW29440   2.536   4.679   0.057
 9514SOL    HW129441   2.458   4.728   0.019
 9514SOL    HW229442   2.588   4.740   0.116
 9515SOL     OW29443   1.485   5.941   0.221
 9515SOL    HW129444   1.448   5.850   0.243
 9515SOL    HW229445   1.582   5.944   0.245
 9516SOL     OW29446   5.509   3.846   5.105
 9516SOL    HW129447   5.479   3.842   5.200
 9516SOL    HW229448   5.603   3.881   5.101
 9517SOL     OW29449   1.625   4.582   0.342
 9517SOL    HW129450   1.665   4.673   0.354
 9517SOL    HW229451   1.617   4.562   0.244
 9518SOL     OW29452   1.280   2.186   0.096
 9518SOL    HW129453   1.200   2.189   0.037
 9518SOL    HW229454   1.361   2.215   0.045
 9519SOL     OW29455   3.490   3.427   4.159
 9519SOL    HW129456   3.443   3.514   4.168
 9519SOL    HW229457   3.423   3.356   4.136
 9520SOL     OW29458   0.127   1.154   2.602
 9520SOL    HW129459   0.170   1.123   2.517
 9520SOL    HW229460   0.196   1.196   2.661
 9521SOL     OW29461   3.802   4.432   1.117
 9521SOL    HW129462   3.856   4.503   1.161
 9521SOL    HW229463   3.705   4.452   1.125
 9522SOL     OW29464   4.500   5.710   2.492
 9522SOL    HW129465   4.429   5.746   2.433
 9522SOL    HW229466   4.557   5.785   2.526
 9523SOL     OW29467   2.597   4.894   5.192
 9523SOL    HW129468   2.612   4.865   5.286
 9523SOL    HW229469   2.510   4.857   5.159
 9524SOL     OW29470   2.165   2.465   0.282
 9524SOL    HW129471   2.161   2.549   0.335
 9524SOL    HW229472   2.260   2.443   0.262
 9525SOL     OW29473   2.084   2.234   5.379
 9525SOL    HW129474   2.075   2.331   5.402
 9525SOL    HW229475   2.181   2.210   5.373
 9526SOL     OW29476   6.101   4.283   1.665
 9526SOL    HW129477   6.089   4.319   1.757
 9526SOL    HW229478   6.197   4.296   1.637
 9527SOL     OW29479   1.907   0.737   5.181
 9527SOL    HW129480   1.934   0.830   5.155
 9527SOL    HW229481   1.953   0.712   5.267
 9528SOL     OW29482   0.040   1.733   0.056
 9528SOL    HW129483   7.009   1.658   0.010
 9528SOL    HW229484   0.052   1.709   0.153
 9529SOL     OW29485   5.939   3.765   6.179
 9529SOL    HW129486   5.854   3.771   6.231
 9529SOL    HW229487   5.989   3.683   6.205
 9530SOL     OW29488   1.521   3.048   3.769
 9530SOL    HW129489   1.451   3.119   3.764
 9530SOL    HW229490   1.516   2.990   3.688
 9531SOL     OW29491   5.043   4.179   2.213
 9531SOL    HW129492   5.123   4.221   2.256
 9531SOL    HW229493   5.058   4.081   2.202
 9532SOL     OW29494   0.073   5.349   1.240
 9532SOL    HW129495   0.006   5.390   1.177
 9532SOL    HW229496   0.120   5.274   1.193
 9533SOL     OW29497   0.513   5.915   4.786
 9533SOL    HW129498   0.581   5.929   4.858
 9533SOL    HW229499   0.511   5.819   4.760
 9534SOL     OW29500   6.200   3.753   5.197
 9534SOL    HW129501   6.264   3.770   5.122
 9534SOL    HW229502   6.179   3.655   5.200
 9535SOL     OW29503   2.070   0.341   5.673
 9535SOL    HW129504   1.977   0.312   5.690
 9535SOL    HW229505   2.079   0.439   5.691
 9536SOL     OW29506   3.114   3.921   5.293
 9536SOL    HW129507   3.059   4.003   5.307
 9536SOL    HW229508   3.168   3.931   5.210
 9537SOL     OW29509   2.388   0.377   4.202
 9537SOL    HW129510   2.475   0.361   4.156
 9537SOL    HW229511   2.315   0.329   4.154
 9538SOL     OW29512   5.480   1.244   4.584
 9538SOL    HW129513   5.386   1.276   4.583
 9538SOL    HW229514   5.533   1.292   4.515
 9539SOL     OW29515   3.431   4.201   4.484
 9539SOL    HW129516   3.409   4.297   4.502
 9539SOL    HW229517   3.399   4.144   4.560
 9540SOL     OW29518   5.861   4.674   3.959
 9540SOL    HW129519   5.929   4.708   3.893
 9540SOL    HW229520   5.838   4.580   3.937
 9541SOL     OW29521   2.804   0.308   6.105
 9541SOL    HW129522   2.761   0.282   6.192
 9541SOL    HW229523   2.804   0.229   6.043
 9542SOL     OW29524   4.995   4.619   4.745
 9542SOL    HW129525   5.087   4.596   4.713
 9542SOL    HW229526   4.987   4.594   4.842
 9543SOL     OW29527   3.469   0.666   5.884
 9543SOL    HW129528   3.402   0.739   5.895
 9543SOL    HW229529   3.434   0.581   5.925
 9544SOL     OW29530   5.713   2.873   3.827
 9544SOL    HW129531   5.685   2.938   3.757
 9544SOL    HW229532   5.661   2.788   3.817
 9545SOL     OW29533   5.678   5.841   3.616
 9545SOL    HW129534   5.748   5.849   3.687
 9545SOL    HW229535   5.629   5.754   3.628
 9546SOL     OW29536   3.653   2.127   5.776
 9546SOL    HW129537   3.592   2.206   5.783
 9546SOL    HW229538   3.740   2.149   5.820
 9547SOL     OW29539   2.314   5.040   4.105
 9547SOL    HW129540   2.241   5.033   4.038
 9547SOL    HW229541   2.284   5.097   4.182
 9548SOL     OW29542   7.008   4.658   5.212
 9548SOL    HW129543   0.032   4.626   5.297
 9548SOL    HW229544   6.971   4.580   5.161
 9549SOL     OW29545   3.089   2.281   1.472
 9549SOL    HW129546   3.160   2.332   1.423
 9549SOL    HW229547   3.065   2.330   1.556
 9550SOL     OW29548   0.137   0.613   0.131
 9550SOL    HW129549   0.167   0.567   0.214
 9550SOL    HW229550   0.074   0.687   0.154
 9551SOL     OW29551   5.821   2.639   6.100
 9551SOL    HW129552   5.739   2.686   6.065
 9551SOL    HW229553   5.803   2.607   6.193
 9552SOL     OW29554   2.122   6.200   4.501
 9552SOL    HW129555   2.068   6.149   4.435
 9552SOL    HW229556   2.165   6.136   4.565
 9553SOL     OW29557   5.803   2.388   6.626
 9553SOL    HW129558   5.774   2.481   6.645
 9553SOL    HW229559   5.903   2.384   6.625
 9554SOL     OW29560   2.742   0.147   2.887
 9554SOL    HW129561   2.756   0.236   2.931
 9554SOL    HW229562   2.765   0.074   2.953
 9555SOL     OW29563   0.980   1.265   2.186
 9555SOL    HW129564   0.921   1.335   2.227
 9555SOL    HW229565   0.925   1.185   2.163
 9556SOL     OW29566   1.603   3.925   1.797
 9556SOL    HW129567   1.665   3.984   1.745
 9556SOL    HW229568   1.508   3.953   1.780
 9557SOL     OW29569   6.572   6.397   1.712
 9557SOL    HW129570   6.650   6.456   1.694
 9557SOL    HW229571   6.580   6.358   1.804
 9558SOL     OW29572   5.860   6.121   5.751
 9558SOL    HW129573   5.778   6.064   5.755
 9558SOL    HW229574   5.918   6.102   5.830
 9559SOL     OW29575   0.502   4.279   0.829
 9559SOL    HW129576   0.440   4.304   0.755
 9559SOL    HW229577   0.460   4.300   0.917
 9560SOL     OW29578   2.350   0.927   3.651
 9560SOL    HW129579   2.300   0.942   3.737
 9560SOL    HW229580   2.429   0.987   3.648
 9561SOL     OW29581   2.058   0.557   0.823
 9561SOL    HW129582   2.122   0.605   0.882
 9561SOL    HW229583   1.967   0.559   0.864
 9562SOL     OW29584   2.498   0.354   5.805
 9562SOL    HW129585   2.578   0.294   5.809
 9562SOL    HW229586   2.415   0.300   5.811
 9563SOL     OW29587   0.287   6.255   0.721
 9563SOL    HW129588   0.274   6.273   0.623
 9563SOL    HW229589   0.219   6.188   0.751
 9564SOL     OW29590   2.615   1.220   0.824
 9564SOL    HW129591   2.636   1.250   0.917
 9564SOL    HW229592   2.571   1.131   0.826
 9565SOL     OW29593   4.095   1.098   4.503
 9565SOL    HW129594   4.023   1.033   4.523
 9565SOL    HW229595   4.182   1.050   4.491
 9566SOL     OW29596   2.930   4.850   6.770
 9566SOL    HW129597   2.889   4.920   6.828
 9566SOL    HW229598   2.935   4.763   6.819
 9567SOL     OW29599   4.885   4.711   0.595
 9567SOL    HW129600   4.840   4.800   0.585
 9567SOL    HW229601   4.925   4.704   0.687
 9568SOL     OW29602   4.238   2.662   6.395
 9568SOL    HW129603   4.214   2.754   6.426
 9568SOL    HW229604   4.215   2.653   6.298
 9569SOL     OW29605   6.277   1.060   2.404
 9569SOL    HW129606   6.314   1.079   2.313
 9569SOL    HW229607   6.339   0.999   2.453
 9570SOL     OW29608   0.566   3.643   1.795
 9570SOL    HW129609   0.518   3.656   1.881
 9570SOL    HW229610   0.500   3.642   1.720
 9571SOL     OW29611   3.402   3.960   6.082
 9571SOL    HW129612   3.395   3.932   5.987
 9571SOL    HW229613   3.329   3.917   6.135
 9572SOL     OW29614   2.497   4.758   2.292
 9572SOL    HW129615   2.557   4.796   2.222
 9572SOL    HW229616   2.406   4.743   2.253
 9573SOL     OW29617   0.966   2.586   6.788
 9573SOL    HW129618   1.000   2.677   6.812
 9573SOL    HW229619   1.025   2.516   6.827
 9574SOL     OW29620   3.973   3.608   3.018
 9574SOL    HW129621   3.924   3.679   3.068
 9574SOL    HW229622   3.923   3.521   3.025
 9575SOL     OW29623   0.380   1.504   1.363
 9575SOL    HW129624   0.432   1.432   1.410
 9575SOL    HW229625   0.284   1.478   1.360
 9576SOL     OW29626   1.939   1.346   1.409
 9576SOL    HW129627   1.946   1.337   1.309
 9576SOL    HW229628   1.931   1.255   1.450
 9577SOL     OW29629   0.888   0.820   5.845
 9577SOL    HW129630   0.969   0.866   5.807
 9577SOL    HW229631   0.910   0.786   5.937
 9578SOL     OW29632   0.710   3.850   3.250
 9578SOL    HW129633   0.773   3.776   3.229
 9578SOL    HW229634   0.630   3.815   3.298
 9579SOL     OW29635   1.367   5.117   3.040
 9579SOL    HW129636   1.407   5.208   3.029
 9579SOL    HW229637   1.267   5.123   3.032
 9580SOL     OW29638   4.956   3.709   0.894
 9580SOL    HW129639   5.040   3.755   0.865
 9580SOL    HW229640   4.933   3.637   0.829
 9581SOL     OW29641   0.666   6.142   5.702
 9581SOL    HW129642   0.664   6.226   5.756
 9581SOL    HW229643   0.573   6.110   5.685
 9582SOL     OW29644   4.878   5.383   6.137
 9582SOL    HW129645   4.968   5.384   6.094
 9582SOL    HW229646   4.838   5.292   6.129
 9583SOL     OW29647   3.659   4.259   1.487
 9583SOL    HW129648   3.629   4.292   1.576
 9583SOL    HW229649   3.587   4.202   1.447
 9584SOL     OW29650   7.012   5.390   6.380
 9584SOL    HW129651   6.980   5.377   6.287
 9584SOL    HW229652   6.934   5.384   6.443
 9585SOL     OW29653   6.544   6.849   4.709
 9585SOL    HW129654   6.621   6.911   4.723
 9585SOL    HW229655   6.579   6.757   4.689
 9586SOL     OW29656   5.455   4.532   2.190
 9586SOL    HW129657   5.529   4.595   2.162
 9586SOL    HW229658   5.432   4.473   2.113
 9587SOL     OW29659   0.818   0.574   1.561
 9587SOL    HW129660   0.782   0.587   1.468
 9587SOL    HW229661   0.778   0.491   1.600
 9588SOL     OW29662   6.899   0.950   1.122
 9588SOL    HW129663   6.904   1.031   1.063
 9588SOL    HW229664   6.819   0.956   1.181
 9589SOL     OW29665   2.643   4.934   6.774
 9589SOL    HW129666   2.668   4.839   6.754
 9589SOL    HW229667   2.712   4.995   6.735
 9590SOL     OW29668   6.270   2.657   1.931
 9590SOL    HW129669   6.302   2.653   2.025
 9590SOL    HW229670   6.316   2.588   1.876
 9591SOL     OW29671   3.053   6.114   5.713
 9591SOL    HW129672   2.997   6.036   5.742
 9591SOL    HW229673   3.149   6.085   5.706
 9592SOL     OW29674   3.557   4.680   0.723
 9592SOL    HW129675   3.495   4.661   0.646
 9592SOL    HW229676   3.503   4.699   0.805
 9593SOL     OW29677   0.447   0.852   5.908
 9593SOL    HW129678   0.397   0.779   5.861
 9593SOL    HW229679   0.459   0.827   6.004
 9594SOL     OW29680   1.158   4.856   2.646
 9594SOL    HW129681   1.081   4.801   2.676
 9594SOL    HW229682   1.138   4.897   2.557
 9595SOL     OW29683   0.603   3.230   5.113
 9595SOL    HW129684   0.561   3.286   5.042
 9595SOL    HW229685   0.703   3.236   5.107
 9596SOL     OW29686   0.229   5.186   6.375
 9596SOL    HW129687   0.306   5.203   6.314
 9596SOL    HW229688   0.191   5.274   6.406
 9597SOL     OW29689   0.818   4.284   1.328
 9597SOL    HW129690   0.868   4.339   1.261
 9597SOL    HW229691   0.801   4.193   1.289
 9598SOL     OW29692   1.576   4.237   4.087
 9598SOL    HW129693   1.491   4.202   4.126
 9598SOL    HW229694   1.561   4.329   4.051
 9599SOL     OW29695   3.304   0.272   4.599
 9599SOL    HW129696   3.291   0.292   4.695
 9599SOL    HW229697   3.255   0.188   4.575
 9600SOL     OW29698   2.470   6.562   6.703
 9600SOL    HW129699   2.414   6.492   6.747
 9600SOL    HW229700   2.466   6.550   6.604
 9601SOL     OW29701   4.773   3.995   0.772
 9601SOL    HW129702   4.766   3.943   0.687
 9601SOL    HW229703   4.760   4.093   0.751
 9602SOL     OW29704   6.484   5.024   5.932
 9602SOL    HW129705   6.432   4.940   5.945
 9602SOL    HW229706   6.512   5.059   6.021
 9603SOL     OW29707   3.699   1.670   3.604
 9603SOL    HW129708   3.749   1.621   3.675
 9603SOL    HW229709   3.611   1.625   3.588
 9604SOL     OW29710   4.559   0.312   6.545
 9604SOL    HW129711   4.611   0.339   6.626
 9604SOL    HW229712   4.545   0.391   6.486
 9605SOL     OW29713   0.726   5.257   3.587
 9605SOL    HW129714   0.746   5.338   3.642
 9605SOL    HW229715   0.783   5.180   3.617
 9606SOL     OW29716   1.528   6.606   6.556
 9606SOL    HW129717   1.560   6.684   6.503
 9606SOL    HW229718   1.600   6.536   6.560
 9607SOL     OW29719   1.576   1.723   0.588
 9607SOL    HW129720   1.486   1.766   0.595
 9607SOL    HW229721   1.641   1.772   0.647
 9608SOL     OW29722   6.785   5.385   2.663
 9608SOL    HW129723   6.806   5.420   2.572
 9608SOL    HW229724   6.851   5.315   2.688
 9609SOL     OW29725   2.614   4.343   6.820
 9609SOL    HW129726   2.538   4.403   6.843
 9609SOL    HW229727   2.589   4.248   6.838
 9610SOL     OW29728   1.483   5.141   4.055
 9610SOL    HW129729   1.559   5.191   4.096
 9610SOL    HW229730   1.468   5.057   4.107
 9611SOL     OW29731   0.656   6.252   6.701
 9611SOL    HW129732   0.605   6.178   6.743
 9611SOL    HW229733   0.598   6.298   6.633
 9612SOL     OW29734   0.672   4.089   1.801
 9612SOL    HW129735   0.747   4.152   1.819
 9612SOL    HW229736   0.618   4.076   1.884
 9613SOL     OW29737   5.019   6.510   3.167
 9613SOL    HW129738   5.108   6.505   3.213
 9613SOL    HW229739   4.983   6.418   3.153
 9614SOL     OW29740   2.871   1.976   0.556
 9614SOL    HW129741   2.800   2.046   0.556
 9614SOL    HW229742   2.926   1.983   0.473
 9615SOL     OW29743   1.390   0.091   0.240
 9615SOL    HW129744   1.402   0.046   0.329
 9615SOL    HW229745   1.397   0.190   0.252
 9616SOL     OW29746   4.379   3.809   1.393
 9616SOL    HW129747   4.305   3.869   1.363
 9616SOL    HW229748   4.423   3.768   1.313
 9617SOL     OW29749   2.319   2.715   3.396
 9617SOL    HW129750   2.308   2.779   3.473
 9617SOL    HW229751   2.413   2.682   3.394
 9618SOL     OW29752   3.898   6.842   5.306
 9618SOL    HW129753   3.988   6.813   5.272
 9618SOL    HW229754   3.890   6.941   5.298
 9619SOL     OW29755   0.847   6.991   0.498
 9619SOL    HW129756   0.884   0.059   0.460
 9619SOL    HW229757   0.751   7.004   0.521
 9620SOL     OW29758   4.457   2.175   6.794
 9620SOL    HW129759   4.497   2.128   6.714
 9620SOL    HW229760   4.358   2.167   6.791
 9621SOL     OW29761   1.100   0.916   1.944
 9621SOL    HW129762   1.031   0.939   1.875
 9621SOL    HW229763   1.139   1.000   1.982
 9622SOL     OW29764   6.668   1.038   6.616
 9622SOL    HW129765   6.721   1.123   6.620
 9622SOL    HW229766   6.687   0.991   6.529
 9623SOL     OW29767   3.412   4.592   6.065
 9623SOL    HW129768   3.354   4.657   6.015
 9623SOL    HW229769   3.354   4.520   6.104
 9624SOL     OW29770   6.882   4.798   2.175
 9624SOL    HW129771   6.971   4.781   2.217
 9624SOL    HW229772   6.832   4.712   2.165
 9625SOL     OW29773   5.430   5.508   0.116
 9625SOL    HW129774   5.446   5.471   0.025
 9625SOL    HW229775   5.428   5.608   0.111
 9626SOL     OW29776   3.019   6.322   0.174
 9626SOL    HW129777   2.927   6.283   0.184
 9626SOL    HW229778   3.087   6.258   0.211
 9627SOL     OW29779   6.911   5.837   3.195
 9627SOL    HW129780   6.965   5.841   3.279
 9627SOL    HW229781   6.886   5.930   3.167
 9628SOL     OW29782   5.578   5.015   0.144
 9628SOL    HW129783   5.540   4.944   0.204
 9628SOL    HW229784   5.621   4.971   0.065
 9629SOL     OW29785   0.681   6.630   2.609
 9629SOL    HW129786   0.637   6.587   2.530
 9629SOL    HW229787   0.710   6.723   2.585
 9630SOL     OW29788   6.446   6.215   6.019
 9630SOL    HW129789   6.370   6.256   6.071
 9630SOL    HW229790   6.526   6.273   6.026
 9631SOL     OW29791   6.134   0.103   6.997
 9631SOL    HW129792   6.134   0.018   6.946
 9631SOL    HW229793   6.045   0.115   0.024
 9632SOL     OW29794   2.195   5.417   2.782
 9632SOL    HW129795   2.207   5.464   2.869
 9632SOL    HW229796   2.115   5.453   2.735
 9633SOL     OW29797   5.359   5.131   0.031
 9633SOL    HW129798   5.437   5.088   0.076
 9633SOL    HW229799   5.318   5.199   0.092
 9634SOL     OW29800   0.675   6.999   3.928
 9634SOL    HW129801   0.635   6.949   4.005
 9634SOL    HW229802   0.626   6.976   3.844
 9635SOL     OW29803   1.264   4.760   5.565
 9635SOL    HW129804   1.330   4.828   5.534
 9635SOL    HW229805   1.186   4.805   5.608
 9636SOL     OW29806   4.012   1.954   6.103
 9636SOL    HW129807   4.030   2.050   6.079
 9636SOL    HW229808   4.035   1.940   6.199
 9637SOL     OW29809   2.813   1.867   6.768
 9637SOL    HW129810   2.816   1.767   6.776
 9637SOL    HW229811   2.718   1.898   6.779
 9638SOL     OW29812   6.933   3.358   6.903
 9638SOL    HW129813   6.875   3.405   6.971
 9638SOL    HW229814   6.879   3.290   6.855
 9639SOL     OW29815   3.820   1.678   2.036
 9639SOL    HW129816   3.810   1.586   2.076
 9639SOL    HW229817   3.902   1.722   2.073
 9640SOL     OW29818   3.184   1.821   2.823
 9640SOL    HW129819   3.104   1.762   2.820
 9640SOL    HW229820   3.157   1.912   2.855
 9641SOL     OW29821   5.217   6.056   1.033
 9641SOL    HW129822   5.316   6.040   1.033
 9641SOL    HW229823   5.189   6.094   1.121
 9642SOL     OW29824   3.314   6.334   5.138
 9642SOL    HW129825   3.313   6.236   5.155
 9642SOL    HW229826   3.407   6.369   5.148
 9643SOL     OW29827   5.968   4.539   4.414
 9643SOL    HW129828   5.918   4.573   4.335
 9643SOL    HW229829   6.065   4.559   4.402
 9644SOL     OW29830   1.153   4.981   5.289
 9644SOL    HW129831   1.231   4.920   5.279
 9644SOL    HW229832   1.091   4.970   5.211
 9645SOL     OW29833   3.878   4.837   4.090
 9645SOL    HW129834   3.792   4.884   4.074
 9645SOL    HW229835   3.927   4.881   4.166
 9646SOL     OW29836   2.791   4.720   2.226
 9646SOL    HW129837   2.818   4.681   2.138
 9646SOL    HW229838   2.720   4.662   2.267
 9647SOL     OW29839   6.576   5.253   1.514
 9647SOL    HW129840   6.511   5.317   1.474
 9647SOL    HW229841   6.650   5.304   1.558
 9648SOL     OW29842   3.785   1.944   6.858
 9648SOL    HW129843   3.715   2.015   6.849
 9648SOL    HW229844   3.744   1.854   6.839
 9649SOL     OW29845   2.807   5.747   0.156
 9649SOL    HW129846   2.903   5.721   0.164
 9649SOL    HW229847   2.785   5.764   0.059
 9650SOL     OW29848   5.084   4.822   3.251
 9650SOL    HW129849   5.095   4.740   3.194
 9650SOL    HW229850   5.173   4.853   3.283
 9651SOL     OW29851   6.838   0.739   6.869
 9651SOL    HW129852   6.745   0.751   6.833
 9651SOL    HW229853   6.848   0.647   6.907
 9652SOL     OW29854   2.023   4.522   0.499
 9652SOL    HW129855   2.042   4.614   0.533
 9652SOL    HW229856   2.093   4.497   0.432
 9653SOL     OW29857   4.211   5.310   5.020
 9653SOL    HW129858   4.231   5.386   4.958
 9653SOL    HW229859   4.207   5.343   5.114
 9654SOL     OW29860   3.945   3.477   1.698
 9654SOL    HW129861   3.887   3.463   1.778
 9654SOL    HW229862   4.013   3.547   1.718
 9655SOL     OW29863   0.092   1.978   6.954
 9655SOL    HW129864   0.047   1.896   6.988
 9655SOL    HW229865   0.143   1.957   6.871
 9656SOL     OW29866   3.456   2.349   1.025
 9656SOL    HW129867   3.539   2.296   1.010
 9656SOL    HW229868   3.461   2.393   1.114
 9657SOL     OW29869   6.437   1.931   3.447
 9657SOL    HW129870   6.520   1.984   3.427
 9657SOL    HW229871   6.417   1.871   3.370
 9658SOL     OW29872   6.120   1.472   2.654
 9658SOL    HW129873   6.113   1.472   2.555
 9658SOL    HW229874   6.117   1.566   2.688
 9659SOL     OW29875   0.277   4.113   0.231
 9659SOL    HW129876   0.237   4.027   0.263
 9659SOL    HW229877   0.282   4.177   0.308
 9660SOL     OW29878   0.584   5.818   1.084
 9660SOL    HW129879   0.547   5.733   1.046
 9660SOL    HW229880   0.647   5.797   1.159
 9661SOL     OW29881   3.794   6.303   1.658
 9661SOL    HW129882   3.857   6.358   1.603
 9661SOL    HW229883   3.738   6.364   1.714
 9662SOL     OW29884   4.901   3.020   5.241
 9662SOL    HW129885   4.924   2.934   5.286
 9662SOL    HW229886   4.880   3.002   5.145
 9663SOL     OW29887   0.843   6.467   4.405
 9663SOL    HW129888   0.928   6.518   4.389
 9663SOL    HW229889   0.775   6.526   4.447
 9664SOL     OW29890   5.994   6.502   3.895
 9664SOL    HW129891   5.923   6.473   3.959
 9664SOL    HW229892   5.988   6.601   3.881
 9665SOL     OW29893   5.510   5.814   6.922
 9665SOL    HW129894   5.492   5.730   6.872
 9665SOL    HW229895   5.464   5.811   7.011
 9666SOL     OW29896   5.746   4.325   1.298
 9666SOL    HW129897   5.714   4.406   1.347
 9666SOL    HW229898   5.814   4.277   1.353
 9667SOL     OW29899   3.507   3.672   4.796
 9667SOL    HW129900   3.537   3.658   4.891
 9667SOL    HW229901   3.442   3.600   4.772
 9668SOL     OW29902   6.617   1.578   6.530
 9668SOL    HW129903   6.583   1.520   6.604
 9668SOL    HW229904   6.680   1.525   6.472
 9669SOL     OW29905   1.553   0.213   2.189
 9669SOL    HW129906   1.600   0.219   2.101
 9669SOL    HW229907   1.460   0.179   2.174
 9670SOL     OW29908   5.448   4.915   6.287
 9670SOL    HW129909   5.521   4.884   6.347
 9670SOL    HW229910   5.412   5.002   6.322
 9671SOL     OW29911   6.121   5.586   6.871
 9671SOL    HW129912   6.031   5.618   6.840
 9671SOL    HW229913   6.109   5.523   6.947
 9672SOL     OW29914   1.190   5.819   4.541
 9672SOL    HW129915   1.153   5.910   4.564
 9672SOL    HW229916   1.239   5.783   4.620
 9673SOL     OW29917   5.969   3.771   0.299
 9673SOL    HW129918   5.955   3.679   0.264
 9673SOL    HW229919   5.910   3.787   0.378
 9674SOL     OW29920   2.483   5.744   3.263
 9674SOL    HW129921   2.521   5.660   3.224
 9674SOL    HW229922   2.462   5.730   3.359
 9675SOL     OW29923   5.972   2.043   0.520
 9675SOL    HW129924   5.921   2.044   0.606
 9675SOL    HW229925   5.956   2.129   0.471
 9676SOL     OW29926   1.229   3.468   5.121
 9676SOL    HW129927   1.295   3.400   5.153
 9676SOL    HW229928   1.202   3.526   5.198
 9677SOL     OW29929   1.793   5.755   5.271
 9677SOL    HW129930   1.756   5.788   5.184
 9677SOL    HW229931   1.872   5.810   5.297
 9678SOL     OW29932   3.237   3.271   3.080
 9678SOL    HW129933   3.151   3.222   3.062
 9678SOL    HW229934   3.297   3.214   3.136
 9679SOL     OW29935   2.300   1.055   2.602
 9679SOL    HW129936   2.345   1.121   2.661
 9679SOL    HW229937   2.296   1.090   2.508
 9680SOL     OW29938   5.793   0.788   3.204
 9680SOL    HW129939   5.888   0.812   3.221
 9680SOL    HW229940   5.745   0.867   3.166
 9681SOL     OW29941   3.594   1.407   0.053
 9681SOL    HW129942   3.595   1.444   0.146
 9681SOL    HW229943   3.642   1.470   7.009
 9682SOL     OW29944   5.121   5.104   4.038
 9682SOL    HW129945   5.057   5.032   4.014
 9682SOL    HW229946   5.098   5.187   3.988
 9683SOL     OW29947   2.939   5.379   1.007
 9683SOL    HW129948   2.914   5.450   0.941
 9683SOL    HW229949   3.022   5.334   0.977
 9684SOL     OW29950   0.543   2.576   4.893
 9684SOL    HW129951   0.594   2.651   4.849
 9684SOL    HW229952   0.522   2.601   4.987
 9685SOL     OW29953   2.094   3.786   1.123
 9685SOL    HW129954   2.008   3.769   1.170
 9685SOL    HW229955   2.077   3.797   1.025
 9686SOL     OW29956   6.927   1.324   0.503
 9686SOL    HW129957   6.960   1.286   0.589
 9686SOL    HW229958   6.973   1.278   0.427
 9687SOL     OW29959   2.097   0.702   4.199
 9687SOL    HW129960   2.137   0.755   4.125
 9687SOL    HW229961   2.169   0.669   4.260
 9688SOL     OW29962   6.653   2.024   2.826
 9688SOL    HW129963   6.705   1.968   2.762
 9688SOL    HW229964   6.598   1.965   2.885
 9689SOL     OW29965   2.179   6.079   0.427
 9689SOL    HW129966   2.128   6.019   0.489
 9689SOL    HW229967   2.233   6.143   0.481
 9690SOL     OW29968   5.654   5.898   6.461
 9690SOL    HW129969   5.722   5.903   6.534
 9690SOL    HW229970   5.587   5.827   6.483
 9691SOL     OW29971   3.005   4.818   1.951
 9691SOL    HW129972   3.056   4.843   2.033
 9691SOL    HW229973   2.946   4.740   1.970
 9692SOL     OW29974   3.365   5.142   3.220
 9692SOL    HW129975   3.416   5.057   3.208
 9692SOL    HW229976   3.284   5.125   3.276
 9693SOL     OW29977   6.376   5.888   1.658
 9693SOL    HW129978   6.450   5.949   1.685
 9693SOL    HW229979   6.288   5.933   1.674
 9694SOL     OW29980   2.292   0.821   6.986
 9694SOL    HW129981   2.309   0.764   0.049
 9694SOL    HW229982   2.374   0.823   6.929
 9695SOL     OW29983   0.066   3.419   1.754
 9695SOL    HW129984   0.131   3.345   1.771
 9695SOL    HW229985   7.015   3.421   1.827
 9696SOL     OW29986   4.915   3.516   1.106
 9696SOL    HW129987   4.963   3.527   1.193
 9696SOL    HW229988   4.936   3.594   1.046
 9697SOL     OW29989   6.888   6.233   6.514
 9697SOL    HW129990   6.825   6.297   6.558
 9697SOL    HW229991   6.837   6.154   6.481
 9698SOL     OW29992   4.889   1.757   6.070
 9698SOL    HW129993   4.954   1.831   6.052
 9698SOL    HW229994   4.798   1.782   6.037
 9699SOL     OW29995   0.294   4.963   6.514
 9699SOL    HW129996   0.272   4.871   6.483
 9699SOL    HW229997   0.257   5.030   6.450
 9700SOL     OW29998   4.300   5.045   4.965
 9700SOL    HW129999   4.262   5.137   4.958
 9700SOL    HW230000   4.375   5.035   4.900
 9701SOL     OW30001   3.682   5.254   5.025
 9701SOL    HW130002   3.682   5.160   5.060
 9701SOL    HW230003   3.772   5.295   5.043
 9702SOL     OW30004   5.356   0.632   0.011
 9702SOL    HW130005   5.342   0.572   6.950
 9702SOL    HW230006   5.348   0.727   7.000
 9703SOL     OW30007   4.207   5.101   4.358
 9703SOL    HW130008   4.286   5.039   4.357
 9703SOL    HW230009   4.239   5.195   4.347
 9704SOL     OW30010   2.435   0.911   3.308
 9704SOL    HW130011   2.390   1.000   3.314
 9704SOL    HW230012   2.370   0.840   3.336
 9705SOL     OW30013   4.768   5.415   6.417
 9705SOL    HW130014   4.821   5.411   6.331
 9705SOL    HW230015   4.809   5.482   6.478
 9706SOL     OW30016   0.904   2.635   0.848
 9706SOL    HW130017   0.819   2.586   0.829
 9706SOL    HW230018   0.960   2.582   0.912
 9707SOL     OW30019   6.350   4.323   1.524
 9707SOL    HW130020   6.409   4.366   1.593
 9707SOL    HW230021   6.389   4.334   1.433
 9708SOL     OW30022   1.597   2.137   2.485
 9708SOL    HW130023   1.589   2.130   2.385
 9708SOL    HW230024   1.520   2.190   2.520
 9709SOL     OW30025   5.863   6.091   2.892
 9709SOL    HW130026   5.952   6.047   2.909
 9709SOL    HW230027   5.874   6.160   2.821
 9710SOL     OW30028   0.576   1.742   1.708
 9710SOL    HW130029   0.515   1.821   1.705
 9710SOL    HW230030   0.647   1.753   1.639
 9711SOL     OW30031   2.468   4.280   6.389
 9711SOL    HW130032   2.516   4.210   6.441
 9711SOL    HW230033   2.436   4.242   6.303
 9712SOL     OW30034   6.101   4.914   6.003
 9712SOL    HW130035   6.020   4.911   5.945
 9712SOL    HW230036   6.159   4.835   5.983
 9713SOL     OW30037   1.204   5.148   3.781
 9713SOL    HW130038   1.123   5.111   3.734
 9713SOL    HW230039   1.181   5.235   3.824
 9714SOL     OW30040   2.974   0.971   1.333
 9714SOL    HW130041   2.916   0.891   1.349
 9714SOL    HW230042   3.066   0.942   1.309
 9715SOL     OW30043   5.329   4.193   6.176
 9715SOL    HW130044   5.240   4.234   6.155
 9715SOL    HW230045   5.340   4.186   6.275
 9716SOL     OW30046   4.174   2.911   6.471
 9716SOL    HW130047   4.212   2.977   6.535
 9716SOL    HW230048   4.163   2.954   6.381
 9717SOL     OW30049   5.523   5.623   5.617
 9717SOL    HW130050   5.441   5.672   5.586
 9717SOL    HW230051   5.543   5.648   5.712
 9718SOL     OW30052   4.996   2.710   1.148
 9718SOL    HW130053   4.972   2.639   1.215
 9718SOL    HW230054   4.915   2.735   1.096
 9719SOL     OW30055   6.992   2.199   6.507
 9719SOL    HW130056   6.956   2.197   6.600
 9719SOL    HW230057   6.916   2.204   6.442
 9720SOL     OW30058   6.903   5.425   2.406
 9720SOL    HW130059   6.973   5.355   2.389
 9720SOL    HW230060   6.847   5.436   2.323
 9721SOL     OW30061   0.214   3.419   1.391
 9721SOL    HW130062   0.264   3.374   1.317
 9721SOL    HW230063   0.265   3.409   1.477
 9722SOL     OW30064   6.942   0.368   4.279
 9722SOL    HW130065   0.020   0.376   4.305
 9722SOL    HW230066   6.934   0.319   4.192
 9723SOL     OW30067   2.435   6.350   3.443
 9723SOL    HW130068   2.466   6.277   3.383
 9723SOL    HW230069   2.497   6.359   3.521
 9724SOL     OW30070   2.076   3.456   0.339
 9724SOL    HW130071   2.120   3.498   0.418
 9724SOL    HW230072   2.093   3.357   0.340
 9725SOL     OW30073   3.369   4.378   6.537
 9725SOL    HW130074   3.269   4.385   6.534
 9725SOL    HW230075   3.410   4.461   6.500
 9726SOL     OW30076   5.175   0.789   3.966
 9726SOL    HW130077   5.184   0.701   3.919
 9726SOL    HW230078   5.107   0.846   3.920
 9727SOL     OW30079   0.670   3.360   5.571
 9727SOL    HW130080   0.622   3.418   5.637
 9727SOL    HW230081   0.761   3.337   5.607
 9728SOL     OW30082   0.252   0.456   6.268
 9728SOL    HW130083   0.162   0.499   6.275
 9728SOL    HW230084   0.252   0.391   6.192
 9729SOL     OW30085   1.060   4.137   3.168
 9729SOL    HW130086   1.115   4.209   3.125
 9729SOL    HW230087   1.039   4.066   3.100
 9730SOL     OW30088   0.536   3.414   3.060
 9730SOL    HW130089   0.589   3.337   3.097
 9730SOL    HW230090   0.441   3.386   3.047
 9731SOL     OW30091   4.492   4.018   1.179
 9731SOL    HW130092   4.402   4.062   1.174
 9731SOL    HW230093   4.537   4.043   1.265
 9732SOL     OW30094   5.459   5.923   3.152
 9732SOL    HW130095   5.552   5.900   3.122
 9732SOL    HW230096   5.420   5.845   3.202
 9733SOL     OW30097   5.549   4.899   0.900
 9733SOL    HW130098   5.643   4.934   0.906
 9733SOL    HW230099   5.548   4.817   0.843
 9734SOL     OW30100   6.325   1.217   2.680
 9734SOL    HW130101   6.314   1.126   2.640
 9734SOL    HW230102   6.246   1.274   2.657
 9735SOL     OW30103   2.145   4.519   3.178
 9735SOL    HW130104   2.072   4.519   3.246
 9735SOL    HW230105   2.232   4.500   3.223
 9736SOL     OW30106   5.907   1.540   6.013
 9736SOL    HW130107   5.919   1.599   6.092
 9736SOL    HW230108   5.964   1.572   5.938
 9737SOL     OW30109   6.557   3.075   4.328
 9737SOL    HW130110   6.535   3.006   4.396
 9737SOL    HW230111   6.492   3.151   4.334
 9738SOL     OW30112   1.993   0.263   2.080
 9738SOL    HW130113   1.911   0.310   2.113
 9738SOL    HW230114   2.017   0.190   2.143
 9739SOL     OW30115   5.766   5.503   2.592
 9739SOL    HW130116   5.802   5.516   2.685
 9739SOL    HW230117   5.801   5.417   2.555
 9740SOL     OW30118   6.350   1.969   3.727
 9740SOL    HW130119   6.352   1.930   3.635
 9740SOL    HW230120   6.256   1.967   3.761
 9741SOL     OW30121   5.099   1.831   2.782
 9741SOL    HW130122   5.081   1.870   2.692
 9741SOL    HW230123   5.125   1.903   2.845
 9742SOL     OW30124   3.758   0.432   1.802
 9742SOL    HW130125   3.719   0.518   1.768
 9742SOL    HW230126   3.804   0.384   1.727
 9743SOL     OW30127   0.967   1.938   4.545
 9743SOL    HW130128   0.969   1.862   4.480
 9743SOL    HW230129   1.006   2.019   4.502
 9744SOL     OW30130   0.435   0.134   2.511
 9744SOL    HW130131   0.509   0.167   2.453
 9744SOL    HW230132   0.353   0.191   2.496
 9745SOL     OW30133   6.237   3.238   6.214
 9745SOL    HW130134   6.243   3.328   6.171
 9745SOL    HW230135   6.150   3.230   6.263
 9746SOL     OW30136   6.469   0.928   5.950
 9746SOL    HW130137   6.377   0.922   5.911
 9746SOL    HW230138   6.463   0.931   6.049
 9747SOL     OW30139   1.679   0.255   1.939
 9747SOL    HW130140   1.738   0.178   1.914
 9747SOL    HW230141   1.722   0.341   1.912
 9748SOL     OW30142   1.011   1.577   3.715
 9748SOL    HW130143   1.006   1.622   3.804
 9748SOL    HW230144   1.094   1.605   3.667
 9749SOL     OW30145   2.224   1.893   5.257
 9749SOL    HW130146   2.150   1.830   5.234
 9749SOL    HW230147   2.223   1.970   5.193
 9750SOL     OW30148   5.448   4.730   3.578
 9750SOL    HW130149   5.536   4.684   3.577
 9750SOL    HW230150   5.425   4.757   3.671
 9751SOL     OW30151   1.832   1.190   0.177
 9751SOL    HW130152   1.835   1.281   0.135
 9751SOL    HW230153   1.899   1.131   0.131
 9752SOL     OW30154   5.378   2.064   6.981
 9752SOL    HW130155   5.457   2.027   6.932
 9752SOL    HW230156   5.319   1.989   7.010
 9753SOL     OW30157   6.292   5.641   5.662
 9753SOL    HW130158   6.367   5.681   5.609
 9753SOL    HW230159   6.242   5.714   5.709
 9754SOL     OW30160   1.009   1.668   6.357
 9754SOL    HW130161   0.954   1.666   6.273
 9754SOL    HW230162   0.975   1.740   6.417
 9755SOL     OW30163   4.040   3.701   5.390
 9755SOL    HW130164   4.087   3.691   5.478
 9755SOL    HW230165   4.068   3.787   5.348
 9756SOL     OW30166   5.842   3.364   0.205
 9756SOL    HW130167   5.771   3.300   0.237
 9756SOL    HW230168   5.907   3.315   0.148
 9757SOL     OW30169   5.676   3.559   3.141
 9757SOL    HW130170   5.682   3.601   3.050
 9757SOL    HW230171   5.767   3.529   3.170
 9758SOL     OW30172   2.793   0.176   6.950
 9758SOL    HW130173   2.720   0.110   6.934
 9758SOL    HW230174   2.770   0.263   6.906
 9759SOL     OW30175   2.262   6.962   6.930
 9759SOL    HW130176   2.226   6.973   6.837
 9759SOL    HW230177   2.186   6.953   6.994
 9760SOL     OW30178   4.585   3.407   5.318
 9760SOL    HW130179   4.644   3.453   5.252
 9760SOL    HW230180   4.611   3.311   5.324
 9761SOL     OW30181   5.905   0.373   1.753
 9761SOL    HW130182   5.923   0.276   1.740
 9761SOL    HW230183   5.988   0.426   1.735
 9762SOL     OW30184   2.694   1.975   4.048
 9762SOL    HW130185   2.671   1.881   4.024
 9762SOL    HW230186   2.692   2.032   3.965
 9763SOL     OW30187   4.781   1.956   1.853
 9763SOL    HW130188   4.714   2.019   1.814
 9763SOL    HW230189   4.873   1.981   1.822
 9764SOL     OW30190   0.919   2.714   3.265
 9764SOL    HW130191   0.932   2.619   3.237
 9764SOL    HW230192   0.870   2.763   3.194
 9765SOL     OW30193   6.452   1.605   2.762
 9765SOL    HW130194   6.398   1.541   2.817
 9765SOL    HW230195   6.547   1.602   2.793
 9766SOL     OW30196   2.943   0.279   3.219
 9766SOL    HW130197   2.887   0.331   3.155
 9766SOL    HW230198   2.948   0.184   3.189
 9767SOL     OW30199   5.031   1.934   5.498
 9767SOL    HW130200   4.983   1.871   5.560
 9767SOL    HW230201   4.982   2.021   5.493
 9768SOL     OW30202   4.696   1.509   2.387
 9768SOL    HW130203   4.668   1.569   2.462
 9768SOL    HW230204   4.661   1.546   2.301
 9769SOL     OW30205   2.352   1.105   2.344
 9769SOL    HW130206   2.376   1.058   2.259
 9769SOL    HW230207   2.423   1.172   2.366
 9770SOL     OW30208   5.232   0.186   0.022
 9770SOL    HW130209   5.237   0.183   6.940
 9770SOL    HW230210   5.176   0.264   0.050
 9771SOL     OW30211   3.404   5.037   1.322
 9771SOL    HW130212   3.482   5.014   1.380
 9771SOL    HW230213   3.371   5.128   1.346
 9772SOL     OW30214   1.506   6.008   2.956
 9772SOL    HW130215   1.492   6.077   3.027
 9772SOL    HW230216   1.574   6.040   2.890
 9773SOL     OW30217   5.170   6.662   4.564
 9773SOL    HW130218   5.197   6.668   4.660
 9773SOL    HW230219   5.085   6.714   4.550
 9774SOL     OW30220   6.191   4.835   1.502
 9774SOL    HW130221   6.136   4.875   1.428
 9774SOL    HW230222   6.254   4.904   1.537
 9775SOL     OW30223   2.530   1.130   3.627
 9775SOL    HW130224   2.574   1.185   3.556
 9775SOL    HW230225   2.525   1.183   3.712
 9776SOL     OW30226   0.232   5.647   4.504
 9776SOL    HW130227   0.195   5.625   4.595
 9776SOL    HW230228   0.292   5.726   4.511
 9777SOL     OW30229   5.347   4.745   6.120
 9777SOL    HW130230   5.256   4.784   6.103
 9777SOL    HW230231   5.398   4.806   6.180
 9778SOL     OW30232   0.499   0.789   3.054
 9778SOL    HW130233   0.582   0.819   3.103
 9778SOL    HW230234   0.441   0.737   3.116
 9779SOL     OW30235   2.057   1.330   5.061
 9779SOL    HW130236   2.032   1.283   5.146
 9779SOL    HW230237   2.116   1.270   5.007
 9780SOL     OW30238   2.410   1.845   1.241
 9780SOL    HW130239   2.465   1.776   1.195
 9780SOL    HW230240   2.455   1.873   1.326
 9781SOL     OW30241   1.186   3.837   4.299
 9781SOL    HW130242   1.202   3.882   4.211
 9781SOL    HW230243   1.260   3.860   4.362
 9782SOL     OW30244   6.912   0.488   1.219
 9782SOL    HW130245   6.890   0.498   1.122
 9782SOL    HW230246   7.000   0.442   1.228
 9783SOL     OW30247   5.367   2.355   3.037
 9783SOL    HW130248   5.446   2.416   3.032
 9783SOL    HW230249   5.387   2.271   2.986
 9784SOL     OW30250   3.422   1.559   3.576
 9784SOL    HW130251   3.439   1.476   3.523
 9784SOL    HW230252   3.332   1.553   3.619
 9785SOL     OW30253   0.092   4.035   5.505
 9785SOL    HW130254   0.032   4.111   5.532
 9785SOL    HW230255   0.081   4.016   5.408
 9786SOL     OW30256   2.097   5.157   6.453
 9786SOL    HW130257   2.176   5.104   6.487
 9786SOL    HW230258   2.122   5.203   6.368
 9787SOL     OW30259   4.671   3.659   1.703
 9787SOL    HW130260   4.710   3.604   1.629
 9787SOL    HW230261   4.727   3.650   1.785
 9788SOL     OW30262   0.040   0.502   3.528
 9788SOL    HW130263   0.003   0.589   3.495
 9788SOL    HW230264   0.015   0.490   3.624
 9789SOL     OW30265   1.256   5.986   6.610
 9789SOL    HW130266   1.330   5.935   6.653
 9789SOL    HW230267   1.244   5.957   6.515
 9790SOL     OW30268   5.486   4.371   5.991
 9790SOL    HW130269   5.546   4.335   5.919
 9790SOL    HW230270   5.460   4.297   6.053
 9791SOL     OW30271   0.342   1.644   2.804
 9791SOL    HW130272   0.408   1.573   2.828
 9791SOL    HW230273   0.312   1.631   2.709
 9792SOL     OW30274   5.561   5.621   1.873
 9792SOL    HW130275   5.590   5.643   1.780
 9792SOL    HW230276   5.640   5.622   1.934
 9793SOL     OW30277   5.502   5.213   3.462
 9793SOL    HW130278   5.577   5.265   3.421
 9793SOL    HW230279   5.514   5.116   3.440
 9794SOL     OW30280   6.409   4.309   6.471
 9794SOL    HW130281   6.450   4.352   6.390
 9794SOL    HW230282   6.352   4.376   6.518
 9795SOL     OW30283   1.432   1.806   4.057
 9795SOL    HW130284   1.363   1.752   4.105
 9795SOL    HW230285   1.505   1.832   4.121
 9796SOL     OW30286   3.924   2.913   1.353
 9796SOL    HW130287   4.011   2.883   1.392
 9796SOL    HW230288   3.878   2.974   1.418
 9797SOL     OW30289   3.479   4.605   6.386
 9797SOL    HW130290   3.569   4.646   6.402
 9797SOL    HW230291   3.458   4.606   6.288
 9798SOL     OW30292   2.220   0.722   0.973
 9798SOL    HW130293   2.225   0.813   0.932
 9798SOL    HW230294   2.309   0.701   1.015
 9799SOL     OW30295   3.324   3.406   3.366
 9799SOL    HW130296   3.390   3.348   3.317
 9799SOL    HW230297   3.279   3.467   3.301
 9800SOL     OW30298   3.070   6.592   5.248
 9800SOL    HW130299   3.148   6.596   5.185
 9800SOL    HW230300   3.102   6.578   5.341
 9801SOL     OW30301   4.589   4.638   0.387
 9801SOL    HW130302   4.581   4.540   0.405
 9801SOL    HW230303   4.568   4.689   0.471
 9802SOL     OW30304   0.869   2.527   2.663
 9802SOL    HW130305   0.911   2.617   2.651
 9802SOL    HW230306   0.811   2.529   2.745
 9803SOL     OW30307   6.269   1.481   6.853
 9803SOL    HW130308   6.235   1.561   6.903
 9803SOL    HW230309   6.226   1.478   6.763
 9804SOL     OW30310   0.747   5.624   3.342
 9804SOL    HW130311   0.773   5.713   3.304
 9804SOL    HW230312   0.682   5.580   3.280
 9805SOL     OW30313   1.084   6.106   5.618
 9805SOL    HW130314   1.018   6.096   5.543
 9805SOL    HW230315   1.167   6.054   5.595
 9806SOL     OW30316   1.140   1.951   0.248
 9806SOL    HW130317   1.098   1.925   0.161
 9806SOL    HW230318   1.094   1.902   0.323
 9807SOL     OW30319   1.986   2.733   6.988
 9807SOL    HW130320   1.933   2.817   7.001
 9807SOL    HW230321   2.033   2.710   0.056
 9808SOL     OW30322   5.825   0.968   5.642
 9808SOL    HW130323   5.779   1.026   5.575
 9808SOL    HW230324   5.890   1.024   5.694
 9809SOL     OW30325   1.209   1.923   6.131
 9809SOL    HW130326   1.275   1.969   6.072
 9809SOL    HW230327   1.247   1.915   6.223
 9810SOL     OW30328   2.840   2.277   3.939
 9810SOL    HW130329   2.761   2.219   3.961
 9810SOL    HW230330   2.811   2.350   3.879
 9811SOL     OW30331   5.995   5.497   4.356
 9811SOL    HW130332   6.057   5.575   4.371
 9811SOL    HW230333   5.934   5.488   4.434
 9812SOL     OW30334   3.157   2.561   6.316
 9812SOL    HW130335   3.171   2.549   6.218
 9812SOL    HW230336   3.113   2.649   6.333
 9813SOL     OW30337   5.846   6.768   6.885
 9813SOL    HW130338   5.781   6.777   6.960
 9813SOL    HW230339   5.836   6.678   6.842
 9814SOL     OW30340   0.755   1.444   6.771
 9814SOL    HW130341   0.770   1.463   6.868
 9814SOL    HW230342   0.814   1.502   6.716
 9815SOL     OW30343   6.631   3.111   2.332
 9815SOL    HW130344   6.595   3.025   2.296
 9815SOL    HW230345   6.633   3.106   2.432
 9816SOL     OW30346   6.712   1.283   6.019
 9816SOL    HW130347   6.719   1.193   6.063
 9816SOL    HW230348   6.742   1.354   6.083
 9817SOL     OW30349   3.173   5.474   2.309
 9817SOL    HW130350   3.202   5.566   2.282
 9817SOL    HW230351   3.161   5.417   2.227
 9818SOL     OW30352   1.830   1.243   4.073
 9818SOL    HW130353   1.767   1.259   4.148
 9818SOL    HW230354   1.779   1.210   3.993
 9819SOL     OW30355   5.101   3.231   5.245
 9819SOL    HW130356   5.040   3.151   5.241
 9819SOL    HW230357   5.048   3.314   5.225
 9820SOL     OW30358   3.438   3.076   6.405
 9820SOL    HW130359   3.507   3.004   6.401
 9820SOL    HW230360   3.355   3.039   6.446
 9821SOL     OW30361   4.132   1.420   0.898
 9821SOL    HW130362   4.155   1.327   0.872
 9821SOL    HW230363   4.213   1.466   0.935
 9822SOL     OW30364   3.467   5.912   4.112
 9822SOL    HW130365   3.459   5.826   4.162
 9822SOL    HW230366   3.397   5.976   4.144
 9823SOL     OW30367   1.967   0.107   2.346
 9823SOL    HW130368   1.903   0.184   2.343
 9823SOL    HW230369   1.983   0.080   2.441
 9824SOL     OW30370   2.125   6.100   5.099
 9824SOL    HW130371   2.047   6.140   5.049
 9824SOL    HW230372   2.118   6.000   5.097
 9825SOL     OW30373   5.822   6.093   4.928
 9825SOL    HW130374   5.725   6.096   4.951
 9825SOL    HW230375   5.835   6.131   4.836
 9826SOL     OW30376   3.670   6.682   5.412
 9826SOL    HW130377   3.747   6.737   5.380
 9826SOL    HW230378   3.620   6.646   5.333
 9827SOL     OW30379   1.867   3.950   3.249
 9827SOL    HW130380   1.859   4.030   3.308
 9827SOL    HW230381   1.782   3.937   3.198
 9828SOL     OW30382   3.145   2.166   4.713
 9828SOL    HW130383   3.155   2.222   4.796
 9828SOL    HW230384   3.091   2.217   4.646
 9829SOL     OW30385   4.620   5.611   6.146
 9829SOL    HW130386   4.716   5.620   6.117
 9829SOL    HW230387   4.599   5.515   6.159
 9830SOL     OW30388   5.127   1.644   1.568
 9830SOL    HW130389   5.214   1.620   1.526
 9830SOL    HW230390   5.056   1.649   1.498
 9831SOL     OW30391   0.860   4.547   1.976
 9831SOL    HW130392   0.776   4.585   2.015
 9831SOL    HW230393   0.836   4.477   1.908
 9832SOL     OW30394   4.424   5.802   3.244
 9832SOL    HW130395   4.512   5.821   3.289
 9832SOL    HW230396   4.440   5.786   3.146
 9833SOL     OW30397   3.493   2.910   3.394
 9833SOL    HW130398   3.398   2.940   3.388
 9833SOL    HW230399   3.524   2.880   3.304
 9834SOL     OW30400   1.702   4.785   5.817
 9834SOL    HW130401   1.801   4.799   5.808
 9834SOL    HW230402   1.660   4.788   5.726
 9835SOL     OW30403   4.054   3.201   4.616
 9835SOL    HW130404   3.954   3.198   4.612
 9835SOL    HW230405   4.083   3.223   4.709
 9836SOL     OW30406   0.590   4.698   4.763
 9836SOL    HW130407   0.561   4.646   4.683
 9836SOL    HW230408   0.608   4.793   4.737
 9837SOL     OW30409   5.674   1.037   2.342
 9837SOL    HW130410   5.708   0.968   2.279
 9837SOL    HW230411   5.598   1.086   2.299
 9838SOL     OW30412   1.505   6.874   0.713
 9838SOL    HW130413   1.522   6.798   0.776
 9838SOL    HW230414   1.569   6.948   0.731
 9839SOL     OW30415   4.394   0.040   3.315
 9839SOL    HW130416   4.374   0.123   3.263
 9839SOL    HW230417   4.336   6.983   3.282
 9840SOL     OW30418   4.736   1.877   0.383
 9840SOL    HW130419   4.827   1.901   0.415
 9840SOL    HW230420   4.706   1.792   0.426
 9841SOL     OW30421   0.802   4.954   3.264
 9841SOL    HW130422   0.877   4.965   3.330
 9841SOL    HW230423   0.763   4.862   3.273
 9842SOL     OW30424   3.701   3.114   0.179
 9842SOL    HW130425   3.684   3.066   0.265
 9842SOL    HW230426   3.613   3.139   0.137
 9843SOL     OW30427   0.092   0.048   1.869
 9843SOL    HW130428   0.061   6.973   1.891
 9843SOL    HW230429   0.133   0.090   1.951
 9844SOL     OW30430   5.954   1.008   3.921
 9844SOL    HW130431   5.960   0.965   4.011
 9844SOL    HW230432   5.969   0.939   3.850
 9845SOL     OW30433   1.155   2.771   3.054
 9845SOL    HW130434   1.213   2.735   2.981
 9845SOL    HW230435   1.059   2.748   3.035
 9846SOL     OW30436   4.906   1.429   0.358
 9846SOL    HW130437   4.939   1.484   0.281
 9846SOL    HW230438   4.948   1.338   0.354
 9847SOL     OW30439   3.859   3.124   2.305
 9847SOL    HW130440   3.836   3.028   2.294
 9847SOL    HW230441   3.917   3.137   2.386
 9848SOL     OW30442   3.693   4.858   5.378
 9848SOL    HW130443   3.652   4.860   5.469
 9848SOL    HW230444   3.660   4.779   5.327
 9849SOL     OW30445   0.892   6.774   6.991
 9849SOL    HW130446   0.888   6.679   0.003
 9849SOL    HW230447   0.812   6.823   0.008
 9850SOL     OW30448   6.784   0.424   3.383
 9850SOL    HW130449   6.766   0.502   3.323
 9850SOL    HW230450   6.797   0.457   3.477
 9851SOL     OW30451   3.060   6.414   4.336
 9851SOL    HW130452   2.988   6.365   4.384
 9851SOL    HW230453   3.045   6.408   4.237
 9852SOL     OW30454   1.512   1.052   5.192
 9852SOL    HW130455   1.551   1.143   5.185
 9852SOL    HW230456   1.557   0.990   5.128
 9853SOL     OW30457   6.925   3.366   5.385
 9853SOL    HW130458   6.982   3.288   5.410
 9853SOL    HW230459   6.832   3.351   5.416
 9854SOL     OW30460   0.811   5.362   4.699
 9854SOL    HW130461   0.724   5.388   4.741
 9854SOL    HW230462   0.872   5.441   4.699
 9855SOL     OW30463   1.181   3.350   0.994
 9855SOL    HW130464   1.127   3.431   1.016
 9855SOL    HW230465   1.256   3.341   1.059
 9856SOL     OW30466   5.387   4.771   3.890
 9856SOL    HW130467   5.335   4.817   3.963
 9856SOL    HW230468   5.483   4.767   3.916
 9857SOL     OW30469   5.629   3.033   2.607
 9857SOL    HW130470   5.623   3.024   2.706
 9857SOL    HW230471   5.640   2.942   2.566
 9858SOL     OW30472   0.794   6.428   1.696
 9858SOL    HW130473   0.817   6.521   1.722
 9858SOL    HW230474   0.791   6.421   1.596
 9859SOL     OW30475   6.746   4.726   4.634
 9859SOL    HW130476   6.655   4.738   4.673
 9859SOL    HW230477   6.744   4.653   4.566
 9860SOL     OW30478   1.466   2.324   5.169
 9860SOL    HW130479   1.531   2.256   5.135
 9860SOL    HW230480   1.416   2.364   5.092
 9861SOL     OW30481   3.124   0.835   3.372
 9861SOL    HW130482   3.183   0.771   3.323
 9861SOL    HW230483   3.081   0.789   3.449
 9862SOL     OW30484   2.755   3.858   0.736
 9862SOL    HW130485   2.656   3.857   0.746
 9862SOL    HW230486   2.779   3.858   0.639
 9863SOL     OW30487   3.205   5.777   1.143
 9863SOL    HW130488   3.174   5.864   1.182
 9863SOL    HW230489   3.145   5.704   1.174
 9864SOL     OW30490   2.854   0.677   5.507
 9864SOL    HW130491   2.804   0.640   5.428
 9864SOL    HW230492   2.879   0.603   5.569
 9865SOL     OW30493   0.595   6.318   4.916
 9865SOL    HW130494   0.620   6.280   5.005
 9865SOL    HW230495   0.503   6.357   4.921
 9866SOL     OW30496   6.293   4.158   4.981
 9866SOL    HW130497   6.303   4.112   4.893
 9866SOL    HW230498   6.360   4.121   5.045
 9867SOL     OW30499   6.583   2.290   2.737
 9867SOL    HW130500   6.639   2.238   2.801
 9867SOL    HW230501   6.492   2.304   2.776
 9868SOL     OW30502   0.729   3.685   4.218
 9868SOL    HW130503   0.806   3.701   4.280
 9868SOL    HW230504   0.751   3.722   4.128
 9869SOL     OW30505   0.729   2.871   1.099
 9869SOL    HW130506   0.782   2.918   1.028
 9869SOL    HW230507   0.773   2.883   1.188
 9870SOL     OW30508   4.112   0.151   2.857
 9870SOL    HW130509   4.080   0.083   2.923
 9870SOL    HW230510   4.203   0.184   2.884
 9871SOL     OW30511   6.877   3.430   6.081
 9871SOL    HW130512   6.920   3.377   6.155
 9871SOL    HW230513   6.840   3.515   6.119
 9872SOL     OW30514   2.275   5.623   5.029
 9872SOL    HW130515   2.347   5.553   5.030
 9872SOL    HW230516   2.224   5.618   5.115
 9873SOL     OW30517   2.126   2.290   5.985
 9873SOL    HW130518   2.105   2.195   5.961
 9873SOL    HW230519   2.173   2.334   5.909
 9874SOL     OW30520   0.201   3.314   4.790
 9874SOL    HW130521   0.149   3.389   4.831
 9874SOL    HW230522   0.151   3.228   4.805
 9875SOL     OW30523   0.009   5.688   2.377
 9875SOL    HW130524   6.975   5.734   2.305
 9875SOL    HW230525   6.983   5.601   2.400
 9876SOL     OW30526   5.107   0.457   4.345
 9876SOL    HW130527   5.063   0.367   4.352
 9876SOL    HW230528   5.037   0.527   4.339
 9877SOL     OW30529   0.012   4.339   4.406
 9877SOL    HW130530   6.972   4.401   4.459
 9877SOL    HW230531   0.047   4.387   4.325
 9878SOL     OW30532   2.104   3.857   6.558
 9878SOL    HW130533   2.055   3.783   6.512
 9878SOL    HW230534   2.176   3.891   6.498
 9879SOL     OW30535   0.499   4.834   5.563
 9879SOL    HW130536   0.461   4.743   5.578
 9879SOL    HW230537   0.599   4.830   5.563
 9880SOL     OW30538   2.589   0.794   0.294
 9880SOL    HW130539   2.680   0.804   0.252
 9880SOL    HW230540   2.522   0.771   0.223
 9881SOL     OW30541   6.099   0.859   4.727
 9881SOL    HW130542   6.164   0.784   4.736
 9881SOL    HW230543   6.011   0.832   4.767
 9882SOL     OW30544   3.582   3.531   5.025
 9882SOL    HW130545   3.625   3.459   4.970
 9882SOL    HW230546   3.642   3.611   5.026
 9883SOL     OW30547   2.248   6.070   1.685
 9883SOL    HW130548   2.191   5.988   1.693
 9883SOL    HW230549   2.307   6.077   1.766
 9884SOL     OW30550   3.034   2.501   7.004
 9884SOL    HW130551   2.935   2.499   6.992
 9884SOL    HW230552   3.069   2.407   7.004
 9885SOL     OW30553   0.911   3.353   4.135
 9885SOL    HW130554   0.974   3.409   4.188
 9885SOL    HW230555   0.849   3.413   4.083
 9886SOL     OW30556   6.379   6.858   1.916
 9886SOL    HW130557   6.330   6.908   1.987
 9886SOL    HW230558   6.457   6.809   1.957
 9887SOL     OW30559   3.436   0.106   0.398
 9887SOL    HW130560   3.468   0.184   0.451
 9887SOL    HW230561   3.364   0.135   0.335
 9888SOL     OW30562   5.821   6.162   3.250
 9888SOL    HW130563   5.757   6.120   3.314
 9888SOL    HW230564   5.772   6.192   3.168
 9889SOL     OW30565   0.519   5.078   2.527
 9889SOL    HW130566   0.533   5.000   2.588
 9889SOL    HW230567   0.597   5.140   2.534
 9890SOL     OW30568   6.191   3.211   0.327
 9890SOL    HW130569   6.213   3.290   0.384
 9890SOL    HW230570   6.202   3.236   0.231
 9891SOL     OW30571   5.096   4.865   1.643
 9891SOL    HW130572   5.004   4.829   1.656
 9891SOL    HW230573   5.095   4.965   1.647
 9892SOL     OW30574   2.088   5.288   3.881
 9892SOL    HW130575   2.115   5.316   3.973
 9892SOL    HW230576   2.169   5.273   3.825
 9893SOL     OW30577   6.663   5.766   2.331
 9893SOL    HW130578   6.744   5.784   2.275
 9893SOL    HW230579   6.693   5.741   2.424
 9894SOL     OW30580   2.908   1.351   6.651
 9894SOL    HW130581   2.861   1.417   6.592
 9894SOL    HW230582   2.969   1.399   6.714
 9895SOL     OW30583   5.871   2.169   5.581
 9895SOL    HW130584   5.958   2.195   5.623
 9895SOL    HW230585   5.878   2.077   5.543
 9896SOL     OW30586   4.372   2.519   1.103
 9896SOL    HW130587   4.470   2.541   1.104
 9896SOL    HW230588   4.345   2.483   1.193
 9897SOL     OW30589   5.303   1.191   2.326
 9897SOL    HW130590   5.311   1.173   2.228
 9897SOL    HW230591   5.299   1.290   2.342
 9898SOL     OW30592   0.892   5.424   5.486
 9898SOL    HW130593   0.810   5.372   5.462
 9898SOL    HW230594   0.949   5.435   5.404
 9899SOL     OW30595   6.281   4.265   2.342
 9899SOL    HW130596   6.344   4.273   2.264
 9899SOL    HW230597   6.194   4.308   2.318
 9900SOL     OW30598   2.008   1.976   2.466
 9900SOL    HW130599   2.094   1.953   2.421
 9900SOL    HW230600   2.021   1.976   2.565
 9901SOL     OW30601   1.251   2.266   0.349
 9901SOL    HW130602   1.152   2.265   0.361
 9901SOL    HW230603   1.277   2.207   0.272
 9902SOL     OW30604   3.329   3.355   1.239
 9902SOL    HW130605   3.410   3.373   1.296
 9902SOL    HW230606   3.255   3.320   1.296
 9903SOL     OW30607   4.503   0.358   2.331
 9903SOL    HW130608   4.421   0.303   2.313
 9903SOL    HW230609   4.575   0.299   2.369
 9904SOL     OW30610   0.285   3.616   6.719
 9904SOL    HW130611   0.317   3.540   6.776
 9904SOL    HW230612   0.351   3.690   6.723
 9905SOL     OW30613   1.838   6.752   0.560
 9905SOL    HW130614   1.785   6.673   0.529
 9905SOL    HW230615   1.776   6.824   0.592
 9906SOL     OW30616   1.624   2.984   6.821
 9906SOL    HW130617   1.555   3.026   6.762
 9906SOL    HW230618   1.589   2.978   6.915
 9907SOL     OW30619   2.857   6.527   3.231
 9907SOL    HW130620   2.788   6.575   3.178
 9907SOL    HW230621   2.872   6.436   3.193
 9908SOL     OW30622   0.817   3.291   6.269
 9908SOL    HW130623   0.844   3.263   6.361
 9908SOL    HW230624   0.897   3.292   6.210
 9909SOL     OW30625   3.549   0.709   3.139
 9909SOL    HW130626   3.520   0.717   3.044
 9909SOL    HW230627   3.596   0.793   3.166
 9910SOL     OW30628   0.138   4.826   1.608
 9910SOL    HW130629   0.167   4.737   1.644
 9910SOL    HW230630   0.041   4.840   1.628
 9911SOL     OW30631   4.742   5.129   3.306
 9911SOL    HW130632   4.736   5.075   3.390
 9911SOL    HW230633   4.736   5.227   3.328
 9912SOL     OW30634   3.990   0.529   2.451
 9912SOL    HW130635   3.921   0.588   2.409
 9912SOL    HW230636   3.984   0.438   2.410
 9913SOL     OW30637   5.811   3.005   1.925
 9913SOL    HW130638   5.910   3.006   1.942
 9913SOL    HW230639   5.794   2.973   1.832
 9914SOL     OW30640   0.794   0.745   5.515
 9914SOL    HW130641   0.697   0.751   5.539
 9914SOL    HW230642   0.837   0.673   5.569
 9915SOL     OW30643   5.750   4.084   3.969
 9915SOL    HW130644   5.845   4.112   3.956
 9915SOL    HW230645   5.721   4.027   3.892
 9916SOL     OW30646   2.667   2.048   3.579
 9916SOL    HW130647   2.760   2.011   3.578
 9916SOL    HW230648   2.653   2.101   3.662
 9917SOL     OW30649   2.963   3.254   4.545
 9917SOL    HW130650   2.911   3.283   4.465
 9917SOL    HW230651   3.057   3.233   4.518
 9918SOL     OW30652   1.386   1.430   0.317
 9918SOL    HW130653   1.311   1.370   0.291
 9918SOL    HW230654   1.473   1.386   0.292
 9919SOL     OW30655   1.993   4.962   2.539
 9919SOL    HW130656   1.999   4.946   2.638
 9919SOL    HW230657   1.977   5.060   2.523
 9920SOL     OW30658   3.239   0.906   2.486
 9920SOL    HW130659   3.334   0.935   2.477
 9920SOL    HW230660   3.190   0.969   2.547
 9921SOL     OW30661   5.921   6.149   3.857
 9921SOL    HW130662   5.988   6.101   3.913
 9921SOL    HW230663   5.830   6.141   3.898
 9922SOL     OW30664   4.269   4.356   0.755
 9922SOL    HW130665   4.198   4.343   0.824
 9922SOL    HW230666   4.330   4.278   0.755
 9923SOL     OW30667   6.599   2.837   0.254
 9923SOL    HW130668   6.680   2.823   0.198
 9923SOL    HW230669   6.576   2.752   0.302
 9924SOL     OW30670   5.581   1.593   1.404
 9924SOL    HW130671   5.626   1.632   1.485
 9924SOL    HW230672   5.616   1.501   1.389
 9925SOL     OW30673   2.072   4.423   5.241
 9925SOL    HW130674   2.077   4.328   5.212
 9925SOL    HW230675   2.114   4.481   5.171
 9926SOL     OW30676   3.331   2.425   1.324
 9926SOL    HW130677   3.426   2.401   1.344
 9926SOL    HW230678   3.292   2.477   1.400
 9927SOL     OW30679   0.984   2.628   1.461
 9927SOL    HW130680   0.922   2.660   1.532
 9927SOL    HW230681   1.072   2.604   1.501
 9928SOL     OW30682   6.038   4.397   2.347
 9928SOL    HW130683   5.964   4.341   2.309
 9928SOL    HW230684   6.034   4.393   2.447
 9929SOL     OW30685   2.675   4.153   5.440
 9929SOL    HW130686   2.629   4.095   5.374
 9929SOL    HW230687   2.696   4.242   5.398
 9930SOL     OW30688   6.848   0.304   5.782
 9930SOL    HW130689   6.872   0.244   5.705
 9930SOL    HW230690   6.880   0.397   5.762
 9931SOL     OW30691   0.047   5.817   5.266
 9931SOL    HW130692   7.009   5.805   5.184
 9931SOL    HW230693   0.112   5.741   5.274
 9932SOL     OW30694   1.382   1.929   0.586
 9932SOL    HW130695   1.336   1.900   0.670
 9932SOL    HW230696   1.381   2.029   0.580
 9933SOL     OW30697   2.996   0.771   3.602
 9933SOL    HW130698   2.962   0.845   3.660
 9933SOL    HW230699   2.974   0.683   3.643
 9934SOL     OW30700   6.013   1.865   0.287
 9934SOL    HW130701   6.105   1.825   0.283
 9934SOL    HW230702   6.009   1.932   0.361
 9935SOL     OW30703   2.707   2.285   0.931
 9935SOL    HW130704   2.719   2.186   0.923
 9935SOL    HW230705   2.638   2.316   0.866
 9936SOL     OW30706   5.579   4.589   6.157
 9936SOL    HW130707   5.508   4.646   6.116
 9936SOL    HW230708   5.568   4.495   6.124
 9937SOL     OW30709   1.185   0.969   3.041
 9937SOL    HW130710   1.118   0.901   3.073
 9937SOL    HW230711   1.165   1.057   3.083
 9938SOL     OW30712   5.215   0.578   3.719
 9938SOL    HW130713   5.289   0.512   3.731
 9938SOL    HW230714   5.248   0.656   3.666
 9939SOL     OW30715   1.402   3.312   1.154
 9939SOL    HW130716   1.383   3.243   1.224
 9939SOL    HW230717   1.479   3.369   1.184
 9940SOL     OW30718   0.038   0.170   3.648
 9940SOL    HW130719   0.003   0.241   3.709
 9940SOL    HW230720   0.021   0.196   3.553
 9941SOL     OW30721   3.521   5.733   5.183
 9941SOL    HW130722   3.563   5.807   5.235
 9941SOL    HW230723   3.437   5.766   5.140
 9942SOL     OW30724   4.764   4.423   2.675
 9942SOL    HW130725   4.763   4.352   2.605
 9942SOL    HW230726   4.823   4.395   2.750
 9943SOL     OW30727   1.090   4.447   6.286
 9943SOL    HW130728   1.084   4.539   6.249
 9943SOL    HW230729   1.131   4.450   6.377
 9944SOL     OW30730   6.694   5.811   6.550
 9944SOL    HW130731   6.787   5.846   6.557
 9944SOL    HW230732   6.677   5.745   6.623
 9945SOL     OW30733   5.713   4.054   6.580
 9945SOL    HW130734   5.768   3.983   6.537
 9945SOL    HW230735   5.616   4.032   6.571
 9946SOL     OW30736   6.012   0.175   3.429
 9946SOL    HW130737   5.962   0.200   3.346
 9946SOL    HW230738   6.109   0.200   3.418
 9947SOL     OW30739   1.457   1.170   3.214
 9947SOL    HW130740   1.434   1.099   3.148
 9947SOL    HW230741   1.556   1.184   3.215
 9948SOL     OW30742   6.913   5.547   5.152
 9948SOL    HW130743   6.854   5.471   5.181
 9948SOL    HW230744   6.981   5.513   5.088
 9949SOL     OW30745   0.558   5.469   4.103
 9949SOL    HW130746   0.505   5.399   4.054
 9949SOL    HW230747   0.629   5.425   4.157
 9950SOL     OW30748   6.571   5.161   6.170
 9950SOL    HW130749   6.577   5.222   6.249
 9950SOL    HW230750   6.615   5.074   6.192
 9951SOL     OW30751   1.571   2.732   2.717
 9951SOL    HW130752   1.627   2.670   2.772
 9951SOL    HW230753   1.629   2.800   2.673
 9952SOL     OW30754   0.935   4.037   2.135
 9952SOL    HW130755   0.877   4.001   2.208
 9952SOL    HW230756   0.898   4.125   2.104
 9953SOL     OW30757   6.227   2.380   3.419
 9953SOL    HW130758   6.222   2.288   3.381
 9953SOL    HW230759   6.309   2.426   3.384
 9954SOL     OW30760   2.166   1.606   5.050
 9954SOL    HW130761   2.109   1.532   5.016
 9954SOL    HW230762   2.262   1.578   5.051
 9955SOL     OW30763   4.693   3.197   6.695
 9955SOL    HW130764   4.662   3.179   6.789
 9955SOL    HW230765   4.754   3.277   6.695
 9956SOL     OW30766   0.359   3.974   2.275
 9956SOL    HW130767   0.443   4.018   2.306
 9956SOL    HW230768   0.348   3.990   2.177
 9957SOL     OW30769   5.594   0.313   1.142
 9957SOL    HW130770   5.538   0.286   1.220
 9957SOL    HW230771   5.691   0.302   1.165
 9958SOL     OW30772   3.463   5.670   6.304
 9958SOL    HW130773   3.484   5.724   6.385
 9958SOL    HW230774   3.545   5.623   6.273
 9959SOL     OW30775   4.423   3.446   1.551
 9959SOL    HW130776   4.425   3.532   1.602
 9959SOL    HW230777   4.389   3.373   1.610
 9960SOL     OW30778   6.985   6.202   1.539
 9960SOL    HW130779   0.011   6.292   1.532
 9960SOL    HW230780   6.939   6.179   1.453
 9961SOL     OW30781   2.011   4.627   2.480
 9961SOL    HW130782   2.000   4.598   2.575
 9961SOL    HW230783   2.105   4.654   2.463
 9962SOL     OW30784   3.757   0.848   1.845
 9962SOL    HW130785   3.769   0.943   1.817
 9962SOL    HW230786   3.847   0.806   1.861
 9963SOL     OW30787   2.685   2.214   0.517
 9963SOL    HW130788   2.629   2.237   0.596
 9963SOL    HW230789   2.729   2.297   0.482
 9964SOL     OW30790   3.551   5.007   6.023
 9964SOL    HW130791   3.480   5.070   5.992
 9964SOL    HW230792   3.555   4.928   5.961
 9965SOL     OW30793   3.492   5.438   4.379
 9965SOL    HW130794   3.405   5.482   4.401
 9965SOL    HW230795   3.491   5.344   4.411
 9966SOL     OW30796   2.963   5.119   2.378
 9966SOL    HW130797   3.056   5.129   2.345
 9966SOL    HW230798   2.927   5.207   2.409
 9967SOL     OW30799   6.222   5.481   3.063
 9967SOL    HW130800   6.166   5.481   3.146
 9967SOL    HW230801   6.264   5.571   3.050
 9968SOL     OW30802   4.500   5.591   6.772
 9968SOL    HW130803   4.447   5.624   6.694
 9968SOL    HW230804   4.498   5.491   6.774
 9969SOL     OW30805   1.618   2.847   4.613
 9969SOL    HW130806   1.685   2.872   4.683
 9969SOL    HW230807   1.593   2.929   4.560
 9970SOL     OW30808   6.204   5.111   1.707
 9970SOL    HW130809   6.219   5.083   1.801
 9970SOL    HW230810   6.114   5.079   1.676
 9971SOL     OW30811   1.619   2.866   1.502
 9971SOL    HW130812   1.636   2.867   1.601
 9971SOL    HW230813   1.587   2.776   1.474
 9972SOL     OW30814   2.789   4.129   1.300
 9972SOL    HW130815   2.752   4.037   1.312
 9972SOL    HW230816   2.748   4.190   1.368
 9973SOL     OW30817   4.892   2.823   4.602
 9973SOL    HW130818   4.793   2.814   4.611
 9973SOL    HW230819   4.916   2.920   4.596
 9974SOL     OW30820   6.758   1.964   3.198
 9974SOL    HW130821   6.847   1.985   3.157
 9974SOL    HW230822   6.696   1.931   3.128
 9975SOL     OW30823   0.688   5.642   6.443
 9975SOL    HW130824   0.772   5.653   6.389
 9975SOL    HW230825   0.679   5.720   6.505
 9976SOL     OW30826   1.004   4.964   5.507
 9976SOL    HW130827   1.055   4.965   5.421
 9976SOL    HW230828   1.036   5.037   5.566
 9977SOL     OW30829   5.157   4.841   5.774
 9977SOL    HW130830   5.163   4.840   5.873
 9977SOL    HW230831   5.076   4.789   5.745
 9978SOL     OW30832   0.007   1.820   5.563
 9978SOL    HW130833   6.939   1.819   5.512
 9978SOL    HW230834   0.065   1.743   5.533
 9979SOL     OW30835   6.173   4.141   6.019
 9979SOL    HW130836   6.205   4.229   6.052
 9979SOL    HW230837   6.133   4.089   6.094
 9980SOL     OW30838   1.972   0.384   1.163
 9980SOL    HW130839   1.902   0.370   1.093
 9980SOL    HW230840   2.002   0.479   1.161
 9981SOL     OW30841   1.918   1.928   1.004
 9981SOL    HW130842   1.913   2.017   0.959
 9981SOL    HW230843   2.003   1.922   1.055
 9982SOL     OW30844   1.214   0.994   4.256
 9982SOL    HW130845   1.184   0.928   4.325
 9982SOL    HW230846   1.146   1.000   4.183
 9983SOL     OW30847   6.505   1.647   2.233
 9983SOL    HW130848   6.460   1.569   2.276
 9983SOL    HW230849   6.555   1.700   2.302
 9984SOL     OW30850   0.730   6.038   0.390
 9984SOL    HW130851   0.801   6.039   0.460
 9984SOL    HW230852   0.738   6.118   0.331
 9985SOL     OW30853   2.893   5.166   1.387
 9985SOL    HW130854   2.927   5.178   1.481
 9985SOL    HW230855   2.826   5.237   1.367
 9986SOL     OW30856   5.968   4.742   0.750
 9986SOL    HW130857   5.912   4.820   0.778
 9986SOL    HW230858   6.046   4.773   0.697
 9987SOL     OW30859   5.852   2.741   2.110
 9987SOL    HW130860   5.847   2.644   2.084
 9987SOL    HW230861   5.942   2.777   2.085
 9988SOL     OW30862   6.757   5.329   4.302
 9988SOL    HW130863   6.733   5.356   4.209
 9988SOL    HW230864   6.855   5.307   4.307
 9989SOL     OW30865   6.126   4.070   2.454
 9989SOL    HW130866   6.200   4.124   2.413
 9989SOL    HW230867   6.063   4.040   2.382
 9990SOL     OW30868   2.116   6.381   3.461
 9990SOL    HW130869   2.109   6.476   3.492
 9990SOL    HW230870   2.207   6.346   3.482
 9991SOL     OW30871   2.131   3.738   3.874
 9991SOL    HW130872   2.179   3.688   3.946
 9991SOL    HW230873   2.096   3.673   3.806
 9992SOL     OW30874   3.463   3.835   0.884
 9992SOL    HW130875   3.445   3.837   0.983
 9992SOL    HW230876   3.560   3.817   0.869
 9993SOL     OW30877   3.852   6.539   3.901
 9993SOL    HW130878   3.767   6.537   3.953
 9993SOL    HW230879   3.854   6.623   3.845
 9994SOL     OW30880   0.163   3.990   2.885
 9994SOL    HW130881   0.145   4.026   2.977
 9994SOL    HW230882   0.116   4.047   2.818
 9995SOL     OW30883   3.687   1.166   3.494
 9995SOL    HW130884   3.731   1.236   3.437
 9995SOL    HW230885   3.635   1.211   3.566
 9996SOL     OW30886   3.034   3.999   1.282
 9996SOL    HW130887   2.950   4.053   1.277
 9996SOL    HW230888   3.060   3.969   1.190
 9997SOL     OW30889   5.773   0.564   2.806
 9997SOL    HW130890   5.677   0.593   2.803
 9997SOL    HW230891   5.777   0.465   2.816
 9998SOL     OW30892   5.358   3.614   1.803
 9998SOL    HW130893   5.323   3.553   1.873
 9998SOL    HW230894   5.414   3.562   1.738
 9999SOL     OW30895   6.968   6.304   4.780
 9999SOL    HW130896   6.974   6.227   4.717
 9999SOL    HW230897   0.026   6.300   4.845
10000SOL     OW30898   5.593   2.099   0.638
10000SOL    HW130899   5.661   2.092   0.712
10000SOL    HW230900   5.640   2.099   0.550
10001SOL     OW30901   3.329   0.423   1.645
10001SOL    HW130902   3.418   0.409   1.602
10001SOL    HW230903   3.270   0.474   1.584
10002SOL     OW30904   1.714   1.019   1.683
10002SOL    HW130905   1.651   1.089   1.716
10002SOL    HW230906   1.798   1.063   1.650
10003SOL     OW30907   2.966   2.112   2.258
10003SOL    HW130908   2.932   2.172   2.186
10003SOL    HW230909   3.033   2.048   2.220
10004SOL     OW30910   5.414   2.958   5.243
10004SOL    HW130911   5.374   2.899   5.313
10004SOL    HW230912   5.377   2.933   5.153
10005SOL     OW30913   3.516   5.286   3.057
10005SOL    HW130914   3.451   5.250   3.124
10005SOL    HW230915   3.470   5.294   2.968
10006SOL     OW30916   5.981   0.083   5.594
10006SOL    HW130917   6.003   0.001   5.541
10006SOL    HW230918   5.977   0.162   5.534
10007SOL     OW30919   0.959   3.136   4.298
10007SOL    HW130920   0.990   3.164   4.388
10007SOL    HW230921   0.934   3.217   4.245
10008SOL     OW30922   4.852   1.048   3.495
10008SOL    HW130923   4.911   1.071   3.418
10008SOL    HW230924   4.835   1.130   3.550
10009SOL     OW30925   1.899   4.258   1.922
10009SOL    HW130926   1.843   4.183   1.887
10009SOL    HW230927   1.840   4.332   1.956
10010SOL     OW30928   2.446   6.085   0.998
10010SOL    HW130929   2.434   5.995   1.040
10010SOL    HW230930   2.417   6.082   0.903
10011SOL     OW30931   0.234   4.399   6.776
10011SOL    HW130932   0.139   4.428   6.762
10011SOL    HW230933   0.235   4.303   6.806
10012SOL     OW30934   5.320   0.233   2.137
10012SOL    HW130935   5.367   0.265   2.220
10012SOL    HW230936   5.310   0.310   2.074
10013SOL     OW30937   1.741   2.587   4.477
10013SOL    HW130938   1.696   2.667   4.519
10013SOL    HW230939   1.780   2.530   4.548
10014SOL     OW30940   1.257   0.627   1.758
10014SOL    HW130941   1.161   0.600   1.764
10014SOL    HW230942   1.290   0.613   1.665
10015SOL     OW30943   4.354   5.095   0.347
10015SOL    HW130944   4.289   5.064   0.416
10015SOL    HW230945   4.305   5.149   0.277
10016SOL     OW30946   2.127   1.079   4.704
10016SOL    HW130947   2.088   1.132   4.628
10016SOL    HW230948   2.167   0.995   4.668
10017SOL     OW30949   1.992   1.245   2.676
10017SOL    HW130950   2.027   1.255   2.583
10017SOL    HW230951   2.027   1.160   2.716
10018SOL     OW30952   6.913   4.765   5.579
10018SOL    HW130953   6.897   4.726   5.670
10018SOL    HW230954   6.971   4.702   5.526
10019SOL     OW30955   0.452   1.525   3.425
10019SOL    HW130956   0.542   1.565   3.408
10019SOL    HW230957   0.385   1.564   3.361
10020SOL     OW30958   0.293   1.220   1.794
10020SOL    HW130959   0.222   1.273   1.749
10020SOL    HW230960   0.382   1.242   1.755
10021SOL     OW30961   0.769   3.015   2.630
10021SOL    HW130962   0.673   3.030   2.609
10021SOL    HW230963   0.812   3.101   2.658
10022SOL     OW30964   3.333   6.887   0.920
10022SOL    HW130965   3.381   6.806   0.953
10022SOL    HW230966   3.399   6.949   0.876
10023SOL     OW30967   2.293   5.223   4.314
10023SOL    HW130968   2.233   5.183   4.383
10023SOL    HW230969   2.381   5.245   4.355
10024SOL     OW30970   1.709   5.837   2.366
10024SOL    HW130971   1.806   5.856   2.356
10024SOL    HW230972   1.694   5.779   2.446
10025SOL     OW30973   1.495   2.912   2.331
10025SOL    HW130974   1.461   2.903   2.237
10025SOL    HW230975   1.518   3.008   2.349
10026SOL     OW30976   5.269   0.125   3.206
10026SOL    HW130977   5.206   0.202   3.193
10026SOL    HW230978   5.287   0.113   3.303
10027SOL     OW30979   0.674   2.345   4.838
10027SOL    HW130980   0.609   2.420   4.851
10027SOL    HW230981   0.644   2.286   4.764
10028SOL     OW30982   2.124   1.518   2.006
10028SOL    HW130983   2.078   1.603   2.030
10028SOL    HW230984   2.153   1.521   1.910
10029SOL     OW30985   1.825   2.369   3.682
10029SOL    HW130986   1.726   2.364   3.670
10029SOL    HW230987   1.862   2.276   3.689
10030SOL     OW30988   3.291   0.563   5.311
10030SOL    HW130989   3.353   0.637   5.286
10030SOL    HW230990   3.339   0.475   5.300
10031SOL     OW30991   5.613   4.638   4.613
10031SOL    HW130992   5.707   4.613   4.633
10031SOL    HW230993   5.611   4.710   4.544
10032SOL     OW30994   4.506   0.569   5.595
10032SOL    HW130995   4.511   0.638   5.523
10032SOL    HW230996   4.569   0.494   5.574
10033SOL     OW30997   4.552   2.634   4.444
10033SOL    HW130998   4.507   2.560   4.393
10033SOL    HW230999   4.625   2.673   4.389
10034SOL     OW31000   3.166   0.183   3.962
10034SOL    HW131001   3.097   0.250   3.934
10034SOL    HW231002   3.219   0.155   3.882
10035SOL     OW31003   6.874   4.801   0.931
10035SOL    HW131004   6.923   4.835   0.850
10035SOL    HW231005   6.900   4.856   1.011
10036SOL     OW31006   6.505   0.671   0.657
10036SOL    HW131007   6.480   0.761   0.692
10036SOL    HW231008   6.467   0.659   0.565
10037SOL     OW31009   6.124   0.840   0.120
10037SOL    HW131010   6.030   0.867   0.140
10037SOL    HW231011   6.182   0.859   0.200
10038SOL     OW31012   3.956   6.771   6.616
10038SOL    HW131013   3.918   6.835   6.549
10038SOL    HW231014   3.905   6.685   6.613
10039SOL     OW31015   4.503   6.712   5.149
10039SOL    HW131016   4.453   6.671   5.073
10039SOL    HW231017   4.460   6.686   5.235
10040SOL     OW31018   4.140   5.744   6.226
10040SOL    HW131019   4.180   5.678   6.162
10040SOL    HW231020   4.209   5.811   6.252
10041SOL     OW31021   5.076   6.040   6.827
10041SOL    HW131022   5.017   5.986   6.768
10041SOL    HW231023   5.049   6.136   6.823
10042SOL     OW31024   1.234   1.965   5.310
10042SOL    HW131025   1.286   2.028   5.369
10042SOL    HW231026   1.211   2.010   5.224
10043SOL     OW31027   0.275   1.974   4.060
10043SOL    HW131028   0.374   1.964   4.069
10043SOL    HW231029   0.253   2.070   4.046
10044SOL     OW31030   2.200   1.748   3.718
10044SOL    HW131031   2.291   1.789   3.712
10044SOL    HW231032   2.142   1.782   3.644
10045SOL     OW31033   5.152   6.783   3.493
10045SOL    HW131034   5.066   6.810   3.451
10045SOL    HW231035   5.153   6.811   3.589
10046SOL     OW31036   1.181   3.527   1.566
10046SOL    HW131037   1.090   3.568   1.568
10046SOL    HW231038   1.174   3.432   1.535
10047SOL     OW31039   6.250   3.837   4.940
10047SOL    HW131040   6.262   3.818   4.842
10047SOL    HW231041   6.153   3.833   4.963
10048SOL     OW31042   4.755   2.104   2.440
10048SOL    HW131043   4.656   2.106   2.451
10048SOL    HW231044   4.784   2.185   2.387
10049SOL     OW31045   0.654   0.255   6.833
10049SOL    HW131046   0.599   0.338   6.843
10049SOL    HW231047   0.750   0.277   6.847
10050SOL     OW31048   6.702   2.619   4.871
10050SOL    HW131049   6.801   2.602   4.876
10050SOL    HW231050   6.673   2.624   4.776
10051SOL     OW31051   6.184   2.320   5.028
10051SOL    HW131052   6.106   2.286   4.975
10051SOL    HW231053   6.247   2.369   4.967
10052SOL     OW31054   3.086   2.068   2.947
10052SOL    HW131055   3.007   2.067   3.008
10052SOL    HW231056   3.063   2.118   2.863
10053SOL     OW31057   3.703   5.986   1.798
10053SOL    HW131058   3.680   6.048   1.873
10053SOL    HW231059   3.798   5.999   1.772
10054SOL     OW31060   4.736   5.152   6.087
10054SOL    HW131061   4.655   5.165   6.029
10054SOL    HW231062   4.787   5.071   6.056
10055SOL     OW31063   6.035   2.361   5.299
10055SOL    HW131064   6.036   2.457   5.272
10055SOL    HW231065   6.049   2.304   5.218
10056SOL     OW31066   5.920   4.557   1.507
10056SOL    HW131067   5.959   4.648   1.493
10056SOL    HW231068   5.836   4.548   1.454
10057SOL     OW31069   4.141   2.252   4.626
10057SOL    HW131070   4.138   2.255   4.526
10057SOL    HW231071   4.079   2.181   4.659
10058SOL     OW31072   0.418   3.832   4.565
10058SOL    HW131073   0.389   3.736   4.560
10058SOL    HW231074   0.350   3.889   4.519
10059SOL     OW31075   5.304   6.516   0.809
10059SOL    HW131076   5.393   6.496   0.767
10059SOL    HW231077   5.319   6.549   0.902
10060SOL     OW31078   1.878   1.590   1.512
10060SOL    HW131079   1.804   1.586   1.580
10060SOL    HW231080   1.885   1.501   1.467
10061SOL     OW31081   5.550   1.038   4.763
10061SOL    HW131082   5.486   1.053   4.838
10061SOL    HW231083   5.535   1.106   4.692
10062SOL     OW31084   6.479   0.361   4.472
10062SOL    HW131085   6.547   0.319   4.412
10062SOL    HW231086   6.477   0.460   4.456
10063SOL     OW31087   1.907   1.475   3.936
10063SOL    HW131088   1.988   1.442   3.887
10063SOL    HW231089   1.910   1.441   4.030
10064SOL     OW31090   4.754   6.754   0.050
10064SOL    HW131091   4.698   6.735   0.131
10064SOL    HW231092   4.764   6.853   0.039
10065SOL     OW31093   2.043   6.739   2.637
10065SOL    HW131094   2.064   6.808   2.568
10065SOL    HW231095   2.116   6.736   2.705
10066SOL     OW31096   0.902   1.625   3.140
10066SOL    HW131097   0.905   1.721   3.112
10066SOL    HW231098   0.982   1.604   3.196
10067SOL     OW31099   6.455   4.075   4.737
10067SOL    HW131100   6.538   4.126   4.714
10067SOL    HW231101   6.466   3.980   4.708
10068SOL     OW31102   6.631   3.106   2.600
10068SOL    HW131103   6.684   3.150   2.672
10068SOL    HW231104   6.534   3.129   2.611
10069SOL     OW31105   1.905   5.500   3.710
10069SOL    HW131106   1.832   5.438   3.683
10069SOL    HW231107   1.962   5.456   3.779
10070SOL     OW31108   6.501   0.066   5.123
10070SOL    HW131109   6.546   0.101   5.041
10070SOL    HW231110   6.557   7.010   5.162
10071SOL     OW31111   6.347   5.716   3.952
10071SOL    HW131112   6.319   5.704   4.047
10071SOL    HW231113   6.421   5.784   3.949
10072SOL     OW31114   0.116   6.498   3.863
10072SOL    HW131115   0.069   6.579   3.899
10072SOL    HW231116   0.101   6.421   3.925
10073SOL     OW31117   6.009   4.746   5.297
10073SOL    HW131118   5.987   4.831   5.249
10073SOL    HW231119   6.003   4.761   5.396
10074SOL     OW31120   1.466   1.054   5.473
10074SOL    HW131121   1.481   1.023   5.379
10074SOL    HW231122   1.384   1.111   5.477
10075SOL     OW31123   1.367   2.965   3.461
10075SOL    HW131124   1.273   2.994   3.478
10075SOL    HW231125   1.403   3.014   3.382
10076SOL     OW31126   6.900   0.195   3.288
10076SOL    HW131127   6.990   0.215   3.327
10076SOL    HW231128   6.837   0.270   3.307
10077SOL     OW31129   3.835   3.282   6.398
10077SOL    HW131130   3.748   3.284   6.350
10077SOL    HW231131   3.840   3.201   6.456
10078SOL     OW31132   0.411   5.304   3.931
10078SOL    HW131133   0.467   5.227   3.899
10078SOL    HW231134   0.436   5.386   3.880
10079SOL     OW31135   0.158   3.622   2.371
10079SOL    HW131136   0.076   3.593   2.322
10079SOL    HW231137   0.150   3.718   2.395
10080SOL     OW31138   3.791   1.109   5.127
10080SOL    HW131139   3.881   1.116   5.171
10080SOL    HW231140   3.803   1.100   5.028
10081SOL     OW31141   0.076   0.082   0.667
10081SOL    HW131142   0.014   0.160   0.661
10081SOL    HW231143   0.048   0.011   0.603
10082SOL     OW31144   6.602   5.039   1.927
10082SOL    HW131145   6.701   5.024   1.934
10082SOL    HW231146   6.554   4.956   1.952
10083SOL     OW31147   5.384   0.723   3.281
10083SOL    HW131148   5.351   0.816   3.266
10083SOL    HW231149   5.415   0.684   3.194
10084SOL     OW31150   2.351   1.287   5.503
10084SOL    HW131151   2.288   1.362   5.525
10084SOL    HW231152   2.370   1.287   5.404
10085SOL     OW31153   1.882   6.172   2.304
10085SOL    HW131154   1.936   6.118   2.369
10085SOL    HW231155   1.902   6.141   2.211
10086SOL     OW31156   5.097   5.360   2.586
10086SOL    HW131157   5.077   5.311   2.501
10086SOL    HW231158   5.137   5.296   2.652
10087SOL     OW31159   0.447   0.117   3.522
10087SOL    HW131160   0.379   0.138   3.593
10087SOL    HW231161   0.477   0.202   3.479
10088SOL     OW31162   6.649   0.389   1.195
10088SOL    HW131163   6.740   0.427   1.210
10088SOL    HW231164   6.657   0.290   1.178
10089SOL     OW31165   3.054   1.654   2.178
10089SOL    HW131166   3.032   1.618   2.087
10089SOL    HW231167   3.076   1.752   2.171
10090SOL     OW31168   1.158   4.554   1.293
10090SOL    HW131169   1.200   4.469   1.322
10090SOL    HW231170   1.226   4.612   1.249
10091SOL     OW31171   1.330   3.697   5.708
10091SOL    HW131172   1.278   3.783   5.710
10091SOL    HW231173   1.424   3.715   5.681
10092SOL     OW31174   1.884   2.959   5.094
10092SOL    HW131175   1.815   2.909   5.146
10092SOL    HW231176   1.967   2.967   5.148
10093SOL     OW31177   6.681   3.450   5.141
10093SOL    HW131178   6.595   3.495   5.169
10093SOL    HW231179   6.757   3.514   5.151
10094SOL     OW31180   2.469   5.252   1.950
10094SOL    HW131181   2.566   5.275   1.953
10094SOL    HW231182   2.425   5.282   2.035
10095SOL     OW31183   5.876   1.539   5.334
10095SOL    HW131184   5.860   1.461   5.274
10095SOL    HW231185   5.926   1.610   5.284
10096SOL     OW31186   4.753   4.928   2.599
10096SOL    HW131187   4.683   4.865   2.566
10096SOL    HW231188   4.844   4.891   2.580
10097SOL     OW31189   0.924   0.886   0.755
10097SOL    HW131190   1.008   0.914   0.708
10097SOL    HW231191   0.894   0.798   0.719
10098SOL     OW31192   2.748   0.603   5.272
10098SOL    HW131193   2.790   0.512   5.271
10098SOL    HW231194   2.741   0.637   5.178
10099SOL     OW31195   0.031   5.057   1.040
10099SOL    HW131196   6.975   5.102   0.990
10099SOL    HW231197   0.119   5.083   1.001
10100SOL     OW31198   5.096   0.127   4.993
10100SOL    HW131199   5.119   0.119   4.896
10100SOL    HW231200   5.006   0.085   5.010
10101SOL     OW31201   6.149   3.982   1.577
10101SOL    HW131202   6.166   3.987   1.675
10101SOL    HW231203   6.105   4.066   1.547
10102SOL     OW31204   1.259   1.141   1.985
10102SOL    HW131205   1.346   1.164   1.941
10102SOL    HW231206   1.189   1.206   1.956
10103SOL     OW31207   2.576   0.622   6.286
10103SOL    HW131208   2.560   0.696   6.350
10103SOL    HW231209   2.673   0.594   6.290
10104SOL     OW31210   1.712   2.021   3.854
10104SOL    HW131211   1.618   2.021   3.887
10104SOL    HW231212   1.755   1.933   3.875
10105SOL     OW31213   1.446   0.785   0.715
10105SOL    HW131214   1.540   0.799   0.743
10105SOL    HW231215   1.398   0.873   0.711
10106SOL     OW31216   4.245   6.562   1.046
10106SOL    HW131217   4.244   6.476   1.096
10106SOL    HW231218   4.328   6.567   0.991
10107SOL     OW31219   6.830   1.368   6.489
10107SOL    HW131220   6.861   1.336   6.579
10107SOL    HW231221   6.897   1.432   6.452
10108SOL     OW31222   6.470   6.591   0.484
10108SOL    HW131223   6.552   6.611   0.429
10108SOL    HW231224   6.490   6.517   0.548
10109SOL     OW31225   5.008   0.244   0.633
10109SOL    HW131226   5.049   0.153   0.627
10109SOL    HW231227   5.065   0.309   0.584
10110SOL     OW31228   3.999   5.753   4.657
10110SOL    HW131229   3.965   5.660   4.644
10110SOL    HW231230   3.925   5.811   4.691
10111SOL     OW31231   5.333   3.755   3.676
10111SOL    HW131232   5.261   3.691   3.649
10111SOL    HW231233   5.346   3.750   3.775
10112SOL     OW31234   5.707   3.934   3.743
10112SOL    HW131235   5.682   3.837   3.739
10112SOL    HW231236   5.782   3.951   3.678
10113SOL     OW31237   4.580   0.177   6.059
10113SOL    HW131238   4.627   0.230   5.989
10113SOL    HW231239   4.633   0.178   6.143
10114SOL     OW31240   5.762   1.358   0.902
10114SOL    HW131241   5.816   1.276   0.920
10114SOL    HW231242   5.732   1.359   0.807
10115SOL     OW31243   3.516   1.555   4.429
10115SOL    HW131244   3.441   1.616   4.404
10115SOL    HW231245   3.590   1.564   4.363
10116SOL     OW31246   0.433   6.444   0.874
10116SOL    HW131247   0.523   6.436   0.831
10116SOL    HW231248   0.369   6.380   0.830
10117SOL     OW31249   6.379   6.386   5.717
10117SOL    HW131250   6.317   6.328   5.770
10117SOL    HW231251   6.474   6.367   5.745
10118SOL     OW31252   1.981   4.867   2.841
10118SOL    HW131253   2.002   4.955   2.885
10118SOL    HW231254   2.056   4.803   2.859
10119SOL     OW31255   0.403   6.189   4.602
10119SOL    HW131256   0.382   6.134   4.683
10119SOL    HW231257   0.366   6.144   4.520
10120SOL     OW31258   1.648   3.755   5.256
10120SOL    HW131259   1.562   3.798   5.227
10120SOL    HW231260   1.724   3.817   5.239
10121SOL     OW31261   6.493   4.159   6.698
10121SOL    HW131262   6.464   4.220   6.772
10121SOL    HW231263   6.474   4.202   6.610
10122SOL     OW31264   6.091   3.326   1.368
10122SOL    HW131265   6.174   3.313   1.423
10122SOL    HW231266   6.096   3.269   1.286
10123SOL     OW31267   5.497   6.947   7.001
10123SOL    HW131268   5.550   6.961   0.067
10123SOL    HW231269   5.399   6.948   0.005
10124SOL     OW31270   1.434   4.341   0.368
10124SOL    HW131271   1.435   4.241   0.361
10124SOL    HW231272   1.520   4.378   0.335
10125SOL     OW31273   2.160   1.614   2.276
10125SOL    HW131274   2.097   1.653   2.209
10125SOL    HW231275   2.254   1.625   2.243
10126SOL     OW31276   0.100   6.557   6.309
10126SOL    HW131277   0.101   6.645   6.357
10126SOL    HW231278   0.029   6.558   6.240
10127SOL     OW31279   2.984   4.576   6.469
10127SOL    HW131280   2.932   4.609   6.390
10127SOL    HW231281   2.937   4.499   6.511
10128SOL     OW31282   2.762   1.121   1.448
10128SOL    HW131283   2.677   1.071   1.431
10128SOL    HW231284   2.840   1.064   1.423
10129SOL     OW31285   5.686   1.764   2.462
10129SOL    HW131286   5.597   1.800   2.434
10129SOL    HW231287   5.680   1.664   2.469
10130SOL     OW31288   1.553   3.705   1.954
10130SOL    HW131289   1.645   3.676   1.979
10130SOL    HW231290   1.558   3.766   1.875
10131SOL     OW31291   1.285   6.996   4.451
10131SOL    HW131292   1.260   7.015   4.546
10131SOL    HW231293   1.238   0.042   4.390
10132SOL     OW31294   3.543   0.078   4.756
10132SOL    HW131295   3.601   0.137   4.701
10132SOL    HW231296   3.517   7.015   4.703
10133SOL     OW31297   3.815   6.297   0.978
10133SOL    HW131298   3.884   6.324   0.911
10133SOL    HW231299   3.754   6.229   0.938
10134SOL     OW31300   0.406   6.090   3.517
10134SOL    HW131301   0.316   6.060   3.486
10134SOL    HW231302   0.440   6.163   3.458
10135SOL     OW31303   5.016   3.149   3.653
10135SOL    HW131304   4.981   3.079   3.591
10135SOL    HW231305   5.044   3.106   3.739
10136SOL     OW31306   5.201   0.543   2.450
10136SOL    HW131307   5.274   0.531   2.383
10136SOL    HW231308   5.221   0.623   2.507
10137SOL     OW31309   6.552   4.025   4.163
10137SOL    HW131310   6.486   4.079   4.216
10137SOL    HW231311   6.644   4.038   4.200
10138SOL     OW31312   4.884   3.620   0.622
10138SOL    HW131313   4.943   3.641   0.544
10138SOL    HW231314   4.815   3.692   0.631
10139SOL     OW31315   3.012   3.980   3.202
10139SOL    HW131316   2.990   3.928   3.284
10139SOL    HW231317   3.109   4.002   3.202
10140SOL     OW31318   5.771   6.215   6.960
10140SOL    HW131319   5.831   6.268   6.900
10140SOL    HW231320   5.805   6.221   0.036
10141SOL     OW31321   3.748   1.805   5.201
10141SOL    HW131322   3.664   1.852   5.227
10141SOL    HW231323   3.725   1.719   5.155
10142SOL     OW31324   6.090   6.628   5.139
10142SOL    HW131325   6.096   6.728   5.145
10142SOL    HW231326   6.177   6.592   5.105
10143SOL     OW31327   5.100   1.098   6.883
10143SOL    HW131328   5.005   1.081   6.911
10143SOL    HW231329   5.146   1.153   6.952
10144SOL     OW31330   2.993   0.350   6.319
10144SOL    HW131331   2.930   0.325   6.245
10144SOL    HW231332   3.039   0.268   6.353
10145SOL     OW31333   2.728   5.457   4.105
10145SOL    HW131334   2.674   5.401   4.042
10145SOL    HW231335   2.667   5.497   4.174
10146SOL     OW31336   4.380   4.741   4.817
10146SOL    HW131337   4.360   4.655   4.864
10146SOL    HW231338   4.457   4.787   4.862
10147SOL     OW31339   5.109   3.968   5.482
10147SOL    HW131340   5.166   3.962   5.564
10147SOL    HW231341   5.167   3.982   5.402
10148SOL     OW31342   5.144   4.646   6.986
10148SOL    HW131343   5.050   4.680   6.988
10148SOL    HW231344   5.198   4.699   6.921
10149SOL     OW31345   5.858   3.067   0.633
10149SOL    HW131346   5.898   3.064   0.542
10149SOL    HW231347   5.930   3.066   0.702
10150SOL     OW31348   3.442   3.852   0.356
10150SOL    HW131349   3.373   3.780   0.350
10150SOL    HW231350   3.433   3.899   0.444
10151SOL     OW31351   0.930   6.149   6.941
10151SOL    HW131352   0.837   6.112   6.932
10151SOL    HW231353   0.989   6.109   6.871
10152SOL     OW31354   6.854   6.236   4.363
10152SOL    HW131355   6.822   6.143   4.380
10152SOL    HW231356   6.953   6.240   4.374
10153SOL     OW31357   4.729   6.166   3.694
10153SOL    HW131358   4.807   6.224   3.716
10153SOL    HW231359   4.647   6.201   3.740
10154SOL     OW31360   4.372   6.642   5.373
10154SOL    HW131361   4.375   6.542   5.379
10154SOL    HW231362   4.398   6.681   5.461
10155SOL     OW31363   3.720   2.377   5.686
10155SOL    HW131364   3.750   2.462   5.643
10155SOL    HW231365   3.637   2.395   5.739
10156SOL     OW31366   5.748   0.487   2.420
10156SOL    HW131367   5.846   0.495   2.400
10156SOL    HW231368   5.733   0.414   2.487
10157SOL     OW31369   6.799   1.858   0.864
10157SOL    HW131370   6.869   1.923   0.892
10157SOL    HW231371   6.797   1.853   0.764
10158SOL     OW31372   5.792   5.145   0.530
10158SOL    HW131373   5.870   5.188   0.576
10158SOL    HW231374   5.717   5.134   0.596
10159SOL     OW31375   2.397   3.253   0.156
10159SOL    HW131376   2.435   3.337   0.194
10159SOL    HW231377   2.323   3.275   0.093
10160SOL     OW31378   1.733   2.913   2.561
10160SOL    HW131379   1.768   2.928   2.469
10160SOL    HW231380   1.791   2.962   2.627
10161SOL     OW31381   3.015   2.845   0.481
10161SOL    HW131382   3.048   2.913   0.547
10161SOL    HW231383   2.987   2.762   0.530
10162SOL     OW31384   3.710   4.821   1.001
10162SOL    HW131385   3.682   4.734   1.040
10162SOL    HW231386   3.783   4.861   1.057
10163SOL     OW31387   6.183   4.473   6.925
10163SOL    HW131388   6.118   4.442   6.855
10163SOL    HW231389   6.194   4.572   6.919
10164SOL     OW31390   6.155   3.609   4.226
10164SOL    HW131391   6.225   3.578   4.162
10164SOL    HW231392   6.083   3.540   4.233
10165SOL     OW31393   6.515   1.555   3.112
10165SOL    HW131394   6.418   1.565   3.088
10165SOL    HW231395   6.523   1.501   3.196
10166SOL     OW31396   3.328   1.973   1.720
10166SOL    HW131397   3.332   1.979   1.820
10166SOL    HW231398   3.394   2.037   1.681
10167SOL     OW31399   2.133   4.423   6.825
10167SOL    HW131400   2.117   4.324   6.818
10167SOL    HW231401   2.230   4.439   6.845
10168SOL     OW31402   5.936   3.175   6.361
10168SOL    HW131403   5.966   3.251   6.419
10168SOL    HW231404   5.838   3.184   6.342
10169SOL     OW31405   6.624   4.808   3.719
10169SOL    HW131406   6.679   4.729   3.693
10169SOL    HW231407   6.660   4.848   3.803
10170SOL     OW31408   6.909   5.859   5.492
10170SOL    HW131409   6.910   5.771   5.539
10170SOL    HW231410   6.961   5.853   5.407
10171SOL     OW31411   6.748   2.521   4.304
10171SOL    HW131412   6.714   2.600   4.253
10171SOL    HW231413   6.840   2.498   4.272
10172SOL     OW31414   0.176   6.059   5.302
10172SOL    HW131415   0.267   6.034   5.267
10172SOL    HW231416   0.111   5.986   5.282
10173SOL     OW31417   1.501   2.938   0.933
10173SOL    HW131418   1.596   2.923   0.962
10173SOL    HW231419   1.480   3.035   0.941
10174SOL     OW31420   4.909   4.402   3.346
10174SOL    HW131421   4.841   4.357   3.289
10174SOL    HW231422   4.987   4.341   3.359
10175SOL     OW31423   5.979   1.718   3.681
10175SOL    HW131424   5.916   1.658   3.633
10175SOL    HW231425   5.960   1.715   3.779
10176SOL     OW31426   0.691   3.549   4.803
10176SOL    HW131427   0.718   3.624   4.743
10176SOL    HW231428   0.716   3.571   4.897
10177SOL     OW31429   2.567   0.599   1.373
10177SOL    HW131430   2.635   0.528   1.392
10177SOL    HW231431   2.475   0.558   1.377
10178SOL     OW31432   0.874   1.279   6.220
10178SOL    HW131433   0.793   1.300   6.166
10178SOL    HW231434   0.853   1.289   6.317
10179SOL     OW31435   0.750   2.675   6.599
10179SOL    HW131436   0.820   2.636   6.659
10179SOL    HW231437   0.794   2.726   6.525
10180SOL     OW31438   4.264   0.702   5.997
10180SOL    HW131439   4.251   0.607   5.967
10180SOL    HW231440   4.361   0.719   6.013
10181SOL     OW31441   6.265   3.407   1.049
10181SOL    HW131442   6.198   3.333   1.052
10181SOL    HW231443   6.338   3.389   1.114
10182SOL     OW31444   4.737   1.098   1.748
10182SOL    HW131445   4.639   1.113   1.734
10182SOL    HW231446   4.776   1.174   1.799
10183SOL     OW31447   6.773   2.937   6.419
10183SOL    HW131448   6.733   3.029   6.412
10183SOL    HW231449   6.728   2.876   6.355
10184SOL     OW31450   4.033   1.521   6.085
10184SOL    HW131451   4.050   1.574   6.002
10184SOL    HW231452   3.989   1.435   6.062
10185SOL     OW31453   6.158   5.808   3.102
10185SOL    HW131454   6.126   5.847   3.188
10185SOL    HW231455   6.256   5.827   3.091
10186SOL     OW31456   5.939   3.677   3.884
10186SOL    HW131457   5.927   3.584   3.920
10186SOL    HW231458   5.902   3.743   3.949
10187SOL     OW31459   1.232   3.557   0.440
10187SOL    HW131460   1.273   3.622   0.504
10187SOL    HW231461   1.302   3.523   0.378
10188SOL     OW31462   4.129   5.230   0.467
10188SOL    HW131463   4.114   5.134   0.490
10188SOL    HW231464   4.108   5.287   0.547
10189SOL     OW31465   1.107   0.990   5.989
10189SOL    HW131466   1.158   0.958   6.069
10189SOL    HW231467   1.130   1.086   5.972
10190SOL     OW31468   4.928   3.381   1.761
10190SOL    HW131469   4.994   3.310   1.787
10190SOL    HW231470   4.847   3.338   1.721
10191SOL     OW31471   4.441   6.186   6.556
10191SOL    HW131472   4.442   6.222   6.650
10191SOL    HW231473   4.396   6.096   6.556
10192SOL     OW31474   4.110   1.594   4.952
10192SOL    HW131475   4.197   1.549   4.966
10192SOL    HW231476   4.123   1.693   4.952
10193SOL     OW31477   3.705   3.186   1.967
10193SOL    HW131478   3.608   3.186   1.992
10193SOL    HW231479   3.740   3.092   1.974
10194SOL     OW31480   5.502   6.013   5.515
10194SOL    HW131481   5.470   6.092   5.567
10194SOL    HW231482   5.576   6.042   5.453
10195SOL     OW31483   5.957   5.806   0.384
10195SOL    HW131484   5.966   5.831   0.287
10195SOL    HW231485   5.865   5.771   0.402
10196SOL     OW31486   4.464   1.945   3.814
10196SOL    HW131487   4.557   1.914   3.834
10196SOL    HW231488   4.465   2.042   3.793
10197SOL     OW31489   5.798   0.688   5.039
10197SOL    HW131490   5.864   0.720   4.972
10197SOL    HW231491   5.787   0.757   5.111
10198SOL     OW31492   3.034   6.425   2.784
10198SOL    HW131493   3.057   6.508   2.834
10198SOL    HW231494   3.041   6.345   2.845
10199SOL     OW31495   2.124   3.504   0.672
10199SOL    HW131496   2.215   3.474   0.702
10199SOL    HW231497   2.092   3.579   0.730
10200SOL     OW31498   5.057   2.642   6.242
10200SOL    HW131499   5.019   2.573   6.180
10200SOL    HW231500   4.997   2.654   6.320
10201SOL     OW31501   1.366   5.209   0.376
10201SOL    HW131502   1.429   5.191   0.301
10201SOL    HW231503   1.282   5.155   0.363
10202SOL     OW31504   3.507   5.035   1.066
10202SOL    HW131505   3.477   5.031   1.161
10202SOL    HW231506   3.596   4.991   1.057
10203SOL     OW31507   6.575   2.624   2.340
10203SOL    HW131508   6.662   2.622   2.291
10203SOL    HW231509   6.580   2.564   2.420
10204SOL     OW31510   5.048   5.876   0.090
10204SOL    HW131511   5.079   5.874   0.185
10204SOL    HW231512   5.084   5.956   0.044
10205SOL     OW31513   2.375   0.638   2.156
10205SOL    HW131514   2.356   0.736   2.165
10205SOL    HW231515   2.289   0.587   2.153
10206SOL     OW31516   6.799   0.316   6.372
10206SOL    HW131517   6.818   0.337   6.467
10206SOL    HW231518   6.871   0.354   6.314
10207SOL     OW31519   1.383   2.169   6.692
10207SOL    HW131520   1.421   2.196   6.781
10207SOL    HW231521   1.457   2.137   6.633
10208SOL     OW31522   6.471   4.886   4.055
10208SOL    HW131523   6.541   4.949   4.023
10208SOL    HW231524   6.500   4.842   4.139
10209SOL     OW31525   0.254   0.200   0.299
10209SOL    HW131526   0.158   0.229   0.293
10209SOL    HW231527   0.287   0.213   0.392
10210SOL     OW31528   4.367   6.906   1.932
10210SOL    HW131529   4.357   7.005   1.922
10210SOL    HW231530   4.296   6.872   1.995
10211SOL     OW31531   4.439   6.435   4.362
10211SOL    HW131532   4.374   6.398   4.297
10211SOL    HW231533   4.532   6.421   4.328
10212SOL     OW31534   0.209   0.199   5.697
10212SOL    HW131535   0.177   0.104   5.695
10212SOL    HW231536   0.283   0.207   5.765
10213SOL     OW31537   5.674   2.476   1.764
10213SOL    HW131538   5.631   2.559   1.728
10213SOL    HW231539   5.763   2.464   1.720
10214SOL     OW31540   0.709   2.172   1.384
10214SOL    HW131541   0.800   2.152   1.422
10214SOL    HW231542   0.720   2.221   1.297
10215SOL     OW31543   3.868   3.170   4.058
10215SOL    HW131544   3.815   3.253   4.046
10215SOL    HW231545   3.947   3.189   4.116
10216SOL     OW31546   0.011   0.962   1.521
10216SOL    HW131547   6.929   0.962   1.517
10216SOL    HW231548   0.047   1.032   1.459
10217SOL     OW31549   3.172   1.099   3.226
10217SOL    HW131550   3.259   1.091   3.178
10217SOL    HW231551   3.142   1.008   3.255
10218SOL     OW31552   1.421   1.393   1.660
10218SOL    HW131553   1.343   1.331   1.670
10218SOL    HW231554   1.393   1.474   1.609
10219SOL     OW31555   0.659   1.912   3.282
10219SOL    HW131556   0.704   1.981   3.337
10219SOL    HW231557   0.579   1.952   3.237
10220SOL     OW31558   4.887   1.804   0.652
10220SOL    HW131559   4.920   1.779   0.743
10220SOL    HW231560   4.852   1.723   0.605
10221SOL     OW31561   1.523   4.514   4.002
10221SOL    HW131562   1.474   4.589   4.045
10221SOL    HW231563   1.610   4.548   3.965
10222SOL     OW31564   3.081   4.283   5.218
10222SOL    HW131565   3.032   4.370   5.213
10222SOL    HW231566   3.035   4.222   5.282
10223SOL     OW31567   2.222   4.736   1.315
10223SOL    HW131568   2.169   4.661   1.275
10223SOL    HW231569   2.268   4.703   1.398
10224SOL     OW31570   5.789   2.943   5.952
10224SOL    HW131571   5.785   2.988   6.041
10224SOL    HW231572   5.884   2.927   5.927
10225SOL     OW31573   1.040   5.844   5.351
10225SOL    HW131574   1.124   5.898   5.358
10225SOL    HW231575   1.045   5.785   5.270
10226SOL     OW31576   2.187   0.207   6.104
10226SOL    HW131577   2.094   0.181   6.130
10226SOL    HW231578   2.242   0.124   6.094
10227SOL     OW31579   5.805   4.729   1.126
10227SOL    HW131580   5.714   4.689   1.131
10227SOL    HW231581   5.873   4.660   1.155
10228SOL     OW31582   0.634   6.120   1.958
10228SOL    HW131583   0.657   6.140   1.863
10228SOL    HW231584   0.700   6.165   2.019
10229SOL     OW31585   1.784   3.223   5.105
10229SOL    HW131586   1.818   3.129   5.109
10229SOL    HW231587   1.780   3.253   5.010
10230SOL     OW31588   6.089   6.274   2.973
10230SOL    HW131589   6.132   6.335   2.906
10230SOL    HW231590   6.100   6.179   2.944
10231SOL     OW31591   6.680   4.460   5.337
10231SOL    HW131592   6.621   4.415   5.271
10231SOL    HW231593   6.626   4.521   5.395
10232SOL     OW31594   3.572   1.304   3.706
10232SOL    HW131595   3.575   1.327   3.804
10232SOL    HW231596   3.479   1.278   3.681
10233SOL     OW31597   3.820   3.955   4.873
10233SOL    HW131598   3.913   3.919   4.865
10233SOL    HW231599   3.798   4.009   4.792
10234SOL     OW31600   5.973   0.750   0.418
10234SOL    HW131601   5.988   0.848   0.402
10234SOL    HW231602   5.886   0.737   0.465
10235SOL     OW31603   3.136   2.286   1.156
10235SOL    HW131604   3.187   2.348   1.216
10235SOL    HW231605   3.084   2.222   1.212
10236SOL     OW31606   2.464   0.988   0.472
10236SOL    HW131607   2.464   0.919   0.399
10236SOL    HW231608   2.372   1.028   0.479
10237SOL     OW31609   1.075   4.160   6.272
10237SOL    HW131610   0.984   4.133   6.305
10237SOL    HW231611   1.076   4.258   6.255
10238SOL     OW31612   3.853   4.244   1.731
10238SOL    HW131613   3.763   4.281   1.750
10238SOL    HW231614   3.853   4.146   1.746
10239SOL     OW31615   1.825   3.429   5.929
10239SOL    HW131616   1.845   3.362   5.857
10239SOL    HW231617   1.905   3.486   5.944
10240SOL     OW31618   1.750   4.758   2.526
10240SOL    HW131619   1.805   4.841   2.517
10240SOL    HW231620   1.787   4.686   2.467
10241SOL     OW31621   0.309   6.302   3.326
10241SOL    HW131622   0.350   6.333   3.412
10241SOL    HW231623   0.237   6.235   3.345
10242SOL     OW31624   0.270   1.029   1.074
10242SOL    HW131625   0.352   1.085   1.063
10242SOL    HW231626   0.246   0.988   0.986
10243SOL     OW31627   2.229   4.427   2.372
10243SOL    HW131628   2.207   4.358   2.440
10243SOL    HW231629   2.170   4.507   2.386
10244SOL     OW31630   1.525   4.317   0.629
10244SOL    HW131631   1.452   4.326   0.562
10244SOL    HW231632   1.613   4.336   0.585
10245SOL     OW31633   3.596   3.888   1.628
10245SOL    HW131634   3.534   3.863   1.702
10245SOL    HW231635   3.685   3.912   1.667
10246SOL     OW31636   3.060   3.355   4.124
10246SOL    HW131637   3.145   3.315   4.159
10246SOL    HW231638   3.073   3.383   4.029
10247SOL     OW31639   6.512   4.132   6.199
10247SOL    HW131640   6.427   4.105   6.243
10247SOL    HW231641   6.530   4.071   6.121
10248SOL     OW31642   1.534   6.316   2.762
10248SOL    HW131643   1.573   6.407   2.758
10248SOL    HW231644   1.604   6.251   2.791
10249SOL     OW31645   3.434   5.788   6.578
10249SOL    HW131646   3.432   5.870   6.521
10249SOL    HW231647   3.515   5.790   6.636
10250SOL     OW31648   6.804   2.818   1.618
10250SOL    HW131649   6.710   2.834   1.587
10250SOL    HW231650   6.812   2.846   1.713
10251SOL     OW31651   2.016   1.703   5.233
10251SOL    HW131652   2.076   1.672   5.159
10251SOL    HW231653   2.012   1.633   5.304
10252SOL     OW31654   3.839   4.398   6.285
10252SOL    HW131655   3.778   4.476   6.298
10252SOL    HW231656   3.901   4.416   6.210
10253SOL     OW31657   2.840   6.338   0.754
10253SOL    HW131658   2.792   6.371   0.673
10253SOL    HW231659   2.795   6.256   0.789
10254SOL     OW31660   5.160   1.364   5.713
10254SOL    HW131661   5.122   1.392   5.625
10254SOL    HW231662   5.162   1.442   5.775
10255SOL     OW31663   2.520   6.411   1.530
10255SOL    HW131664   2.456   6.432   1.456
10255SOL    HW231665   2.469   6.377   1.609
10256SOL     OW31666   4.815   2.114   2.081
10256SOL    HW131667   4.914   2.129   2.078
10256SOL    HW231668   4.789   2.049   2.010
10257SOL     OW31669   1.782   4.911   4.647
10257SOL    HW131670   1.732   4.970   4.710
10257SOL    HW231671   1.719   4.877   4.577
10258SOL     OW31672   3.260   1.429   3.259
10258SOL    HW131673   3.315   1.347   3.244
10258SOL    HW231674   3.275   1.494   3.184
10259SOL     OW31675   1.316   4.638   2.973
10259SOL    HW131676   1.385   4.710   2.975
10259SOL    HW231677   1.330   4.577   3.051
10260SOL     OW31678   1.121   1.582   3.308
10260SOL    HW131679   1.125   1.608   3.405
10260SOL    HW231680   1.202   1.528   3.285
10261SOL     OW31681   6.693   4.286   1.747
10261SOL    HW131682   6.762   4.339   1.697
10261SOL    HW231683   6.639   4.232   1.683
10262SOL     OW31684   2.288   6.772   5.483
10262SOL    HW131685   2.303   6.797   5.387
10262SOL    HW231686   2.292   6.673   5.493
10263SOL     OW31687   5.448   0.259   0.234
10263SOL    HW131688   5.380   0.285   0.303
10263SOL    HW231689   5.403   0.233   0.149
10264SOL     OW31690   5.983   0.055   6.634
10264SOL    HW131691   6.005   0.127   6.701
10264SOL    HW231692   6.000   0.089   6.542
10265SOL     OW31693   2.769   2.551   1.240
10265SOL    HW131694   2.751   2.566   1.337
10265SOL    HW231695   2.859   2.586   1.216
10266SOL     OW31696   3.923   3.069   3.651
10266SOL    HW131697   3.859   3.028   3.585
10266SOL    HW231698   4.009   3.091   3.605
10267SOL     OW31699   5.651   2.608   6.956
10267SOL    HW131700   5.563   2.646   6.985
10267SOL    HW231701   5.693   2.558   0.014
10268SOL     OW31702   5.853   5.752   2.810
10268SOL    HW131703   5.849   5.743   2.710
10268SOL    HW231704   5.837   5.662   2.851
10269SOL     OW31705   1.092   3.727   6.685
10269SOL    HW131706   1.004   3.699   6.725
10269SOL    HW231707   1.129   3.651   6.631
10270SOL     OW31708   3.178   4.906   2.579
10270SOL    HW131709   3.174   5.006   2.581
10270SOL    HW231710   3.109   4.872   2.514
10271SOL     OW31711   3.584   2.641   6.539
10271SOL    HW131712   3.487   2.617   6.541
10271SOL    HW231713   3.597   2.724   6.484
10272SOL     OW31714   1.686   1.477   5.440
10272SOL    HW131715   1.606   1.537   5.437
10272SOL    HW231716   1.766   1.530   5.466
10273SOL     OW31717   2.714   5.233   2.778
10273SOL    HW131718   2.735   5.160   2.713
10273SOL    HW231719   2.651   5.298   2.736
10274SOL     OW31720   0.774   4.831   5.573
10274SOL    HW131721   0.804   4.774   5.649
10274SOL    HW231722   0.853   4.880   5.536
10275SOL     OW31723   0.826   6.382   2.416
10275SOL    HW131724   0.857   6.477   2.417
10275SOL    HW231725   0.821   6.350   2.322
10276SOL     OW31726   5.661   5.400   5.556
10276SOL    HW131727   5.605   5.483   5.562
10276SOL    HW231728   5.628   5.333   5.623
10277SOL     OW31729   1.495   5.885   4.608
10277SOL    HW131730   1.494   5.864   4.510
10277SOL    HW231731   1.440   5.966   4.626
10278SOL     OW31732   1.158   1.725   3.533
10278SOL    HW131733   1.075   1.763   3.495
10278SOL    HW231734   1.216   1.799   3.569
10279SOL     OW31735   1.678   4.837   4.061
10279SOL    HW131736   1.580   4.822   4.052
10279SOL    HW231737   1.727   4.755   4.030
10280SOL     OW31738   6.819   3.063   0.081
10280SOL    HW131739   6.804   2.969   0.051
10280SOL    HW231740   6.860   3.062   0.172
10281SOL     OW31741   5.386   1.084   2.635
10281SOL    HW131742   5.424   1.027   2.706
10281SOL    HW231743   5.451   1.093   2.559
10282SOL     OW31744   5.494   3.975   4.408
10282SOL    HW131745   5.533   4.009   4.323
10282SOL    HW231746   5.505   3.875   4.411
10283SOL     OW31747   2.035   3.249   0.919
10283SOL    HW131748   2.033   3.188   0.840
10283SOL    HW231749   2.066   3.199   1.000
10284SOL     OW31750   4.904   2.358   5.062
10284SOL    HW131751   4.919   2.456   5.074
10284SOL    HW231752   4.987   2.308   5.087
10285SOL     OW31753   5.612   6.792   2.469
10285SOL    HW131754   5.536   6.847   2.505
10285SOL    HW231755   5.610   6.795   2.369
10286SOL     OW31756   3.603   2.090   3.509
10286SOL    HW131757   3.522   2.109   3.453
10286SOL    HW231758   3.683   2.134   3.470
10287SOL     OW31759   2.382   5.931   1.914
10287SOL    HW131760   2.290   5.937   1.950
10287SOL    HW231761   2.436   5.867   1.969
10288SOL     OW31762   4.503   5.218   3.162
10288SOL    HW131763   4.579   5.175   3.212
10288SOL    HW231764   4.418   5.206   3.215
10289SOL     OW31765   2.756   6.276   0.199
10289SOL    HW131766   2.732   6.312   0.109
10289SOL    HW231767   2.726   6.181   0.206
10290SOL     OW31768   2.895   3.700   2.798
10290SOL    HW131769   2.952   3.764   2.849
10290SOL    HW231770   2.847   3.748   2.725
10291SOL     OW31771   3.789   1.451   2.199
10291SOL    HW131772   3.842   1.483   2.277
10291SOL    HW231773   3.840   1.379   2.151
10292SOL     OW31774   1.855   1.860   5.396
10292SOL    HW131775   1.772   1.836   5.446
10292SOL    HW231776   1.886   1.780   5.343
10293SOL     OW31777   2.039   3.928   2.530
10293SOL    HW131778   2.034   3.896   2.625
10293SOL    HW231779   1.957   3.899   2.481
10294SOL     OW31780   5.373   2.841   3.397
10294SOL    HW131781   5.356   2.929   3.441
10294SOL    HW231782   5.310   2.830   3.320
10295SOL     OW31783   0.338   3.474   5.676
10295SOL    HW131784   0.272   3.500   5.605
10295SOL    HW231785   0.290   3.452   5.760
10296SOL     OW31786   5.013   1.467   0.043
10296SOL    HW131787   5.075   1.389   0.049
10296SOL    HW231788   5.003   1.494   6.964
10297SOL     OW31789   1.861   6.972   6.425
10297SOL    HW131790   1.957   6.986   6.453
10297SOL    HW231791   1.801   6.989   6.503
10298SOL     OW31792   2.466   4.410   1.263
10298SOL    HW131793   2.525   4.490   1.273
10298SOL    HW231794   2.478   4.370   1.173
10299SOL     OW31795   4.527   4.422   3.035
10299SOL    HW131796   4.434   4.387   3.048
10299SOL    HW231797   4.524   4.519   3.012
10300SOL     OW31798   0.973   4.341   2.335
10300SOL    HW131799   0.932   4.334   2.244
10300SOL    HW231800   1.056   4.286   2.339
10301SOL     OW31801   5.148   2.518   4.256
10301SOL    HW131802   5.152   2.560   4.165
10301SOL    HW231803   5.110   2.584   4.321
10302SOL     OW31804   1.854   6.520   4.605
10302SOL    HW131805   1.879   6.524   4.508
10302SOL    HW231806   1.776   6.581   4.622
10303SOL     OW31807   1.627   5.955   3.236
10303SOL    HW131808   1.592   5.987   3.148
10303SOL    HW231809   1.696   5.885   3.221
10304SOL     OW31810   5.470   0.199   1.421
10304SOL    HW131811   5.385   0.197   1.473
10304SOL    HW231812   5.541   0.149   1.470
10305SOL     OW31813   1.102   4.182   6.549
10305SOL    HW131814   1.192   4.154   6.583
10305SOL    HW231815   1.097   4.164   6.451
10306SOL     OW31816   5.076   6.397   6.935
10306SOL    HW131817   5.067   6.413   6.836
10306SOL    HW231818   5.048   6.480   6.984
10307SOL     OW31819   2.880   2.288   4.931
10307SOL    HW131820   2.824   2.258   5.008
10307SOL    HW231821   2.973   2.306   4.963
10308SOL     OW31822   1.771   3.738   2.894
10308SOL    HW131823   1.833   3.708   2.966
10308SOL    HW231824   1.795   3.693   2.808
10309SOL     OW31825   6.996   1.609   6.460
10309SOL    HW131826   0.066   1.633   6.501
10309SOL    HW231827   6.952   1.690   6.423
10310SOL     OW31828   3.193   3.590   1.340
10310SOL    HW131829   3.236   3.509   1.300
10310SOL    HW231830   3.096   3.592   1.314
10311SOL     OW31831   0.147   6.019   0.776
10311SOL    HW131832   0.182   5.937   0.822
10311SOL    HW231833   0.154   6.007   0.677
10312SOL     OW31834   3.441   5.419   2.801
10312SOL    HW131835   3.513   5.478   2.763
10312SOL    HW231836   3.358   5.427   2.745
10313SOL     OW31837   4.648   6.310   2.251
10313SOL    HW131838   4.604   6.370   2.184
10313SOL    HW231839   4.579   6.250   2.292
10314SOL     OW31840   6.150   0.451   1.601
10314SOL    HW131841   6.155   0.532   1.543
10314SOL    HW231842   6.219   0.458   1.673
10315SOL     OW31843   5.001   5.698   5.328
10315SOL    HW131844   5.024   5.752   5.409
10315SOL    HW231845   5.024   5.750   5.246
10316SOL     OW31846   5.445   1.695   4.948
10316SOL    HW131847   5.374   1.625   4.934
10316SOL    HW231848   5.532   1.661   4.914
10317SOL     OW31849   4.978   5.528   4.969
10317SOL    HW131850   4.944   5.614   5.006
10317SOL    HW231851   5.076   5.536   4.952
10318SOL     OW31852   5.521   6.633   6.411
10318SOL    HW131853   5.442   6.667   6.463
10318SOL    HW231854   5.605   6.654   6.462
10319SOL     OW31855   0.988   2.674   5.279
10319SOL    HW131856   1.024   2.598   5.226
10319SOL    HW231857   1.055   2.699   5.350
10320SOL     OW31858   0.287   1.021   2.398
10320SOL    HW131859   0.306   1.054   2.306
10320SOL    HW231860   0.250   0.928   2.393
10321SOL     OW31861   3.869   1.976   1.642
10321SOL    HW131862   3.883   2.048   1.710
10321SOL    HW231863   3.825   1.898   1.685
10322SOL     OW31864   6.537   5.609   5.503
10322SOL    HW131865   6.618   5.552   5.517
10322SOL    HW231866   6.477   5.565   5.437
10323SOL     OW31867   5.574   3.524   5.599
10323SOL    HW131868   5.481   3.561   5.596
10323SOL    HW231869   5.580   3.452   5.668
10324SOL     OW31870   3.185   3.453   2.238
10324SOL    HW131871   3.133   3.491   2.314
10324SOL    HW231872   3.177   3.513   2.159
10325SOL     OW31873   6.881   3.461   1.917
10325SOL    HW131874   6.923   3.525   1.982
10325SOL    HW231875   6.790   3.495   1.891
10326SOL     OW31876   3.393   5.470   0.302
10326SOL    HW131877   3.409   5.424   0.215
10326SOL    HW231878   3.481   5.486   0.348
10327SOL     OW31879   2.297   1.242   0.958
10327SOL    HW131880   2.271   1.287   1.043
10327SOL    HW231881   2.313   1.312   0.888
10328SOL     OW31882   5.987   2.190   1.025
10328SOL    HW131883   6.039   2.207   0.942
10328SOL    HW231884   5.892   2.217   1.012
10329SOL     OW31885   4.092   0.749   3.862
10329SOL    HW131886   3.998   0.720   3.882
10329SOL    HW231887   4.089   0.829   3.801
10330SOL     OW31888   4.727   0.598   2.215
10330SOL    HW131889   4.675   0.682   2.232
10330SOL    HW231890   4.673   0.536   2.158
10331SOL     OW31891   6.483   0.815   5.641
10331SOL    HW131892   6.577   0.804   5.608
10331SOL    HW231893   6.465   0.912   5.657
10332SOL     OW31894   6.785   6.968   0.904
10332SOL    HW131895   6.760   6.890   0.962
10332SOL    HW231896   6.782   6.940   0.808
10333SOL     OW31897   6.990   4.846   4.592
10333SOL    HW131898   6.900   4.802   4.595
10333SOL    HW231899   6.978   4.946   4.591
10334SOL     OW31900   3.789   6.672   3.593
10334SOL    HW131901   3.855   6.658   3.520
10334SOL    HW231902   3.714   6.729   3.560
10335SOL     OW31903   3.460   4.451   0.171
10335SOL    HW131904   3.444   4.366   0.120
10335SOL    HW231905   3.372   4.486   0.204
10336SOL     OW31906   6.938   6.472   2.176
10336SOL    HW131907   6.897   6.555   2.213
10336SOL    HW231908   6.925   6.396   2.240
10337SOL     OW31909   0.163   6.494   5.890
10337SOL    HW131910   0.069   6.464   5.910
10337SOL    HW231911   0.215   6.417   5.853
10338SOL     OW31912   2.223   6.552   2.995
10338SOL    HW131913   2.273   6.473   2.960
10338SOL    HW231914   2.144   6.520   3.048
10339SOL     OW31915   3.546   4.710   0.200
10339SOL    HW131916   3.521   4.614   0.211
10339SOL    HW231917   3.631   4.729   0.250
10340SOL     OW31918   1.922   4.173   1.025
10340SOL    HW131919   1.848   4.232   0.994
10340SOL    HW231920   1.951   4.201   1.117
10341SOL     OW31921   2.047   3.305   1.872
10341SOL    HW131922   2.043   3.310   1.772
10341SOL    HW231923   2.124   3.359   1.905
10342SOL     OW31924   0.940   0.197   5.467
10342SOL    HW131925   1.035   0.167   5.468
10342SOL    HW231926   0.915   0.229   5.375
10343SOL     OW31927   3.214   6.062   6.306
10343SOL    HW131928   3.297   6.038   6.257
10343SOL    HW231929   3.199   6.161   6.299
10344SOL     OW31930   4.647   4.059   1.749
10344SOL    HW131931   4.741   4.085   1.775
10344SOL    HW231932   4.582   4.118   1.796
10345SOL     OW31933   1.906   0.995   6.692
10345SOL    HW131934   1.816   0.960   6.716
10345SOL    HW231935   1.928   1.074   6.750
10346SOL     OW31936   6.567   6.317   1.974
10346SOL    HW131937   6.629   6.353   2.044
10346SOL    HW231938   6.477   6.300   2.014
10347SOL     OW31939   4.830   2.145   3.104
10347SOL    HW131940   4.785   2.081   3.041
10347SOL    HW231941   4.876   2.093   3.176
10348SOL     OW31942   6.566   1.589   0.137
10348SOL    HW131943   6.657   1.590   0.177
10348SOL    HW231944   6.548   1.676   0.091
10349SOL     OW31945   0.142   0.585   0.897
10349SOL    HW131946   0.170   0.668   0.946
10349SOL    HW231947   0.063   0.545   0.943
10350SOL     OW31948   1.474   6.812   5.249
10350SOL    HW131949   1.376   6.794   5.253
10350SOL    HW231950   1.523   6.736   5.292
10351SOL     OW31951   4.278   5.156   6.189
10351SOL    HW131952   4.216   5.092   6.235
10351SOL    HW231953   4.260   5.249   6.222
10352SOL     OW31954   4.075   1.958   5.688
10352SOL    HW131955   4.053   1.888   5.756
10352SOL    HW231956   4.016   2.038   5.701
10353SOL     OW31957   6.835   2.235   5.519
10353SOL    HW131958   6.873   2.165   5.580
10353SOL    HW231959   6.814   2.195   5.431
10354SOL     OW31960   5.897   2.490   2.005
10354SOL    HW131961   5.982   2.451   2.038
10354SOL    HW231962   5.826   2.420   2.003
10355SOL     OW31963   1.845   6.860   2.339
10355SOL    HW131964   1.756   6.885   2.375
10355SOL    HW231965   1.908   6.938   2.346
10356SOL     OW31966   0.544   4.237   6.229
10356SOL    HW131967   0.461   4.280   6.195
10356SOL    HW231968   0.624   4.287   6.195
10357SOL     OW31969   2.449   3.239   5.859
10357SOL    HW131970   2.513   3.165   5.881
10357SOL    HW231971   2.485   3.325   5.897
10358SOL     OW31972   6.424   2.740   2.530
10358SOL    HW131973   6.357   2.814   2.525
10358SOL    HW231974   6.506   2.766   2.480
10359SOL     OW31975   0.096   1.797   1.589
10359SOL    HW131976   0.168   1.823   1.653
10359SOL    HW231977   0.011   1.846   1.612
10360SOL     OW31978   4.834   5.728   2.753
10360SOL    HW131979   4.777   5.751   2.674
10360SOL    HW231980   4.802   5.642   2.793
10361SOL     OW31981   3.206   0.203   3.222
10361SOL    HW131982   3.121   0.239   3.260
10361SOL    HW231983   3.281   0.221   3.286
10362SOL     OW31984   0.926   5.155   4.835
10362SOL    HW131985   0.846   5.123   4.886
10362SOL    HW231986   0.904   5.240   4.787
10363SOL     OW31987   4.855   1.657   0.953
10363SOL    HW131988   4.931   1.613   0.999
10363SOL    HW231989   4.769   1.617   0.985
10364SOL     OW31990   3.415   3.769   1.825
10364SOL    HW131991   3.406   3.675   1.793
10364SOL    HW231992   3.455   3.770   1.917
10365SOL     OW31993   4.692   4.661   5.852
10365SOL    HW131994   4.685   4.618   5.762
10365SOL    HW231995   4.638   4.609   5.919
10366SOL     OW31996   4.328   0.379   4.366
10366SOL    HW131997   4.385   0.297   4.366
10366SOL    HW231998   4.384   0.458   4.393
10367SOL     OW31999   6.574   1.841   2.426
10367SOL    HW132000   6.494   1.791   2.457
10367SOL    HW232001   6.558   1.939   2.438
10368SOL     OW32002   2.157   1.117   1.962
10368SOL    HW132003   2.171   1.018   1.955
10368SOL    HW232004   2.143   1.142   2.058
10369SOL     OW32005   3.943   1.418   5.071
10369SOL    HW132006   3.980   1.327   5.050
10369SOL    HW232007   4.000   1.488   5.028
10370SOL     OW32008   5.279   1.842   5.474
10370SOL    HW132009   5.183   1.870   5.478
10370SOL    HW232010   5.335   1.919   5.442
10371SOL     OW32011   2.385   5.930   4.561
10371SOL    HW132012   2.336   5.893   4.639
10371SOL    HW232013   2.334   5.911   4.477
10372SOL     OW32014   1.168   1.549   0.170
10372SOL    HW132015   1.182   1.593   0.081
10372SOL    HW232016   1.254   1.552   0.222
10373SOL     OW32017   2.204   6.103   4.760
10373SOL    HW132018   2.292   6.056   4.769
10373SOL    HW232019   2.131   6.035   4.760
10374SOL     OW32020   4.195   0.857   2.599
10374SOL    HW132021   4.240   0.938   2.562
10374SOL    HW232022   4.102   0.852   2.563
10375SOL     OW32023   2.654   1.726   6.045
10375SOL    HW132024   2.571   1.673   6.061
10375SOL    HW232025   2.678   1.724   5.948
10376SOL     OW32026   1.349   6.420   4.422
10376SOL    HW132027   1.308   6.415   4.513
10376SOL    HW232028   1.311   6.498   4.372
10377SOL     OW32029   6.739   0.766   4.038
10377SOL    HW132030   6.741   0.862   4.012
10377SOL    HW232031   6.710   0.757   4.133
10378SOL     OW32032   6.262   0.113   6.215
10378SOL    HW132033   6.279   0.056   6.295
10378SOL    HW232034   6.340   0.107   6.152
10379SOL     OW32035   3.169   6.518   4.709
10379SOL    HW132036   3.115   6.559   4.635
10379SOL    HW232037   3.236   6.455   4.671
10380SOL     OW32038   0.592   1.198   4.124
10380SOL    HW132039   0.558   1.272   4.182
10380SOL    HW232040   0.673   1.229   4.074
10381SOL     OW32041   4.178   5.495   0.228
10381SOL    HW132042   4.209   5.439   0.305
10381SOL    HW232043   4.255   5.511   0.166
10382SOL     OW32044   2.213   4.478   0.311
10382SOL    HW132045   2.232   4.384   0.282
10382SOL    HW232046   2.298   4.530   0.313
10383SOL     OW32047   0.686   3.541   0.227
10383SOL    HW132048   0.695   3.640   0.230
10383SOL    HW232049   0.737   3.501   0.303
10384SOL     OW32050   0.767   6.977   1.059
10384SOL    HW132051   0.819   6.955   0.976
10384SOL    HW232052   0.825   0.013   1.120
10385SOL     OW32053   3.158   6.590   5.683
10385SOL    HW132054   3.095   6.599   5.761
10385SOL    HW232055   3.252   6.600   5.715
10386SOL     OW32056   6.201   2.981   5.955
10386SOL    HW132057   6.253   2.923   6.018
10386SOL    HW232058   6.231   2.963   5.861
10387SOL     OW32059   4.169   2.285   2.713
10387SOL    HW132060   4.101   2.255   2.645
10387SOL    HW232061   4.234   2.347   2.670
10388SOL     OW32062   1.919   5.752   2.595
10388SOL    HW132063   1.936   5.659   2.629
10388SOL    HW232064   1.843   5.792   2.646
10389SOL     OW32065   0.516   6.720   1.968
10389SOL    HW132066   0.422   6.733   1.998
10389SOL    HW232067   0.525   6.752   1.874
10390SOL     OW32068   1.692   3.205   1.645
10390SOL    HW132069   1.604   3.237   1.610
10390SOL    HW232070   1.676   3.126   1.706
10391SOL     OW32071   1.300   5.735   4.793
10391SOL    HW132072   1.258   5.667   4.854
10391SOL    HW232073   1.398   5.718   4.786
10392SOL     OW32074   6.352   3.754   0.303
10392SOL    HW132075   6.433   3.778   0.249
10392SOL    HW232076   6.270   3.783   0.254
10393SOL     OW32077   2.258   2.140   2.706
10393SOL    HW132078   2.233   2.190   2.788
10393SOL    HW232079   2.245   2.198   2.626
10394SOL     OW32080   2.473   6.454   5.068
10394SOL    HW132081   2.379   6.477   5.044
10394SOL    HW232082   2.535   6.501   5.006
10395SOL     OW32083   6.471   0.498   3.177
10395SOL    HW132084   6.479   0.399   3.182
10395SOL    HW232085   6.499   0.530   3.087
10396SOL     OW32086   2.329   0.637   4.321
10396SOL    HW132087   2.340   0.544   4.285
10396SOL    HW232088   2.419   0.674   4.346
10397SOL     OW32089   3.040   2.208   3.734
10397SOL    HW132090   3.126   2.172   3.768
10397SOL    HW232091   3.005   2.277   3.797
10398SOL     OW32092   5.628   2.885   0.601
10398SOL    HW132093   5.639   2.932   0.513
10398SOL    HW232094   5.531   2.884   0.626
10399SOL     OW32095   4.302   2.004   4.538
10399SOL    HW132096   4.330   1.909   4.522
10399SOL    HW232097   4.202   2.011   4.532
10400SOL     OW32098   3.647   5.723   1.934
10400SOL    HW132099   3.632   5.810   1.886
10400SOL    HW232100   3.680   5.654   1.870
10401SOL     OW32101   6.700   0.333   2.959
10401SOL    HW132102   6.790   0.334   3.004
10401SOL    HW232103   6.680   0.423   2.922
10402SOL     OW32104   0.189   2.592   5.446
10402SOL    HW132105   0.107   2.535   5.438
10402SOL    HW232106   0.270   2.537   5.425
10403SOL     OW32107   5.063   1.253   2.572
10403SOL    HW132108   5.161   1.236   2.588
10403SOL    HW232109   5.011   1.172   2.600
10404SOL     OW32110   0.706   6.602   3.488
10404SOL    HW132111   0.735   6.697   3.501
10404SOL    HW232112   0.686   6.587   3.391
10405SOL     OW32113   1.491   5.338   4.971
10405SOL    HW132114   1.496   5.412   5.038
10405SOL    HW232115   1.400   5.338   4.929
10406SOL     OW32116   2.147   3.873   5.092
10406SOL    HW132117   2.184   3.793   5.140
10406SOL    HW232118   2.219   3.941   5.080
10407SOL     OW32119   1.680   0.230   6.435
10407SOL    HW132120   1.659   0.186   6.522
10407SOL    HW232121   1.631   0.184   6.361
10408SOL     OW32122   4.277   6.280   2.028
10408SOL    HW132123   4.195   6.238   2.066
10408SOL    HW232124   4.325   6.213   1.971
10409SOL     OW32125   0.411   4.026   0.903
10409SOL    HW132126   0.464   4.103   0.865
10409SOL    HW232127   0.395   3.959   0.831
10410SOL     OW32128   5.069   1.563   1.107
10410SOL    HW132129   5.059   1.497   1.182
10410SOL    HW232130   5.142   1.627   1.128
10411SOL     OW32131   3.580   5.419   4.119
10411SOL    HW132132   3.551   5.327   4.092
10411SOL    HW232133   3.530   5.446   4.202
10412SOL     OW32134   0.508   1.290   0.504
10412SOL    HW132135   0.592   1.343   0.494
10412SOL    HW232136   0.526   1.208   0.558
10413SOL     OW32137   6.962   2.087   0.840
10413SOL    HW132138   0.012   2.089   0.767
10413SOL    HW232139   6.877   2.129   0.808
10414SOL     OW32140   4.759   6.208   5.547
10414SOL    HW132141   4.785   6.219   5.643
10414SOL    HW232142   4.796   6.123   5.512
10415SOL     OW32143   2.302   4.810   3.804
10415SOL    HW132144   2.279   4.888   3.745
10415SOL    HW232145   2.227   4.744   3.802
10416SOL     OW32146   6.446   1.084   5.641
10416SOL    HW132147   6.512   1.159   5.632
10416SOL    HW232148   6.354   1.119   5.627
10417SOL     OW32149   4.901   4.109   4.129
10417SOL    HW132150   4.886   4.051   4.209
10417SOL    HW232151   4.906   4.205   4.158
10418SOL     OW32152   6.471   4.041   5.151
10418SOL    HW132153   6.565   4.007   5.147
10418SOL    HW232154   6.428   4.013   5.236
10419SOL     OW32155   2.930   0.364   5.231
10419SOL    HW132156   2.988   0.343   5.310
10419SOL    HW232157   2.960   0.312   5.152
10420SOL     OW32158   6.788   3.828   3.802
10420SOL    HW132159   6.766   3.871   3.714
10420SOL    HW232160   6.837   3.743   3.786
10421SOL     OW32161   1.357   3.127   4.175
10421SOL    HW132162   1.283   3.081   4.125
10421SOL    HW232163   1.445   3.102   4.136
10422SOL     OW32164   6.668   3.530   5.682
10422SOL    HW132165   6.592   3.490   5.630
10422SOL    HW232166   6.707   3.460   5.743
10423SOL     OW32167   3.995   4.886   4.917
10423SOL    HW132168   4.066   4.854   4.979
10423SOL    HW232169   3.990   4.986   4.921
10424SOL     OW32170   4.838   2.334   6.717
10424SOL    HW132171   4.847   2.307   6.813
10424SOL    HW232172   4.764   2.401   6.708
10425SOL     OW32173   0.516   6.455   1.810
10425SOL    HW132174   0.608   6.492   1.821
10425SOL    HW232175   0.453   6.501   1.873
10426SOL     OW32176   5.152   3.671   5.821
10426SOL    HW132177   5.101   3.628   5.896
10426SOL    HW232178   5.124   3.631   5.734
10427SOL     OW32179   5.200   5.984   5.935
10427SOL    HW132180   5.183   6.060   5.998
10427SOL    HW232181   5.163   6.006   5.845
10428SOL     OW32182   1.909   1.669   4.230
10428SOL    HW132183   1.930   1.679   4.133
10428SOL    HW232184   1.995   1.666   4.282
10429SOL     OW32185   1.105   3.710   2.696
10429SOL    HW132186   1.017   3.755   2.677
10429SOL    HW232187   1.093   3.644   2.770
10430SOL     OW32188   3.657   6.355   4.269
10430SOL    HW132189   3.722   6.283   4.243
10430SOL    HW232190   3.565   6.327   4.244
10431SOL     OW32191   2.861   0.694   3.959
10431SOL    HW132192   2.909   0.645   3.886
10431SOL    HW232193   2.917   0.771   3.990
10432SOL     OW32194   0.536   1.576   5.318
10432SOL    HW132195   0.512   1.485   5.352
10432SOL    HW232196   0.636   1.584   5.310
10433SOL     OW32197   0.203   6.433   1.766
10433SOL    HW132198   0.124   6.382   1.734
10433SOL    HW232199   0.248   6.478   1.688
10434SOL     OW32200   4.648   6.220   4.573
10434SOL    HW132201   4.727   6.159   4.566
10434SOL    HW232202   4.567   6.175   4.536
10435SOL     OW32203   1.530   2.022   5.764
10435SOL    HW132204   1.575   1.964   5.831
10435SOL    HW232205   1.466   2.083   5.810
10436SOL     OW32206   6.256   4.217   3.806
10436SOL    HW132207   6.277   4.124   3.839
10436SOL    HW232208   6.283   4.283   3.876
10437SOL     OW32209   5.327   4.866   5.128
10437SOL    HW132210   5.271   4.923   5.188
10437SOL    HW232211   5.422   4.899   5.131
10438SOL     OW32212   0.027   6.051   5.948
10438SOL    HW132213   6.955   6.085   5.921
10438SOL    HW232214   0.066   6.110   6.019
10439SOL     OW32215   5.710   1.014   5.089
10439SOL    HW132216   5.766   0.997   5.007
10439SOL    HW232217   5.624   1.057   5.062
10440SOL     OW32218   6.870   6.419   0.015
10440SOL    HW132219   6.862   6.422   0.115
10440SOL    HW232220   6.897   6.509   6.998
10441SOL     OW32221   2.979   1.411   0.880
10441SOL    HW132222   3.019   1.502   0.868
10441SOL    HW232223   3.029   1.362   0.951
10442SOL     OW32224   4.393   0.574   4.769
10442SOL    HW132225   4.346   0.661   4.783
10442SOL    HW232226   4.492   0.589   4.770
10443SOL     OW32227   6.346   2.292   2.864
10443SOL    HW132228   6.324   2.249   2.952
10443SOL    HW232229   6.340   2.392   2.875
10444SOL     OW32230   3.004   5.118   3.094
10444SOL    HW132231   3.046   5.130   3.184
10444SOL    HW232232   2.905   5.105   3.105
10445SOL     OW32233   0.622   3.605   2.597
10445SOL    HW132234   0.695   3.585   2.532
10445SOL    HW232235   0.550   3.535   2.589
10446SOL     OW32236   1.808   4.231   6.062
10446SOL    HW132237   1.829   4.166   5.989
10446SOL    HW232238   1.869   4.310   6.053
10447SOL     OW32239   6.532   0.361   1.905
10447SOL    HW132240   6.622   0.329   1.936
10447SOL    HW232241   6.477   0.282   1.876
10448SOL     OW32242   3.339   0.153   2.990
10448SOL    HW132243   3.333   0.148   3.089
10448SOL    HW232244   3.252   0.186   2.953
10449SOL     OW32245   3.207   5.658   6.648
10449SOL    HW132246   3.291   5.711   6.642
10449SOL    HW232247   3.216   5.574   6.594
10450SOL     OW32248   6.884   0.814   6.457
10450SOL    HW132249   6.979   0.821   6.426
10450SOL    HW232250   6.841   0.734   6.415
10451SOL     OW32251   3.508   0.372   2.946
10451SOL    HW132252   3.455   0.293   2.976
10451SOL    HW232253   3.449   0.453   2.943
10452SOL     OW32254   6.944   2.701   2.666
10452SOL    HW132255   6.853   2.739   2.678
10452SOL    HW232256   6.952   2.616   2.718
10453SOL     OW32257   4.200   6.104   2.509
10453SOL    HW132258   4.155   6.062   2.430
10453SOL    HW232259   4.283   6.150   2.479
10454SOL     OW32260   5.989   1.038   0.401
10454SOL    HW132261   5.921   1.102   0.437
10454SOL    HW232262   6.042   1.083   0.329
10455SOL     OW32263   0.244   6.040   4.430
10455SOL    HW132264   0.312   5.972   4.457
10455SOL    HW232265   0.263   6.071   4.337
10456SOL     OW32266   0.188   5.487   0.687
10456SOL    HW132267   0.196   5.411   0.751
10456SOL    HW232268   0.264   5.485   0.623
10457SOL     OW32269   4.029   3.369   6.902
10457SOL    HW132270   4.031   3.469   6.902
10457SOL    HW232271   4.122   3.333   6.899
10458SOL     OW32272   6.887   6.712   6.822
10458SOL    HW132273   6.844   6.779   6.762
10458SOL    HW232274   6.987   6.722   6.817
10459SOL     OW32275   5.842   4.905   0.924
10459SOL    HW132276   5.837   4.818   0.972
10459SOL    HW232277   5.864   4.978   0.988
10460SOL     OW32278   0.246   3.582   1.990
10460SOL    HW132279   0.315   3.634   2.040
10460SOL    HW232280   0.155   3.619   2.009
10461SOL     OW32281   6.302   4.758   5.377
10461SOL    HW132282   6.233   4.694   5.342
10461SOL    HW232283   6.289   4.847   5.334
10462SOL     OW32284   5.407   2.220   2.719
10462SOL    HW132285   5.472   2.256   2.653
10462SOL    HW232286   5.455   2.164   2.787
10463SOL     OW32287   4.683   1.643   6.330
10463SOL    HW132288   4.763   1.700   6.348
10463SOL    HW232289   4.713   1.551   6.305
10464SOL     OW32290   5.559   5.902   2.276
10464SOL    HW132291   5.492   5.967   2.313
10464SOL    HW232292   5.523   5.809   2.284
10465SOL     OW32293   4.670   5.333   2.449
10465SOL    HW132294   4.662   5.288   2.538
10465SOL    HW232295   4.733   5.411   2.457
10466SOL     OW32296   4.716   4.437   6.534
10466SOL    HW132297   4.672   4.514   6.579
10466SOL    HW232298   4.797   4.468   6.486
10467SOL     OW32299   1.394   2.761   0.758
10467SOL    HW132300   1.440   2.817   0.827
10467SOL    HW232301   1.329   2.818   0.707
10468SOL     OW32302   4.035   5.095   3.699
10468SOL    HW132303   3.986   5.017   3.738
10468SOL    HW232304   3.976   5.176   3.701
10469SOL     OW32305   4.445   4.126   5.674
10469SOL    HW132306   4.374   4.099   5.609
10469SOL    HW232307   4.478   4.045   5.723
10470SOL     OW32308   2.400   1.543   3.257
10470SOL    HW132309   2.463   1.471   3.230
10470SOL    HW232310   2.350   1.515   3.338
10471SOL     OW32311   3.211   0.266   0.204
10471SOL    HW132312   3.281   0.331   0.174
10471SOL    HW232313   3.148   0.312   0.267
10472SOL     OW32314   2.637   5.410   1.001
10472SOL    HW132315   2.556   5.398   1.059
10472SOL    HW232316   2.700   5.334   1.016
10473SOL     OW32317   5.919   6.304   5.559
10473SOL    HW132318   5.891   6.248   5.637
10473SOL    HW232319   5.992   6.257   5.509
10474SOL     OW32320   4.493   1.772   3.356
10474SOL    HW132321   4.421   1.751   3.423
10474SOL    HW232322   4.559   1.835   3.397
10475SOL     OW32323   2.768   6.907   1.765
10475SOL    HW132324   2.738   6.964   1.841
10475SOL    HW232325   2.715   6.821   1.764
10476SOL     OW32326   4.528   6.477   6.051
10476SOL    HW132327   4.595   6.542   6.086
10476SOL    HW232328   4.458   6.460   6.121
10477SOL     OW32329   6.780   0.611   4.718
10477SOL    HW132330   6.811   0.535   4.661
10477SOL    HW232331   6.709   0.662   4.670
10478SOL     OW32332   6.544   6.019   0.066
10478SOL    HW132333   6.470   6.055   0.123
10478SOL    HW232334   6.632   6.052   0.100
10479SOL     OW32335   6.371   0.978   2.098
10479SOL    HW132336   6.341   1.062   2.053
10479SOL    HW232337   6.429   0.926   2.035
10480SOL     OW32338   1.342   0.791   1.960
10480SOL    HW132339   1.335   0.729   1.882
10480SOL    HW232340   1.262   0.852   1.961
10481SOL     OW32341   1.905   6.006   3.084
10481SOL    HW132342   1.977   6.058   3.130
10481SOL    HW232343   1.908   5.911   3.113
10482SOL     OW32344   6.274   5.069   4.862
10482SOL    HW132345   6.296   5.160   4.827
10482SOL    HW232346   6.342   5.003   4.827
10483SOL     OW32347   5.657   5.724   0.465
10483SOL    HW132348   5.640   5.799   0.400
10483SOL    HW232349   5.655   5.637   0.416
10484SOL     OW32350   4.648   1.718   1.657
10484SOL    HW132351   4.709   1.785   1.699
10484SOL    HW232352   4.591   1.676   1.728
10485SOL     OW32353   3.321   4.866   0.217
10485SOL    HW132354   3.402   4.808   0.216
10485SOL    HW232355   3.273   4.858   0.129
10486SOL     OW32356   0.275   0.820   0.584
10486SOL    HW132357   0.271   0.816   0.484
10486SOL    HW232358   0.184   0.804   0.622
10487SOL     OW32359   4.920   6.815   2.145
10487SOL    HW132360   4.983   6.748   2.105
10487SOL    HW232361   4.932   6.818   2.244
10488SOL     OW32362   3.023   1.602   5.858
10488SOL    HW132363   2.929   1.637   5.861
10488SOL    HW232364   3.022   1.506   5.832
10489SOL     OW32365   0.371   6.724   5.132
10489SOL    HW132366   0.312   6.760   5.060
10489SOL    HW232367   0.434   6.796   5.162
10490SOL     OW32368   6.178   1.264   1.507
10490SOL    HW132369   6.242   1.340   1.520
10490SOL    HW232370   6.092   1.298   1.471
10491SOL     OW32371   1.680   3.619   0.026
10491SOL    HW132372   1.704   3.599   0.121
10491SOL    HW232373   1.596   3.569   0.002
10492SOL     OW32374   6.043   3.933   5.679
10492SOL    HW132375   6.002   3.916   5.769
10492SOL    HW232376   6.067   3.846   5.636
10493SOL     OW32377   3.619   0.957   1.360
10493SOL    HW132378   3.589   0.969   1.455
10493SOL    HW232379   3.568   1.020   1.301
10494SOL     OW32380   4.682   3.609   5.594
10494SOL    HW132381   4.619   3.684   5.615
10494SOL    HW232382   4.663   3.531   5.654
10495SOL     OW32383   2.052   6.813   0.387
10495SOL    HW132384   2.136   6.801   0.439
10495SOL    HW232385   1.973   6.793   0.446
10496SOL     OW32386   0.343   4.887   6.903
10496SOL    HW132387   0.349   4.972   6.850
10496SOL    HW232388   0.263   4.835   6.874
10497SOL     OW32389   2.419   0.042   2.603
10497SOL    HW132390   2.339   7.012   2.639
10497SOL    HW232391   2.484   6.992   2.567
10498SOL     OW32392   3.017   6.413   1.550
10498SOL    HW132393   3.015   6.362   1.636
10498SOL    HW232394   2.940   6.385   1.493
10499SOL     OW32395   3.241   0.041   2.357
10499SOL    HW132396   3.167   7.006   2.400
10499SOL    HW232397   3.242   0.133   2.395
10500SOL     OW32398   6.920   0.485   6.962
10500SOL    HW132399   6.884   0.462   0.034
10500SOL    HW232400   0.001   0.469   6.960
10501SOL     OW32401   2.461   5.192   3.112
10501SOL    HW132402   2.503   5.272   3.154
10501SOL    HW232403   2.477   5.112   3.171
10502SOL     OW32404   3.048   0.249   0.779
10502SOL    HW132405   3.047   0.201   0.692
10502SOL    HW232406   3.013   0.341   0.767
10503SOL     OW32407   3.892   3.304   0.124
10503SOL    HW132408   3.817   3.239   0.131
10503SOL    HW232409   3.928   3.305   0.031
10504SOL     OW32410   1.752   1.714   6.810
10504SOL    HW132411   1.722   1.680   6.899
10504SOL    HW232412   1.720   1.652   6.738
10505SOL     OW32413   5.362   5.974   0.734
10505SOL    HW132414   5.316   5.916   0.801
10505SOL    HW232415   5.295   6.008   0.668
10506SOL     OW32416   6.920   5.051   6.642
10506SOL    HW132417   6.951   5.046   6.547
10506SOL    HW232418   6.836   5.105   6.647
10507SOL     OW32419   1.999   0.215   7.014
10507SOL    HW132420   1.913   0.262   0.020
10507SOL    HW232421   1.978   0.128   6.970
10508SOL     OW32422   6.332   6.183   4.350
10508SOL    HW132423   6.290   6.162   4.438
10508SOL    HW232424   6.412   6.241   4.364
10509SOL     OW32425   0.859   6.412   4.954
10509SOL    HW132426   0.776   6.375   4.912
10509SOL    HW232427   0.848   6.412   5.054
10510SOL     OW32428   4.737   5.964   6.028
10510SOL    HW132429   4.708   6.045   6.079
10510SOL    HW232430   4.817   5.924   6.072
10511SOL     OW32431   4.306   1.724   1.201
10511SOL    HW132432   4.313   1.708   1.299
10511SOL    HW232433   4.313   1.822   1.183
10512SOL     OW32434   4.115   0.065   5.607
10512SOL    HW132435   4.039   0.130   5.599
10512SOL    HW232436   4.156   0.074   5.698
10513SOL     OW32437   6.705   2.276   4.437
10513SOL    HW132438   6.739   2.228   4.518
10513SOL    HW232439   6.733   2.372   4.441
10514SOL     OW32440   0.252   3.585   0.389
10514SOL    HW132441   0.287   3.602   0.481
10514SOL    HW232442   0.220   3.670   0.348
10515SOL     OW32443   0.166   2.845   3.137
10515SOL    HW132444   0.066   2.843   3.128
10515SOL    HW232445   0.191   2.876   3.228
10516SOL     OW32446   4.105   0.765   6.696
10516SOL    HW132447   4.130   0.792   6.789
10516SOL    HW232448   4.007   0.746   6.692
10517SOL     OW32449   7.004   1.974   3.066
10517SOL    HW132450   0.028   1.917   2.995
10517SOL    HW232451   7.009   2.070   3.039
10518SOL     OW32452   0.953   4.860   6.213
10518SOL    HW132453   0.983   4.916   6.135
10518SOL    HW232454   0.859   4.830   6.197
10519SOL     OW32455   2.651   2.864   6.616
10519SOL    HW132456   2.661   2.940   6.679
10519SOL    HW232457   2.736   2.811   6.614
10520SOL     OW32458   1.603   2.484   6.689
10520SOL    HW132459   1.658   2.403   6.708
10520SOL    HW232460   1.659   2.566   6.698
10521SOL     OW32461   5.315   5.839   1.920
10521SOL    HW132462   5.402   5.789   1.916
10521SOL    HW232463   5.310   5.901   1.842
10522SOL     OW32464   6.283   0.349   6.573
10522SOL    HW132465   6.372   0.348   6.618
10522SOL    HW232466   6.212   0.324   6.638
10523SOL     OW32467   0.767   5.219   4.471
10523SOL    HW132468   0.693   5.155   4.491
10523SOL    HW232469   0.802   5.258   4.557
10524SOL     OW32470   1.710   0.909   5.045
10524SOL    HW132471   1.761   0.935   4.962
10524SOL    HW232472   1.760   0.837   5.092
10525SOL     OW32473   3.065   0.010   5.841
10525SOL    HW132474   3.141   6.966   5.860
10525SOL    HW232475   3.100   0.104   5.833
10526SOL     OW32476   0.469   0.021   3.093
10526SOL    HW132477   0.431   6.971   3.156
10526SOL    HW232478   0.503   6.993   3.012
10527SOL     OW32479   6.046   2.591   4.625
10527SOL    HW132480   5.992   2.531   4.566
10527SOL    HW232481   6.029   2.568   4.721
10528SOL     OW32482   1.224   3.360   5.951
10528SOL    HW132483   1.247   3.363   5.853
10528SOL    HW232484   1.304   3.332   6.003
10529SOL     OW32485   2.348   6.221   3.919
10529SOL    HW132486   2.428   6.263   3.877
10529SOL    HW232487   2.361   6.122   3.924
10530SOL     OW32488   2.513   0.761   6.503
10530SOL    HW132489   2.455   0.680   6.500
10530SOL    HW232490   2.462   0.840   6.469
10531SOL     OW32491   0.810   2.923   4.143
10531SOL    HW132492   0.795   2.974   4.058
10531SOL    HW232493   0.839   2.986   4.215
10532SOL     OW32494   1.936   4.544   6.689
10532SOL    HW132495   2.020   4.506   6.729
10532SOL    HW232496   1.877   4.469   6.660
10533SOL     OW32497   3.032   1.382   4.752
10533SOL    HW132498   3.008   1.319   4.826
10533SOL    HW232499   3.073   1.465   4.791
10534SOL     OW32500   5.676   5.714   1.639
10534SOL    HW132501   5.681   5.806   1.599
10534SOL    HW232502   5.761   5.694   1.688
10535SOL     OW32503   1.003   1.745   0.946
10535SOL    HW132504   0.962   1.800   1.019
10535SOL    HW232505   1.084   1.792   0.910
10536SOL     OW32506   3.915   0.813   3.345
10536SOL    HW132507   4.005   0.828   3.385
10536SOL    HW232508   3.925   0.784   3.250
10537SOL     OW32509   3.453   5.200   4.480
10537SOL    HW132510   3.401   5.220   4.563
10537SOL    HW232511   3.481   5.104   4.481
10538SOL     OW32512   5.120   2.591   0.389
10538SOL    HW132513   5.195   2.651   0.360
10538SOL    HW232514   5.128   2.574   0.487
10539SOL     OW32515   0.415   3.852   6.693
10539SOL    HW132516   0.342   3.876   6.630
10539SOL    HW232517   0.493   3.815   6.642
10540SOL     OW32518   1.286   2.462   5.337
10540SOL    HW132519   1.378   2.443   5.302
10540SOL    HW232520   1.245   2.536   5.285
10541SOL     OW32521   3.737   3.593   2.221
10541SOL    HW132522   3.654   3.537   2.220
10541SOL    HW232523   3.723   3.671   2.283
10542SOL     OW32524   6.471   1.443   6.170
10542SOL    HW132525   6.548   1.487   6.123
10542SOL    HW232526   6.506   1.373   6.232
10543SOL     OW32527   6.712   1.032   5.162
10543SOL    HW132528   6.710   1.018   5.261
10543SOL    HW232529   6.795   0.989   5.124
10544SOL     OW32530   1.654   6.912   2.518
10544SOL    HW132531   1.638   7.005   2.552
10544SOL    HW232532   1.696   6.858   2.591
10545SOL     OW32533   6.397   0.837   3.047
10545SOL    HW132534   6.392   0.870   3.141
10545SOL    HW232535   6.311   0.857   3.000
10546SOL     OW32536   0.975   1.252   6.632
10546SOL    HW132537   1.037   1.292   6.564
10546SOL    HW232538   0.934   1.325   6.686
10547SOL     OW32539   5.055   1.839   1.976
10547SOL    HW132540   5.078   1.848   2.073
10547SOL    HW232541   4.977   1.777   1.965
10548SOL     OW32542   5.380   4.540   4.713
10548SOL    HW132543   5.474   4.539   4.679
10548SOL    HW232544   5.329   4.464   4.673
10549SOL     OW32545   6.437   0.077   2.170
10549SOL    HW132546   6.472   0.089   2.263
10549SOL    HW232547   6.339   0.098   2.169
10550SOL     OW32548   4.318   6.041   5.068
10550SOL    HW132549   4.320   6.141   5.078
10550SOL    HW232550   4.402   6.010   5.025
10551SOL     OW32551   1.917   2.525   6.056
10551SOL    HW132552   1.819   2.503   6.057
10551SOL    HW232553   1.966   2.455   6.108
10552SOL     OW32554   3.623   2.032   6.181
10552SOL    HW132555   3.693   2.094   6.147
10552SOL    HW232556   3.611   2.045   6.279
10553SOL     OW32557   0.483   5.082   1.136
10553SOL    HW132558   0.512   5.035   1.219
10553SOL    HW232559   0.534   5.168   1.127
10554SOL     OW32560   5.159   5.368   0.042
10554SOL    HW132561   5.221   5.443   0.064
10554SOL    HW232562   5.102   5.395   6.982
10555SOL     OW32563   2.218   2.898   0.612
10555SOL    HW132564   2.197   2.819   0.670
10555SOL    HW232565   2.269   2.866   0.531
10556SOL     OW32566   2.236   2.399   5.078
10556SOL    HW132567   2.200   2.308   5.056
10556SOL    HW232568   2.195   2.466   5.017
10557SOL     OW32569   2.141   2.262   2.924
10557SOL    HW132570   2.082   2.182   2.935
10557SOL    HW232571   2.100   2.340   2.972
10558SOL     OW32572   4.184   0.481   3.691
10558SOL    HW132573   4.263   0.541   3.678
10558SOL    HW232574   4.100   0.533   3.681
10559SOL     OW32575   4.751   0.326   1.423
10559SOL    HW132576   4.720   0.380   1.501
10559SOL    HW232577   4.686   0.252   1.405
10560SOL     OW32578   3.553   6.753   3.494
10560SOL    HW132579   3.553   6.804   3.408
10560SOL    HW232580   3.459   6.730   3.519
10561SOL     OW32581   2.915   4.675   0.923
10561SOL    HW132582   2.930   4.773   0.933
10561SOL    HW232583   2.832   4.648   0.971
10562SOL     OW32584   4.933   6.163   0.371
10562SOL    HW132585   5.032   6.161   0.383
10562SOL    HW232586   4.911   6.191   0.277
10563SOL     OW32587   0.685   0.807   3.783
10563SOL    HW132588   0.666   0.748   3.861
10563SOL    HW232589   0.603   0.860   3.761
10564SOL     OW32590   5.762   6.154   2.591
10564SOL    HW132591   5.806   6.244   2.601
10564SOL    HW232592   5.799   6.109   2.510
10565SOL     OW32593   6.841   0.830   6.017
10565SOL    HW132594   6.775   0.757   5.998
10565SOL    HW232595   6.916   0.824   5.951
10566SOL     OW32596   4.382   2.884   0.132
10566SOL    HW132597   4.449   2.813   0.112
10566SOL    HW232598   4.293   2.841   0.148
10567SOL     OW32599   2.211   1.440   4.508
10567SOL    HW132600   2.310   1.431   4.500
10567SOL    HW232601   2.182   1.528   4.469
10568SOL     OW32602   5.923   1.933   1.419
10568SOL    HW132603   5.834   1.933   1.373
10568SOL    HW232604   5.963   2.025   1.412
10569SOL     OW32605   6.096   2.146   1.444
10569SOL    HW132606   6.085   2.104   1.534
10569SOL    HW232607   6.187   2.126   1.409
10570SOL     OW32608   1.430   4.815   3.502
10570SOL    HW132609   1.480   4.730   3.485
10570SOL    HW232610   1.332   4.799   3.493
10571SOL     OW32611   6.970   5.115   4.585
10571SOL    HW132612   6.993   5.153   4.495
10571SOL    HW232613   0.015   5.153   4.653
10572SOL     OW32614   0.242   4.275   3.883
10572SOL    HW132615   0.258   4.222   3.800
10572SOL    HW232616   0.167   4.234   3.934
10573SOL     OW32617   4.779   0.396   4.484
10573SOL    HW132618   4.687   0.389   4.444
10573SOL    HW232619   4.834   0.318   4.454
10574SOL     OW32620   1.035   1.676   4.392
10574SOL    HW132621   0.950   1.624   4.402
10574SOL    HW232622   1.089   1.667   4.476
10575SOL     OW32623   6.768   1.228   2.587
10575SOL    HW132624   6.784   1.222   2.488
10575SOL    HW232625   6.855   1.236   2.635
10576SOL     OW32626   0.022   6.073   5.564
10576SOL    HW132627   6.970   6.004   5.546
10576SOL    HW232628   0.069   6.096   5.479
10577SOL     OW32629   1.969   2.458   6.792
10577SOL    HW132630   1.938   2.552   6.805
10577SOL    HW232631   2.020   2.451   6.706
10578SOL     OW32632   6.065   0.567   3.053
10578SOL    HW132633   6.071   0.654   3.101
10578SOL    HW232634   6.059   0.583   2.954
10579SOL     OW32635   4.156   1.897   0.375
10579SOL    HW132636   4.236   1.958   0.373
10579SOL    HW232637   4.169   1.824   0.309
10580SOL     OW32638   6.739   0.160   0.046
10580SOL    HW132639   6.726   0.092   0.118
10580SOL    HW232640   6.719   0.251   0.082
10581SOL     OW32641   0.080   6.748   3.479
10581SOL    HW132642   0.106   6.837   3.444
10581SOL    HW232643   6.998   6.745   3.489
10582SOL     OW32644   4.693   4.999   6.952
10582SOL    HW132645   4.625   4.971   0.002
10582SOL    HW232646   4.778   5.024   6.999
10583SOL     OW32647   3.893   0.856   5.205
10583SOL    HW132648   3.838   0.784   5.246
10583SOL    HW232649   3.845   0.894   5.126
10584SOL     OW32650   6.175   6.492   1.528
10584SOL    HW132651   6.085   6.449   1.539
10584SOL    HW232652   6.192   6.555   1.604
10585SOL     OW32653   2.171   2.761   5.345
10585SOL    HW132654   2.263   2.780   5.381
10585SOL    HW232655   2.127   2.848   5.321
10586SOL     OW32656   0.581   5.397   4.862
10586SOL    HW132657   0.625   5.400   4.952
10586SOL    HW232658   0.522   5.316   4.858
10587SOL     OW32659   6.296   3.880   0.576
10587SOL    HW132660   6.394   3.900   0.576
10587SOL    HW232661   6.276   3.809   0.508
10588SOL     OW32662   0.094   3.777   2.685
10588SOL    HW132663   0.067   3.836   2.608
10588SOL    HW232664   0.098   3.831   2.769
10589SOL     OW32665   6.307   1.290   4.619
10589SOL    HW132666   6.266   1.315   4.706
10589SOL    HW232667   6.263   1.341   4.545
10590SOL     OW32668   1.391   0.283   1.540
10590SOL    HW132669   1.414   0.192   1.574
10590SOL    HW232670   1.294   0.301   1.558
10591SOL     OW32671   1.323   1.575   6.030
10591SOL    HW132672   1.334   1.478   6.009
10591SOL    HW232673   1.232   1.604   6.001
10592SOL     OW32674   6.202   2.757   0.631
10592SOL    HW132675   6.108   2.730   0.613
10592SOL    HW232676   6.232   2.821   0.561
10593SOL     OW32677   2.228   5.143   0.513
10593SOL    HW132678   2.254   5.172   0.421
10593SOL    HW232679   2.310   5.117   0.564
10594SOL     OW32680   5.224   0.950   2.431
10594SOL    HW132681   5.131   0.916   2.418
10594SOL    HW232682   5.234   1.040   2.388
10595SOL     OW32683   3.658   0.060   5.363
10595SOL    HW132684   3.602   0.021   5.437
10595SOL    HW232685   3.611   0.047   5.276
10596SOL     OW32686   4.699   0.117   0.285
10596SOL    HW132687   4.748   0.074   0.209
10596SOL    HW232688   4.723   0.069   0.370
10597SOL     OW32689   3.563   1.285   4.806
10597SOL    HW132690   3.563   1.374   4.761
10597SOL    HW232691   3.543   1.297   4.903
10598SOL     OW32692   2.429   2.570   7.017
10598SOL    HW132693   2.434   2.498   0.068
10598SOL    HW232694   2.334   2.578   6.985
10599SOL     OW32695   5.174   2.491   6.610
10599SOL    HW132696   5.168   2.402   6.565
10599SOL    HW232697   5.089   2.509   6.660
10600SOL     OW32698   1.627   2.646   0.626
10600SOL    HW132699   1.546   2.691   0.661
10600SOL    HW232700   1.601   2.563   0.576
10601SOL     OW32701   1.848   4.681   6.430
10601SOL    HW132702   1.781   4.752   6.450
10601SOL    HW232703   1.933   4.699   6.479
10602SOL     OW32704   5.072   1.809   3.188
10602SOL    HW132705   5.129   1.875   3.140
10602SOL    HW232706   5.050   1.844   3.279
10603SOL     OW32707   2.170   5.383   4.123
10603SOL    HW132708   2.208   5.474   4.115
10603SOL    HW232709   2.217   5.333   4.196
10604SOL     OW32710   5.965   3.819   5.334
10604SOL    HW132711   5.929   3.727   5.347
10604SOL    HW232712   6.058   3.814   5.297
10605SOL     OW32713   1.450   4.742   0.491
10605SOL    HW132714   1.530   4.776   0.540
10605SOL    HW232715   1.478   4.672   0.426
10606SOL     OW32716   6.623   6.891   2.229
10606SOL    HW132717   6.585   6.871   2.319
10606SOL    HW232718   6.560   6.949   2.178
10607SOL     OW32719   4.158   4.115   5.871
10607SOL    HW132720   4.058   4.116   5.880
10607SOL    HW232721   4.189   4.199   5.826
10608SOL     OW32722   5.079   1.961   6.005
10608SOL    HW132723   5.170   1.947   6.045
10608SOL    HW232724   5.082   2.041   5.945
10609SOL     OW32725   3.187   6.598   2.008
10609SOL    HW132726   3.154   6.550   1.926
10609SOL    HW232727   3.258   6.544   2.052
10610SOL     OW32728   0.597   3.578   5.786
10610SOL    HW132729   0.626   3.671   5.810
10610SOL    HW232730   0.502   3.580   5.754
10611SOL     OW32731   4.510   3.814   5.660
10611SOL    HW132732   4.458   3.819   5.746
10611SOL    HW232733   4.447   3.827   5.583
10612SOL     OW32734   2.720   0.201   5.771
10612SOL    HW132735   2.720   0.159   5.680
10612SOL    HW232736   2.735   0.131   5.840
10613SOL     OW32737   6.901   0.397   5.320
10613SOL    HW132738   6.854   0.320   5.276
10613SOL    HW232739   6.980   0.364   5.370
10614SOL     OW32740   6.761   2.195   4.773
10614SOL    HW132741   6.709   2.167   4.853
10614SOL    HW232742   6.784   2.292   4.780
10615SOL     OW32743   3.051   6.181   6.087
10615SOL    HW132744   3.061   6.213   5.992
10615SOL    HW232745   3.042   6.081   6.087
10616SOL     OW32746   2.761   6.594   1.362
10616SOL    HW132747   2.777   6.509   1.412
10616SOL    HW232748   2.837   6.657   1.378
10617SOL     OW32749   2.125   2.679   0.450
10617SOL    HW132750   2.128   2.676   0.550
10617SOL    HW232751   2.079   2.763   0.420
10618SOL     OW32752   6.181   3.657   6.618
10618SOL    HW132753   6.247   3.594   6.578
10618SOL    HW232754   6.218   3.695   6.703
10619SOL     OW32755   6.996   3.644   2.079
10619SOL    HW132756   6.987   3.738   2.046
10619SOL    HW232757   6.953   3.636   2.169
10620SOL     OW32758   1.085   5.684   5.801
10620SOL    HW132759   0.999   5.657   5.756
10620SOL    HW232760   1.085   5.650   5.895
10621SOL     OW32761   1.083   6.410   1.303
10621SOL    HW132762   1.006   6.367   1.348
10621SOL    HW232763   1.154   6.341   1.285
10622SOL     OW32764   5.539   0.747   1.021
10622SOL    HW132765   5.612   0.815   1.028
10622SOL    HW232766   5.574   0.664   0.976
10623SOL     OW32767   0.001   4.787   4.305
10623SOL    HW132768   7.007   4.695   4.268
10623SOL    HW232769   6.995   4.788   4.402
10624SOL     OW32770   0.476   1.838   4.649
10624SOL    HW132771   0.451   1.850   4.745
10624SOL    HW232772   0.399   1.798   4.599
10625SOL     OW32773   0.608   4.887   0.055
10625SOL    HW132774   0.514   4.874   0.026
10625SOL    HW232775   0.623   4.982   0.082
10626SOL     OW32776   1.659   3.103   1.137
10626SOL    HW132777   1.727   3.066   1.200
10626SOL    HW232778   1.571   3.112   1.185
10627SOL     OW32779   5.518   6.002   1.022
10627SOL    HW132780   5.563   5.954   1.098
10627SOL    HW232781   5.543   5.958   0.936
10628SOL     OW32782   5.412   5.478   6.069
10628SOL    HW132783   5.321   5.442   6.049
10628SOL    HW232784   5.473   5.402   6.091
10629SOL     OW32785   2.446   4.499   4.728
10629SOL    HW132786   2.453   4.558   4.647
10629SOL    HW232787   2.437   4.404   4.698
10630SOL     OW32788   6.197   1.292   3.628
10630SOL    HW132789   6.239   1.368   3.678
10630SOL    HW232790   6.229   1.293   3.533
10631SOL     OW32791   1.683   4.819   5.549
10631SOL    HW132792   1.700   4.764   5.467
10631SOL    HW232793   1.610   4.885   5.531
10632SOL     OW32794   5.484   1.716   4.088
10632SOL    HW132795   5.452   1.717   3.993
10632SOL    HW232796   5.406   1.724   4.149
10633SOL     OW32797   2.507   3.589   1.340
10633SOL    HW132798   2.533   3.619   1.433
10633SOL    HW232799   2.420   3.633   1.315
10634SOL     OW32800   3.257   5.259   1.475
10634SOL    HW132801   3.336   5.281   1.417
10634SOL    HW232802   3.192   5.335   1.472
10635SOL     OW32803   3.447   1.908   0.884
10635SOL    HW132804   3.401   1.985   0.929
10635SOL    HW232805   3.405   1.822   0.913
10636SOL     OW32806   1.366   1.646   1.546
10636SOL    HW132807   1.399   1.734   1.581
10636SOL    HW232808   1.385   1.639   1.448
10637SOL     OW32809   3.344   4.962   5.517
10637SOL    HW132810   3.358   4.943   5.614
10637SOL    HW232811   3.250   4.942   5.492
10638SOL     OW32812   0.328   5.586   2.925
10638SOL    HW132813   0.316   5.512   2.991
10638SOL    HW232814   0.293   5.672   2.964
10639SOL     OW32815   0.383   2.847   2.925
10639SOL    HW132816   0.372   2.894   2.838
10639SOL    HW232817   0.305   2.868   2.985
10640SOL     OW32818   3.941   0.294   5.633
10640SOL    HW132819   3.985   0.359   5.572
10640SOL    HW232820   3.896   0.344   5.708
10641SOL     OW32821   3.793   2.374   0.164
10641SOL    HW132822   3.838   2.307   0.105
10641SOL    HW232823   3.742   2.439   0.108
10642SOL     OW32824   6.780   2.556   1.563
10642SOL    HW132825   6.864   2.532   1.513
10642SOL    HW232826   6.781   2.653   1.585
10643SOL     OW32827   2.179   4.443   5.569
10643SOL    HW132828   2.104   4.495   5.610
10643SOL    HW232829   2.158   4.423   5.474
10644SOL     OW32830   5.707   2.024   3.136
10644SOL    HW132831   5.624   1.980   3.170
10644SOL    HW232832   5.779   2.015   3.204
10645SOL     OW32833   0.168   1.300   4.524
10645SOL    HW132834   0.259   1.310   4.563
10645SOL    HW232835   0.158   1.209   4.483
10646SOL     OW32836   0.392   1.522   5.960
10646SOL    HW132837   0.396   1.510   5.861
10646SOL    HW232838   0.443   1.605   5.985
10647SOL     OW32839   3.922   5.571   0.269
10647SOL    HW132840   4.011   5.530   0.245
10647SOL    HW232841   3.851   5.532   0.209
10648SOL     OW32842   4.332   4.302   6.590
10648SOL    HW132843   4.311   4.385   6.642
10648SOL    HW232844   4.318   4.320   6.492
10649SOL     OW32845   0.699   4.194   3.059
10649SOL    HW132846   0.613   4.214   3.012
10649SOL    HW232847   0.725   4.099   3.042
10650SOL     OW32848   1.518   6.223   3.122
10650SOL    HW132849   1.611   6.220   3.157
10650SOL    HW232850   1.498   6.316   3.089
10651SOL     OW32851   4.705   6.734   5.942
10651SOL    HW132852   4.775   6.677   5.898
10651SOL    HW232853   4.623   6.735   5.885
10652SOL     OW32854   3.113   0.135   6.444
10652SOL    HW132855   3.207   0.148   6.474
10652SOL    HW232856   3.051   0.145   6.521
10653SOL     OW32857   5.364   4.224   4.328
10653SOL    HW132858   5.454   4.199   4.293
10653SOL    HW232859   5.317   4.142   4.362
10654SOL     OW32860   4.458   1.138   0.756
10654SOL    HW132861   4.369   1.161   0.794
10654SOL    HW232862   4.451   1.054   0.703
10655SOL     OW32863   2.669   5.357   1.376
10655SOL    HW132864   2.677   5.449   1.337
10655SOL    HW232865   2.647   5.364   1.473
10656SOL     OW32866   6.035   2.335   0.202
10656SOL    HW132867   6.133   2.319   0.208
10656SOL    HW232868   5.994   2.323   0.293
10657SOL     OW32869   6.585   6.656   0.005
10657SOL    HW132870   6.678   6.660   0.040
10657SOL    HW232871   6.568   6.734   6.962
10658SOL     OW32872   6.724   4.026   4.385
10658SOL    HW132873   6.659   4.041   4.460
10658SOL    HW232874   6.749   3.930   4.381
10659SOL     OW32875   6.423   6.143   0.949
10659SOL    HW132876   6.435   6.052   0.988
10659SOL    HW232877   6.503   6.199   0.969
10660SOL     OW32878   5.401   4.511   6.377
10660SOL    HW132879   5.433   4.533   6.285
10660SOL    HW232880   5.302   4.497   6.376
10661SOL     OW32881   0.521   6.497   2.356
10661SOL    HW132882   0.531   6.593   2.331
10661SOL    HW232883   0.448   6.488   2.424
10662SOL     OW32884   5.887   0.639   1.989
10662SOL    HW132885   5.858   0.562   1.933
10662SOL    HW232886   5.961   0.611   2.050
10663SOL     OW32887   0.052   0.119   1.613
10663SOL    HW132888   0.063   0.109   1.712
10663SOL    HW232889   6.972   0.128   1.591
10664SOL     OW32890   1.956   4.274   5.473
10664SOL    HW132891   1.989   4.319   5.390
10664SOL    HW232892   1.937   4.343   5.543
10665SOL     OW32893   0.581   0.367   0.723
10665SOL    HW132894   0.535   0.447   0.685
10665SOL    HW232895   0.671   0.393   0.758
10666SOL     OW32896   3.689   4.935   0.697
10666SOL    HW132897   3.673   4.875   0.776
10666SOL    HW232898   3.604   4.948   0.647
10667SOL     OW32899   3.476   2.661   5.381
10667SOL    HW132900   3.550   2.690   5.321
10667SOL    HW232901   3.466   2.562   5.377
10668SOL     OW32902   1.187   1.543   5.102
10668SOL    HW132903   1.114   1.477   5.087
10668SOL    HW232904   1.272   1.509   5.062
10669SOL     OW32905   6.115   6.508   0.778
10669SOL    HW132906   6.161   6.571   0.840
10669SOL    HW232907   6.037   6.555   0.736
10670SOL     OW32908   4.896   4.393   5.329
10670SOL    HW132909   4.967   4.361   5.392
10670SOL    HW232910   4.836   4.316   5.305
10671SOL     OW32911   2.469   2.381   2.520
10671SOL    HW132912   2.499   2.416   2.431
10671SOL    HW232913   2.383   2.332   2.508
10672SOL     OW32914   0.025   2.532   0.538
10672SOL    HW132915   0.001   2.457   0.477
10672SOL    HW232916   0.123   2.552   0.530
10673SOL     OW32917   1.839   2.355   6.411
10673SOL    HW132918   1.891   2.425   6.459
10673SOL    HW232919   1.900   2.280   6.385
10674SOL     OW32920   3.579   3.320   0.797
10674SOL    HW132921   3.595   3.222   0.812
10674SOL    HW232922   3.604   3.370   0.880
10675SOL     OW32923   1.587   0.540   6.275
10675SOL    HW132924   1.615   0.562   6.369
10675SOL    HW232925   1.659   0.486   6.231
10676SOL     OW32926   6.561   6.951   6.272
10676SOL    HW132927   6.529   6.858   6.285
10676SOL    HW232928   6.516   6.992   6.193
10677SOL     OW32929   0.583   0.219   2.270
10677SOL    HW132930   0.518   0.195   2.198
10677SOL    HW232931   0.599   0.318   2.269
10678SOL     OW32932   3.702   5.200   3.274
10678SOL    HW132933   3.658   5.219   3.186
10678SOL    HW232934   3.801   5.211   3.266
10679SOL     OW32935   4.952   4.666   5.986
10679SOL    HW132936   4.997   4.578   6.003
10679SOL    HW232937   4.889   4.656   5.909
10680SOL     OW32938   2.117   2.390   3.984
10680SOL    HW132939   2.073   2.470   3.943
10680SOL    HW232940   2.177   2.420   4.058
10681SOL     OW32941   0.247   3.900   6.469
10681SOL    HW132942   0.311   3.962   6.423
10681SOL    HW232943   0.272   3.806   6.449
10682SOL     OW32944   2.005   2.053   3.009
10682SOL    HW132945   1.919   2.059   2.957
10682SOL    HW232946   1.990   2.000   3.092
10683SOL     OW32947   3.128   1.633   3.743
10683SOL    HW132948   3.128   1.622   3.643
10683SOL    HW232949   3.101   1.726   3.766
10684SOL     OW32950   4.316   3.734   0.343
10684SOL    HW132951   4.246   3.695   0.283
10684SOL    HW232952   4.393   3.766   0.287
10685SOL     OW32953   6.670   4.063   2.042
10685SOL    HW132954   6.764   4.039   2.064
10685SOL    HW232955   6.642   4.016   1.958
10686SOL     OW32956   4.379   5.145   6.593
10686SOL    HW132957   4.297   5.196   6.568
10686SOL    HW232958   4.405   5.084   6.519
10687SOL     OW32959   0.157   4.722   1.985
10687SOL    HW132960   0.235   4.663   1.965
10687SOL    HW232961   0.180   4.817   1.965
10688SOL     OW32962   6.028   4.327   2.586
10688SOL    HW132963   6.094   4.253   2.577
10688SOL    HW232964   6.062   4.394   2.652
10689SOL     OW32965   0.397   0.244   3.241
10689SOL    HW132966   0.432   0.173   3.179
10689SOL    HW232967   0.343   0.310   3.188
10690SOL     OW32968   5.960   5.519   3.880
10690SOL    HW132969   5.990   5.462   3.957
10690SOL    HW232970   5.865   5.545   3.893
10691SOL     OW32971   6.978   1.827   2.377
10691SOL    HW132972   7.013   1.879   2.298
10691SOL    HW232973   0.010   1.855   2.459
10692SOL     OW32974   3.696   5.286   3.738
10692SOL    HW132975   3.794   5.292   3.718
10692SOL    HW232976   3.647   5.256   3.657
10693SOL     OW32977   1.839   0.785   1.797
10693SOL    HW132978   1.909   0.797   1.868
10693SOL    HW232979   1.804   0.874   1.769
10694SOL     OW32980   3.419   6.344   1.139
10694SOL    HW132981   3.451   6.419   1.081
10694SOL    HW232982   3.466   6.260   1.113
10695SOL     OW32983   6.232   2.129   3.311
10695SOL    HW132984   6.214   2.104   3.216
10695SOL    HW232985   6.255   2.047   3.364
10696SOL     OW32986   0.052   5.113   2.133
10696SOL    HW132987   0.112   5.065   2.069
10696SOL    HW232988   7.011   5.177   2.083
10697SOL     OW32989   0.090   6.312   4.073
10697SOL    HW132990   0.186   6.304   4.048
10697SOL    HW232991   0.083   6.352   4.164
10698SOL     OW32992   3.245   6.725   4.055
10698SOL    HW132993   3.329   6.768   4.088
10698SOL    HW232994   3.246   6.627   4.079
10699SOL     OW32995   4.783   1.678   2.630
10699SOL    HW132996   4.816   1.728   2.710
10699SOL    HW232997   4.856   1.618   2.596
10700SOL     OW32998   0.875   0.222   0.368
10700SOL    HW132999   0.861   0.216   0.269
10700SOL    HW233000   0.787   0.228   0.414
10701SOL     OW33001   4.427   5.970   6.819
10701SOL    HW133002   4.388   5.889   6.863
10701SOL    HW233003   4.454   5.948   6.726
10702SOL     OW33004   5.610   2.473   2.163
10702SOL    HW133005   5.634   2.476   2.260
10702SOL    HW233006   5.513   2.493   2.152
10703SOL     OW33007   3.786   2.988   3.873
10703SOL    HW133008   3.816   3.037   3.955
10703SOL    HW233009   3.847   3.010   3.797
10704SOL     OW33010   4.784   5.917   1.858
10704SOL    HW133011   4.733   5.978   1.918
10704SOL    HW233012   4.874   5.957   1.839
10705SOL     OW33013   1.012   3.644   0.296
10705SOL    HW133014   1.084   3.645   0.365
10705SOL    HW233015   0.960   3.729   0.302
10706SOL     OW33016   4.737   7.013   1.911
10706SOL    HW133017   4.731   6.913   1.911
10706SOL    HW233018   4.661   0.034   1.859
10707SOL     OW33019   0.291   6.823   4.701
10707SOL    HW133020   0.229   6.797   4.776
10707SOL    HW233021   0.382   6.841   4.737
10708SOL     OW33022   5.040   1.045   1.629
10708SOL    HW133023   4.998   1.122   1.677
10708SOL    HW233024   5.037   1.061   1.530
10709SOL     OW33025   6.211   0.843   5.270
10709SOL    HW133026   6.300   0.880   5.300
10709SOL    HW233027   6.138   0.889   5.320
10710SOL     OW33028   0.839   6.706   4.761
10710SOL    HW133029   0.841   6.804   4.741
10710SOL    HW233030   0.921   6.681   4.814
10711SOL     OW33031   1.714   6.945   3.971
10711SOL    HW133032   1.758   6.983   3.889
10711SOL    HW233033   1.754   6.987   4.053
10712SOL     OW33034   4.039   0.947   3.682
10712SOL    HW133035   4.094   0.910   3.607
10712SOL    HW233036   4.053   1.045   3.689
10713SOL     OW33037   1.819   4.977   1.568
10713SOL    HW133038   1.827   5.072   1.541
10713SOL    HW233039   1.729   4.942   1.541
10714SOL     OW33040   6.883   3.794   5.355
10714SOL    HW133041   6.914   3.722   5.293
10714SOL    HW233042   6.901   3.768   5.449
10715SOL     OW33043   5.012   0.332   2.814
10715SOL    HW133044   5.014   0.246   2.864
10715SOL    HW233045   4.939   0.330   2.747
10716SOL     OW33046   0.162   1.768   3.725
10716SOL    HW133047   0.235   1.709   3.761
10716SOL    HW233048   0.103   1.715   3.664
10717SOL     OW33049   0.398   1.298   0.978
10717SOL    HW133050   0.473   1.245   1.017
10717SOL    HW233051   0.352   1.243   0.908
10718SOL     OW33052   6.760   4.537   0.412
10718SOL    HW133053   6.697   4.560   0.486
10718SOL    HW233054   6.720   4.465   0.356
10719SOL     OW33055   5.122   6.574   2.032
10719SOL    HW133056   5.073   6.517   1.965
10719SOL    HW233057   5.165   6.650   1.985
10720SOL     OW33058   6.229   3.606   6.066
10720SOL    HW133059   6.177   3.602   6.152
10720SOL    HW233060   6.240   3.701   6.038
10721SOL     OW33061   6.318   2.064   4.254
10721SOL    HW133062   6.408   2.062   4.212
10721SOL    HW233063   6.266   2.143   4.220
10722SOL     OW33064   0.418   3.538   6.977
10722SOL    HW133065   0.411   3.467   0.030
10722SOL    HW233066   0.413   3.628   0.003
10723SOL     OW33067   5.433   3.930   6.608
10723SOL    HW133068   5.358   3.950   6.672
10723SOL    HW233069   5.472   3.841   6.631
10724SOL     OW33070   4.221   6.646   5.950
10724SOL    HW133071   4.249   6.717   6.014
10724SOL    HW233072   4.121   6.642   5.946
10725SOL     OW33073   0.423   5.669   4.242
10725SOL    HW133074   0.474   5.630   4.165
10725SOL    HW233075   0.325   5.667   4.222
10726SOL     OW33076   6.108   0.057   4.680
10726SOL    HW133077   6.191   0.105   4.653
10726SOL    HW233078   6.116   6.978   4.655
10727SOL     OW33079   1.772   5.402   5.550
10727SOL    HW133080   1.825   5.318   5.547
10727SOL    HW233081   1.678   5.381   5.576
10728SOL     OW33082   5.724   6.389   2.751
10728SOL    HW133083   5.633   6.424   2.733
10728SOL    HW233084   5.791   6.445   2.702
10729SOL     OW33085   6.334   1.727   2.552
10729SOL    HW133086   6.238   1.729   2.522
10729SOL    HW233087   6.338   1.705   2.649
10730SOL     OW33088   2.526   6.504   2.068
10730SOL    HW133089   2.518   6.405   2.069
10730SOL    HW233090   2.457   6.543   2.130
10731SOL     OW33091   2.412   5.758   0.686
10731SOL    HW133092   2.349   5.727   0.757
10731SOL    HW233093   2.445   5.679   0.634
10732SOL     OW33094   6.882   6.900   2.971
10732SOL    HW133095   6.855   6.991   2.940
10732SOL    HW233096   6.811   6.861   3.029
10733SOL     OW33097   6.221   2.206   6.860
10733SOL    HW133098   6.319   2.214   6.842
10733SOL    HW233099   6.170   2.231   6.779
10734SOL     OW33100   0.351   0.629   6.460
10734SOL    HW133101   0.266   0.634   6.513
10734SOL    HW233102   0.345   0.555   6.394
10735SOL     OW33103   0.855   5.136   2.285
10735SOL    HW133104   0.849   5.119   2.384
10735SOL    HW233105   0.901   5.223   2.269
10736SOL     OW33106   0.517   1.126   3.104
10736SOL    HW133107   0.459   1.052   3.070
10736SOL    HW233108   0.609   1.115   3.067
10737SOL     OW33109   0.816   1.759   0.748
10737SOL    HW133110   0.813   1.675   0.695
10737SOL    HW233111   0.888   1.752   0.817
10738SOL     OW33112   2.484   0.261   2.821
10738SOL    HW133113   2.442   0.224   2.737
10738SOL    HW233114   2.580   0.235   2.825
10739SOL     OW33115   6.523   2.116   2.129
10739SOL    HW133116   6.496   2.020   2.127
10739SOL    HW233117   6.609   2.125   2.178
10740SOL     OW33118   1.244   6.337   5.447
10740SOL    HW133119   1.236   6.435   5.465
10740SOL    HW233120   1.174   6.288   5.500
10741SOL     OW33121   1.781   1.677   3.320
10741SOL    HW133122   1.699   1.717   3.280
10741SOL    HW233123   1.858   1.739   3.308
10742SOL     OW33124   5.760   6.331   2.305
10742SOL    HW133125   5.677   6.279   2.325
10742SOL    HW233126   5.808   6.289   2.228
10743SOL     OW33127   3.216   1.286   4.559
10743SOL    HW133128   3.287   1.216   4.568
10743SOL    HW233129   3.170   1.299   4.646
10744SOL     OW33130   3.417   1.501   1.838
10744SOL    HW133131   3.360   1.423   1.812
10744SOL    HW233132   3.405   1.520   1.936
10745SOL     OW33133   2.055   4.787   0.582
10745SOL    HW133134   2.150   4.757   0.593
10745SOL    HW233135   2.052   4.887   0.588
10746SOL     OW33136   2.268   5.642   1.077
10746SOL    HW133137   2.316   5.554   1.085
10746SOL    HW233138   2.179   5.635   1.123
10747SOL     OW33139   5.306   1.522   3.408
10747SOL    HW133140   5.220   1.570   3.392
10747SOL    HW233141   5.288   1.425   3.424
10748SOL     OW33142   5.146   5.592   0.997
10748SOL    HW133143   5.068   5.589   1.060
10748SOL    HW233144   5.209   5.518   1.018
10749SOL     OW33145   6.675   4.758   2.680
10749SOL    HW133146   6.583   4.740   2.645
10749SOL    HW233147   6.705   4.848   2.650
10750SOL     OW33148   4.853   3.846   4.691
10750SOL    HW133149   4.951   3.838   4.709
10750SOL    HW233150   4.819   3.932   4.730
10751SOL     OW33151   1.352   3.014   5.067
10751SOL    HW133152   1.399   2.926   5.080
10751SOL    HW233153   1.413   3.088   5.096
10752SOL     OW33154   5.992   4.400   6.742
10752SOL    HW133155   5.976   4.303   6.762
10752SOL    HW233156   6.029   4.409   6.649
10753SOL     OW33157   5.188   0.183   3.726
10753SOL    HW133158   5.279   0.157   3.694
10753SOL    HW233159   5.184   0.282   3.738
10754SOL     OW33160   1.096   3.020   1.897
10754SOL    HW133161   1.182   3.035   1.847
10754SOL    HW233162   1.109   3.044   1.993
10755SOL     OW33163   6.719   2.228   0.702
10755SOL    HW133164   6.630   2.231   0.747
10755SOL    HW233165   6.773   2.307   0.729
10756SOL     OW33166   6.721   2.341   0.177
10756SOL    HW133167   6.723   2.320   0.275
10756SOL    HW233168   6.810   2.377   0.149
10757SOL     OW33169   0.055   3.765   0.771
10757SOL    HW133170   0.075   3.759   0.869
10757SOL    HW233171   6.994   3.706   0.750
10758SOL     OW33172   0.768   5.615   5.897
10758SOL    HW133173   0.700   5.681   5.865
10758SOL    HW233174   0.848   5.617   5.837
10759SOL     OW33175   1.715   3.578   6.128
10759SOL    HW133176   1.766   3.510   6.075
10759SOL    HW233177   1.662   3.636   6.066
10760SOL     OW33178   0.822   5.596   0.871
10760SOL    HW133179   0.882   5.535   0.923
10760SOL    HW233180   0.856   5.690   0.879
10761SOL     OW33181   1.114   2.683   6.189
10761SOL    HW133182   1.034   2.627   6.212
10761SOL    HW233183   1.146   2.660   6.097
10762SOL     OW33184   4.850   0.934   5.816
10762SOL    HW133185   4.787   0.857   5.811
10762SOL    HW233186   4.815   1.009   5.760
10763SOL     OW33187   4.959   0.342   1.714
10763SOL    HW133188   4.961   0.320   1.617
10763SOL    HW233189   4.866   0.326   1.749
10764SOL     OW33190   5.289   1.561   6.037
10764SOL    HW133191   5.299   1.660   6.029
10764SOL    HW233192   5.379   1.518   6.044
10765SOL     OW33193   5.684   1.285   2.107
10765SOL    HW133194   5.665   1.316   2.200
10765SOL    HW233195   5.671   1.361   2.043
10766SOL     OW33196   2.270   4.324   0.064
10766SOL    HW133197   2.316   4.235   0.063
10766SOL    HW233198   2.171   4.310   0.064
10767SOL     OW33199   1.747   6.401   0.792
10767SOL    HW133200   1.826   6.348   0.760
10767SOL    HW233201   1.778   6.467   0.861
10768SOL     OW33202   5.368   5.800   0.134
10768SOL    HW133203   5.362   5.899   0.132
10768SOL    HW233204   5.306   5.764   0.205
10769SOL     OW33205   2.771   4.435   5.382
10769SOL    HW133206   2.827   4.464   5.304
10769SOL    HW233207   2.674   4.450   5.362
10770SOL     OW33208   5.572   0.242   4.390
10770SOL    HW133209   5.652   0.284   4.432
10770SOL    HW233210   5.501   0.311   4.376
10771SOL     OW33211   4.232   0.247   5.405
10771SOL    HW133212   4.232   0.159   5.452
10771SOL    HW233213   4.150   0.255   5.348
10772SOL     OW33214   6.670   6.444   3.718
10772SOL    HW133215   6.579   6.413   3.690
10772SOL    HW233216   6.711   6.498   3.645
10773SOL     OW33217   6.957   4.442   6.717
10773SOL    HW133218   6.933   4.482   6.805
10773SOL    HW233219   6.909   4.492   6.644
10774SOL     OW33220   1.696   2.334   1.634
10774SOL    HW133221   1.677   2.267   1.562
10774SOL    HW233222   1.722   2.286   1.718
10775SOL     OW33223   2.024   4.298   1.252
10775SOL    HW133224   2.087   4.223   1.273
10775SOL    HW233225   2.067   4.361   1.187
10776SOL     OW33226   0.273   6.764   2.101
10776SOL    HW133227   0.229   6.678   2.075
10776SOL    HW233228   0.277   6.772   2.200
10777SOL     OW33229   4.204   0.320   3.458
10777SOL    HW133230   4.132   0.389   3.458
10777SOL    HW233231   4.196   0.264   3.541
10778SOL     OW33232   6.127   6.282   4.577
10778SOL    HW133233   6.158   6.364   4.530
10778SOL    HW233234   6.050   6.304   4.636
10779SOL     OW33235   6.339   4.327   2.593
10779SOL    HW133236   6.323   4.302   2.497
10779SOL    HW233237   6.411   4.396   2.597
10780SOL     OW33238   0.528   5.927   4.344
10780SOL    HW133239   0.493   5.841   4.306
10780SOL    HW233240   0.606   5.957   4.290
10781SOL     OW33241   5.290   1.083   4.400
10781SOL    HW133242   5.208   1.026   4.408
10781SOL    HW233243   5.368   1.032   4.436
10782SOL     OW33244   6.171   2.984   4.070
10782SOL    HW133245   6.092   2.971   4.010
10782SOL    HW233246   6.255   2.979   4.016
10783SOL     OW33247   2.130   3.022   2.412
10783SOL    HW133248   2.169   2.969   2.487
10783SOL    HW233249   2.198   3.088   2.380
10784SOL     OW33250   2.816   6.860   2.247
10784SOL    HW133251   2.909   6.890   2.227
10784SOL    HW233252   2.817   6.767   2.284
10785SOL     OW33253   1.398   5.192   1.321
10785SOL    HW133254   1.435   5.258   1.387
10785SOL    HW233255   1.382   5.237   1.234
10786SOL     OW33256   4.734   1.869   2.289
10786SOL    HW133257   4.823   1.828   2.272
10786SOL    HW233258   4.745   1.953   2.342
10787SOL     OW33259   3.482   1.032   4.289
10787SOL    HW133260   3.430   1.010   4.207
10787SOL    HW233261   3.465   1.127   4.314
10788SOL     OW33262   2.057   3.974   0.124
10788SOL    HW133263   1.994   4.050   0.138
10788SOL    HW233264   2.087   3.973   0.028
10789SOL     OW33265   6.534   0.596   0.090
10789SOL    HW133266   6.557   0.684   0.130
10789SOL    HW233267   6.521   0.607   7.009
10790SOL     OW33268   6.717   0.925   5.758
10790SOL    HW133269   6.643   0.939   5.823
10790SOL    HW233270   6.745   1.014   5.720
10791SOL     OW33271   2.140   1.665   1.573
10791SOL    HW133272   2.117   1.746   1.628
10791SOL    HW233273   2.061   1.604   1.569
10792SOL     OW33274   3.312   3.018   1.348
10792SOL    HW133275   3.404   3.055   1.340
10792SOL    HW233276   3.317   2.923   1.378
10793SOL     OW33277   5.263   2.275   4.214
10793SOL    HW133278   5.210   2.191   4.224
10793SOL    HW233279   5.220   2.348   4.268
10794SOL     OW33280   4.129   3.801   1.955
10794SOL    HW133281   4.191   3.758   2.020
10794SOL    HW233282   4.045   3.829   2.002
10795SOL     OW33283   6.562   3.608   2.590
10795SOL    HW133284   6.518   3.632   2.503
10795SOL    HW233285   6.537   3.514   2.616
10796SOL     OW33286   4.040   0.219   6.279
10796SOL    HW133287   3.957   0.270   6.255
10796SOL    HW233288   4.031   0.184   6.372
10797SOL     OW33289   4.111   2.697   0.402
10797SOL    HW133290   4.098   2.701   0.502
10797SOL    HW233291   4.200   2.657   0.382
10798SOL     OW33292   2.430   0.490   6.850
10798SOL    HW133293   2.334   0.518   6.845
10798SOL    HW233294   2.438   0.393   6.828
10799SOL     OW33295   3.453   2.126   2.473
10799SOL    HW133296   3.387   2.179   2.421
10799SOL    HW233297   3.406   2.057   2.528
10800SOL     OW33298   2.234   6.454   0.921
10800SOL    HW133299   2.169   6.497   0.983
10800SOL    HW233300   2.246   6.511   0.840
10801SOL     OW33301   1.938   6.526   4.935
10801SOL    HW133302   1.862   6.588   4.912
10801SOL    HW233303   1.901   6.442   4.974
10802SOL     OW33304   2.386   2.745   4.046
10802SOL    HW133305   2.424   2.653   4.042
10802SOL    HW233306   2.370   2.771   4.141
10803SOL     OW33307   5.251   4.404   5.139
10803SOL    HW133308   5.342   4.408   5.097
10803SOL    HW233309   5.217   4.497   5.154
10804SOL     OW33310   6.789   3.843   0.693
10804SOL    HW133311   6.823   3.831   0.787
10804SOL    HW233312   6.747   3.758   0.662
10805SOL     OW33313   3.240   7.009   6.735
10805SOL    HW133314   3.260   0.033   6.824
10805SOL    HW233315   3.226   6.910   6.746
10806SOL     OW33316   5.962   4.070   0.301
10806SOL    HW133317   5.958   3.973   0.276
10806SOL    HW233318   5.994   4.123   0.222
10807SOL     OW33319   3.307   6.739   3.585
10807SOL    HW133320   3.258   6.656   3.559
10807SOL    HW233321   3.249   6.819   3.567
10808SOL     OW33322   0.357   3.801   0.061
10808SOL    HW133323   0.388   3.892   0.034
10808SOL    HW233324   0.275   3.810   0.117
10809SOL     OW33325   2.910   0.567   4.214
10809SOL    HW133326   2.904   0.625   4.295
10809SOL    HW233327   2.877   0.618   4.134
10810SOL     OW33328   0.424   1.345   5.448
10810SOL    HW133329   0.459   1.289   5.522
10810SOL    HW233330   0.361   1.291   5.391
10811SOL     OW33331   3.819   5.095   5.957
10811SOL    HW133332   3.829   5.134   5.865
10811SOL    HW233333   3.727   5.059   5.969
10812SOL     OW33334   0.537   2.463   2.775
10812SOL    HW133335   0.612   2.489   2.836
10812SOL    HW233336   0.548   2.507   2.686
10813SOL     OW33337   2.708   6.062   1.440
10813SOL    HW133338   2.612   6.069   1.467
10813SOL    HW233339   2.714   6.019   1.350
10814SOL     OW33340   1.478   0.211   5.938
10814SOL    HW133341   1.540   0.133   5.941
10814SOL    HW233342   1.391   0.186   5.980
10815SOL     OW33343   4.769   4.667   3.595
10815SOL    HW133344   4.716   4.583   3.611
10815SOL    HW233345   4.767   4.689   3.498
10816SOL     OW33346   1.878   1.437   2.119
10816SOL    HW133347   1.820   1.366   2.079
10816SOL    HW233348   1.964   1.442   2.068
10817SOL     OW33349   5.420   6.529   2.792
10817SOL    HW133350   5.378   6.460   2.851
10817SOL    HW233351   5.410   6.619   2.834
10818SOL     OW33352   5.585   2.755   5.989
10818SOL    HW133353   5.516   2.806   6.040
10818SOL    HW233354   5.663   2.815   5.969
10819SOL     OW33355   1.119   3.498   6.509
10819SOL    HW133356   1.052   3.542   6.449
10819SOL    HW233357   1.173   3.432   6.456
10820SOL     OW33358   0.149   6.796   3.748
10820SOL    HW133359   0.074   6.780   3.812
10820SOL    HW233360   0.112   6.835   3.663
10821SOL     OW33361   6.339   5.935   2.767
10821SOL    HW133362   6.391   5.849   2.767
10821SOL    HW233363   6.397   6.009   2.733
10822SOL     OW33364   1.528   3.410   2.795
10822SOL    HW133365   1.449   3.461   2.760
10822SOL    HW233366   1.539   3.325   2.742
10823SOL     OW33367   1.734   5.961   1.477
10823SOL    HW133368   1.669   6.037   1.464
10823SOL    HW233369   1.713   5.914   1.563
10824SOL     OW33370   5.262   0.040   3.472
10824SOL    HW133371   5.235   6.966   3.501
10824SOL    HW233372   5.361   0.050   3.478
10825SOL     OW33373   2.285   1.482   0.826
10825SOL    HW133374   2.356   1.552   0.836
10825SOL    HW233375   2.239   1.493   0.738
10826SOL     OW33376   6.525   3.489   2.102
10826SOL    HW133377   6.580   3.460   2.181
10826SOL    HW233378   6.572   3.563   2.053
10827SOL     OW33379   6.346   3.686   3.745
10827SOL    HW133380   6.293   3.605   3.769
10827SOL    HW233381   6.419   3.700   3.813
10828SOL     OW33382   0.942   6.105   1.620
10828SOL    HW133383   0.845   6.105   1.646
10828SOL    HW233384   0.951   6.135   1.525
10829SOL     OW33385   2.487   3.001   1.277
10829SOL    HW133386   2.523   3.025   1.187
10829SOL    HW233387   2.389   2.984   1.270
10830SOL     OW33388   5.889   2.640   4.127
10830SOL    HW133389   5.936   2.725   4.106
10830SOL    HW233390   5.798   2.660   4.164
10831SOL     OW33391   5.098   0.121   1.777
10831SOL    HW133392   5.084   0.094   1.872
10831SOL    HW233393   5.055   0.210   1.761
10832SOL     OW33394   0.634   2.149   0.867
10832SOL    HW133395   0.594   2.109   0.785
10832SOL    HW233396   0.562   2.169   0.933
10833SOL     OW33397   2.042   0.466   3.489
10833SOL    HW133398   2.023   0.554   3.531
10833SOL    HW233399   2.134   0.466   3.449
10834SOL     OW33400   0.222   1.360   4.921
10834SOL    HW133401   0.180   1.401   4.839
10834SOL    HW233402   0.301   1.414   4.948
10835SOL     OW33403   6.364   1.800   1.559
10835SOL    HW133404   6.354   1.899   1.564
10835SOL    HW233405   6.461   1.777   1.544
10836SOL     OW33406   6.761   2.117   5.289
10836SOL    HW133407   6.708   2.130   5.206
10836SOL    HW233408   6.836   2.052   5.271
10837SOL     OW33409   0.142   4.575   0.064
10837SOL    HW133410   0.107   4.563   0.156
10837SOL    HW233411   0.180   4.489   0.031
10838SOL     OW33412   5.641   0.385   5.637
10838SOL    HW133413   5.592   0.472   5.632
10838SOL    HW233414   5.681   0.364   5.548
10839SOL     OW33415   2.751   2.581   0.181
10839SOL    HW133416   2.724   2.533   0.097
10839SOL    HW233417   2.785   2.672   0.158
10840SOL     OW33418   3.703   5.841   1.561
10840SOL    HW133419   3.704   5.873   1.656
10840SOL    HW233420   3.690   5.918   1.499
10841SOL     OW33421   3.708   5.933   5.602
10841SOL    HW133422   3.719   5.834   5.610
10841SOL    HW233423   3.659   5.968   5.683
10842SOL     OW33424   6.155   2.837   0.937
10842SOL    HW133425   6.127   2.743   0.958
10842SOL    HW233426   6.250   2.837   0.906
10843SOL     OW33427   0.962   2.186   1.520
10843SOL    HW133428   1.004   2.098   1.498
10843SOL    HW233429   1.025   2.241   1.574
10844SOL     OW33430   6.516   6.414   4.429
10844SOL    HW133431   6.599   6.405   4.485
10844SOL    HW233432   6.542   6.431   4.334
10845SOL     OW33433   1.546   0.948   1.456
10845SOL    HW133434   1.588   0.899   1.379
10845SOL    HW233435   1.616   1.001   1.504
10846SOL     OW33436   4.624   2.038   0.589
10846SOL    HW133437   4.688   2.115   0.585
10846SOL    HW233438   4.647   1.971   0.518
10847SOL     OW33439   2.307   2.035   6.020
10847SOL    HW133440   2.309   2.068   6.115
10847SOL    HW233441   2.272   2.107   5.961
10848SOL     OW33442   2.706   1.639   0.066
10848SOL    HW133443   2.698   1.737   0.046
10848SOL    HW233444   2.648   1.617   0.144
10849SOL     OW33445   3.902   4.898   3.828
10849SOL    HW133446   3.913   4.908   3.927
10849SOL    HW233447   3.807   4.872   3.809
10850SOL     OW33448   3.789   7.003   6.864
10850SOL    HW133449   3.761   6.985   6.958
10850SOL    HW233450   3.768   6.924   6.807
10851SOL     OW33451   2.771   3.091   6.013
10851SOL    HW133452   2.710   3.031   5.960
10851SOL    HW233453   2.716   3.157   6.064
10852SOL     OW33454   0.152   0.604   6.679
10852SOL    HW133455   0.195   0.551   6.752
10852SOL    HW233456   0.096   0.676   6.720
10853SOL     OW33457   3.810   2.091   4.268
10853SOL    HW133458   3.746   2.124   4.337
10853SOL    HW233459   3.758   2.054   4.190
10854SOL     OW33460   6.121   0.279   6.767
10854SOL    HW133461   6.038   0.333   6.784
10854SOL    HW233462   6.150   0.235   6.852
10855SOL     OW33463   2.655   6.140   2.597
10855SOL    HW133464   2.556   6.149   2.583
10855SOL    HW233465   2.684   6.048   2.572
10856SOL     OW33466   6.201   0.214   0.985
10856SOL    HW133467   6.135   0.233   0.913
10856SOL    HW233468   6.285   0.178   0.945
10857SOL     OW33469   6.347   2.962   3.197
10857SOL    HW133470   6.307   3.050   3.171
10857SOL    HW233471   6.399   2.973   3.281
10858SOL     OW33472   1.833   2.968   7.013
10858SOL    HW133473   1.770   3.003   6.944
10858SOL    HW233474   1.887   3.043   0.033
10859SOL     OW33475   1.557   3.677   3.304
10859SOL    HW133476   1.617   3.597   3.301
10859SOL    HW233477   1.529   3.701   3.211
10860SOL     OW33478   6.721   0.975   6.916
10860SOL    HW133479   6.801   0.920   6.940
10860SOL    HW233480   6.709   0.976   6.817
10861SOL     OW33481   3.616   2.759   1.842
10861SOL    HW133482   3.701   2.744   1.791
10861SOL    HW233483   3.615   2.702   1.924
10862SOL     OW33484   2.467   1.821   6.258
10862SOL    HW133485   2.564   1.803   6.275
10862SOL    HW233486   2.456   1.913   6.221
10863SOL     OW33487   2.815   0.414   3.015
10863SOL    HW133488   2.730   0.461   3.040
10863SOL    HW233489   2.826   0.417   2.916
10864SOL     OW33490   2.061   4.489   1.468
10864SOL    HW133491   2.153   4.453   1.452
10864SOL    HW233492   2.001   4.463   1.391
10865SOL     OW33493   5.713   3.192   3.613
10865SOL    HW133494   5.792   3.143   3.577
10865SOL    HW233495   5.708   3.282   3.569
10866SOL     OW33496   5.744   3.246   1.165
10866SOL    HW133497   5.654   3.234   1.209
10866SOL    HW233498   5.781   3.157   1.140
10867SOL     OW33499   2.707   2.888   0.454
10867SOL    HW133500   2.675   2.798   0.484
10867SOL    HW233501   2.807   2.887   0.445
10868SOL     OW33502   1.070   2.126   2.991
10868SOL    HW133503   1.100   2.121   3.086
10868SOL    HW233504   0.975   2.158   2.987
10869NA      NA33505   0.982   1.899   6.137
10870NA      NA33506   4.515   4.547   5.133
10871NA      NA33507   1.805   4.720   2.759
10872NA      NA33508   5.129   4.419   3.753
10873NA      NA33509   4.310   2.429   5.319
10874NA      NA33510   3.053   4.798   1.477
10875NA      NA33511   1.253   4.759   0.017
10876NA      NA33512   4.005   4.385   1.610
10877NA      NA33513   4.642   3.955   1.000
10878NA      NA33514   3.665   1.192   5.678
10879NA      NA33515   4.830   5.686   1.800
10880NA      NA33516   1.491   0.328   5.739
10881NA      NA33517   4.974   4.801   2.132
10882NA      NA33518   3.433   3.354   0.326
   7.01759   7.01759   7.01759
