Generated by trjconv : CNT in water t= 399.00000
33518
    1C        C    1   2.844   2.769   4.749
    1C        C    2   2.899   2.720   4.869
    1C        C    3   2.841   2.772   4.985
    1C        C    4   2.856   2.781   4.261
    1C        C    5   2.907   2.733   4.383
    1C        C    6   2.849   2.774   4.505
    1C        C    7   3.013   2.640   4.626
    1C        C    8   2.896   2.720   4.627
    1C        C    9   3.077   2.600   4.746
    1C        C   10   3.007   2.629   4.865
    1C        C   11   3.185   2.498   4.980
    1C        C   12   3.060   2.560   4.975
    1C        C   13   2.848   2.768   3.771
    1C        C   14   2.902   2.725   3.894
    1C        C   15   2.850   2.776   4.015
    1C        C   16   3.014   2.643   4.140
    1C        C   17   2.906   2.734   4.138
    1C        C   18   3.077   2.609   4.262
    1C        C   19   3.018   2.645   4.385
    1C        C   20   3.207   2.548   4.504
    1C        C   21   3.077   2.603   4.506
    1C        C   22   3.277   2.530   4.625
    1C        C   23   3.206   2.542   4.747
    1C        C   24   3.414   2.483   4.865
    1C        C   25   3.272   2.500   4.866
    1C        C   26   3.492   2.480   4.981
    1C        C   27   2.855   2.773   3.280
    1C        C   28   2.911   2.727   3.402
    1C        C   29   2.859   2.774   3.524
    1C        C   30   3.019   2.642   3.650
    1C        C   31   2.908   2.730   3.649
    1C        C   32   3.079   2.606   3.773
    1C        C   33   3.018   2.644   3.895
    1C        C   34   3.207   2.553   4.015
    1C        C   35   3.076   2.606   4.018
    1C        C   36   3.275   2.530   4.137
    1C        C   37   3.208   2.556   4.259
    1C        C   38   3.413   2.504   4.381
    1C        C   39   3.274   2.530   4.381
    1C        C   40   3.484   2.494   4.503
    1C        C   41   3.414   2.494   4.625
    1C        C   42   3.631   2.484   4.743
    1C        C   43   3.488   2.480   4.744
    1C        C   44   3.706   2.477   4.862
    1C        C   45   3.630   2.467   4.979
    1C        C   46   2.843   2.755   2.792
    1C        C   47   2.896   2.711   2.915
    1C        C   48   2.843   2.760   3.036
    1C        C   49   3.013   2.632   3.160
    1C        C   50   2.903   2.721   3.158
    1C        C   51   3.078   2.601   3.282
    1C        C   52   3.024   2.643   3.406
    1C        C   53   3.209   2.545   3.528
    1C        C   54   3.080   2.602   3.529
    1C        C   55   3.277   2.526   3.651
    1C        C   56   3.209   2.550   3.772
    1C        C   57   3.414   2.500   3.894
    1C        C   58   3.276   2.530   3.895
    1C        C   59   3.486   2.495   4.016
    1C        C   60   3.415   2.510   4.137
    1C        C   61   3.626   2.497   4.260
    1C        C   62   3.485   2.500   4.259
    1C        C   63   3.699   2.505   4.381
    1C        C   64   3.625   2.501   4.501
    1C        C   65   3.835   2.548   4.623
    1C        C   66   3.699   2.510   4.622
    1C        C   67   3.905   2.565   4.744
    1C        C   68   3.840   2.522   4.862
    1C        C   69   4.047   2.590   4.978
    1C        C   70   3.925   2.522   4.974
    1C        C   71   2.828   2.737   2.306
    1C        C   72   2.887   2.698   2.428
    1C        C   73   2.835   2.747   2.550
    1C        C   74   3.012   2.626   2.672
    1C        C   75   2.894   2.704   2.671
    1C        C   76   3.072   2.592   2.795
    1C        C   77   3.012   2.630   2.917
    1C        C   78   3.209   2.549   3.039
    1C        C   79   3.077   2.598   3.039
    1C        C   80   3.277   2.529   3.161
    1C        C   81   3.207   2.544   3.283
    1C        C   82   3.413   2.499   3.399
    1C        C   83   3.274   2.520   3.405
    1C        C   84   3.482   2.490   3.521
    1C        C   85   3.415   2.496   3.645
    1C        C   86   3.623   2.494   3.768
    1C        C   87   3.482   2.491   3.770
    1C        C   88   3.695   2.508   3.889
    1C        C   89   3.627   2.501   4.012
    1C        C   90   3.830   2.546   4.137
    1C        C   91   3.694   2.506   4.136
    1C        C   92   3.899   2.573   4.258
    1C        C   93   3.834   2.545   4.380
    1C        C   94   4.025   2.640   4.501
    1C        C   95   3.903   2.569   4.501
    1C        C   96   4.089   2.675   4.622
    1C        C   97   4.028   2.635   4.743
    1C        C   98   4.196   2.764   4.864
    1C        C   99   4.100   2.658   4.863
    1C        C  100   4.213   2.843   4.978
    1C        C  101   2.823   2.725   2.068
    1C        C  102   2.991   2.589   2.191
    1C        C  103   2.877   2.675   2.187
    1C        C  104   3.066   2.577   2.311
    1C        C  105   3.004   2.620   2.430
    1C        C  106   3.201   2.530   2.553
    1C        C  107   3.073   2.589   2.550
    1C        C  108   3.270   2.508   2.674
    1C        C  109   3.201   2.532   2.794
    1C        C  110   3.408   2.484   2.914
    1C        C  111   3.271   2.518   2.915
    1C        C  112   3.484   2.480   3.033
    1C        C  113   3.415   2.499   3.155
    1C        C  114   3.627   2.492   3.282
    1C        C  115   3.485   2.496   3.277
    1C        C  116   3.696   2.502   3.404
    1C        C  117   3.624   2.496   3.525
    1C        C  118   3.828   2.552   3.647
    1C        C  119   3.695   2.506   3.647
    1C        C  120   3.894   2.576   3.770
    1C        C  121   3.831   2.548   3.893
    1C        C  122   4.021   2.640   4.014
    1C        C  123   3.895   2.575   4.015
    1C        C  124   4.084   2.679   4.135
    1C        C  125   4.024   2.640   4.256
    1C        C  126   4.191   2.770   4.377
    1C        C  127   4.083   2.679   4.378
    1C        C  128   4.243   2.821   4.498
    1C        C  129   4.197   2.766   4.620
    1C        C  130   4.327   2.936   4.738
    1C        C  131   4.245   2.819   4.742
    1C        C  132   4.359   3.002   4.858
    1C        C  133   4.287   2.961   4.972
    1C        C  134   3.173   2.461   2.079
    1C        C  135   3.040   2.506   2.085
    1C        C  136   3.258   2.476   2.190
    1C        C  137   3.195   2.516   2.309
    1C        C  138   3.405   2.485   2.427
    1C        C  139   3.264   2.497   2.431
    1C        C  140   3.479   2.475   2.547
    1C        C  141   3.409   2.482   2.669
    1C        C  142   3.621   2.494   2.791
    1C        C  143   3.480   2.483   2.792
    1C        C  144   3.693   2.501   2.912
    1C        C  145   3.625   2.489   3.035
    1C        C  146   3.830   2.540   3.154
    1C        C  147   3.694   2.502   3.158
    1C        C  148   3.893   2.571   3.277
    1C        C  149   3.832   2.543   3.401
    1C        C  150   4.022   2.633   3.523
    1C        C  151   3.895   2.572   3.524
    1C        C  152   4.082   2.668   3.646
    1C        C  153   4.020   2.640   3.770
    1C        C  154   4.193   2.764   3.885
    1C        C  155   4.082   2.677   3.892
    1C        C  156   4.242   2.813   4.008
    1C        C  157   4.194   2.767   4.132
    1C        C  158   4.335   2.925   4.254
    1C        C  159   4.245   2.816   4.254
    1C        C  160   4.381   2.983   4.375
    1C        C  161   4.333   2.929   4.496
    1C        C  162   4.438   3.118   4.614
    1C        C  163   4.364   2.997   4.616
    1C        C  164   4.466   3.183   4.736
    1C        C  165   4.437   3.119   4.858
    1C        C  166   4.517   3.319   4.973
    1C        C  167   4.474   3.187   4.975
    1C        C  168   3.474   2.440   2.070
    1C        C  169   3.397   2.454   2.187
    1C        C  170   3.616   2.465   2.306
    1C        C  171   3.474   2.461   2.305
    1C        C  172   3.690   2.488   2.424
    1C        C  173   3.620   2.483   2.546
    1C        C  174   3.826   2.538   2.666
    1C        C  175   3.690   2.500   2.668
    1C        C  176   3.895   2.560   2.787
    1C        C  177   3.830   2.535   2.910
    1C        C  178   4.022   2.628   3.032
    1C        C  179   3.898   2.561   3.032
    1C        C  180   4.078   2.673   3.153
    1C        C  181   4.017   2.640   3.276
    1C        C  182   4.188   2.762   3.398
    1C        C  183   4.076   2.677   3.400
    1C        C  184   4.242   2.808   3.520
    1C        C  185   4.192   2.757   3.642
    1C        C  186   4.339   2.915   3.762
    1C        C  187   4.242   2.812   3.762
    1C        C  188   4.373   2.976   3.885
    1C        C  189   4.331   2.923   4.009
    1C        C  190   4.445   3.103   4.127
    1C        C  191   4.373   2.981   4.131
    1C        C  192   4.470   3.173   4.247
    1C        C  193   4.444   3.110   4.371
    1C        C  194   4.506   3.316   4.495
    1C        C  195   4.470   3.179   4.491
    1C        C  196   4.520   3.390   4.615
    1C        C  197   4.508   3.319   4.736
    1C        C  198   4.557   3.534   4.850
    1C        C  199   4.530   3.394   4.855
    1C        C  200   4.582   3.621   4.962
    1C        C  201   3.612   2.419   2.070
    1C        C  202   3.824   2.505   2.181
    1C        C  203   3.688   2.462   2.184
    1C        C  204   3.895   2.543   2.299
    1C        C  205   3.826   2.527   2.421
    1C        C  206   4.019   2.618   2.541
    1C        C  207   3.892   2.557   2.542
    1C        C  208   4.077   2.662   2.662
    1C        C  209   4.022   2.622   2.786
    1C        C  210   4.193   2.747   2.906
    1C        C  211   4.083   2.658   2.908
    1C        C  212   4.244   2.800   3.026
    1C        C  213   4.191   2.759   3.150
    1C        C  214   4.333   2.912   3.272
    1C        C  215   4.242   2.804   3.274
    1C        C  216   4.372   2.970   3.394
    1C        C  217   4.332   2.917   3.519
    1C        C  218   4.437   3.103   3.637
    1C        C  219   4.378   2.975   3.640
    1C        C  220   4.453   3.170   3.761
    1C        C  221   4.432   3.105   3.884
    1C        C  222   4.501   3.306   4.005
    1C        C  223   4.469   3.169   4.004
    1C        C  224   4.519   3.377   4.126
    1C        C  225   4.509   3.309   4.249
    1C        C  226   4.529   3.522   4.366
    1C        C  227   4.521   3.381   4.370
    1C        C  228   4.526   3.597   4.486
    1C        C  229   4.530   3.531   4.610
    1C        C  230   4.509   3.746   4.726
    1C        C  231   4.537   3.606   4.729
    1C        C  232   4.497   3.820   4.846
    1C        C  233   4.541   3.755   4.962
    1C        C  234   4.010   2.619   2.061
    1C        C  235   3.893   2.544   2.065
    1C        C  236   4.082   2.649   2.177
    1C        C  237   4.022   2.608   2.298
    1C        C  238   4.195   2.737   2.420
    1C        C  239   4.084   2.648   2.419
    1C        C  240   4.249   2.786   2.540
    1C        C  241   4.190   2.747   2.662
    1C        C  242   4.330   2.908   2.782
    1C        C  243   4.242   2.798   2.783
    1C        C  244   4.378   2.963   2.904
    1C        C  245   4.337   2.907   3.027
    1C        C  246   4.438   3.095   3.146
    1C        C  247   4.373   2.969   3.149
    1C        C  248   4.461   3.158   3.270
    1C        C  249   4.434   3.097   3.395
    1C        C  250   4.500   3.303   3.513
    1C        C  251   4.467   3.166   3.514
    1C        C  252   4.510   3.373   3.635
    1C        C  253   4.494   3.306   3.758
    1C        C  254   4.526   3.514   3.878
    1C        C  255   4.511   3.373   3.881
    1C        C  256   4.521   3.587   3.999
    1C        C  257   4.518   3.518   4.122
    1C        C  258   4.492   3.730   4.241
    1C        C  259   4.519   3.591   4.243
    1C        C  260   4.468   3.800   4.362
    1C        C  261   4.487   3.733   4.485
    1C        C  262   4.431   3.942   4.602
    1C        C  263   4.478   3.809   4.604
    1C        C  264   4.398   4.009   4.722
    1C        C  265   4.433   3.945   4.843
    1C        C  266   4.321   4.128   4.956
    1C        C  267   4.396   4.011   4.961
    1C        C  268   4.257   2.778   2.059
    1C        C  269   4.194   2.735   2.176
    1C        C  270   4.341   2.892   2.294
    1C        C  271   4.246   2.785   2.297
    1C        C  272   4.377   2.951   2.417
    1C        C  273   4.341   2.893   2.541
    1C        C  274   4.446   3.084   2.658
    1C        C  275   4.374   2.962   2.659
    1C        C  276   4.469   3.152   2.780
    1C        C  277   4.440   3.089   2.903
    1C        C  278   4.512   3.292   3.022
    1C        C  279   4.472   3.156   3.024
    1C        C  280   4.520   3.363   3.144
    1C        C  281   4.501   3.294   3.266
    1C        C  282   4.527   3.506   3.390
    1C        C  283   4.513   3.366   3.387
    1C        C  284   4.528   3.581   3.510
    1C        C  285   4.524   3.514   3.635
    1C        C  286   4.494   3.724   3.752
    1C        C  287   4.524   3.586   3.757
    1C        C  288   4.474   3.791   3.874
    1C        C  289   4.494   3.726   3.998
    1C        C  290   4.430   3.931   4.116
    1C        C  291   4.479   3.799   4.118
    1C        C  292   4.399   3.999   4.236
    1C        C  293   4.422   3.933   4.359
    1C        C  294   4.322   4.123   4.478
    1C        C  295   4.394   4.001   4.479
    1C        C  296   4.274   4.181   4.598
    1C        C  297   4.320   4.128   4.720
    1C        C  298   4.200   4.312   4.838
    1C        C  299   4.284   4.197   4.840
    1C        C  300   4.167   4.401   4.946
    1C        C  301   4.346   2.885   2.059
    1C        C  302   4.469   3.068   2.174
    1C        C  303   4.397   2.945   2.175
    1C        C  304   4.484   3.140   2.296
    1C        C  305   4.447   3.074   2.416
    1C        C  306   4.507   3.283   2.534
    1C        C  307   4.475   3.146   2.534
    1C        C  308   4.514   3.356   2.655
    1C        C  309   4.497   3.290   2.779
    1C        C  310   4.532   3.502   2.898
    1C        C  311   4.516   3.361   2.899
    1C        C  312   4.526   3.574   3.020
    1C        C  313   4.523   3.504   3.143
    1C        C  314   4.489   3.711   3.263
    1C        C  315   4.519   3.573   3.266
    1C        C  316   4.471   3.782   3.384
    1C        C  317   4.491   3.717   3.508
    1C        C  318   4.421   3.921   3.628
    1C        C  319   4.472   3.789   3.628
    1C        C  320   4.388   3.983   3.751
    1C        C  321   4.425   3.924   3.874
    1C        C  322   4.313   4.108   3.992
    1C        C  323   4.396   3.993   3.993
    1C        C  324   4.273   4.170   4.112
    1C        C  325   4.321   4.117   4.233
    1C        C  326   4.186   4.281   4.355
    1C        C  327   4.284   4.179   4.355
    1C        C  328   4.129   4.334   4.473
    1C        C  329   4.182   4.289   4.596
    1C        C  330   4.022   4.432   4.712
    1C        C  331   4.138   4.350   4.715
    1C        C  332   3.967   4.488   4.830
    1C        C  333   4.056   4.486   4.939
    1C        C  334   4.553   3.266   2.058
    1C        C  335   4.535   3.127   2.061
    1C        C  336   4.539   3.347   2.172
    1C        C  337   4.515   3.278   2.294
    1C        C  338   4.533   3.494   2.409
    1C        C  339   4.524   3.354   2.413
    1C        C  340   4.523   3.567   2.530
    1C        C  341   4.528   3.497   2.653
    1C        C  342   4.491   3.706   2.772
    1C        C  343   4.525   3.569   2.774
    1C        C  344   4.477   3.777   2.893
    1C        C  345   4.499   3.713   3.016
    1C        C  346   4.419   3.908   3.138
    1C        C  347   4.475   3.778   3.139
    1C        C  348   4.393   3.977   3.259
    1C        C  349   4.420   3.913   3.383
    1C        C  350   4.317   4.101   3.500
    1C        C  351   4.392   3.981   3.503
    1C        C  352   4.271   4.158   3.621
    1C        C  353   4.313   4.102   3.744
    1C        C  354   4.173   4.261   3.864
    1C        C  355   4.268   4.156   3.867
    1C        C  356   4.121   4.311   3.985
    1C        C  357   4.171   4.268   4.110
    1C        C  358   4.013   4.405   4.230
    1C        C  359   4.128   4.323   4.233
    1C        C  360   3.955   4.455   4.349
    1C        C  361   4.015   4.417   4.471
    1C        C  362   3.827   4.518   4.595
    1C        C  363   3.957   4.463   4.591
    1C        C  364   3.761   4.551   4.715
    1C        C  365   3.838   4.543   4.833
    1C        C  366   3.628   4.594   4.951
    1C        C  367   3.766   4.575   4.949
    1C        C  368   4.509   3.563   2.052
    1C        C  369   4.526   3.487   2.168
    1C        C  370   4.507   3.704   2.286
    1C        C  371   4.526   3.564   2.286
    1C        C  372   4.485   3.775   2.406
    1C        C  373   4.494   3.705   2.528
    1C        C  374   4.420   3.906   2.648
    1C        C  375   4.472   3.774   2.650
    1C        C  376   4.387   3.969   2.770
    1C        C  377   4.421   3.907   2.892
    1C        C  378   4.316   4.091   3.012
    1C        C  379   4.391   3.971   3.015
    1C        C  380   4.270   4.149   3.132
    1C        C  381   4.315   4.095   3.254
    1C        C  382   4.171   4.249   3.375
    1C        C  383   4.276   4.154   3.376
    1C        C  384   4.122   4.303   3.496
    1C        C  385   4.175   4.261   3.621
    1C        C  386   4.008   4.393   3.741
    1C        C  387   4.124   4.312   3.743
    1C        C  388   3.947   4.431   3.863
    1C        C  389   4.006   4.394   3.985
    1C        C  390   3.819   4.493   4.108
    1C        C  391   3.946   4.431   4.108
    1C        C  392   3.755   4.522   4.231
    1C        C  393   3.824   4.507   4.353
    1C        C  394   3.616   4.554   4.475
    1C        C  395   3.756   4.533   4.474
    1C        C  396   3.544   4.568   4.596
    1C        C  397   3.621   4.567   4.715
    1C        C  398   3.412   4.542   4.836
    1C        C  399   3.549   4.573   4.837
    1C        C  400   3.342   4.511   4.954
    1C        C  401   4.500   3.702   2.049
    1C        C  402   4.449   3.912   2.163
    1C        C  403   4.492   3.778   2.167
    1C        C  404   4.409   3.974   2.284
    1C        C  405   4.438   3.909   2.405
    1C        C  406   4.321   4.091   2.523
    1C        C  407   4.393   3.969   2.525
    1C        C  408   4.279   4.149   2.645
    1C        C  409   4.317   4.092   2.768
    1C        C  410   4.176   4.251   2.888
    1C        C  411   4.274   4.149   2.890
    1C        C  412   4.123   4.300   3.009
    1C        C  413   4.174   4.252   3.133
    1C        C  414   4.005   4.383   3.254
    1C        C  415   4.118   4.298   3.254
    1C        C  416   3.946   4.421   3.376
    1C        C  417   4.008   4.386   3.498
    1C        C  418   3.813   4.477   3.616
    1C        C  419   3.943   4.421   3.619
    1C        C  420   3.749   4.502   3.739
    1C        C  421   3.815   4.483   3.862
    1C        C  422   3.614   4.538   3.985
    1C        C  423   3.752   4.511   3.985
    1C        C  424   3.545   4.546   4.108
    1C        C  425   3.615   4.541   4.231
    1C        C  426   3.403   4.546   4.354
    1C        C  427   3.545   4.549   4.353
    1C        C  428   3.332   4.539   4.476
    1C        C  429   3.404   4.552   4.596
    1C        C  430   3.194   4.513   4.720
    1C        C  431   3.334   4.538   4.718
    1C        C  432   3.126   4.488   4.842
    1C        C  433   3.205   4.488   4.958
    1C        C  434   4.380   4.119   2.047
    1C        C  435   4.443   3.993   2.049
    1C        C  436   4.301   4.160   2.159
    1C        C  437   4.334   4.094   2.282
    1C        C  438   4.180   4.248   2.402
    1C        C  439   4.282   4.149   2.401
    1C        C  440   4.126   4.297   2.523
    1C        C  441   4.179   4.249   2.645
    1C        C  442   4.004   4.375   2.766
    1C        C  443   4.119   4.293   2.766
    1C        C  444   3.942   4.410   2.888
    1C        C  445   4.006   4.379   3.010
    1C        C  446   3.813   4.469   3.128
    1C        C  447   3.944   4.417   3.131
    1C        C  448   3.749   4.495   3.251
    1C        C  449   3.818   4.481   3.374
    1C        C  450   3.607   4.527   3.497
    1C        C  451   3.747   4.503   3.494
    1C        C  452   3.539   4.537   3.620
    1C        C  453   3.612   4.535   3.741
    1C        C  454   3.402   4.547   3.864
    1C        C  455   3.543   4.550   3.863
    1C        C  456   3.336   4.532   3.988
    1C        C  457   3.404   4.542   4.111
    1C        C  458   3.195   4.501   4.234
    1C        C  459   3.333   4.531   4.233
    1C        C  460   3.127   4.481   4.357
    1C        C  461   3.193   4.510   4.478
    1C        C  462   2.997   4.426   4.601
    1C        C  463   3.126   4.486   4.600
    1C        C  464   2.932   4.395   4.722
    1C        C  465   2.991   4.441   4.843
    1C        C  466   2.807   4.328   4.962
    1C        C  467   2.908   4.425   4.959
    1C        C  468   4.126   4.287   2.042
    1C        C  469   4.186   4.244   2.161
    1C        C  470   4.012   4.377   2.280
    1C        C  471   4.128   4.296   2.280
    1C        C  472   3.943   4.409   2.400
    1C        C  473   4.007   4.373   2.521
    1C        C  474   3.813   4.461   2.641
    1C        C  475   3.943   4.405   2.642
    1C        C  476   3.747   4.491   2.762
    1C        C  477   3.814   4.470   2.885
    1C        C  478   3.605   4.516   3.007
    1C        C  479   3.744   4.490   3.006
    1C        C  480   3.536   4.525   3.130
    1C        C  481   3.610   4.519   3.251
    1C        C  482   3.399   4.536   3.378
    1C        C  483   3.540   4.532   3.373
    1C        C  484   3.328   4.525   3.500
    1C        C  485   3.398   4.542   3.621
    1C        C  486   3.192   4.501   3.743
    1C        C  487   3.328   4.540   3.744
    1C        C  488   3.132   4.472   3.868
    1C        C  489   3.200   4.494   3.990
    1C        C  490   3.006   4.407   4.114
    1C        C  491   3.130   4.475   4.112
    1C        C  492   2.944   4.376   4.237
    1C        C  493   3.000   4.419   4.359
    1C        C  494   2.826   4.298   4.481
    1C        C  495   2.934   4.389   4.480
    1C        C  496   2.776   4.252   4.604
    1C        C  497   2.819   4.308   4.726
    1C        C  498   2.666   4.159   4.845
    1C        C  499   2.759   4.266   4.847
    1C        C  500   2.592   4.117   4.957
    1C        C  501   4.004   4.354   2.044
    1C        C  502   3.817   4.467   2.154
    1C        C  503   3.946   4.409   2.159
    1C        C  504   3.747   4.486   2.275
    1C        C  505   3.812   4.460   2.398
    1C        C  506   3.604   4.505   2.520
    1C        C  507   3.744   4.483   2.519
    1C        C  508   3.535   4.513   2.643
    1C        C  509   3.608   4.517   2.764
    1C        C  510   3.394   4.526   2.885
    1C        C  511   3.535   4.524   2.885
    1C        C  512   3.326   4.522   3.009
    1C        C  513   3.395   4.529   3.131
    1C        C  514   3.193   4.487   3.255
    1C        C  515   3.328   4.528   3.256
    1C        C  516   3.124   4.466   3.376
    1C        C  517   3.191   4.491   3.498
    1C        C  518   2.999   4.409   3.625
    1C        C  519   3.125   4.472   3.622
    1C        C  520   2.942   4.372   3.748
    1C        C  521   3.007   4.406   3.869
    1C        C  522   2.839   4.278   3.995
    1C        C  523   2.948   4.368   3.991
    1C        C  524   2.786   4.233   4.118
    1C        C  525   2.835   4.285   4.239
    1C        C  526   2.695   4.126   4.361
    1C        C  527   2.782   4.238   4.361
    1C        C  528   2.657   4.074   4.486
    1C        C  529   2.688   4.141   4.606
    1C        C  530   2.585   3.956   4.732
    1C        C  531   2.639   4.087   4.727
    1C        C  532   2.538   3.900   4.854
    1C        C  533   2.519   3.997   4.957
    1C        C  534   3.619   4.558   2.037
    1C        C  535   3.752   4.513   2.039
    1C        C  536   3.540   4.532   2.154
    1C        C  537   3.608   4.514   2.277
    1C        C  538   3.394   4.516   2.399
    1C        C  539   3.535   4.520   2.398
    1C        C  540   3.324   4.512   2.521
    1C        C  541   3.394   4.513   2.644
    1C        C  542   3.182   4.485   2.768
    1C        C  543   3.320   4.515   2.765
    1C        C  544   3.118   4.463   2.891
    1C        C  545   3.189   4.487   3.011
    1C        C  546   2.999   4.397   3.134
    1C        C  547   3.124   4.462   3.134
    1C        C  548   2.942   4.359   3.257
    1C        C  549   2.999   4.400   3.379
    1C        C  550   2.835   4.273   3.504
    1C        C  551   2.940   4.367   3.503
    1C        C  552   2.786   4.225   3.628
    1C        C  553   2.833   4.283   3.748
    1C        C  554   2.702   4.118   3.873
    1C        C  555   2.790   4.228   3.872
    1C        C  556   2.659   4.061   3.995
    1C        C  557   2.703   4.119   4.116
    1C        C  558   2.595   3.938   4.245
    1C        C  559   2.660   4.063   4.239
    1C        C  560   2.566   3.877   4.369
    1C        C  561   2.593   3.948   4.489
    1C        C  562   2.527   3.749   4.614
    1C        C  563   2.559   3.886   4.611
    1C        C  564   2.511   3.680   4.736
    1C        C  565   2.520   3.758   4.855
    1C        C  566   2.523   3.542   4.974
    1C        C  567   2.515   3.681   4.972
    1C        C  568   3.327   4.485   2.040
    1C        C  569   3.398   4.517   2.157
    1C        C  570   3.186   4.473   2.281
    1C        C  571   3.323   4.513   2.277
    1C        C  572   3.118   4.453   2.403
    1C        C  573   3.186   4.479   2.524
    1C        C  574   2.989   4.400   2.649
    1C        C  575   3.118   4.457   2.645
    1C        C  576   2.928   4.361   2.771
    1C        C  577   2.992   4.398   2.891
    1C        C  578   2.827   4.267   3.016
    1C        C  579   2.934   4.359   3.014
    1C        C  580   2.780   4.218   3.140
    1C        C  581   2.831   4.271   3.260
    1C        C  582   2.698   4.108   3.385
    1C        C  583   2.782   4.222   3.383
    1C        C  584   2.662   4.051   3.509
    1C        C  585   2.702   4.112   3.630
    1C        C  586   2.596   3.930   3.752
    1C        C  587   2.660   4.056   3.753
    1C        C  588   2.572   3.868   3.877
    1C        C  589   2.601   3.933   3.999
    1C        C  590   2.532   3.736   4.126
    1C        C  591   2.573   3.871   4.123
    1C        C  592   2.520   3.669   4.250
    1C        C  593   2.527   3.741   4.371
    1C        C  594   2.510   3.533   4.497
    1C        C  595   2.511   3.674   4.495
    1C        C  596   2.509   3.463   4.620
    1C        C  597   2.502   3.538   4.739
    1C        C  598   2.527   3.323   4.860
    1C        C  599   2.509   3.463   4.859
    1C        C  600   2.521   3.243   4.974
    1C        C  601   3.197   4.438   2.041
    1C        C  602   2.986   4.391   2.161
    1C        C  603   3.121   4.438   2.159
    1C        C  604   2.923   4.361   2.284
    1C        C  605   2.989   4.393   2.404
    1C        C  606   2.822   4.267   2.529
    1C        C  607   2.929   4.361   2.528
    1C        C  608   2.768   4.219   2.650
    1C        C  609   2.823   4.267   2.771
    1C        C  610   2.687   4.107   2.892
    1C        C  611   2.775   4.217   2.895
    1C        C  612   2.648   4.052   3.017
    1C        C  613   2.689   4.110   3.139
    1C        C  614   2.586   3.928   3.262
    1C        C  615   2.654   4.051   3.263
    1C        C  616   2.561   3.865   3.386
    1C        C  617   2.592   3.929   3.509
    1C        C  618   2.523   3.729   3.636
    1C        C  619   2.566   3.864   3.631
    1C        C  620   2.509   3.662   3.760
    1C        C  621   2.529   3.733   3.880
    1C        C  622   2.503   3.525   4.008
    1C        C  623   2.519   3.665   4.004
    1C        C  624   2.508   3.455   4.130
    1C        C  625   2.507   3.529   4.251
    1C        C  626   2.532   3.323   4.375
    1C        C  627   2.506   3.462   4.375
    1C        C  628   2.555   3.255   4.497
    1C        C  629   2.543   3.326   4.618
    1C        C  630   2.592   3.118   4.740
    1C        C  631   2.549   3.254   4.739
    1C        C  632   2.616   3.047   4.861
    1C        C  633   2.554   3.107   4.976
    1C        C  634   2.786   4.300   2.052
    1C        C  635   2.896   4.387   2.050
    1C        C  636   2.749   4.231   2.168
    1C        C  637   2.804   4.282   2.288
    1C        C  638   2.679   4.109   2.408
    1C        C  639   2.763   4.222   2.409
    1C        C  640   2.640   4.045   2.528
    1C        C  641   2.680   4.109   2.648
    1C        C  642   2.594   3.916   2.774
    1C        C  643   2.645   4.048   2.771
    1C        C  644   2.562   3.855   2.898
    1C        C  645   2.586   3.925   3.018
    1C        C  646   2.522   3.724   3.146
    1C        C  647   2.559   3.861   3.141
    1C        C  648   2.514   3.657   3.270
    1C        C  649   2.526   3.729   3.392
    1C        C  650   2.499   3.519   3.517
    1C        C  651   2.509   3.660   3.514
    1C        C  652   2.505   3.449   3.640
    1C        C  653   2.504   3.521   3.761
    1C        C  654   2.533   3.316   3.888
    1C        C  655   2.505   3.454   3.886
    1C        C  656   2.550   3.248   4.011
    1C        C  657   2.526   3.315   4.133
    1C        C  658   2.604   3.119   4.256
    1C        C  659   2.548   3.249   4.256
    1C        C  660   2.630   3.055   4.379
    1C        C  661   2.595   3.119   4.500
    1C        C  662   2.707   2.936   4.624
    1C        C  663   2.625   3.051   4.621
    1C        C  664   2.748   2.875   4.744
    1C        C  665   2.695   2.928   4.865
    1C        C  666   2.738   2.866   4.983
    1C        C  667   2.673   4.024   2.054
    1C        C  668   2.689   4.103   2.168
    1C        C  669   2.588   3.913   2.288
    1C        C  670   2.648   4.042   2.288
    1C        C  671   2.559   3.848   2.410
    1C        C  672   2.581   3.917   2.531
    1C        C  673   2.518   3.716   2.657
    1C        C  674   2.563   3.850   2.654
    1C        C  675   2.502   3.650   2.781
    1C        C  676   2.521   3.720   2.903
    1C        C  677   2.497   3.512   3.027
    1C        C  678   2.503   3.653   3.026
    1C        C  679   2.504   3.445   3.152
    1C        C  680   2.508   3.516   3.274
    1C        C  681   2.529   3.306   3.397
    1C        C  682   2.506   3.446   3.397
    1C        C  683   2.549   3.240   3.521
    1C        C  684   2.530   3.310   3.642
    1C        C  685   2.605   3.115   3.768
    1C        C  686   2.548   3.244   3.767
    1C        C  687   2.642   3.056   3.891
    1C        C  688   2.608   3.119   4.012
    1C        C  689   2.715   2.937   4.140
    1C        C  690   2.636   3.054   4.135
    1C        C  691   2.758   2.884   4.263
    1C        C  692   2.711   2.939   4.384
    1C        C  693   2.754   2.878   4.504
    1C        C  694   2.627   3.892   2.058
    1C        C  695   2.520   3.701   2.174
    1C        C  696   2.572   3.833   2.173
    1C        C  697   2.505   3.636   2.298
    1C        C  698   2.521   3.712   2.417
    1C        C  699   2.485   3.502   2.542
    1C        C  700   2.498   3.643   2.538
    1C        C  701   2.499   3.434   2.665
    1C        C  702   2.495   3.509   2.784
    1C        C  703   2.525   3.300   2.911
    1C        C  704   2.497   3.438   2.906
    1C        C  705   2.547   3.235   3.034
    1C        C  706   2.530   3.307   3.155
    1C        C  707   2.597   3.104   3.278
    1C        C  708   2.548   3.236   3.276
    1C        C  709   2.631   3.044   3.402
    1C        C  710   2.601   3.109   3.524
    1C        C  711   2.717   2.933   3.647
    1C        C  712   2.639   3.050   3.647
    1C        C  713   2.757   2.877   3.771
    1C        C  714   2.719   2.937   3.892
    1C        C  715   2.757   2.882   4.017
    1C        C  716   2.456   3.495   2.062
    1C        C  717   2.494   3.630   2.056
    1C        C  718   2.470   3.419   2.182
    1C        C  719   2.482   3.496   2.300
    1C        C  720   2.513   3.287   2.422
    1C        C  721   2.484   3.426   2.423
    1C        C  722   2.535   3.223   2.546
    1C        C  723   2.528   3.296   2.667
    1C        C  724   2.593   3.097   2.790
    1C        C  725   2.545   3.230   2.790
    1C        C  726   2.624   3.035   2.914
    1C        C  727   2.592   3.101   3.034
    1C        C  728   2.708   2.923   3.157
    1C        C  729   2.625   3.038   3.156
    1C        C  730   2.756   2.874   3.281
    1C        C  731   2.712   2.929   3.404
    1C        C  732   2.763   2.878   3.525
    1C        C  733   2.492   3.192   2.071
    1C        C  734   2.488   3.277   2.183
    1C        C  735   2.583   3.083   2.304
    1C        C  736   2.518   3.209   2.304
    1C        C  737   2.612   3.020   2.427
    1C        C  738   2.587   3.092   2.546
    1C        C  739   2.702   2.914   2.671
    1C        C  740   2.623   3.031   2.669
    1C        C  741   2.744   2.856   2.792
    1C        C  742   2.706   2.920   2.912
    1C        C  743   2.751   2.867   3.035
    1C        C  744   2.547   3.064   2.073
    1C        C  745   2.687   2.892   2.184
    1C        C  746   2.614   3.013   2.185
    1C        C  747   2.732   2.842   2.308
    1C        C  748   2.688   2.901   2.428
    1C        C  749   2.741   2.852   2.550
    1C        C  750   2.747   2.841   2.068
    1C        C  751   3.658   2.312   1.978
    1C        O  752   3.651   2.190   2.009
    1C        O  753   3.660   2.342   1.842
    1C        C  754   4.648   3.061   1.993
    1C        O  755   4.637   3.019   1.875
    1C        O  756   4.737   2.971   2.054
    1C        C  757   4.436   4.197   1.934
    1C        O  758   4.516   4.292   1.953
    1C        O  759   4.374   4.205   1.809
    1C        C  760   3.592   4.661   1.935
    1C        O  761   3.591   4.784   1.964
    1C        O  762   3.621   4.645   1.799
    1C        C  763   2.876   4.507   1.965
    1C        O  764   2.869   4.494   1.840
    1C        O  765   2.804   4.620   2.005
    1C        C  766   2.335   3.469   1.980
    1C        O  767   2.355   3.455   1.857
    1C        O  768   2.212   3.525   2.018
    1C        C  769   4.692   3.593   5.057
    1C        O  770   4.667   3.578   5.180
    1C        O  771   4.824   3.628   5.031
    1C        C  772   4.268   4.444   5.045
    1C        O  773   4.235   4.429   5.166
    1C        O  774   4.341   4.561   5.021
    1C        C  775   4.127   2.544   5.094
    1C        O  776   4.199   2.441   5.089
    1C        O  777   4.137   2.593   5.225
    1C        C  778   2.862   4.542   5.037
    1C        O  779   2.820   4.648   4.983
    1C        O  780   2.922   4.578   5.157
    1C        C  781   2.455   3.037   5.061
    1C        O  782   2.341   3.007   5.016
    1C        O  783   2.443   3.069   5.196
    1C        C  784   2.388   4.016   5.023
    1C        O  785   2.295   4.080   4.967
    1C        O  786   2.356   3.977   5.153
    1C        C  787   2.950   2.412   2.014
    1C        O  788   2.894   2.461   1.912
    1C        O  789   2.944   2.273   2.011
    1C        C  790   3.203   2.403   5.092
    1C        O  791   3.167   2.282   5.086
    1C        O  792   3.198   2.443   5.226
    1C        H  793   4.299   3.006   5.068
    1C        H  794   4.149   2.836   5.063
    1C        H  795   4.461   3.134   5.067
    1C        H  796   4.587   3.342   5.050
    1C        H  797   4.553   3.810   5.053
    1C        H  798   4.418   3.972   5.058
    1C        H  799   4.316   4.175   5.052
    1C        H  800   4.059   4.571   5.004
    1C        H  801   3.815   4.600   5.041
    1C        H  802   3.583   4.648   5.032
    1C        H  803   3.397   4.470   5.037
    1C        H  804   3.159   4.521   5.049
    1C        H  805   3.908   2.450   5.052
    1C        H  806   3.680   2.459   5.073
    1C        H  807   3.005   2.565   5.067
    1C        H  808   3.444   2.459   5.074
    1C        H  809   2.856   2.720   5.077
    1C        H  810   2.685   2.886   5.073
    1C        H  811   2.465   3.279   5.058
    1C        H  812   2.567   3.500   5.062
    1C        H  813   2.476   3.729   5.060
    1C        H  814   2.579   4.185   5.038
    1C        H  815   2.787   4.281   5.057
    1C        H  816   2.750   2.905   1.983
    1C        H  817   2.806   2.657   1.988
    1C        H  818   3.205   2.409   1.992
    1C        H  819   3.438   2.490   1.982
    1C        H  820   3.850   2.521   1.970
    1C        H  821   4.056   2.624   1.964
    1C        H  822   4.265   2.712   1.975
    1C        H  823   4.370   2.924   1.963
    1C        H  824   4.612   3.300   1.976
    1C        H  825   4.433   3.519   1.990
    1C        H  826   4.540   3.750   1.962
    1C        H  827   3.817   4.553   1.964
    1C        H  828   3.943   4.345   1.956
    1C        H  829   4.188   4.298   1.955
    1C        H  830   4.514   3.972   1.972
    1C        H  831   2.664   3.823   1.984
    1C        H  832   2.652   4.074   1.961
    1C        H  833   2.717   4.299   1.971
    1C        H  834   3.342   4.544   1.953
    1C        H  835   3.184   4.351   1.980
    1C        H  836   2.567   3.021   1.977
    1C        H  837   2.418   3.206   1.996
    1C        H  838   2.492   3.679   1.961
    2V3OU   H29  839   2.809   3.548   4.690
    2V3OU   C27  840   2.794   3.503   4.791
    2V3OU   H27  841   2.736   3.573   4.857
    2V3OU   H28  842   2.742   3.403   4.791
    2V3OU   O11  843   2.915   3.473   4.861
    2V3OU   C15  844   2.920   3.401   4.978
    2V3OU   C13  845   3.050   3.380   5.028
    2V3OU   C14  846   3.072   3.271   5.113
    2V3OU   C16  847   2.973   3.184   5.158
    2V3OU    H6  848   2.995   3.101   5.226
    2V3OU   C12  849   3.213   3.231   5.139
    2V3OU    O2  850   3.237   3.131   5.208
    2V3OU   C10  851   3.325   3.309   5.083
    2V3OU    C8  852   3.457   3.274   5.109
    2V3OU   O10  853   3.490   3.162   5.179
    2V3OU   H26  854   3.407   3.117   5.201
    2V3OU    C6  855   3.565   3.350   5.055
    2V3OU    C5  856   3.538   3.468   4.987
    2V3OU    C4  857   3.703   3.293   5.049
    2V3OU    H4  858   3.721   3.225   5.136
    2V3OU    H5  859   3.715   3.228   4.957
    2V3OU    C2  860   3.817   3.396   5.053
    2V3OU    O6  861   3.806   3.470   5.175
    2V3OU   H21  862   3.764   3.552   5.142
    2V3OU    C3  863   3.784   3.494   4.940
    2V3OU    H2  864   3.866   3.570   4.932
    2V3OU    H3  865   3.783   3.438   4.844
    2V3OU   C25  866   3.950   3.321   5.041
    2V3OU    O7  867   4.001   3.294   4.933
    2V3OU   C26  868   4.024   3.291   5.170
    2V3OU   H22  869   4.073   3.378   5.220
    2V3OU   H23  870   4.113   3.226   5.150
    2V3OU    O8  871   3.952   3.208   5.259
    2V3OU   H24  872   3.930   3.266   5.334
    2V3OU    C1  873   3.649   3.562   4.955
    2V3OU    H1  874   3.624   3.617   4.859
    2V3OU    O3  875   3.658   3.652   5.066
    2V3OU   C19  876   3.618   3.787   5.043
    2V3OU    H9  877   3.521   3.796   4.985
    2V3OU    O4  878   3.715   3.843   4.957
    2V3OU   C20  879   3.846   3.875   5.006
    2V3OU   H10  880   3.909   3.785   5.030
    2V3OU   C24  881   3.606   3.857   5.179
    2V3OU   H16  882   3.543   3.793   5.245
    2V3OU   H17  883   3.559   3.958   5.167
    2V3OU   C23  884   3.748   3.872   5.234
    2V3OU   H15  885   3.789   3.768   5.259
    2V3OU    N1  886   3.736   3.951   5.354
    2V3OU   H19  887   3.803   3.919   5.422
    2V3OU   H20  888   3.644   3.932   5.386
    2V3OU   C21  889   3.844   3.950   5.139
    2V3OU   H11  890   3.949   3.928   5.176
    2V3OU    O5  891   3.827   4.091   5.143
    2V3OU   H18  892   3.783   4.100   5.229
    2V3OU   C22  893   3.913   3.949   4.891
    2V3OU   H12  894   3.858   4.044   4.869
    2V3OU   H13  895   3.906   3.888   4.798
    2V3OU   H14  896   4.023   3.952   4.910
    2V3OU   C11  897   3.159   3.477   5.007
    2V3OU    O1  898   3.132   3.590   4.962
    2V3OU    C9  899   3.298   3.425   5.007
    2V3OU    C7  900   3.402   3.504   4.961
    2V3OU    O9  901   3.381   3.625   4.896
    2V3OU   H25  902   3.284   3.630   4.891
    2V3OU   C17  903   2.823   3.318   5.037
    2V3OU    H7  904   2.721   3.355   5.047
    2V3OU   C18  905   2.841   3.208   5.120
    2V3OU    H8  906   2.752   3.154   5.156
    3SOL     OW  907   3.313   4.091   5.006
    3SOL    HW1  908   3.318   4.140   5.093
    3SOL    HW2  909   3.217   4.084   4.978
    4SOL     OW  910   6.805   0.370   0.388
    4SOL    HW1  911   6.836   0.309   0.315
    4SOL    HW2  912   6.721   0.335   0.428
    5SOL     OW  913   4.158   1.146   1.291
    5SOL    HW1  914   4.189   1.239   1.310
    5SOL    HW2  915   4.059   1.144   1.284
    6SOL     OW  916   5.808   0.833   3.326
    6SOL    HW1  917   5.795   0.768   3.401
    6SOL    HW2  918   5.892   0.885   3.341
    7SOL     OW  919   0.974   4.350   5.104
    7SOL    HW1  920   0.943   4.402   5.025
    7SOL    HW2  921   1.030   4.409   5.163
    8SOL     OW  922   2.242   2.576   5.455
    8SOL    HW1  923   2.164   2.526   5.495
    8SOL    HW2  924   2.209   2.635   5.382
    9SOL     OW  925   6.331   1.522   6.421
    9SOL    HW1  926   6.369   1.609   6.454
    9SOL    HW2  927   6.235   1.534   6.398
   10SOL     OW  928   4.892   4.607   2.520
   10SOL    HW1  929   4.848   4.569   2.438
   10SOL    HW2  930   4.928   4.698   2.499
   11SOL     OW  931   2.251   1.477   0.037
   11SOL    HW1  932   2.329   1.472   0.098
   11SOL    HW2  933   2.283   1.492   6.965
   12SOL     OW  934   2.656   4.706   3.319
   12SOL    HW1  935   2.704   4.695   3.232
   12SOL    HW2  936   2.703   4.776   3.374
   13SOL     OW  937   4.732   6.008   2.371
   13SOL    HW1  938   4.671   5.981   2.296
   13SOL    HW2  939   4.773   5.926   2.410
   14SOL     OW  940   4.910   4.759   5.286
   14SOL    HW1  941   4.838   4.828   5.289
   14SOL    HW2  942   4.876   4.677   5.241
   15SOL     OW  943   0.594   5.774   5.563
   15SOL    HW1  944   0.501   5.811   5.560
   15SOL    HW2  945   0.608   5.725   5.649
   16SOL     OW  946   6.641   2.695   5.793
   16SOL    HW1  947   6.551   2.654   5.807
   16SOL    HW2  948   6.653   2.773   5.854
   17SOL     OW  949   6.345   0.509   5.911
   17SOL    HW1  950   6.344   0.608   5.897
   17SOL    HW2  951   6.341   0.463   5.822
   18SOL     OW  952   3.203   0.042   5.057
   18SOL    HW1  953   3.228   0.136   5.031
   18SOL    HW2  954   3.115   0.019   5.016
   19SOL     OW  955   0.709   1.338   3.082
   19SOL    HW1  956   0.705   1.436   3.064
   19SOL    HW2  957   0.757   1.292   3.007
   20SOL     OW  958   5.629   2.869   5.585
   20SOL    HW1  959   5.676   2.831   5.666
   20SOL    HW2  960   5.692   2.867   5.507
   21SOL     OW  961   3.984   6.642   2.789
   21SOL    HW1  962   3.955   6.721   2.736
   21SOL    HW2  963   4.082   6.626   2.773
   22SOL     OW  964   2.271   6.270   5.232
   22SOL    HW1  965   2.261   6.370   5.228
   22SOL    HW2  966   2.315   6.245   5.319
   23SOL     OW  967   5.503   4.364   1.771
   23SOL    HW1  968   5.535   4.316   1.852
   23SOL    HW2  969   5.421   4.318   1.735
   24SOL     OW  970   4.073   0.576   1.780
   24SOL    HW1  971   4.083   0.646   1.851
   24SOL    HW2  972   4.161   0.531   1.764
   25SOL     OW  973   2.798   6.905   3.500
   25SOL    HW1  974   2.818   6.974   3.570
   25SOL    HW2  975   2.814   6.944   3.409
   26SOL     OW  976   1.129   2.315   6.804
   26SOL    HW1  977   1.036   2.314   6.768
   26SOL    HW2  978   1.126   2.319   6.904
   27SOL     OW  979   6.263   1.373   2.271
   27SOL    HW1  980   6.356   1.380   2.308
   27SOL    HW2  981   6.242   1.454   2.217
   28SOL     OW  982   2.012   0.790   4.723
   28SOL    HW1  983   1.988   0.811   4.629
   28SOL    HW2  984   1.993   0.694   4.743
   29SOL     OW  985   0.115   0.946   0.430
   29SOL    HW1  986   0.061   0.962   0.348
   29SOL    HW2  987   0.054   0.926   0.507
   30SOL     OW  988   4.367   0.479   4.746
   30SOL    HW1  989   4.301   0.472   4.671
   30SOL    HW2  990   4.385   0.388   4.782
   31SOL     OW  991   0.525   2.772   5.155
   31SOL    HW1  992   0.474   2.688   5.135
   31SOL    HW2  993   0.595   2.785   5.085
   32SOL     OW  994   1.462   0.718   1.063
   32SOL    HW1  995   1.469   0.726   1.162
   32SOL    HW2  996   1.477   0.623   1.036
   33SOL     OW  997   0.433   3.870   6.781
   33SOL    HW1  998   0.421   3.885   6.682
   33SOL    HW2  999   0.395   3.781   6.806
   34SOL     OW 1000   1.772   5.578   5.110
   34SOL    HW1 1001   1.856   5.591   5.056
   34SOL    HW2 1002   1.772   5.644   5.186
   35SOL     OW 1003   3.751   3.189   6.911
   35SOL    HW1 1004   3.687   3.171   6.836
   35SOL    HW2 1005   3.700   3.210   6.994
   36SOL     OW 1006   4.721   0.731   3.971
   36SOL    HW1 1007   4.801   0.672   3.964
   36SOL    HW2 1008   4.738   0.817   3.922
   37SOL     OW 1009   2.122   1.261   3.751
   37SOL    HW1 1010   2.130   1.186   3.815
   37SOL    HW2 1011   2.089   1.343   3.799
   38SOL     OW 1012   1.360   5.517   2.275
   38SOL    HW1 1013   1.445   5.556   2.238
   38SOL    HW2 1014   1.341   5.430   2.228
   39SOL     OW 1015   5.672   4.879   6.388
   39SOL    HW1 1016   5.738   4.804   6.394
   39SOL    HW2 1017   5.624   4.874   6.300
   40SOL     OW 1018   3.078   0.528   6.163
   40SOL    HW1 1019   3.040   0.462   6.098
   40SOL    HW2 1020   3.175   0.541   6.146
   41SOL     OW 1021   5.618   4.250   1.999
   41SOL    HW1 1022   5.694   4.193   1.970
   41SOL    HW2 1023   5.649   4.345   2.007
   42SOL     OW 1024   2.811   5.851   5.129
   42SOL    HW1 1025   2.817   5.753   5.145
   42SOL    HW2 1026   2.766   5.895   5.207
   43SOL     OW 1027   5.042   6.809   5.190
   43SOL    HW1 1028   5.084   6.721   5.212
   43SOL    HW2 1029   5.093   6.853   5.115
   44SOL     OW 1030   5.539   2.682   5.246
   44SOL    HW1 1031   5.471   2.723   5.186
   44SOL    HW2 1032   5.507   2.685   5.340
   45SOL     OW 1033   3.992   5.348   0.369
   45SOL    HW1 1034   3.935   5.417   0.413
   45SOL    HW2 1035   3.935   5.293   0.307
   46SOL     OW 1036   0.448   2.954   4.542
   46SOL    HW1 1037   0.472   2.889   4.470
   46SOL    HW2 1038   0.389   2.909   4.610
   47SOL     OW 1039   5.030   3.248   1.885
   47SOL    HW1 1040   5.099   3.247   1.957
   47SOL    HW2 1041   4.970   3.327   1.898
   48SOL     OW 1042   6.551   3.772   6.720
   48SOL    HW1 1043   6.470   3.799   6.669
   48SOL    HW2 1044   6.624   3.839   6.703
   49SOL     OW 1045   4.993   3.218   0.253
   49SOL    HW1 1046   4.962   3.124   0.270
   49SOL    HW2 1047   5.066   3.241   0.317
   50SOL     OW 1048   6.146   2.092   6.476
   50SOL    HW1 1049   6.234   2.047   6.465
   50SOL    HW2 1050   6.124   2.146   6.394
   51SOL     OW 1051   1.663   4.661   3.635
   51SOL    HW1 1052   1.577   4.706   3.615
   51SOL    HW2 1053   1.675   4.583   3.573
   52SOL     OW 1054   5.590   3.022   1.572
   52SOL    HW1 1055   5.589   3.066   1.662
   52SOL    HW2 1056   5.553   2.929   1.580
   53SOL     OW 1057   4.655   0.494   3.277
   53SOL    HW1 1058   4.690   0.434   3.348
   53SOL    HW2 1059   4.591   0.559   3.317
   54SOL     OW 1060   5.527   6.142   0.199
   54SOL    HW1 1061   5.573   6.101   0.120
   54SOL    HW2 1062   5.530   6.241   0.191
   55SOL     OW 1063   2.048   2.769   6.308
   55SOL    HW1 1064   1.993   2.807   6.383
   55SOL    HW2 1065   2.044   2.669   6.312
   56SOL     OW 1066   1.620   2.064   0.116
   56SOL    HW1 1067   1.684   2.077   0.041
   56SOL    HW2 1068   1.661   2.003   0.184
   57SOL     OW 1069   3.842   0.832   0.428
   57SOL    HW1 1070   3.765   0.894   0.444
   57SOL    HW2 1071   3.926   0.875   0.462
   58SOL     OW 1072   0.994   0.678   5.946
   58SOL    HW1 1073   1.001   0.773   5.917
   58SOL    HW2 1074   0.945   0.625   5.876
   59SOL     OW 1075   6.189   3.480   6.340
   59SOL    HW1 1076   6.225   3.561   6.294
   59SOL    HW2 1077   6.239   3.399   6.309
   60SOL     OW 1078   5.523   0.671   3.058
   60SOL    HW1 1079   5.580   0.596   3.090
   60SOL    HW2 1080   5.536   0.684   2.960
   61SOL     OW 1081   0.278   1.231   5.104
   61SOL    HW1 1082   0.271   1.260   5.009
   61SOL    HW2 1083   0.219   1.151   5.118
   62SOL     OW 1084   0.236   1.739   2.332
   62SOL    HW1 1085   0.283   1.821   2.364
   62SOL    HW2 1086   0.261   1.721   2.237
   63SOL     OW 1087   3.867   6.491   4.536
   63SOL    HW1 1088   3.788   6.548   4.513
   63SOL    HW2 1089   3.912   6.528   4.618
   64SOL     OW 1090   1.462   4.249   6.670
   64SOL    HW1 1091   1.524   4.171   6.677
   64SOL    HW2 1092   1.400   4.250   6.748
   65SOL     OW 1093   0.495   0.565   5.261
   65SOL    HW1 1094   0.406   0.560   5.307
   65SOL    HW2 1095   0.566   0.528   5.322
   66SOL     OW 1096   3.917   6.974   2.094
   66SOL    HW1 1097   3.843   6.948   2.033
   66SOL    HW2 1098   3.960   0.037   2.061
   67SOL     OW 1099   0.429   2.189   0.965
   67SOL    HW1 1100   0.494   2.239   1.022
   67SOL    HW2 1101   0.457   2.093   0.959
   68SOL     OW 1102   0.029   2.402   5.601
   68SOL    HW1 1103   0.113   2.364   5.639
   68SOL    HW2 1104   7.007   2.462   5.668
   69SOL     OW 1105   0.646   5.258   5.744
   69SOL    HW1 1106   0.633   5.224   5.837
   69SOL    HW2 1107   0.713   5.202   5.697
   70SOL     OW 1108   5.351   3.873   4.663
   70SOL    HW1 1109   5.318   3.948   4.721
   70SOL    HW2 1110   5.386   3.799   4.720
   71SOL     OW 1111   4.642   2.118   4.933
   71SOL    HW1 1112   4.708   2.180   4.976
   71SOL    HW2 1113   4.641   2.133   4.834
   72SOL     OW 1114   6.781   0.028   3.876
   72SOL    HW1 1115   6.824   0.105   3.923
   72SOL    HW2 1116   6.703   7.016   3.929
   73SOL     OW 1117   3.012   0.491   0.926
   73SOL    HW1 1118   3.089   0.428   0.925
   73SOL    HW2 1119   2.990   0.518   0.832
   74SOL     OW 1120   1.892   1.472   6.581
   74SOL    HW1 1121   1.918   1.378   6.560
   74SOL    HW2 1122   1.838   1.474   6.665
   75SOL     OW 1123   4.250   1.337   0.931
   75SOL    HW1 1124   4.171   1.285   0.963
   75SOL    HW2 1125   4.289   1.388   1.008
   76SOL     OW 1126   3.079   4.366   5.277
   76SOL    HW1 1127   3.079   4.385   5.375
   76SOL    HW2 1128   3.014   4.426   5.231
   77SOL     OW 1129   1.974   5.421   4.405
   77SOL    HW1 1130   2.058   5.432   4.458
   77SOL    HW2 1131   1.996   5.384   4.314
   78SOL     OW 1132   4.404   1.397   1.193
   78SOL    HW1 1133   4.367   1.464   1.258
   78SOL    HW2 1134   4.408   1.307   1.237
   79SOL     OW 1135   2.303   4.874   1.721
   79SOL    HW1 1136   2.397   4.905   1.712
   79SOL    HW2 1137   2.260   4.922   1.798
   80SOL     OW 1138   5.041   2.066   5.374
   80SOL    HW1 1139   4.987   2.030   5.298
   80SOL    HW2 1140   5.102   2.138   5.341
   81SOL     OW 1141   2.648   6.020   1.206
   81SOL    HW1 1142   2.609   5.974   1.285
   81SOL    HW2 1143   2.647   6.119   1.221
   82SOL     OW 1144   1.149   5.898   1.769
   82SOL    HW1 1145   1.113   5.869   1.858
   82SOL    HW2 1146   1.110   5.840   1.697
   83SOL     OW 1147   5.804   2.169   5.739
   83SOL    HW1 1148   5.893   2.185   5.783
   83SOL    HW2 1149   5.747   2.113   5.799
   84SOL     OW 1150   6.300   3.147   3.645
   84SOL    HW1 1151   6.319   3.049   3.650
   84SOL    HW2 1152   6.386   3.197   3.642
   85SOL     OW 1153   2.044   0.063   4.359
   85SOL    HW1 1154   2.040   0.152   4.405
   85SOL    HW2 1155   2.011   7.014   4.421
   86SOL     OW 1156   5.569   1.625   6.053
   86SOL    HW1 1157   5.618   1.603   5.968
   86SOL    HW2 1158   5.495   1.689   6.033
   87SOL     OW 1159   4.304   4.295   6.323
   87SOL    HW1 1160   4.317   4.216   6.262
   87SOL    HW2 1161   4.272   4.263   6.412
   88SOL     OW 1162   2.958   2.938   6.213
   88SOL    HW1 1163   2.873   2.897   6.245
   88SOL    HW2 1164   2.943   2.981   6.124
   89SOL     OW 1165   2.914   3.387   3.011
   89SOL    HW1 1166   2.920   3.485   3.031
   89SOL    HW2 1167   2.896   3.375   2.913
   90SOL     OW 1168   4.892   3.348   2.741
   90SOL    HW1 1169   4.900   3.337   2.642
   90SOL    HW2 1170   4.924   3.439   2.767
   91SOL     OW 1171   5.400   5.312   5.751
   91SOL    HW1 1172   5.446   5.333   5.664
   91SOL    HW2 1173   5.397   5.213   5.764
   92SOL     OW 1174   5.244   4.802   6.877
   92SOL    HW1 1175   5.292   4.817   6.791
   92SOL    HW2 1176   5.300   4.745   6.937
   93SOL     OW 1177   2.908   2.798   1.198
   93SOL    HW1 1178   2.817   2.816   1.235
   93SOL    HW2 1179   2.962   2.882   1.200
   94SOL     OW 1180   3.167   0.724   5.564
   94SOL    HW1 1181   3.154   0.651   5.632
   94SOL    HW2 1182   3.242   0.784   5.593
   95SOL     OW 1183   0.074   0.464   4.384
   95SOL    HW1 1184   7.000   0.435   4.379
   95SOL    HW2 1185   0.129   0.410   4.320
   96SOL     OW 1186   4.720   5.014   6.488
   96SOL    HW1 1187   4.791   5.049   6.427
   96SOL    HW2 1188   4.718   4.915   6.483
   97SOL     OW 1189   1.950   5.273   5.590
   97SOL    HW1 1190   1.903   5.206   5.648
   97SOL    HW2 1191   2.022   5.318   5.643
   98SOL     OW 1192   0.980   2.984   2.196
   98SOL    HW1 1193   1.051   2.957   2.261
   98SOL    HW2 1194   0.976   3.084   2.191
   99SOL     OW 1195   3.620   2.873   3.567
   99SOL    HW1 1196   3.631   2.811   3.645
   99SOL    HW2 1197   3.535   2.850   3.519
  100SOL     OW 1198   0.063   6.670   4.000
  100SOL    HW1 1199   6.987   6.654   3.990
  100SOL    HW2 1200   0.085   6.685   4.097
  101SOL     OW 1201   1.194   4.319   3.124
  101SOL    HW1 1202   1.281   4.291   3.084
  101SOL    HW2 1203   1.141   4.238   3.149
  102SOL     OW 1204   2.759   6.286   1.536
  102SOL    HW1 1205   2.799   6.259   1.448
  102SOL    HW2 1206   2.659   6.285   1.529
  103SOL     OW 1207   1.894   1.115   2.297
  103SOL    HW1 1208   1.845   1.052   2.237
  103SOL    HW2 1209   1.990   1.118   2.273
  104SOL     OW 1210   1.265   4.493   1.867
  104SOL    HW1 1211   1.313   4.571   1.907
  104SOL    HW2 1212   1.278   4.492   1.768
  105SOL     OW 1213   4.891   1.767   6.564
  105SOL    HW1 1214   4.924   1.857   6.538
  105SOL    HW2 1215   4.808   1.745   6.513
  106SOL     OW 1216   5.474   5.174   2.502
  106SOL    HW1 1217   5.464   5.100   2.435
  106SOL    HW2 1218   5.556   5.158   2.558
  107SOL     OW 1219   6.281   1.830   0.344
  107SOL    HW1 1220   6.298   1.845   0.246
  107SOL    HW2 1221   6.193   1.871   0.369
  108SOL     OW 1222   1.817   0.668   5.071
  108SOL    HW1 1223   1.879   0.611   5.123
  108SOL    HW2 1224   1.836   0.658   4.973
  109SOL     OW 1225   3.303   1.137   3.383
  109SOL    HW1 1226   3.306   1.233   3.409
  109SOL    HW2 1227   3.258   1.085   3.456
  110SOL     OW 1228   2.810   4.731   5.924
  110SOL    HW1 1229   2.723   4.728   5.973
  110SOL    HW2 1230   2.842   4.826   5.921
  111SOL     OW 1231   5.758   1.615   2.586
  111SOL    HW1 1232   5.696   1.588   2.659
  111SOL    HW2 1233   5.812   1.536   2.556
  112SOL     OW 1234   3.936   7.012   6.635
  112SOL    HW1 1235   3.867   6.976   6.573
  112SOL    HW2 1236   3.892   0.035   6.712
  113SOL     OW 1237   6.183   5.821   2.784
  113SOL    HW1 1238   6.230   5.757   2.844
  113SOL    HW2 1239   6.244   5.851   2.711
  114SOL     OW 1240   1.333   4.198   4.202
  114SOL    HW1 1241   1.370   4.106   4.215
  114SOL    HW2 1242   1.340   4.223   4.105
  115SOL     OW 1243   6.010   0.999   3.416
  115SOL    HW1 1244   6.052   1.089   3.405
  115SOL    HW2 1245   5.970   0.992   3.507
  116SOL     OW 1246   1.295   5.454   0.940
  116SOL    HW1 1247   1.384   5.496   0.921
  116SOL    HW2 1248   1.231   5.525   0.972
  117SOL     OW 1249   2.367   1.948   6.810
  117SOL    HW1 1250   2.298   1.888   6.849
  117SOL    HW2 1251   2.322   2.024   6.762
  118SOL     OW 1252   1.299   1.870   4.169
  118SOL    HW1 1253   1.323   1.966   4.182
  118SOL    HW2 1254   1.200   1.860   4.169
  119SOL     OW 1255   0.214   6.883   6.439
  119SOL    HW1 1256   0.312   6.892   6.458
  119SOL    HW2 1257   0.168   6.970   6.458
  120SOL     OW 1258   4.224   1.317   4.879
  120SOL    HW1 1259   4.168   1.253   4.825
  120SOL    HW2 1260   4.178   1.405   4.885
  121SOL     OW 1261   1.225   3.426   6.568
  121SOL    HW1 1262   1.127   3.407   6.571
  121SOL    HW2 1263   1.276   3.346   6.600
  122SOL     OW 1264   0.855   4.308   6.797
  122SOL    HW1 1265   0.848   4.223   6.745
  122SOL    HW2 1266   0.943   4.352   6.778
  123SOL     OW 1267   1.017   1.243   1.543
  123SOL    HW1 1268   1.008   1.262   1.445
  123SOL    HW2 1269   0.953   1.171   1.569
  124SOL     OW 1270   3.105   2.280   0.948
  124SOL    HW1 1271   3.058   2.361   0.985
  124SOL    HW2 1272   3.182   2.256   1.008
  125SOL     OW 1273   3.589   2.577   6.910
  125SOL    HW1 1274   3.540   2.550   6.827
  125SOL    HW2 1275   3.644   2.501   6.943
  126SOL     OW 1276   4.035   3.312   4.128
  126SOL    HW1 1277   4.002   3.386   4.069
  126SOL    HW2 1278   3.972   3.235   4.123
  127SOL     OW 1279   0.519   6.080   6.275
  127SOL    HW1 1280   0.618   6.071   6.280
  127SOL    HW2 1281   0.475   6.005   6.325
  128SOL     OW 1282   4.567   3.977   1.254
  128SOL    HW1 1283   4.601   4.070   1.268
  128SOL    HW2 1284   4.500   3.977   1.179
  129SOL     OW 1285   2.086   6.155   1.146
  129SOL    HW1 1286   2.128   6.097   1.076
  129SOL    HW2 1287   2.018   6.215   1.103
  130SOL     OW 1288   5.571   2.444   4.568
  130SOL    HW1 1289   5.546   2.447   4.665
  130SOL    HW2 1290   5.535   2.360   4.527
  131SOL     OW 1291   0.207   2.311   3.830
  131SOL    HW1 1292   0.247   2.224   3.857
  131SOL    HW2 1293   0.146   2.298   3.751
  132SOL     OW 1294   3.667   4.118   1.926
  132SOL    HW1 1295   3.630   4.170   2.003
  132SOL    HW2 1296   3.668   4.176   1.844
  133SOL     OW 1297   5.207   6.886   4.997
  133SOL    HW1 1298   5.198   6.818   4.924
  133SOL    HW2 1299   5.230   6.975   4.957
  134SOL     OW 1300   5.544   1.343   2.084
  134SOL    HW1 1301   5.597   1.419   2.121
  134SOL    HW2 1302   5.525   1.277   2.156
  135SOL     OW 1303   5.019   3.561   4.369
  135SOL    HW1 1304   4.973   3.640   4.410
  135SOL    HW2 1305   4.978   3.540   4.280
  136SOL     OW 1306   2.626   6.901   4.932
  136SOL    HW1 1307   2.675   6.939   5.010
  136SOL    HW2 1308   2.538   6.947   4.922
  137SOL     OW 1309   3.295   2.074   4.930
  137SOL    HW1 1310   3.265   2.137   5.001
  137SOL    HW2 1311   3.215   2.033   4.885
  138SOL     OW 1312   0.738   5.263   4.922
  138SOL    HW1 1313   0.694   5.352   4.929
  138SOL    HW2 1314   0.691   5.197   4.981
  139SOL     OW 1315   1.848   6.065   6.333
  139SOL    HW1 1316   1.872   6.099   6.424
  139SOL    HW2 1317   1.889   6.123   6.263
  140SOL     OW 1318   2.178   1.017   3.033
  140SOL    HW1 1319   2.222   1.079   3.099
  140SOL    HW2 1320   2.152   1.069   2.952
  141SOL     OW 1321   6.822   4.087   0.621
  141SOL    HW1 1322   6.737   4.125   0.658
  141SOL    HW2 1323   6.822   4.099   0.521
  142SOL     OW 1324   1.298   4.176   1.707
  142SOL    HW1 1325   1.245   4.091   1.707
  142SOL    HW2 1326   1.236   4.254   1.697
  143SOL     OW 1327   5.362   6.839   1.869
  143SOL    HW1 1328   5.397   6.762   1.815
  143SOL    HW2 1329   5.437   6.880   1.920
  144SOL     OW 1330   3.292   4.881   3.176
  144SOL    HW1 1331   3.295   4.796   3.229
  144SOL    HW2 1332   3.282   4.959   3.238
  145SOL     OW 1333   6.751   4.572   2.581
  145SOL    HW1 1334   6.773   4.613   2.670
  145SOL    HW2 1335   6.828   4.584   2.519
  146SOL     OW 1336   6.007   1.969   6.012
  146SOL    HW1 1337   6.105   1.950   6.017
  146SOL    HW2 1338   5.969   1.922   5.932
  147SOL     OW 1339   4.998   1.368   6.072
  147SOL    HW1 1340   4.928   1.346   6.140
  147SOL    HW2 1341   5.064   1.293   6.068
  148SOL     OW 1342   1.290   4.612   1.280
  148SOL    HW1 1343   1.285   4.514   1.299
  148SOL    HW2 1344   1.300   4.626   1.181
  149SOL     OW 1345   2.527   2.280   5.461
  149SOL    HW1 1346   2.562   2.358   5.409
  149SOL    HW2 1347   2.575   2.197   5.434
  150SOL     OW 1348   4.467   1.140   5.292
  150SOL    HW1 1349   4.446   1.227   5.247
  150SOL    HW2 1350   4.566   1.127   5.295
  151SOL     OW 1351   4.081   1.868   1.036
  151SOL    HW1 1352   4.168   1.882   1.084
  151SOL    HW2 1353   4.097   1.816   0.952
  152SOL     OW 1354   1.158   0.920   0.063
  152SOL    HW1 1355   1.236   0.942   0.121
  152SOL    HW2 1356   1.125   0.828   0.083
  153SOL     OW 1357   2.631   1.217   3.772
  153SOL    HW1 1358   2.695   1.248   3.842
  153SOL    HW2 1359   2.632   1.282   3.695
  154SOL     OW 1360   6.227   1.970   1.447
  154SOL    HW1 1361   6.286   1.971   1.366
  154SOL    HW2 1362   6.281   1.945   1.527
  155SOL     OW 1363   0.478   6.915   1.698
  155SOL    HW1 1364   0.390   6.944   1.661
  155SOL    HW2 1365   0.544   6.906   1.623
  156SOL     OW 1366   4.678   0.952   0.536
  156SOL    HW1 1367   4.735   1.014   0.591
  156SOL    HW2 1368   4.594   0.931   0.585
  157SOL     OW 1369   5.160   4.231   0.971
  157SOL    HW1 1370   5.156   4.148   0.916
  157SOL    HW2 1371   5.175   4.310   0.911
  158SOL     OW 1372   0.798   2.792   2.748
  158SOL    HW1 1373   0.798   2.746   2.837
  158SOL    HW2 1374   0.711   2.774   2.702
  159SOL     OW 1375   5.266   5.420   0.242
  159SOL    HW1 1376   5.201   5.414   0.318
  159SOL    HW2 1377   5.353   5.379   0.269
  160SOL     OW 1378   5.975   6.810   0.611
  160SOL    HW1 1379   5.993   6.808   0.512
  160SOL    HW2 1380   6.046   6.863   0.657
  161SOL     OW 1381   0.789   0.094   0.495
  161SOL    HW1 1382   0.888   0.091   0.487
  161SOL    HW2 1383   0.749   0.018   0.444
  162SOL     OW 1384   2.747   6.347   0.296
  162SOL    HW1 1385   2.715   6.413   0.229
  162SOL    HW2 1386   2.692   6.355   0.380
  163SOL     OW 1387   0.019   4.074   3.769
  163SOL    HW1 1388   6.990   4.061   3.683
  163SOL    HW2 1389   0.085   4.000   3.779
  164SOL     OW 1390   1.941   1.879   2.656
  164SOL    HW1 1391   1.873   1.945   2.623
  164SOL    HW2 1392   1.984   1.915   2.740
  165SOL     OW 1393   1.114   5.743   2.519
  165SOL    HW1 1394   1.047   5.728   2.446
  165SOL    HW2 1395   1.194   5.685   2.504
  166SOL     OW 1396   6.414   3.957   2.484
  166SOL    HW1 1397   6.371   3.986   2.398
  166SOL    HW2 1398   6.500   3.912   2.464
  167SOL     OW 1399   5.002   1.719   0.479
  167SOL    HW1 1400   4.954   1.687   0.398
  167SOL    HW2 1401   5.061   1.796   0.455
  168SOL     OW 1402   5.138   3.872   2.103
  168SOL    HW1 1403   5.063   3.923   2.145
  168SOL    HW2 1404   5.216   3.933   2.090
  169SOL     OW 1405   6.150   2.316   1.258
  169SOL    HW1 1406   6.107   2.258   1.189
  169SOL    HW2 1407   6.249   2.306   1.253
  170SOL     OW 1408   0.780   5.376   2.239
  170SOL    HW1 1409   0.686   5.346   2.251
  170SOL    HW2 1410   0.816   5.341   2.152
  171SOL     OW 1411   2.356   3.992   0.699
  171SOL    HW1 1412   2.410   3.909   0.709
  171SOL    HW2 1413   2.399   4.066   0.751
  172SOL     OW 1414   6.227   2.137   2.018
  172SOL    HW1 1415   6.285   2.215   2.042
  172SOL    HW2 1416   6.219   2.076   2.096
  173SOL     OW 1417   6.715   1.590   5.425
  173SOL    HW1 1418   6.719   1.611   5.327
  173SOL    HW2 1419   6.722   1.675   5.477
  174SOL     OW 1420   5.701   5.517   5.335
  174SOL    HW1 1421   5.796   5.487   5.322
  174SOL    HW2 1422   5.697   5.617   5.334
  175SOL     OW 1423   1.279   0.486   0.353
  175SOL    HW1 1424   1.253   0.486   0.257
  175SOL    HW2 1425   1.197   0.496   0.409
  176SOL     OW 1426   5.329   4.805   2.636
  176SOL    HW1 1427   5.353   4.709   2.650
  176SOL    HW2 1428   5.329   4.826   2.538
  177SOL     OW 1429   5.836   1.937   4.371
  177SOL    HW1 1430   5.814   2.024   4.327
  177SOL    HW2 1431   5.769   1.868   4.344
  178SOL     OW 1432   1.955   6.521   5.102
  178SOL    HW1 1433   1.926   6.572   5.183
  178SOL    HW2 1434   2.053   6.501   5.108
  179SOL     OW 1435   4.126   5.512   0.655
  179SOL    HW1 1436   4.187   5.521   0.576
  179SOL    HW2 1437   4.144   5.425   0.701
  180SOL     OW 1438   3.704   0.818   1.157
  180SOL    HW1 1439   3.657   0.878   1.092
  180SOL    HW2 1440   3.713   0.726   1.117
  181SOL     OW 1441   3.345   2.675   5.243
  181SOL    HW1 1442   3.403   2.666   5.324
  181SOL    HW2 1443   3.289   2.594   5.232
  182SOL     OW 1444   5.193   2.484   6.839
  182SOL    HW1 1445   5.196   2.584   6.842
  182SOL    HW2 1446   5.258   2.451   6.771
  183SOL     OW 1447   3.370   1.353   4.361
  183SOL    HW1 1448   3.453   1.313   4.399
  183SOL    HW2 1449   3.296   1.286   4.367
  184SOL     OW 1450   0.069   6.182   3.195
  184SOL    HW1 1451   0.020   6.164   3.280
  184SOL    HW2 1452   0.010   6.235   3.134
  185SOL     OW 1453   0.635   1.791   4.084
  185SOL    HW1 1454   0.581   1.771   4.165
  185SOL    HW2 1455   0.676   1.882   4.093
  186SOL     OW 1456   4.999   5.259   4.170
  186SOL    HW1 1457   5.077   5.254   4.232
  186SOL    HW2 1458   4.994   5.175   4.115
  187SOL     OW 1459   3.948   5.699   2.567
  187SOL    HW1 1460   4.013   5.762   2.610
  187SOL    HW2 1461   3.857   5.740   2.567
  188SOL     OW 1462   2.395   2.477   2.530
  188SOL    HW1 1463   2.445   2.459   2.445
  188SOL    HW2 1464   2.458   2.471   2.607
  189SOL     OW 1465   6.582   5.682   6.722
  189SOL    HW1 1466   6.511   5.644   6.782
  189SOL    HW2 1467   6.575   5.782   6.721
  190SOL     OW 1468   6.012   5.837   0.410
  190SOL    HW1 1469   6.067   5.811   0.490
  190SOL    HW2 1470   5.965   5.757   0.374
  191SOL     OW 1471   6.217   0.588   6.149
  191SOL    HW1 1472   6.136   0.530   6.141
  191SOL    HW2 1473   6.274   0.575   6.068
  192SOL     OW 1474   0.173   5.458   1.225
  192SOL    HW1 1475   0.174   5.495   1.318
  192SOL    HW2 1476   0.261   5.414   1.206
  193SOL     OW 1477   3.284   5.083   6.325
  193SOL    HW1 1478   3.292   4.993   6.282
  193SOL    HW2 1479   3.351   5.091   6.399
  194SOL     OW 1480   4.051   6.474   2.024
  194SOL    HW1 1481   3.959   6.479   2.062
  194SOL    HW2 1482   4.069   6.556   1.968
  195SOL     OW 1483   3.240   0.917   1.647
  195SOL    HW1 1484   3.171   0.889   1.580
  195SOL    HW2 1485   3.301   0.984   1.605
  196SOL     OW 1486   2.226   0.800   6.475
  196SOL    HW1 1487   2.235   0.889   6.431
  196SOL    HW2 1488   2.151   0.803   6.542
  197SOL     OW 1489   2.763   5.660   0.119
  197SOL    HW1 1490   2.760   5.607   0.034
  197SOL    HW2 1491   2.720   5.607   0.193
  198SOL     OW 1492   4.238   6.210   0.500
  198SOL    HW1 1493   4.189   6.172   0.421
  198SOL    HW2 1494   4.189   6.291   0.533
  199SOL     OW 1495   5.653   0.107   2.547
  199SOL    HW1 1496   5.600   0.025   2.521
  199SOL    HW2 1497   5.635   0.128   2.643
  200SOL     OW 1498   1.278   4.171   2.726
  200SOL    HW1 1499   1.236   4.178   2.817
  200SOL    HW2 1500   1.244   4.245   2.668
  201SOL     OW 1501   2.750   0.955   6.675
  201SOL    HW1 1502   2.723   1.051   6.685
  201SOL    HW2 1503   2.847   0.945   6.696
  202SOL     OW 1504   4.105   0.014   3.862
  202SOL    HW1 1505   4.155   6.957   3.824
  202SOL    HW2 1506   4.073   0.072   3.787
  203SOL     OW 1507   5.269   3.303   6.420
  203SOL    HW1 1508   5.272   3.224   6.359
  203SOL    HW2 1509   5.350   3.360   6.405
  204SOL     OW 1510   1.904   0.375   0.370
  204SOL    HW1 1511   1.814   0.415   0.387
  204SOL    HW2 1512   1.964   0.393   0.449
  205SOL     OW 1513   5.679   1.618   1.251
  205SOL    HW1 1514   5.743   1.693   1.238
  205SOL    HW2 1515   5.728   1.536   1.280
  206SOL     OW 1516   0.774   4.548   1.299
  206SOL    HW1 1517   0.725   4.469   1.261
  206SOL    HW2 1518   0.849   4.572   1.238
  207SOL     OW 1519   4.769   0.510   5.898
  207SOL    HW1 1520   4.744   0.602   5.928
  207SOL    HW2 1521   4.868   0.500   5.897
  208SOL     OW 1522   5.129   4.999   6.137
  208SOL    HW1 1523   5.101   5.071   6.074
  208SOL    HW2 1524   5.050   4.942   6.160
  209SOL     OW 1525   0.018   6.086   6.044
  209SOL    HW1 1526   0.011   5.988   6.023
  209SOL    HW2 1527   0.112   6.108   6.068
  210SOL     OW 1528   3.821   1.952   1.956
  210SOL    HW1 1529   3.792   1.884   2.023
  210SOL    HW2 1530   3.755   2.027   1.953
  211SOL     OW 1531   1.019   1.266   1.265
  211SOL    HW1 1532   0.933   1.235   1.224
  211SOL    HW2 1533   1.056   1.342   1.212
  212SOL     OW 1534   0.849   4.714   3.126
  212SOL    HW1 1535   0.936   4.694   3.172
  212SOL    HW2 1536   0.775   4.710   3.193
  213SOL     OW 1537   5.015   1.180   0.350
  213SOL    HW1 1538   5.037   1.113   0.421
  213SOL    HW2 1539   5.041   1.143   0.261
  214SOL     OW 1540   0.816   6.076   2.999
  214SOL    HW1 1541   0.896   6.057   2.942
  214SOL    HW2 1542   0.766   5.991   3.017
  215SOL     OW 1543   3.640   3.197   2.315
  215SOL    HW1 1544   3.699   3.121   2.340
  215SOL    HW2 1545   3.694   3.267   2.268
  216SOL     OW 1546   1.121   0.302   4.814
  216SOL    HW1 1547   1.090   0.211   4.838
  216SOL    HW2 1548   1.212   0.319   4.852
  217SOL     OW 1549   1.887   2.635   3.869
  217SOL    HW1 1550   1.797   2.671   3.846
  217SOL    HW2 1551   1.890   2.537   3.850
  218SOL     OW 1552   1.118   2.629   4.688
  218SOL    HW1 1553   1.209   2.590   4.678
  218SOL    HW2 1554   1.074   2.592   4.770
  219SOL     OW 1555   3.933   3.826   0.591
  219SOL    HW1 1556   3.862   3.768   0.631
  219SOL    HW2 1557   3.995   3.771   0.536
  220SOL     OW 1558   2.747   5.521   6.900
  220SOL    HW1 1559   2.831   5.470   6.920
  220SOL    HW2 1560   2.692   5.470   6.835
  221SOL     OW 1561   5.112   2.915   4.041
  221SOL    HW1 1562   5.016   2.932   4.064
  221SOL    HW2 1563   5.166   2.998   4.057
  222SOL     OW 1564   1.264   5.686   5.213
  222SOL    HW1 1565   1.181   5.738   5.193
  222SOL    HW2 1566   1.340   5.750   5.225
  223SOL     OW 1567   6.941   3.555   2.117
  223SOL    HW1 1568   6.937   3.655   2.118
  223SOL    HW2 1569   6.998   3.525   2.041
  224SOL     OW 1570   2.684   2.330   1.855
  224SOL    HW1 1571   2.768   2.378   1.876
  224SOL    HW2 1572   2.674   2.251   1.916
  225SOL     OW 1573   5.782   0.663   0.119
  225SOL    HW1 1574   5.707   0.696   0.176
  225SOL    HW2 1575   5.867   0.666   0.172
  226SOL     OW 1576   1.337   6.131   0.575
  226SOL    HW1 1577   1.421   6.111   0.524
  226SOL    HW2 1578   1.274   6.180   0.516
  227SOL     OW 1579   2.189   4.078   3.793
  227SOL    HW1 1580   2.128   4.156   3.788
  227SOL    HW2 1581   2.206   4.042   3.701
  228SOL     OW 1582   3.713   6.927   4.062
  228SOL    HW1 1583   3.782   6.860   4.035
  228SOL    HW2 1584   3.756   6.998   4.119
  229SOL     OW 1585   6.283   5.599   1.442
  229SOL    HW1 1586   6.315   5.692   1.425
  229SOL    HW2 1587   6.309   5.572   1.535
  230SOL     OW 1588   2.068   4.138   4.850
  230SOL    HW1 1589   1.998   4.085   4.898
  230SOL    HW2 1590   2.153   4.136   4.904
  231SOL     OW 1591   6.866   2.946   6.703
  231SOL    HW1 1592   6.832   2.913   6.791
  231SOL    HW2 1593   6.790   2.961   6.641
  232SOL     OW 1594   1.801   3.684   6.401
  232SOL    HW1 1595   1.839   3.636   6.322
  232SOL    HW2 1596   1.876   3.722   6.456
  233SOL     OW 1597   2.553   1.368   5.496
  233SOL    HW1 1598   2.639   1.354   5.544
  233SOL    HW2 1599   2.513   1.455   5.525
  234SOL     OW 1600   3.136   4.873   0.006
  234SOL    HW1 1601   3.080   4.790   0.004
  234SOL    HW2 1602   3.155   4.902   6.934
  235SOL     OW 1603   3.649   3.213   4.123
  235SOL    HW1 1604   3.614   3.232   4.215
  235SOL    HW2 1605   3.680   3.298   4.081
  236SOL     OW 1606   0.023   2.719   5.353
  236SOL    HW1 1607   6.967   2.665   5.386
  236SOL    HW2 1608   7.013   2.811   5.331
  237SOL     OW 1609   0.022   6.841   1.336
  237SOL    HW1 1610   7.018   6.782   1.412
  237SOL    HW2 1611   6.982   6.920   1.333
  238SOL     OW 1612   5.737   3.501   2.080
  238SOL    HW1 1613   5.818   3.559   2.092
  238SOL    HW2 1614   5.758   3.407   2.107
  239SOL     OW 1615   0.050   5.687   6.854
  239SOL    HW1 1616   0.058   5.699   6.755
  239SOL    HW2 1617   0.140   5.665   6.892
  240SOL     OW 1618   0.636   3.576   6.563
  240SOL    HW1 1619   0.545   3.599   6.597
  240SOL    HW2 1620   0.631   3.493   6.508
  241SOL     OW 1621   0.154   0.859   3.615
  241SOL    HW1 1622   0.135   0.785   3.550
  241SOL    HW2 1623   0.199   0.821   3.696
  242SOL     OW 1624   1.339   3.905   4.665
  242SOL    HW1 1625   1.354   3.817   4.710
  242SOL    HW2 1626   1.297   3.891   4.576
  243SOL     OW 1627   5.784   0.196   5.830
  243SOL    HW1 1628   5.720   0.189   5.753
  243SOL    HW2 1629   5.733   0.212   5.914
  244SOL     OW 1630   5.508   2.135   5.165
  244SOL    HW1 1631   5.528   2.144   5.067
  244SOL    HW2 1632   5.415   2.098   5.177
  245SOL     OW 1633   6.288   2.475   4.821
  245SOL    HW1 1634   6.311   2.399   4.760
  245SOL    HW2 1635   6.367   2.536   4.830
  246SOL     OW 1636   4.889   3.579   2.961
  246SOL    HW1 1637   4.934   3.634   2.890
  246SOL    HW2 1638   4.798   3.616   2.980
  247SOL     OW 1639   2.105   1.499   3.914
  247SOL    HW1 1640   2.165   1.575   3.891
  247SOL    HW2 1641   2.015   1.534   3.940
  248SOL     OW 1642   4.893   1.986   4.531
  248SOL    HW1 1643   4.966   1.979   4.599
  248SOL    HW2 1644   4.927   2.030   4.448
  249SOL     OW 1645   3.093   6.706   4.675
  249SOL    HW1 1646   3.104   6.632   4.743
  249SOL    HW2 1647   3.090   6.666   4.583
  250SOL     OW 1648   5.222   3.241   5.431
  250SOL    HW1 1649   5.137   3.220   5.479
  250SOL    HW2 1650   5.270   3.156   5.408
  251SOL     OW 1651   4.674   3.037   6.582
  251SOL    HW1 1652   4.642   3.132   6.577
  251SOL    HW2 1653   4.609   2.983   6.635
  252SOL     OW 1654   6.560   1.187   5.887
  252SOL    HW1 1655   6.602   1.155   5.972
  252SOL    HW2 1656   6.588   1.281   5.868
  253SOL     OW 1657   2.790   3.322   0.539
  253SOL    HW1 1658   2.777   3.419   0.515
  253SOL    HW2 1659   2.708   3.290   0.588
  254SOL     OW 1660   6.599   3.033   4.420
  254SOL    HW1 1661   6.630   3.126   4.439
  254SOL    HW2 1662   6.673   2.980   4.379
  255SOL     OW 1663   2.814   2.310   3.275
  255SOL    HW1 1664   2.876   2.238   3.243
  255SOL    HW2 1665   2.798   2.299   3.373
  256SOL     OW 1666   6.247   5.312   6.791
  256SOL    HW1 1667   6.275   5.316   6.695
  256SOL    HW2 1668   6.252   5.217   6.823
  257SOL     OW 1669   3.114   5.574   5.937
  257SOL    HW1 1670   3.206   5.540   5.957
  257SOL    HW2 1671   3.119   5.671   5.913
  258SOL     OW 1672   5.117   3.943   4.016
  258SOL    HW1 1673   5.044   3.918   4.081
  258SOL    HW2 1674   5.156   3.860   3.976
  259SOL     OW 1675   1.342   2.849   2.912
  259SOL    HW1 1676   1.258   2.901   2.898
  259SOL    HW2 1677   1.338   2.801   2.999
  260SOL     OW 1678   5.228   0.327   6.377
  260SOL    HW1 1679   5.238   0.422   6.405
  260SOL    HW2 1680   5.319   0.288   6.358
  261SOL     OW 1681   0.784   3.909   2.060
  261SOL    HW1 1682   0.884   3.910   2.050
  261SOL    HW2 1683   0.760   3.891   2.156
  262SOL     OW 1684   1.343   3.136   2.163
  262SOL    HW1 1685   1.411   3.203   2.193
  262SOL    HW2 1686   1.252   3.164   2.195
  263SOL     OW 1687   0.667   2.164   5.007
  263SOL    HW1 1688   0.734   2.093   4.985
  263SOL    HW2 1689   0.615   2.138   5.088
  264SOL     OW 1690   1.529   4.318   6.081
  264SOL    HW1 1691   1.625   4.342   6.091
  264SOL    HW2 1692   1.519   4.243   6.016
  265SOL     OW 1693   4.842   4.468   3.806
  265SOL    HW1 1694   4.787   4.391   3.836
  265SOL    HW2 1695   4.783   4.547   3.789
  266SOL     OW 1696   3.813   1.413   0.628
  266SOL    HW1 1697   3.715   1.394   0.636
  266SOL    HW2 1698   3.856   1.341   0.574
  267SOL     OW 1699   1.918   2.503   6.161
  267SOL    HW1 1700   1.895   2.504   6.259
  267SOL    HW2 1701   1.874   2.581   6.116
  268SOL     OW 1702   4.474   4.591   4.528
  268SOL    HW1 1703   4.434   4.615   4.616
  268SOL    HW2 1704   4.413   4.619   4.454
  269SOL     OW 1705   1.360   2.040   6.434
  269SOL    HW1 1706   1.312   2.125   6.412
  269SOL    HW2 1707   1.434   2.059   6.499
  270SOL     OW 1708   5.098   0.713   2.231
  270SOL    HW1 1709   5.192   0.711   2.266
  270SOL    HW2 1710   5.068   0.619   2.213
  271SOL     OW 1711   1.501   0.299   0.364
  271SOL    HW1 1712   1.439   0.377   0.355
  271SOL    HW2 1713   1.498   0.245   0.280
  272SOL     OW 1714   3.707   5.433   3.094
  272SOL    HW1 1715   3.665   5.378   3.021
  272SOL    HW2 1716   3.662   5.412   3.181
  273SOL     OW 1717   1.950   5.835   4.831
  273SOL    HW1 1718   2.004   5.763   4.874
  273SOL    HW2 1719   1.888   5.794   4.763
  274SOL     OW 1720   6.148   2.737   2.494
  274SOL    HW1 1721   6.129   2.743   2.592
  274SOL    HW2 1722   6.138   2.828   2.453
  275SOL     OW 1723   6.963   6.576   5.835
  275SOL    HW1 1724   6.992   6.584   5.740
  275SOL    HW2 1725   6.906   6.494   5.846
  276SOL     OW 1726   6.496   5.909   3.791
  276SOL    HW1 1727   6.553   5.915   3.873
  276SOL    HW2 1728   6.422   5.844   3.807
  277SOL     OW 1729   3.274   1.789   5.554
  277SOL    HW1 1730   3.363   1.748   5.534
  277SOL    HW2 1731   3.234   1.826   5.469
  278SOL     OW 1732   5.667   3.735   2.237
  278SOL    HW1 1733   5.650   3.693   2.148
  278SOL    HW2 1734   5.663   3.834   2.228
  279SOL     OW 1735   0.067   2.696   2.934
  279SOL    HW1 1736   0.081   2.599   2.914
  279SOL    HW2 1737   0.132   2.726   3.003
  280SOL     OW 1738   4.999   6.897   4.192
  280SOL    HW1 1739   5.016   6.938   4.282
  280SOL    HW2 1740   5.030   6.960   4.120
  281SOL     OW 1741   5.097   5.948   3.992
  281SOL    HW1 1742   5.061   5.958   3.899
  281SOL    HW2 1743   5.092   6.037   4.038
  282SOL     OW 1744   4.495   2.240   6.890
  282SOL    HW1 1745   4.442   2.322   6.865
  282SOL    HW2 1746   4.510   2.185   6.808
  283SOL     OW 1747   6.218   1.030   4.944
  283SOL    HW1 1748   6.210   1.110   4.883
  283SOL    HW2 1749   6.307   0.986   4.929
  284SOL     OW 1750   6.747   4.848   4.829
  284SOL    HW1 1751   6.659   4.810   4.859
  284SOL    HW2 1752   6.750   4.946   4.849
  285SOL     OW 1753   4.375   0.252   6.795
  285SOL    HW1 1754   4.296   0.281   6.848
  285SOL    HW2 1755   4.347   0.238   6.699
  286SOL     OW 1756   3.770   4.939   4.423
  286SOL    HW1 1757   3.753   4.943   4.324
  286SOL    HW2 1758   3.868   4.934   4.439
  287SOL     OW 1759   2.653   6.462   6.084
  287SOL    HW1 1760   2.625   6.484   6.178
  287SOL    HW2 1761   2.704   6.540   6.046
  288SOL     OW 1762   3.728   0.734   0.805
  288SOL    HW1 1763   3.793   0.674   0.850
  288SOL    HW2 1764   3.647   0.682   0.778
  289SOL     OW 1765   0.391   6.900   4.499
  289SOL    HW1 1766   0.416   6.940   4.410
  289SOL    HW2 1767   0.449   6.939   4.570
  290SOL     OW 1768   3.703   0.757   3.833
  290SOL    HW1 1769   3.712   0.847   3.789
  290SOL    HW2 1770   3.735   0.762   3.927
  291SOL     OW 1771   4.911   0.690   4.299
  291SOL    HW1 1772   4.949   0.745   4.225
  291SOL    HW2 1773   4.920   0.593   4.277
  292SOL     OW 1774   3.323   0.342   3.849
  292SOL    HW1 1775   3.378   0.302   3.922
  292SOL    HW2 1776   3.372   0.335   3.762
  293SOL     OW 1777   5.944   6.339   2.915
  293SOL    HW1 1778   5.954   6.338   3.014
  293SOL    HW2 1779   5.991   6.418   2.877
  294SOL     OW 1780   5.659   1.103   5.533
  294SOL    HW1 1781   5.579   1.123   5.476
  294SOL    HW2 1782   5.743   1.122   5.482
  295SOL     OW 1783   1.357   2.169   4.964
  295SOL    HW1 1784   1.449   2.141   4.990
  295SOL    HW2 1785   1.313   2.215   5.041
  296SOL     OW 1786   6.750   1.061   1.744
  296SOL    HW1 1787   6.752   1.126   1.820
  296SOL    HW2 1788   6.741   0.968   1.779
  297SOL     OW 1789   5.412   4.230   3.486
  297SOL    HW1 1790   5.330   4.287   3.479
  297SOL    HW2 1791   5.425   4.179   3.400
  298SOL     OW 1792   3.880   0.540   0.610
  298SOL    HW1 1793   3.972   0.556   0.575
  298SOL    HW2 1794   3.820   0.615   0.583
  299SOL     OW 1795   2.971   1.332   6.688
  299SOL    HW1 1796   2.897   1.266   6.692
  299SOL    HW2 1797   2.970   1.390   6.769
  300SOL     OW 1798   3.662   1.054   2.475
  300SOL    HW1 1799   3.671   1.134   2.535
  300SOL    HW2 1800   3.572   1.013   2.489
  301SOL     OW 1801   5.662   5.694   2.005
  301SOL    HW1 1802   5.748   5.735   1.975
  301SOL    HW2 1803   5.682   5.609   2.055
  302SOL     OW 1804   6.885   6.269   1.650
  302SOL    HW1 1805   6.903   6.345   1.712
  302SOL    HW2 1806   6.851   6.305   1.562
  303SOL     OW 1807   6.391   5.769   2.588
  303SOL    HW1 1808   6.483   5.806   2.574
  303SOL    HW2 1809   6.390   5.672   2.564
  304SOL     OW 1810   1.102   0.165   5.191
  304SOL    HW1 1811   1.062   0.110   5.118
  304SOL    HW2 1812   1.105   0.261   5.163
  305SOL     OW 1813   1.786   2.807   1.543
  305SOL    HW1 1814   1.700   2.768   1.510
  305SOL    HW2 1815   1.855   2.734   1.549
  306SOL     OW 1816   6.733   0.567   3.553
  306SOL    HW1 1817   6.751   0.471   3.528
  306SOL    HW2 1818   6.753   0.626   3.475
  307SOL     OW 1819   3.378   3.621   1.644
  307SOL    HW1 1820   3.366   3.623   1.743
  307SOL    HW2 1821   3.438   3.545   1.619
  308SOL     OW 1822   5.390   0.683   4.031
  308SOL    HW1 1823   5.330   0.762   4.021
  308SOL    HW2 1824   5.483   0.714   4.053
  309SOL     OW 1825   0.678   6.730   6.687
  309SOL    HW1 1826   0.616   6.806   6.702
  309SOL    HW2 1827   0.704   6.725   6.591
  310SOL     OW 1828   5.087   5.924   4.776
  310SOL    HW1 1829   5.170   5.979   4.790
  310SOL    HW2 1830   5.111   5.827   4.777
  311SOL     OW 1831   1.671   5.394   3.046
  311SOL    HW1 1832   1.735   5.355   2.979
  311SOL    HW2 1833   1.649   5.488   3.020
  312SOL     OW 1834   4.447   2.071   3.350
  312SOL    HW1 1835   4.448   2.148   3.287
  312SOL    HW2 1836   4.445   2.105   3.444
  313SOL     OW 1837   3.736   3.599   2.838
  313SOL    HW1 1838   3.753   3.648   2.923
  313SOL    HW2 1839   3.711   3.504   2.859
  314SOL     OW 1840   1.698   6.511   4.974
  314SOL    HW1 1841   1.798   6.505   4.985
  314SOL    HW2 1842   1.658   6.550   5.057
  315SOL     OW 1843   6.381   1.037   3.473
  315SOL    HW1 1844   6.350   1.120   3.518
  315SOL    HW2 1845   6.429   1.060   3.388
  316SOL     OW 1846   3.994   1.289   5.653
  316SOL    HW1 1847   3.956   1.204   5.617
  316SOL    HW2 1848   3.929   1.363   5.639
  317SOL     OW 1849   1.300   1.543   1.227
  317SOL    HW1 1850   1.374   1.539   1.160
  317SOL    HW2 1851   1.338   1.544   1.319
  318SOL     OW 1852   6.644   0.514   5.699
  318SOL    HW1 1853   6.701   0.551   5.772
  318SOL    HW2 1854   6.680   0.425   5.670
  319SOL     OW 1855   1.065   2.223   2.848
  319SOL    HW1 1856   1.107   2.313   2.860
  319SOL    HW2 1857   1.136   2.153   2.853
  320SOL     OW 1858   5.527   1.933   0.046
  320SOL    HW1 1859   5.515   2.006   0.114
  320SOL    HW2 1860   5.570   1.971   6.986
  321SOL     OW 1861   3.834   3.074   0.802
  321SOL    HW1 1862   3.861   2.981   0.775
  321SOL    HW2 1863   3.739   3.091   0.776
  322SOL     OW 1864   4.316   3.916   6.898
  322SOL    HW1 1865   4.414   3.898   6.888
  322SOL    HW2 1866   4.296   4.009   6.869
  323SOL     OW 1867   0.256   2.668   3.240
  323SOL    HW1 1868   0.298   2.709   3.321
  323SOL    HW2 1869   0.290   2.713   3.158
  324SOL     OW 1870   1.643   0.334   2.997
  324SOL    HW1 1871   1.684   0.269   3.061
  324SOL    HW2 1872   1.609   0.413   3.049
  325SOL     OW 1873   0.991   3.759   2.292
  325SOL    HW1 1874   0.953   3.681   2.342
  325SOL    HW2 1875   1.048   3.726   2.217
  326SOL     OW 1876   1.813   5.324   6.346
  326SOL    HW1 1877   1.879   5.382   6.299
  326SOL    HW2 1878   1.774   5.373   6.424
  327SOL     OW 1879   3.536   5.635   2.961
  327SOL    HW1 1880   3.611   5.586   3.007
  327SOL    HW2 1881   3.521   5.722   3.007
  328SOL     OW 1882   1.545   4.296   1.667
  328SOL    HW1 1883   1.458   4.250   1.685
  328SOL    HW2 1884   1.589   4.253   1.588
  329SOL     OW 1885   3.231   4.119   1.854
  329SOL    HW1 1886   3.140   4.104   1.893
  329SOL    HW2 1887   3.236   4.078   1.763
  330SOL     OW 1888   3.842   4.984   0.285
  330SOL    HW1 1889   3.843   4.910   0.217
  330SOL    HW2 1890   3.830   5.072   0.239
  331SOL     OW 1891   4.819   5.318   0.779
  331SOL    HW1 1892   4.731   5.330   0.826
  331SOL    HW2 1893   4.866   5.405   0.773
  332SOL     OW 1894   5.657   2.075   3.591
  332SOL    HW1 1895   5.736   2.104   3.538
  332SOL    HW2 1896   5.675   1.985   3.632
  333SOL     OW 1897   3.857   0.557   5.048
  333SOL    HW1 1898   3.918   0.481   5.026
  333SOL    HW2 1899   3.855   0.572   5.147
  334SOL     OW 1900   4.144   3.309   2.894
  334SOL    HW1 1901   4.088   3.325   2.976
  334SOL    HW2 1902   4.236   3.345   2.910
  335SOL     OW 1903   3.494   6.544   0.234
  335SOL    HW1 1904   3.512   6.482   0.159
  335SOL    HW2 1905   3.432   6.501   0.299
  336SOL     OW 1906   2.730   0.986   3.633
  336SOL    HW1 1907   2.683   1.058   3.684
  336SOL    HW2 1908   2.760   0.914   3.696
  337SOL     OW 1909   1.576   1.608   5.632
  337SOL    HW1 1910   1.484   1.613   5.593
  337SOL    HW2 1911   1.641   1.650   5.569
  338SOL     OW 1912   4.314   3.471   1.598
  338SOL    HW1 1913   4.403   3.457   1.641
  338SOL    HW2 1914   4.284   3.386   1.555
  339SOL     OW 1915   4.136   4.905   4.669
  339SOL    HW1 1916   4.087   4.891   4.583
  339SOL    HW2 1917   4.071   4.911   4.745
  340SOL     OW 1918   5.065   2.792   5.036
  340SOL    HW1 1919   4.980   2.818   4.991
  340SOL    HW2 1920   5.092   2.864   5.100
  341SOL     OW 1921   5.808   6.143   4.097
  341SOL    HW1 1922   5.749   6.212   4.139
  341SOL    HW2 1923   5.783   6.052   4.132
  342SOL     OW 1924   4.900   3.560   0.538
  342SOL    HW1 1925   4.848   3.501   0.601
  342SOL    HW2 1926   4.842   3.637   0.510
  343SOL     OW 1927   0.887   5.661   2.644
  343SOL    HW1 1928   0.911   5.683   2.549
  343SOL    HW2 1929   0.931   5.575   2.670
  344SOL     OW 1930   1.186   1.396   1.683
  344SOL    HW1 1931   1.106   1.455   1.695
  344SOL    HW2 1932   1.158   1.310   1.640
  345SOL     OW 1933   6.844   2.324   4.254
  345SOL    HW1 1934   6.770   2.276   4.301
  345SOL    HW2 1935   6.804   2.390   4.190
  346SOL     OW 1936   1.991   0.296   2.674
  346SOL    HW1 1937   2.016   0.249   2.759
  346SOL    HW2 1938   1.900   0.266   2.646
  347SOL     OW 1939   2.554   5.827   0.516
  347SOL    HW1 1940   2.599   5.856   0.432
  347SOL    HW2 1941   2.599   5.869   0.594
  348SOL     OW 1942   4.885   4.931   2.476
  348SOL    HW1 1943   4.910   4.998   2.407
  348SOL    HW2 1944   4.849   4.977   2.557
  349SOL     OW 1945   6.827   4.127   1.234
  349SOL    HW1 1946   6.877   4.041   1.245
  349SOL    HW2 1947   6.868   4.180   1.161
  350SOL     OW 1948   3.598   2.979   0.150
  350SOL    HW1 1949   3.511   2.945   0.186
  350SOL    HW2 1950   3.624   2.924   0.070
  351SOL     OW 1951   3.402   3.954   0.552
  351SOL    HW1 1952   3.320   3.906   0.585
  351SOL    HW2 1953   3.483   3.915   0.596
  352SOL     OW 1954   4.327   5.954   3.808
  352SOL    HW1 1955   4.341   5.986   3.715
  352SOL    HW2 1956   4.230   5.949   3.828
  353SOL     OW 1957   3.076   6.723   6.031
  353SOL    HW1 1958   3.118   6.736   5.941
  353SOL    HW2 1959   3.131   6.768   6.101
  354SOL     OW 1960   6.040   2.981   0.994
  354SOL    HW1 1961   5.978   2.932   0.934
  354SOL    HW2 1962   6.090   2.916   1.051
  355SOL     OW 1963   2.061   3.319   2.741
  355SOL    HW1 1964   2.080   3.401   2.687
  355SOL    HW2 1965   1.963   3.315   2.761
  356SOL     OW 1966   1.987   0.513   5.233
  356SOL    HW1 1967   1.968   0.588   5.296
  356SOL    HW2 1968   1.981   0.426   5.281
  357SOL     OW 1969   6.265   6.510   4.386
  357SOL    HW1 1970   6.339   6.506   4.319
  357SOL    HW2 1971   6.211   6.592   4.371
  358SOL     OW 1972   4.840   5.817   0.993
  358SOL    HW1 1973   4.790   5.831   1.079
  358SOL    HW2 1974   4.774   5.807   0.919
  359SOL     OW 1975   3.481   0.988   2.214
  359SOL    HW1 1976   3.434   1.008   2.300
  359SOL    HW2 1977   3.456   1.056   2.145
  360SOL     OW 1978   1.022   4.701   4.589
  360SOL    HW1 1979   1.110   4.665   4.620
  360SOL    HW2 1980   0.987   4.767   4.655
  361SOL     OW 1981   6.520   6.010   2.813
  361SOL    HW1 1982   6.562   6.055   2.734
  361SOL    HW2 1983   6.485   5.920   2.787
  362SOL     OW 1984   3.770   4.037   0.484
  362SOL    HW1 1985   3.800   3.950   0.522
  362SOL    HW2 1986   3.766   4.106   0.556
  363SOL     OW 1987   6.191   4.841   2.656
  363SOL    HW1 1988   6.164   4.791   2.739
  363SOL    HW2 1989   6.288   4.823   2.637
  364SOL     OW 1990   0.309   4.585   6.711
  364SOL    HW1 1991   0.237   4.587   6.781
  364SOL    HW2 1992   0.399   4.595   6.756
  365SOL     OW 1993   3.575   0.416   1.803
  365SOL    HW1 1994   3.497   0.455   1.755
  365SOL    HW2 1995   3.543   0.359   1.878
  366SOL     OW 1996   6.136   3.340   6.962
  366SOL    HW1 1997   6.076   3.415   6.989
  366SOL    HW2 1998   6.198   3.372   6.890
  367SOL     OW 1999   5.219   2.294   6.140
  367SOL    HW1 2000   5.268   2.333   6.218
  367SOL    HW2 2001   5.205   2.365   6.071
  368SOL     OW 2002   6.788   2.202   6.131
  368SOL    HW1 2003   6.803   2.109   6.097
  368SOL    HW2 2004   6.723   2.199   6.207
  369SOL     OW 2005   5.849   4.255   2.896
  369SOL    HW1 2006   5.803   4.286   2.813
  369SOL    HW2 2007   5.786   4.200   2.951
  370SOL     OW 2008   1.769   2.161   3.958
  370SOL    HW1 2009   1.711   2.164   4.040
  370SOL    HW2 2010   1.856   2.118   3.980
  371SOL     OW 2011   2.045   4.052   6.884
  371SOL    HW1 2012   2.045   4.145   6.920
  371SOL    HW2 2013   1.958   4.034   6.838
  372SOL     OW 2014   1.961   6.859   5.079
  372SOL    HW1 2015   1.948   6.760   5.086
  372SOL    HW2 2016   1.942   6.902   5.167
  373SOL     OW 2017   5.997   6.748   5.201
  373SOL    HW1 2018   6.075   6.756   5.262
  373SOL    HW2 2019   5.957   6.838   5.186
  374SOL     OW 2020   2.047   1.597   2.719
  374SOL    HW1 2021   2.140   1.615   2.689
  374SOL    HW2 2022   1.997   1.684   2.725
  375SOL     OW 2023   0.541   5.455   4.923
  375SOL    HW1 2024   0.501   5.547   4.921
  375SOL    HW2 2025   0.475   5.390   4.960
  376SOL     OW 2026   2.328   1.157   4.824
  376SOL    HW1 2027   2.346   1.243   4.873
  376SOL    HW2 2028   2.249   1.111   4.866
  377SOL     OW 2029   1.901   2.299   0.288
  377SOL    HW1 2030   1.998   2.304   0.265
  377SOL    HW2 2031   1.891   2.267   0.382
  378SOL     OW 2032   3.477   1.372   6.379
  378SOL    HW1 2033   3.492   1.359   6.281
  378SOL    HW2 2034   3.391   1.330   6.406
  379SOL     OW 2035   5.644   2.325   0.191
  379SOL    HW1 2036   5.689   2.336   0.103
  379SOL    HW2 2037   5.611   2.414   0.223
  380SOL     OW 2038   3.361   1.548   1.242
  380SOL    HW1 2039   3.384   1.633   1.290
  380SOL    HW2 2040   3.373   1.561   1.144
  381SOL     OW 2041   2.208   4.522   4.686
  381SOL    HW1 2042   2.169   4.430   4.690
  381SOL    HW2 2043   2.140   4.585   4.647
  382SOL     OW 2044   6.160   0.403   0.603
  382SOL    HW1 2045   6.162   0.497   0.636
  382SOL    HW2 2046   6.242   0.384   0.549
  383SOL     OW 2047   4.382   3.062   0.669
  383SOL    HW1 2048   4.432   3.148   0.668
  383SOL    HW2 2049   4.292   3.076   0.711
  384SOL     OW 2050   0.078   3.620   4.110
  384SOL    HW1 2051   0.008   3.617   4.181
  384SOL    HW2 2052   0.043   3.672   4.032
  385SOL     OW 2053   3.941   5.620   6.277
  385SOL    HW1 2054   3.976   5.709   6.250
  385SOL    HW2 2055   4.006   5.549   6.250
  386SOL     OW 2056   4.232   0.684   4.095
  386SOL    HW1 2057   4.306   0.709   4.157
  386SOL    HW2 2058   4.163   0.756   4.095
  387SOL     OW 2059   1.221   5.090   2.565
  387SOL    HW1 2060   1.254   5.173   2.610
  387SOL    HW2 2061   1.151   5.114   2.498
  388SOL     OW 2062   1.982   2.381   6.627
  388SOL    HW1 2063   2.005   2.478   6.635
  388SOL    HW2 2064   2.013   2.333   6.709
  389SOL     OW 2065   3.781   3.304   2.921
  389SOL    HW1 2066   3.687   3.303   2.956
  389SOL    HW2 2067   3.835   3.235   2.968
  390SOL     OW 2068   2.545   0.780   3.554
  390SOL    HW1 2069   2.489   0.760   3.634
  390SOL    HW2 2070   2.603   0.860   3.572
  391SOL     OW 2071   2.023   3.155   6.533
  391SOL    HW1 2072   2.031   3.111   6.444
  391SOL    HW2 2073   2.081   3.237   6.536
  392SOL     OW 2074   1.922   5.174   0.968
  392SOL    HW1 2075   1.913   5.096   0.906
  392SOL    HW2 2076   1.832   5.198   1.004
  393SOL     OW 2077   6.478   4.312   5.681
  393SOL    HW1 2078   6.462   4.333   5.585
  393SOL    HW2 2079   6.556   4.364   5.714
  394SOL     OW 2080   0.617   6.805   6.998
  394SOL    HW1 2081   0.658   6.893   7.019
  394SOL    HW2 2082   0.536   6.818   6.941
  395SOL     OW 2083   4.674   4.253   2.493
  395SOL    HW1 2084   4.604   4.246   2.422
  395SOL    HW2 2085   4.762   4.223   2.457
  396SOL     OW 2086   3.991   3.809   2.683
  396SOL    HW1 2087   3.897   3.801   2.650
  396SOL    HW2 2088   4.055   3.783   2.610
  397SOL     OW 2089   4.266   3.038   5.749
  397SOL    HW1 2090   4.214   3.004   5.827
  397SOL    HW2 2091   4.208   3.037   5.667
  398SOL     OW 2092   0.941   5.772   1.618
  398SOL    HW1 2093   0.889   5.806   1.696
  398SOL    HW2 2094   0.888   5.700   1.572
  399SOL     OW 2095   5.495   6.028   2.744
  399SOL    HW1 2096   5.441   5.998   2.822
  399SOL    HW2 2097   5.582   6.067   2.776
  400SOL     OW 2098   0.053   0.424   6.057
  400SOL    HW1 2099   0.012   0.456   6.142
  400SOL    HW2 2100   0.151   0.411   6.070
  401SOL     OW 2101   4.708   0.761   5.991
  401SOL    HW1 2102   4.764   0.813   5.928
  401SOL    HW2 2103   4.704   0.808   6.079
  402SOL     OW 2104   6.262   6.393   2.986
  402SOL    HW1 2105   6.240   6.295   2.979
  402SOL    HW2 2106   6.181   6.447   2.962
  403SOL     OW 2107   4.372   2.580   6.149
  403SOL    HW1 2108   4.403   2.484   6.152
  403SOL    HW2 2109   4.284   2.588   6.196
  404SOL     OW 2110   1.363   6.796   3.737
  404SOL    HW1 2111   1.294   6.843   3.791
  404SOL    HW2 2112   1.400   6.719   3.790
  405SOL     OW 2113   2.286   2.826   1.112
  405SOL    HW1 2114   2.250   2.816   1.205
  405SOL    HW2 2115   2.361   2.891   1.111
  406SOL     OW 2116   1.129   2.522   3.880
  406SOL    HW1 2117   1.094   2.568   3.962
  406SOL    HW2 2118   1.225   2.498   3.894
  407SOL     OW 2119   2.376   0.230   3.982
  407SOL    HW1 2120   2.309   0.170   4.026
  407SOL    HW2 2121   2.331   0.284   3.910
  408SOL     OW 2122   1.176   1.034   3.210
  408SOL    HW1 2123   1.210   1.122   3.243
  408SOL    HW2 2124   1.118   0.993   3.280
  409SOL     OW 2125   5.689   2.997   2.067
  409SOL    HW1 2126   5.695   2.955   2.158
  409SOL    HW2 2127   5.756   3.071   2.060
  410SOL     OW 2128   2.268   0.087   6.871
  410SOL    HW1 2129   2.349   0.137   6.904
  410SOL    HW2 2130   2.287   0.051   6.779
  411SOL     OW 2131   5.758   6.290   6.721
  411SOL    HW1 2132   5.843   6.330   6.686
  411SOL    HW2 2133   5.776   6.198   6.755
  412SOL     OW 2134   4.738   0.109   3.537
  412SOL    HW1 2135   4.648   0.107   3.581
  412SOL    HW2 2136   4.729   0.082   3.441
  413SOL     OW 2137   4.581   4.571   1.452
  413SOL    HW1 2138   4.675   4.603   1.458
  413SOL    HW2 2139   4.559   4.517   1.533
  414SOL     OW 2140   3.804   5.203   2.809
  414SOL    HW1 2141   3.882   5.265   2.816
  414SOL    HW2 2142   3.836   5.112   2.780
  415SOL     OW 2143   1.266   5.915   0.727
  415SOL    HW1 2144   1.268   5.847   0.654
  415SOL    HW2 2145   1.283   6.006   0.688
  416SOL     OW 2146   4.556   5.753   5.008
  416SOL    HW1 2147   4.533   5.848   5.031
  416SOL    HW2 2148   4.497   5.691   5.059
  417SOL     OW 2149   2.674   6.468   0.757
  417SOL    HW1 2150   2.583   6.447   0.790
  417SOL    HW2 2151   2.733   6.492   0.834
  418SOL     OW 2152   4.971   6.047   0.822
  418SOL    HW1 2153   4.881   6.024   0.858
  418SOL    HW2 2154   4.961   6.085   0.730
  419SOL     OW 2155   1.085   0.203   1.275
  419SOL    HW1 2156   1.090   0.105   1.255
  419SOL    HW2 2157   1.177   0.242   1.273
  420SOL     OW 2158   6.273   3.710   1.276
  420SOL    HW1 2159   6.308   3.643   1.210
  420SOL    HW2 2160   6.207   3.665   1.337
  421SOL     OW 2161   0.693   5.375   6.385
  421SOL    HW1 2162   0.607   5.371   6.333
  421SOL    HW2 2163   0.769   5.394   6.323
  422SOL     OW 2164   6.177   5.609   0.912
  422SOL    HW1 2165   6.182   5.532   0.975
  422SOL    HW2 2166   6.081   5.629   0.891
  423SOL     OW 2167   6.759   3.196   0.133
  423SOL    HW1 2168   6.814   3.133   0.188
  423SOL    HW2 2169   6.795   3.199   0.039
  424SOL     OW 2170   3.102   3.834   1.091
  424SOL    HW1 2171   3.063   3.827   1.183
  424SOL    HW2 2172   3.102   3.744   1.048
  425SOL     OW 2173   5.449   1.158   2.261
  425SOL    HW1 2174   5.376   1.139   2.327
  425SOL    HW2 2175   5.443   1.093   2.186
  426SOL     OW 2176   5.355   2.157   4.797
  426SOL    HW1 2177   5.353   2.117   4.705
  426SOL    HW2 2178   5.442   2.135   4.841
  427SOL     OW 2179   5.718   5.154   2.621
  427SOL    HW1 2180   5.754   5.234   2.573
  427SOL    HW2 2181   5.679   5.183   2.709
  428SOL     OW 2182   4.585   0.054   4.947
  428SOL    HW1 2183   4.641   0.136   4.957
  428SOL    HW2 2184   4.640   7.003   4.906
  429SOL     OW 2185   2.735   4.784   1.414
  429SOL    HW1 2186   2.802   4.816   1.481
  429SOL    HW2 2187   2.739   4.684   1.408
  430SOL     OW 2188   0.529   7.021   4.288
  430SOL    HW1 2189   0.484   6.989   4.204
  430SOL    HW2 2190   0.625   6.993   4.287
  431SOL     OW 2191   3.745   0.118   0.514
  431SOL    HW1 2192   3.767   0.043   0.576
  431SOL    HW2 2193   3.826   0.173   0.497
  432SOL     OW 2194   6.568   2.443   1.809
  432SOL    HW1 2195   6.661   2.406   1.820
  432SOL    HW2 2196   6.519   2.388   1.740
  433SOL     OW 2197   3.086   6.222   3.661
  433SOL    HW1 2198   2.998   6.253   3.625
  433SOL    HW2 2199   3.157   6.290   3.640
  434SOL     OW 2200   5.029   5.309   1.740
  434SOL    HW1 2201   5.075   5.220   1.744
  434SOL    HW2 2202   5.082   5.371   1.682
  435SOL     OW 2203   3.755   2.356   5.436
  435SOL    HW1 2204   3.668   2.403   5.449
  435SOL    HW2 2205   3.825   2.423   5.410
  436SOL     OW 2206   2.476   6.566   1.480
  436SOL    HW1 2207   2.475   6.531   1.574
  436SOL    HW2 2208   2.491   6.665   1.482
  437SOL     OW 2209   0.620   0.133   6.541
  437SOL    HW1 2210   0.597   0.207   6.478
  437SOL    HW2 2211   0.702   0.158   6.593
  438SOL     OW 2212   1.934   3.325   2.286
  438SOL    HW1 2213   1.990   3.243   2.276
  438SOL    HW2 2214   1.983   3.404   2.249
  439SOL     OW 2215   6.195   4.258   3.273
  439SOL    HW1 2216   6.168   4.163   3.258
  439SOL    HW2 2217   6.234   4.267   3.364
  440SOL     OW 2218   0.863   2.082   4.624
  440SOL    HW1 2219   0.883   2.178   4.644
  440SOL    HW2 2220   0.938   2.042   4.571
  441SOL     OW 2221   0.745   1.988   3.130
  441SOL    HW1 2222   0.806   1.991   3.210
  441SOL    HW2 2223   0.785   1.928   3.060
  442SOL     OW 2224   1.987   4.850   6.990
  442SOL    HW1 2225   2.026   4.941   6.981
  442SOL    HW2 2226   2.059   4.784   7.009
  443SOL     OW 2227   0.797   3.945   5.119
  443SOL    HW1 2228   0.733   3.932   5.043
  443SOL    HW2 2229   0.871   4.005   5.090
  444SOL     OW 2230   5.536   2.438   6.015
  444SOL    HW1 2231   5.536   2.348   6.058
  444SOL    HW2 2232   5.444   2.461   5.985
  445SOL     OW 2233   1.463   5.327   3.360
  445SOL    HW1 2234   1.436   5.302   3.268
  445SOL    HW2 2235   1.562   5.344   3.362
  446SOL     OW 2236   3.935   5.146   3.074
  446SOL    HW1 2237   4.012   5.117   3.016
  446SOL    HW2 2238   3.850   5.134   3.024
  447SOL     OW 2239   0.530   3.564   6.978
  447SOL    HW1 2240   0.468   3.524   6.911
  447SOL    HW2 2241   0.516   3.520   0.045
  448SOL     OW 2242   3.170   0.514   4.947
  448SOL    HW1 2243   3.074   0.509   4.972
  448SOL    HW2 2244   3.190   0.605   4.910
  449SOL     OW 2245   4.462   0.410   5.542
  449SOL    HW1 2246   4.489   0.402   5.638
  449SOL    HW2 2247   4.467   0.320   5.498
  450SOL     OW 2248   1.126   5.640   3.527
  450SOL    HW1 2249   1.065   5.674   3.598
  450SOL    HW2 2250   1.200   5.586   3.568
  451SOL     OW 2251   1.921   1.958   2.957
  451SOL    HW1 2252   1.965   2.048   2.969
  451SOL    HW2 2253   1.965   1.892   3.018
  452SOL     OW 2254   6.472   5.875   1.147
  452SOL    HW1 2255   6.414   5.869   1.228
  452SOL    HW2 2256   6.420   5.847   1.067
  453SOL     OW 2257   3.146   0.241   4.617
  453SOL    HW1 2258   3.112   0.151   4.643
  453SOL    HW2 2259   3.221   0.232   4.551
  454SOL     OW 2260   0.051   5.158   6.241
  454SOL    HW1 2261   0.043   5.083   6.175
  454SOL    HW2 2262   0.130   5.214   6.218
  455SOL     OW 2263   6.888   1.261   4.081
  455SOL    HW1 2264   6.987   1.249   4.088
  455SOL    HW2 2265   6.867   1.359   4.075
  456SOL     OW 2266   4.826   5.207   4.381
  456SOL    HW1 2267   4.903   5.220   4.318
  456SOL    HW2 2268   4.778   5.122   4.359
  457SOL     OW 2269   2.115   3.240   3.620
  457SOL    HW1 2270   2.135   3.282   3.708
  457SOL    HW2 2271   2.145   3.301   3.546
  458SOL     OW 2272   4.819   6.222   4.347
  458SOL    HW1 2273   4.788   6.154   4.281
  458SOL    HW2 2274   4.794   6.313   4.316
  459SOL     OW 2275   1.774   6.915   3.983
  459SOL    HW1 2276   1.701   6.925   4.052
  459SOL    HW2 2277   1.735   6.881   3.898
  460SOL     OW 2278   1.364   0.863   2.805
  460SOL    HW1 2279   1.284   0.903   2.850
  460SOL    HW2 2280   1.383   0.913   2.721
  461SOL     OW 2281   5.882   6.991   4.596
  461SOL    HW1 2282   5.938   6.936   4.658
  461SOL    HW2 2283   5.830   6.930   4.536
  462SOL     OW 2284   4.183   2.533   5.913
  462SOL    HW1 2285   4.270   2.534   5.962
  462SOL    HW2 2286   4.147   2.439   5.911
  463SOL     OW 2287   6.278   5.737   3.517
  463SOL    HW1 2288   6.337   5.780   3.449
  463SOL    HW2 2289   6.211   5.803   3.550
  464SOL     OW 2290   2.734   1.820   6.280
  464SOL    HW1 2291   2.784   1.736   6.298
  464SOL    HW2 2292   2.776   1.895   6.330
  465SOL     OW 2293   1.419   2.704   4.453
  465SOL    HW1 2294   1.332   2.750   4.441
  465SOL    HW2 2295   1.415   2.646   4.534
  466SOL     OW 2296   0.790   4.997   3.115
  466SOL    HW1 2297   0.843   4.959   3.192
  466SOL    HW2 2298   0.730   5.070   3.149
  467SOL     OW 2299   1.185   0.922   5.946
  467SOL    HW1 2300   1.238   0.923   6.031
  467SOL    HW2 2301   1.184   1.014   5.907
  468SOL     OW 2302   3.003   6.415   6.472
  468SOL    HW1 2303   3.089   6.398   6.425
  468SOL    HW2 2304   2.979   6.335   6.528
  469SOL     OW 2305   2.592   4.583   0.596
  469SOL    HW1 2306   2.511   4.554   0.646
  469SOL    HW2 2307   2.603   4.682   0.604
  470SOL     OW 2308   3.827   0.278   2.513
  470SOL    HW1 2309   3.814   0.329   2.598
  470SOL    HW2 2310   3.804   0.182   2.528
  471SOL     OW 2311   1.906   2.435   4.091
  471SOL    HW1 2312   1.998   2.449   4.056
  471SOL    HW2 2313   1.905   2.357   4.154
  472SOL     OW 2314   5.348   4.134   6.773
  472SOL    HW1 2315   5.324   4.209   6.836
  472SOL    HW2 2316   5.315   4.156   6.681
  473SOL     OW 2317   0.639   3.350   1.556
  473SOL    HW1 2318   0.596   3.335   1.645
  473SOL    HW2 2319   0.624   3.444   1.526
  474SOL     OW 2320   4.904   4.815   3.791
  474SOL    HW1 2321   4.934   4.753   3.719
  474SOL    HW2 2322   4.957   4.900   3.787
  475SOL     OW 2323   5.952   1.341   6.088
  475SOL    HW1 2324   5.903   1.364   6.004
  475SOL    HW2 2325   5.891   1.354   6.166
  476SOL     OW 2326   0.371   4.101   2.230
  476SOL    HW1 2327   0.423   4.071   2.150
  476SOL    HW2 2328   0.285   4.051   2.235
  477SOL     OW 2329   2.070   4.751   5.441
  477SOL    HW1 2330   2.099   4.834   5.490
  477SOL    HW2 2331   1.977   4.764   5.407
  478SOL     OW 2332   3.152   6.731   2.887
  478SOL    HW1 2333   3.197   6.698   2.804
  478SOL    HW2 2334   3.058   6.699   2.889
  479SOL     OW 2335   4.527   2.039   0.055
  479SOL    HW1 2336   4.504   2.112   7.013
  479SOL    HW2 2337   4.453   2.028   0.122
  480SOL     OW 2338   2.360   1.036   6.943
  480SOL    HW1 2339   2.376   0.964   6.875
  480SOL    HW2 2340   2.408   1.012   0.006
  481SOL     OW 2341   2.014   0.568   6.795
  481SOL    HW1 2342   1.932   0.615   6.762
  481SOL    HW2 2343   2.086   0.634   6.813
  482SOL     OW 2344   4.363   4.577   3.183
  482SOL    HW1 2345   4.312   4.663   3.192
  482SOL    HW2 2346   4.319   4.519   3.114
  483SOL     OW 2347   6.862   1.552   2.553
  483SOL    HW1 2348   6.962   1.562   2.549
  483SOL    HW2 2349   6.838   1.457   2.532
  484SOL     OW 2350   1.158   2.622   5.240
  484SOL    HW1 2351   1.242   2.639   5.189
  484SOL    HW2 2352   1.102   2.705   5.241
  485SOL     OW 2353   4.228   5.455   2.432
  485SOL    HW1 2354   4.235   5.483   2.528
  485SOL    HW2 2355   4.306   5.490   2.381
  486SOL     OW 2356   0.100   1.445   1.174
  486SOL    HW1 2357   0.141   1.535   1.158
  486SOL    HW2 2358   0.062   1.410   1.088
  487SOL     OW 2359   0.784   1.806   0.586
  487SOL    HW1 2360   0.690   1.834   0.606
  487SOL    HW2 2361   0.814   1.848   0.500
  488SOL     OW 2362   0.789   1.618   1.442
  488SOL    HW1 2363   0.824   1.710   1.425
  488SOL    HW2 2364   0.803   1.561   1.361
  489SOL     OW 2365   3.655   6.502   6.149
  489SOL    HW1 2366   3.599   6.441   6.093
  489SOL    HW2 2367   3.622   6.596   6.140
  490SOL     OW 2368   6.729   5.573   3.305
  490SOL    HW1 2369   6.700   5.480   3.330
  490SOL    HW2 2370   6.758   5.575   3.210
  491SOL     OW 2371   7.002   2.989   1.995
  491SOL    HW1 2372   7.003   2.889   1.994
  491SOL    HW2 2373   6.952   3.022   1.916
  492SOL     OW 2374   2.910   0.368   4.699
  492SOL    HW1 2375   3.006   0.340   4.694
  492SOL    HW2 2376   2.854   0.304   4.648
  493SOL     OW 2377   5.641   6.417   5.225
  493SOL    HW1 2378   5.669   6.348   5.291
  493SOL    HW2 2379   5.547   6.445   5.245
  494SOL     OW 2380   0.170   0.505   6.684
  494SOL    HW1 2381   0.230   0.442   6.635
  494SOL    HW2 2382   0.128   0.568   6.618
  495SOL     OW 2383   4.484   5.719   2.767
  495SOL    HW1 2384   4.538   5.785   2.714
  495SOL    HW2 2385   4.543   5.643   2.795
  496SOL     OW 2386   5.266   3.474   2.663
  496SOL    HW1 2387   5.308   3.498   2.576
  496SOL    HW2 2388   5.292   3.381   2.688
  497SOL     OW 2389   3.471   0.903   5.072
  497SOL    HW1 2390   3.407   0.921   5.147
  497SOL    HW2 2391   3.448   0.961   4.994
  498SOL     OW 2392   1.452   4.040   1.239
  498SOL    HW1 2393   1.353   4.044   1.224
  498SOL    HW2 2394   1.481   3.945   1.247
  499SOL     OW 2395   2.945   0.139   4.044
  499SOL    HW1 2396   2.984   0.204   3.978
  499SOL    HW2 2397   2.945   0.181   4.135
  500SOL     OW 2398   1.047   3.300   2.675
  500SOL    HW1 2399   1.100   3.247   2.742
  500SOL    HW2 2400   0.989   3.366   2.724
  501SOL     OW 2401   2.987   6.480   0.359
  501SOL    HW1 2402   2.913   6.414   0.351
  501SOL    HW2 2403   3.000   6.505   0.455
  502SOL     OW 2404   6.878   4.503   6.397
  502SOL    HW1 2405   6.835   4.429   6.345
  502SOL    HW2 2406   6.828   4.588   6.382
  503SOL     OW 2407   5.444   5.960   6.213
  503SOL    HW1 2408   5.531   5.910   6.214
  503SOL    HW2 2409   5.416   5.979   6.307
  504SOL     OW 2410   2.355   5.226   3.209
  504SOL    HW1 2411   2.355   5.326   3.211
  504SOL    HW2 2412   2.286   5.194   3.144
  505SOL     OW 2413   3.283   6.214   4.610
  505SOL    HW1 2414   3.217   6.141   4.594
  505SOL    HW2 2415   3.315   6.249   4.522
  506SOL     OW 2416   1.567   5.160   4.841
  506SOL    HW1 2417   1.532   5.165   4.934
  506SOL    HW2 2418   1.582   5.252   4.805
  507SOL     OW 2419   2.795   0.752   3.326
  507SOL    HW1 2420   2.748   0.690   3.388
  507SOL    HW2 2421   2.733   0.777   3.251
  508SOL     OW 2422   6.568   3.321   2.658
  508SOL    HW1 2423   6.526   3.230   2.663
  508SOL    HW2 2424   6.549   3.362   2.569
  509SOL     OW 2425   3.241   1.423   1.481
  509SOL    HW1 2426   3.288   1.442   1.395
  509SOL    HW2 2427   3.308   1.407   1.553
  510SOL     OW 2428   6.617   5.064   6.259
  510SOL    HW1 2429   6.593   4.978   6.214
  510SOL    HW2 2430   6.685   5.112   6.204
  511SOL     OW 2431   6.998   0.286   6.732
  511SOL    HW1 2432   0.015   0.292   6.825
  511SOL    HW2 2433   0.008   0.365   6.679
  512SOL     OW 2434   0.286   3.234   0.180
  512SOL    HW1 2435   0.207   3.226   0.119
  512SOL    HW2 2436   0.287   3.158   0.244
  513SOL     OW 2437   5.700   6.132   3.177
  513SOL    HW1 2438   5.650   6.057   3.219
  513SOL    HW2 2439   5.776   6.095   3.122
  514SOL     OW 2440   0.182   2.771   3.677
  514SOL    HW1 2441   0.127   2.855   3.679
  514SOL    HW2 2442   0.122   2.692   3.661
  515SOL     OW 2443   2.027   0.856   6.638
  515SOL    HW1 2444   1.963   0.904   6.579
  515SOL    HW2 2445   2.020   0.892   6.731
  516SOL     OW 2446   2.545   4.578   1.809
  516SOL    HW1 2447   2.636   4.565   1.849
  516SOL    HW2 2448   2.484   4.620   1.876
  517SOL     OW 2449   4.982   5.727   2.106
  517SOL    HW1 2450   5.052   5.770   2.162
  517SOL    HW2 2451   4.935   5.656   2.159
  518SOL     OW 2452   2.485   2.423   2.251
  518SOL    HW1 2453   2.523   2.509   2.215
  518SOL    HW2 2454   2.421   2.385   2.185
  519SOL     OW 2455   0.960   1.120   4.660
  519SOL    HW1 2456   0.920   1.171   4.584
  519SOL    HW2 2457   0.948   1.173   4.745
  520SOL     OW 2458   6.098   4.743   0.251
  520SOL    HW1 2459   6.186   4.721   0.294
  520SOL    HW2 2460   6.032   4.769   0.321
  521SOL     OW 2461   6.320   3.407   6.763
  521SOL    HW1 2462   6.391   3.450   6.819
  521SOL    HW2 2463   6.276   3.477   6.707
  522SOL     OW 2464   3.505   3.855   5.487
  522SOL    HW1 2465   3.480   3.758   5.476
  522SOL    HW2 2466   3.432   3.912   5.450
  523SOL     OW 2467   0.767   4.618   1.734
  523SOL    HW1 2468   0.852   4.668   1.753
  523SOL    HW2 2469   0.730   4.581   1.819
  524SOL     OW 2470   1.618   0.718   6.530
  524SOL    HW1 2471   1.661   0.772   6.603
  524SOL    HW2 2472   1.520   0.736   6.529
  525SOL     OW 2473   2.619   4.084   6.757
  525SOL    HW1 2474   2.612   4.116   6.663
  525SOL    HW2 2475   2.662   3.993   6.758
  526SOL     OW 2476   3.657   0.171   3.836
  526SOL    HW1 2477   3.633   0.094   3.777
  526SOL    HW2 2478   3.723   0.230   3.789
  527SOL     OW 2479   6.258   3.248   6.214
  527SOL    HW1 2480   6.342   3.208   6.251
  527SOL    HW2 2481   6.277   3.289   6.125
  528SOL     OW 2482   0.994   1.701   3.785
  528SOL    HW1 2483   1.027   1.615   3.748
  528SOL    HW2 2484   1.072   1.759   3.809
  529SOL     OW 2485   0.916   6.187   4.642
  529SOL    HW1 2486   0.820   6.210   4.624
  529SOL    HW2 2487   0.961   6.266   4.684
  530SOL     OW 2488   2.612   3.164   5.382
  530SOL    HW1 2489   2.554   3.120   5.313
  530SOL    HW2 2490   2.563   3.168   5.470
  531SOL     OW 2491   0.229   0.564   1.432
  531SOL    HW1 2492   0.173   0.482   1.437
  531SOL    HW2 2493   0.173   0.644   1.453
  532SOL     OW 2494   1.163   2.286   0.050
  532SOL    HW1 2495   1.255   2.301   0.087
  532SOL    HW2 2496   1.097   2.341   0.102
  533SOL     OW 2497   3.800   6.447   3.919
  533SOL    HW1 2498   3.789   6.520   3.987
  533SOL    HW2 2499   3.804   6.488   3.828
  534SOL     OW 2500   5.511   5.055   3.350
  534SOL    HW1 2501   5.420   5.094   3.361
  534SOL    HW2 2502   5.507   4.956   3.368
  535SOL     OW 2503   0.508   3.813   4.737
  535SOL    HW1 2504   0.447   3.817   4.657
  535SOL    HW2 2505   0.592   3.765   4.712
  536SOL     OW 2506   0.299   4.589   2.151
  536SOL    HW1 2507   0.339   4.579   2.061
  536SOL    HW2 2508   0.261   4.502   2.181
  537SOL     OW 2509   1.627   5.977   3.584
  537SOL    HW1 2510   1.591   6.058   3.537
  537SOL    HW2 2511   1.615   5.988   3.682
  538SOL     OW 2512   2.164   4.431   3.725
  538SOL    HW1 2513   2.262   4.438   3.743
  538SOL    HW2 2514   2.123   4.367   3.791
  539SOL     OW 2515   1.044   5.926   0.501
  539SOL    HW1 2516   1.080   6.019   0.501
  539SOL    HW2 2517   1.120   5.861   0.491
  540SOL     OW 2518   6.996   0.996   1.620
  540SOL    HW1 2519   0.020   0.949   1.696
  540SOL    HW2 2520   6.923   1.054   1.656
  541SOL     OW 2521   2.751   6.538   4.142
  541SOL    HW1 2522   2.734   6.538   4.044
  541SOL    HW2 2523   2.737   6.446   4.179
  542SOL     OW 2524   6.533   0.282   0.150
  542SOL    HW1 2525   6.565   0.197   0.109
  542SOL    HW2 2526   6.435   0.294   0.131
  543SOL     OW 2527   0.982   5.206   5.049
  543SOL    HW1 2528   0.969   5.230   5.146
  543SOL    HW2 2529   0.899   5.228   4.998
  544SOL     OW 2530   2.201   4.362   0.945
  544SOL    HW1 2531   2.157   4.451   0.951
  544SOL    HW2 2532   2.181   4.321   0.855
  545SOL     OW 2533   3.161   1.428   3.503
  545SOL    HW1 2534   3.260   1.440   3.502
  545SOL    HW2 2535   3.121   1.475   3.424
  546SOL     OW 2536   1.631   3.329   0.204
  546SOL    HW1 2537   1.599   3.422   0.186
  546SOL    HW2 2538   1.699   3.304   0.136
  547SOL     OW 2539   2.876   1.177   6.218
  547SOL    HW1 2540   2.963   1.177   6.269
  547SOL    HW2 2541   2.895   1.166   6.120
  548SOL     OW 2542   3.923   3.039   2.901
  548SOL    HW1 2543   3.916   3.044   2.801
  548SOL    HW2 2544   4.018   3.026   2.927
  549SOL     OW 2545   4.685   3.060   1.234
  549SOL    HW1 2546   4.777   3.023   1.248
  549SOL    HW2 2547   4.656   3.107   1.318
  550SOL     OW 2548   6.881   4.437   3.656
  550SOL    HW1 2549   6.865   4.386   3.741
  550SOL    HW2 2550   6.872   4.535   3.674
  551SOL     OW 2551   0.411   1.311   1.089
  551SOL    HW1 2552   0.447   1.218   1.078
  551SOL    HW2 2553   0.335   1.310   1.154
  552SOL     OW 2554   4.576   5.396   0.907
  552SOL    HW1 2555   4.573   5.475   0.845
  552SOL    HW2 2556   4.499   5.336   0.888
  553SOL     OW 2557   2.169   0.153   2.034
  553SOL    HW1 2558   2.073   0.147   2.005
  553SOL    HW2 2559   2.185   0.090   2.109
  554SOL     OW 2560   5.006   6.410   5.970
  554SOL    HW1 2561   4.940   6.411   6.045
  554SOL    HW2 2562   5.028   6.315   5.946
  555SOL     OW 2563   2.090   5.413   4.161
  555SOL    HW1 2564   2.181   5.420   4.201
  555SOL    HW2 2565   2.085   5.471   4.080
  556SOL     OW 2566   5.849   2.367   4.085
  556SOL    HW1 2567   5.781   2.409   4.025
  556SOL    HW2 2568   5.889   2.437   4.144
  557SOL     OW 2569   0.718   5.574   6.828
  557SOL    HW1 2570   0.788   5.596   6.895
  557SOL    HW2 2571   0.759   5.527   6.750
  558SOL     OW 2572   3.318   4.119   4.442
  558SOL    HW1 2573   3.260   4.075   4.510
  558SOL    HW2 2574   3.267   4.131   4.356
  559SOL     OW 2575   6.131   6.670   0.102
  559SOL    HW1 2576   6.102   6.664   0.007
  559SOL    HW2 2577   6.183   6.588   0.126
  560SOL     OW 2578   3.843   6.315   0.516
  560SOL    HW1 2579   3.750   6.286   0.495
  560SOL    HW2 2580   3.861   6.301   0.614
  561SOL     OW 2581   6.699   0.452   7.012
  561SOL    HW1 2582   6.659   0.518   6.949
  561SOL    HW2 2583   6.628   0.418   0.052
  562SOL     OW 2584   4.609   0.408   6.728
  562SOL    HW1 2585   4.594   0.482   6.662
  562SOL    HW2 2586   4.520   0.374   6.760
  563SOL     OW 2587   2.548   0.531   3.090
  563SOL    HW1 2588   2.533   0.433   3.093
  563SOL    HW2 2589   2.610   0.554   3.015
  564SOL     OW 2590   2.256   2.289   6.172
  564SOL    HW1 2591   2.234   2.376   6.129
  564SOL    HW2 2592   2.239   2.215   6.106
  565SOL     OW 2593   4.243   3.228   5.409
  565SOL    HW1 2594   4.203   3.259   5.495
  565SOL    HW2 2595   4.268   3.308   5.354
  566SOL     OW 2596   5.356   3.953   3.402
  566SOL    HW1 2597   5.349   3.934   3.304
  566SOL    HW2 2598   5.269   3.987   3.436
  567SOL     OW 2599   2.914   3.628   3.150
  567SOL    HW1 2600   2.818   3.636   3.176
  567SOL    HW2 2601   2.960   3.565   3.213
  568SOL     OW 2602   3.686   2.387   1.193
  568SOL    HW1 2603   3.613   2.343   1.244
  568SOL    HW2 2604   3.772   2.380   1.243
  569SOL     OW 2605   2.221   3.228   0.617
  569SOL    HW1 2606   2.262   3.305   0.666
  569SOL    HW2 2607   2.192   3.159   0.683
  570SOL     OW 2608   1.965   6.474   5.567
  570SOL    HW1 2609   1.894   6.524   5.617
  570SOL    HW2 2610   1.946   6.376   5.573
  571SOL     OW 2611   3.568   6.966   2.915
  571SOL    HW1 2612   3.596   6.877   2.879
  571SOL    HW2 2613   3.514   6.953   2.998
  572SOL     OW 2614   2.610   5.050   6.110
  572SOL    HW1 2615   2.556   5.111   6.168
  572SOL    HW2 2616   2.610   5.085   6.017
  573SOL     OW 2617   4.114   2.100   5.393
  573SOL    HW1 2618   4.176   2.177   5.378
  573SOL    HW2 2619   4.167   2.015   5.396
  574SOL     OW 2620   2.082   2.052   3.489
  574SOL    HW1 2621   1.998   1.999   3.475
  574SOL    HW2 2622   2.077   2.138   3.438
  575SOL     OW 2623   5.972   4.046   6.009
  575SOL    HW1 2624   5.907   3.970   6.006
  575SOL    HW2 2625   5.990   4.078   5.916
  576SOL     OW 2626   1.353   2.342   2.205
  576SOL    HW1 2627   1.393   2.420   2.253
  576SOL    HW2 2628   1.368   2.259   2.259
  577SOL     OW 2629   2.298   1.126   3.281
  577SOL    HW1 2630   2.356   1.205   3.300
  577SOL    HW2 2631   2.328   1.048   3.337
  578SOL     OW 2632   6.593   3.383   3.528
  578SOL    HW1 2633   6.640   3.298   3.551
  578SOL    HW2 2634   6.651   3.436   3.465
  579SOL     OW 2635   3.385   2.137   1.095
  579SOL    HW1 2636   3.394   2.230   1.060
  579SOL    HW2 2637   3.413   2.071   1.025
  580SOL     OW 2638   0.690   4.570   6.541
  580SOL    HW1 2639   0.660   4.584   6.636
  580SOL    HW2 2640   0.612   4.578   6.480
  581SOL     OW 2641   3.281   3.372   2.680
  581SOL    HW1 2642   3.303   3.469   2.676
  581SOL    HW2 2643   3.310   3.327   2.596
  582SOL     OW 2644   5.251   5.102   2.631
  582SOL    HW1 2645   5.338   5.123   2.586
  582SOL    HW2 2646   5.252   5.008   2.665
  583SOL     OW 2647   2.820   5.184   6.636
  583SOL    HW1 2648   2.820   5.105   6.698
  583SOL    HW2 2649   2.914   5.209   6.616
  584SOL     OW 2650   0.925   5.585   5.592
  584SOL    HW1 2651   0.877   5.671   5.571
  584SOL    HW2 2652   0.872   5.508   5.557
  585SOL     OW 2653   6.457   2.902   6.102
  585SOL    HW1 2654   6.417   2.947   6.023
  585SOL    HW2 2655   6.399   2.917   6.182
  586SOL     OW 2656   3.297   0.116   0.123
  586SOL    HW1 2657   3.293   0.027   0.077
  586SOL    HW2 2658   3.391   0.148   0.124
  587SOL     OW 2659   2.021   2.371   5.301
  587SOL    HW1 2660   2.032   2.341   5.395
  587SOL    HW2 2661   1.943   2.433   5.293
  588SOL     OW 2662   3.263   6.057   0.968
  588SOL    HW1 2663   3.166   6.040   0.951
  588SOL    HW2 2664   3.317   5.983   0.930
  589SOL     OW 2665   3.806   5.249   2.049
  589SOL    HW1 2666   3.737   5.292   2.107
  589SOL    HW2 2667   3.870   5.198   2.106
  590SOL     OW 2668   6.260   2.852   1.773
  590SOL    HW1 2669   6.229   2.918   1.704
  590SOL    HW2 2670   6.198   2.853   1.851
  591SOL     OW 2671   3.610   6.888   3.788
  591SOL    HW1 2672   3.652   6.932   3.868
  591SOL    HW2 2673   3.580   6.796   3.813
  592SOL     OW 2674   4.152   0.317   0.661
  592SOL    HW1 2675   4.211   0.281   0.588
  592SOL    HW2 2676   4.177   0.413   0.679
  593SOL     OW 2677   4.465   2.024   3.651
  593SOL    HW1 2678   4.554   2.011   3.694
  593SOL    HW2 2679   4.427   1.935   3.626
  594SOL     OW 2680   4.330   3.148   6.578
  594SOL    HW1 2681   4.351   3.077   6.511
  594SOL    HW2 2682   4.289   3.107   6.659
  595SOL     OW 2683   4.681   6.340   3.948
  595SOL    HW1 2684   4.688   6.420   4.008
  595SOL    HW2 2685   4.748   6.349   3.874
  596SOL     OW 2686   1.272   3.758   1.160
  596SOL    HW1 2687   1.369   3.783   1.152
  596SOL    HW2 2688   1.257   3.712   1.247
  597SOL     OW 2689   4.570   0.130   5.911
  597SOL    HW1 2690   4.496   0.067   5.935
  597SOL    HW2 2691   4.649   0.079   5.880
  598SOL     OW 2692   3.549   4.037   0.310
  598SOL    HW1 2693   3.462   4.076   0.340
  598SOL    HW2 2694   3.613   4.037   0.387
  599SOL     OW 2695   0.291   0.617   3.174
  599SOL    HW1 2696   0.300   0.586   3.080
  599SOL    HW2 2697   0.352   0.563   3.233
  600SOL     OW 2698   0.630   0.091   0.812
  600SOL    HW1 2699   0.567   0.151   0.863
  600SOL    HW2 2700   0.724   0.111   0.839
  601SOL     OW 2701   3.161   6.076   3.416
  601SOL    HW1 2702   3.132   6.078   3.511
  601SOL    HW2 2703   3.086   6.107   3.358
  602SOL     OW 2704   0.884   1.430   0.365
  602SOL    HW1 2705   0.930   1.460   0.281
  602SOL    HW2 2706   0.793   1.470   0.369
  603SOL     OW 2707   4.059   1.707   3.783
  603SOL    HW1 2708   4.152   1.740   3.799
  603SOL    HW2 2709   4.014   1.691   3.871
  604SOL     OW 2710   0.642   3.294   0.769
  604SOL    HW1 2711   0.702   3.215   0.757
  604SOL    HW2 2712   0.698   3.376   0.782
  605SOL     OW 2713   6.504   5.321   3.036
  605SOL    HW1 2714   6.589   5.354   2.996
  605SOL    HW2 2715   6.516   5.227   3.068
  606SOL     OW 2716   4.875   0.839   5.807
  606SOL    HW1 2717   4.865   0.776   5.730
  606SOL    HW2 2718   4.971   0.846   5.832
  607SOL     OW 2719   5.607   0.925   4.555
  607SOL    HW1 2720   5.557   0.845   4.589
  607SOL    HW2 2721   5.679   0.949   4.620
  608SOL     OW 2722   3.628   6.903   0.409
  608SOL    HW1 2723   3.620   6.858   0.498
  608SOL    HW2 2724   3.668   6.994   0.421
  609SOL     OW 2725   3.463   3.515   4.275
  609SOL    HW1 2726   3.438   3.491   4.181
  609SOL    HW2 2727   3.388   3.566   4.317
  610SOL     OW 2728   5.532   2.101   3.185
  610SOL    HW1 2729   5.613   2.159   3.180
  610SOL    HW2 2730   5.537   2.031   3.114
  611SOL     OW 2731   0.882   0.403   6.836
  611SOL    HW1 2732   0.888   0.496   6.799
  611SOL    HW2 2733   0.786   0.379   6.851
  612SOL     OW 2734   3.363   5.899   5.837
  612SOL    HW1 2735   3.431   5.855   5.779
  612SOL    HW2 2736   3.272   5.883   5.799
  613SOL     OW 2737   4.615   0.718   5.421
  613SOL    HW1 2738   4.669   0.675   5.493
  613SOL    HW2 2739   4.527   0.747   5.458
  614SOL     OW 2740   5.790   4.767   1.074
  614SOL    HW1 2741   5.889   4.752   1.073
  614SOL    HW2 2742   5.769   4.854   1.119
  615SOL     OW 2743   1.193   0.608   6.754
  615SOL    HW1 2744   1.093   0.603   6.753
  615SOL    HW2 2745   1.221   0.702   6.768
  616SOL     OW 2746   5.962   1.833   3.661
  616SOL    HW1 2747   5.997   1.747   3.624
  616SOL    HW2 2748   6.019   1.861   3.738
  617SOL     OW 2749   0.417   4.141   6.789
  617SOL    HW1 2750   0.387   4.049   6.813
  617SOL    HW2 2751   0.432   4.146   6.690
  618SOL     OW 2752   5.661   3.557   1.094
  618SOL    HW1 2753   5.640   3.473   1.145
  618SOL    HW2 2754   5.625   3.636   1.144
  619SOL     OW 2755   3.404   6.842   6.747
  619SOL    HW1 2756   3.331   6.907   6.726
  619SOL    HW2 2757   3.399   6.764   6.686
  620SOL     OW 2758   5.563   3.372   1.291
  620SOL    HW1 2759   5.603   3.286   1.321
  620SOL    HW2 2760   5.531   3.424   1.371
  621SOL     OW 2761   2.718   0.231   5.067
  621SOL    HW1 2762   2.695   0.231   5.165
  621SOL    HW2 2763   2.717   0.325   5.033
  622SOL     OW 2764   0.753   2.402   5.106
  622SOL    HW1 2765   0.700   2.432   5.186
  622SOL    HW2 2766   0.702   2.331   5.057
  623SOL     OW 2767   6.634   6.973   5.253
  623SOL    HW1 2768   6.730   7.001   5.254
  623SOL    HW2 2769   6.576   0.033   5.259
  624SOL     OW 2770   6.790   1.281   6.618
  624SOL    HW1 2771   6.827   1.302   6.527
  624SOL    HW2 2772   6.859   1.302   6.687
  625SOL     OW 2773   1.681   0.963   0.032
  625SOL    HW1 2774   1.688   0.950   6.954
  625SOL    HW2 2775   1.704   1.058   0.055
  626SOL     OW 2776   0.998   5.395   2.622
  626SOL    HW1 2777   1.062   5.403   2.698
  626SOL    HW2 2778   1.042   5.428   2.538
  627SOL     OW 2779   6.878   6.345   0.223
  627SOL    HW1 2780   6.865   6.403   0.143
  627SOL    HW2 2781   6.952   6.280   0.205
  628SOL     OW 2782   5.559   4.086   4.718
  628SOL    HW1 2783   5.565   3.987   4.730
  628SOL    HW2 2784   5.578   4.110   4.623
  629SOL     OW 2785   0.205   1.218   0.139
  629SOL    HW1 2786   0.118   1.171   0.155
  629SOL    HW2 2787   0.188   1.304   0.092
  630SOL     OW 2788   6.432   1.438   0.408
  630SOL    HW1 2789   6.401   1.388   0.327
  630SOL    HW2 2790   6.532   1.439   0.410
  631SOL     OW 2791   3.148   1.796   4.473
  631SOL    HW1 2792   3.199   1.754   4.398
  631SOL    HW2 2793   3.085   1.864   4.436
  632SOL     OW 2794   4.441   2.732   0.334
  632SOL    HW1 2795   4.508   2.670   0.293
  632SOL    HW2 2796   4.485   2.783   0.409
  633SOL     OW 2797   2.546   4.752   0.864
  633SOL    HW1 2798   2.497   4.780   0.947
  633SOL    HW2 2799   2.495   4.680   0.818
  634SOL     OW 2800   3.348   3.439   3.597
  634SOL    HW1 2801   3.446   3.444   3.613
  634SOL    HW2 2802   3.329   3.453   3.500
  635SOL     OW 2803   4.809   6.950   6.862
  635SOL    HW1 2804   4.720   6.995   6.875
  635SOL    HW2 2805   4.877   7.017   6.834
  636SOL     OW 2806   3.463   0.306   5.056
  636SOL    HW1 2807   3.460   0.404   5.072
  636SOL    HW2 2808   3.400   0.282   4.982
  637SOL     OW 2809   6.207   1.616   2.518
  637SOL    HW1 2810   6.190   1.698   2.572
  637SOL    HW2 2811   6.130   1.553   2.528
  638SOL     OW 2812   5.865   3.397   3.818
  638SOL    HW1 2813   5.944   3.348   3.852
  638SOL    HW2 2814   5.835   3.464   3.887
  639SOL     OW 2815   5.574   4.537   3.346
  639SOL    HW1 2816   5.596   4.440   3.335
  639SOL    HW2 2817   5.477   4.551   3.326
  640SOL     OW 2818   0.115   3.630   3.527
  640SOL    HW1 2819   0.090   3.714   3.478
  640SOL    HW2 2820   0.171   3.572   3.467
  641SOL     OW 2821   1.356   5.099   5.687
  641SOL    HW1 2822   1.332   5.006   5.660
  641SOL    HW2 2823   1.423   5.137   5.623
  642SOL     OW 2824   1.429   3.394   4.807
  642SOL    HW1 2825   1.517   3.439   4.793
  642SOL    HW2 2826   1.406   3.338   4.728
  643SOL     OW 2827   6.747   6.898   6.915
  643SOL    HW1 2828   6.777   6.939   6.828
  643SOL    HW2 2829   6.708   6.808   6.898
  644SOL     OW 2830   0.967   0.865   4.518
  644SOL    HW1 2831   0.912   0.868   4.434
  644SOL    HW2 2832   1.001   0.957   4.538
  645SOL     OW 2833   3.547   4.970   3.112
  645SOL    HW1 2834   3.553   4.932   3.204
  645SOL    HW2 2835   3.451   4.982   3.086
  646SOL     OW 2836   3.905   0.752   4.733
  646SOL    HW1 2837   3.977   0.775   4.799
  646SOL    HW2 2838   3.829   0.817   4.743
  647SOL     OW 2839   5.076   1.877   4.997
  647SOL    HW1 2840   5.036   1.951   5.051
  647SOL    HW2 2841   5.005   1.836   4.939
  648SOL     OW 2842   6.731   2.958   3.147
  648SOL    HW1 2843   6.786   2.903   3.084
  648SOL    HW2 2844   6.691   2.899   3.216
  649SOL     OW 2845   1.967   4.529   7.006
  649SOL    HW1 2846   2.046   4.560   0.036
  649SOL    HW2 2847   1.884   4.571   0.020
  650SOL     OW 2848   0.028   5.445   0.412
  650SOL    HW1 2849   0.078   5.525   0.446
  650SOL    HW2 2850   0.092   5.381   0.370
  651SOL     OW 2851   1.965   0.362   5.854
  651SOL    HW1 2852   1.958   0.378   5.952
  651SOL    HW2 2853   1.898   0.418   5.805
  652SOL     OW 2854   4.182   6.673   1.843
  652SOL    HW1 2855   4.219   6.593   1.795
  652SOL    HW2 2856   4.225   6.755   1.805
  653SOL     OW 2857   0.649   6.648   0.380
  653SOL    HW1 2858   0.663   6.549   0.378
  653SOL    HW2 2859   0.553   6.668   0.399
  654SOL     OW 2860   0.045   6.425   6.367
  654SOL    HW1 2861   0.054   6.454   6.272
  654SOL    HW2 2862   7.002   6.348   6.373
  655SOL     OW 2863   0.083   5.449   1.931
  655SOL    HW1 2864   0.134   5.367   1.909
  655SOL    HW2 2865   0.084   5.463   2.030
  656SOL     OW 2866   2.453   6.374   0.866
  656SOL    HW1 2867   2.362   6.404   0.840
  656SOL    HW2 2868   2.448   6.281   0.903
  657SOL     OW 2869   3.139   3.687   1.340
  657SOL    HW1 2870   3.047   3.654   1.317
  657SOL    HW2 2871   3.206   3.615   1.321
  658SOL     OW 2872   1.732   4.157   5.425
  658SOL    HW1 2873   1.697   4.238   5.378
  658SOL    HW2 2874   1.819   4.180   5.470
  659SOL     OW 2875   3.015   5.551   4.866
  659SOL    HW1 2876   3.084   5.479   4.873
  659SOL    HW2 2877   3.055   5.639   4.892
  660SOL     OW 2878   4.919   5.058   2.073
  660SOL    HW1 2879   4.969   5.144   2.081
  660SOL    HW2 2880   4.970   4.986   2.120
  661SOL     OW 2881   4.647   4.372   4.576
  661SOL    HW1 2882   4.574   4.441   4.572
  661SOL    HW2 2883   4.717   4.401   4.641
  662SOL     OW 2884   4.151   2.101   6.512
  662SOL    HW1 2885   4.140   2.120   6.610
  662SOL    HW2 2886   4.209   2.021   6.500
  663SOL     OW 2887   0.289   4.943   6.888
  663SOL    HW1 2888   0.285   5.027   6.942
  663SOL    HW2 2889   0.382   4.927   6.857
  664SOL     OW 2890   1.731   5.355   6.896
  664SOL    HW1 2891   1.749   5.264   6.859
  664SOL    HW2 2892   1.811   5.413   6.883
  665SOL     OW 2893   4.381   5.679   1.236
  665SOL    HW1 2894   4.384   5.751   1.167
  665SOL    HW2 2895   4.442   5.604   1.209
  666SOL     OW 2896   3.699   1.689   0.626
  666SOL    HW1 2897   3.635   1.662   0.554
  666SOL    HW2 2898   3.772   1.620   0.632
  667SOL     OW 2899   0.608   2.738   4.035
  667SOL    HW1 2900   0.659   2.652   4.027
  667SOL    HW2 2901   0.655   2.798   4.100
  668SOL     OW 2902   4.508   5.749   6.743
  668SOL    HW1 2903   4.551   5.678   6.798
  668SOL    HW2 2904   4.409   5.742   6.751
  669SOL     OW 2905   1.646   6.765   3.236
  669SOL    HW1 2906   1.557   6.734   3.204
  669SOL    HW2 2907   1.708   6.774   3.158
  670SOL     OW 2908   3.091   3.846   2.675
  670SOL    HW1 2909   3.081   3.825   2.577
  670SOL    HW2 2910   3.010   3.894   2.707
  671SOL     OW 2911   2.195   6.057   5.897
  671SOL    HW1 2912   2.262   5.984   5.880
  671SOL    HW2 2913   2.210   6.095   5.988
  672SOL     OW 2914   1.325   3.365   3.747
  672SOL    HW1 2915   1.335   3.437   3.816
  672SOL    HW2 2916   1.329   3.275   3.791
  673SOL     OW 2917   4.459   6.728   6.898
  673SOL    HW1 2918   4.429   6.820   6.923
  673SOL    HW2 2919   4.534   6.734   6.832
  674SOL     OW 2920   0.151   2.899   4.136
  674SOL    HW1 2921   0.224   2.954   4.175
  674SOL    HW2 2922   0.190   2.822   4.086
  675SOL     OW 2923   0.868   2.091   5.307
  675SOL    HW1 2924   0.813   2.027   5.253
  675SOL    HW2 2925   0.963   2.058   5.312
  676SOL     OW 2926   3.514   4.930   4.093
  676SOL    HW1 2927   3.439   4.962   4.151
  676SOL    HW2 2928   3.602   4.959   4.132
  677SOL     OW 2929   5.797   0.703   0.494
  677SOL    HW1 2930   5.701   0.693   0.520
  677SOL    HW2 2931   5.841   0.613   0.495
  678SOL     OW 2932   2.408   1.415   5.262
  678SOL    HW1 2933   2.398   1.513   5.244
  678SOL    HW2 2934   2.478   1.401   5.333
  679SOL     OW 2935   4.076   1.252   4.637
  679SOL    HW1 2936   4.005   1.319   4.618
  679SOL    HW2 2937   4.047   1.162   4.606
  680SOL     OW 2938   5.730   4.557   5.697
  680SOL    HW1 2939   5.797   4.572   5.624
  680SOL    HW2 2940   5.666   4.486   5.669
  681SOL     OW 2941   6.488   0.076   0.979
  681SOL    HW1 2942   6.571   0.090   1.033
  681SOL    HW2 2943   6.509   0.022   0.898
  682SOL     OW 2944   2.565   6.605   6.326
  682SOL    HW1 2945   2.589   6.658   6.407
  682SOL    HW2 2946   2.521   6.664   6.259
  683SOL     OW 2947   3.496   0.298   5.827
  683SOL    HW1 2948   3.504   0.396   5.809
  683SOL    HW2 2949   3.515   0.246   5.744
  684SOL     OW 2950   6.353   1.495   6.154
  684SOL    HW1 2951   6.350   1.506   6.253
  684SOL    HW2 2952   6.445   1.517   6.121
  685SOL     OW 2953   4.818   0.619   5.624
  685SOL    HW1 2954   4.906   0.577   5.604
  685SOL    HW2 2955   4.781   0.579   5.709
  686SOL     OW 2956   6.104   3.125   3.446
  686SOL    HW1 2957   6.175   3.133   3.517
  686SOL    HW2 2958   6.108   3.033   3.406
  687SOL     OW 2959   6.739   3.269   6.476
  687SOL    HW1 2960   6.718   3.172   6.484
  687SOL    HW2 2961   6.704   3.318   6.555
  688SOL     OW 2962   2.017   3.540   0.166
  688SOL    HW1 2963   2.010   3.479   0.087
  688SOL    HW2 2964   2.111   3.540   0.199
  689SOL     OW 2965   1.145   4.318   5.779
  689SOL    HW1 2966   1.050   4.312   5.749
  689SOL    HW2 2967   1.148   4.327   5.879
  690SOL     OW 2968   1.026   3.055   3.309
  690SOL    HW1 2969   1.096   3.091   3.372
  690SOL    HW2 2970   1.071   3.016   3.229
  691SOL     OW 2971   2.121   1.881   6.452
  691SOL    HW1 2972   2.083   1.816   6.518
  691SOL    HW2 2973   2.173   1.951   6.500
  692SOL     OW 2974   3.088   0.165   3.631
  692SOL    HW1 2975   3.162   0.098   3.625
  692SOL    HW2 2976   3.000   0.118   3.626
  693SOL     OW 2977   6.706   1.452   3.659
  693SOL    HW1 2978   6.758   1.518   3.605
  693SOL    HW2 2979   6.760   1.368   3.670
  694SOL     OW 2980   3.472   5.869   1.929
  694SOL    HW1 2981   3.488   5.957   1.973
  694SOL    HW2 2982   3.460   5.798   1.998
  695SOL     OW 2983   4.809   5.081   5.145
  695SOL    HW1 2984   4.769   4.990   5.135
  695SOL    HW2 2985   4.877   5.096   5.073
  696SOL     OW 2986   2.855   5.237   2.281
  696SOL    HW1 2987   2.887   5.155   2.329
  696SOL    HW2 2988   2.906   5.317   2.312
  697SOL     OW 2989   1.098   3.298   6.212
  697SOL    HW1 2990   1.062   3.383   6.250
  697SOL    HW2 2991   1.089   3.224   6.279
  698SOL     OW 2992   5.870   0.196   4.743
  698SOL    HW1 2993   5.885   0.115   4.687
  698SOL    HW2 2994   5.813   0.172   4.822
  699SOL     OW 2995   1.158   4.480   0.261
  699SOL    HW1 2996   1.110   4.426   0.192
  699SOL    HW2 2997   1.207   4.555   0.217
  700SOL     OW 2998   2.750   2.295   3.549
  700SOL    HW1 2999   2.704   2.352   3.617
  700SOL    HW2 3000   2.702   2.208   3.540
  701SOL     OW 3001   1.198   4.920   6.710
  701SOL    HW1 3002   1.210   5.013   6.745
  701SOL    HW2 3003   1.143   4.922   6.627
  702SOL     OW 3004   5.839   6.185   6.368
  702SOL    HW1 3005   5.919   6.240   6.346
  702SOL    HW2 3006   5.761   6.214   6.312
  703SOL     OW 3007   4.181   3.274   0.138
  703SOL    HW1 3008   4.201   3.197   0.077
  703SOL    HW2 3009   4.251   3.281   0.208
  704SOL     OW 3010   1.589   1.041   6.218
  704SOL    HW1 3011   1.558   1.026   6.312
  704SOL    HW2 3012   1.671   1.100   6.219
  705SOL     OW 3013   4.881   6.980   3.736
  705SOL    HW1 3014   4.827   0.018   3.675
  705SOL    HW2 3015   4.940   0.015   3.794
  706SOL     OW 3016   4.438   1.448   3.757
  706SOL    HW1 3017   4.431   1.387   3.836
  706SOL    HW2 3018   4.470   1.397   3.677
  707SOL     OW 3019   4.293   6.776   2.161
  707SOL    HW1 3020   4.265   6.834   2.238
  707SOL    HW2 3021   4.363   6.824   2.107
  708SOL     OW 3022   4.340   0.080   1.334
  708SOL    HW1 3023   4.400   0.153   1.300
  708SOL    HW2 3024   4.259   0.074   1.275
  709SOL     OW 3025   1.386   5.321   1.172
  709SOL    HW1 3026   1.356   5.358   1.084
  709SOL    HW2 3027   1.323   5.351   1.244
  710SOL     OW 3028   3.685   4.135   2.875
  710SOL    HW1 3029   3.756   4.069   2.850
  710SOL    HW2 3030   3.682   4.144   2.974
  711SOL     OW 3031   0.569   2.190   6.016
  711SOL    HW1 3032   0.664   2.159   6.007
  711SOL    HW2 3033   0.512   2.115   6.050
  712SOL     OW 3034   1.750   4.355   0.850
  712SOL    HW1 3035   1.783   4.303   0.771
  712SOL    HW2 3036   1.807   4.334   0.929
  713SOL     OW 3037   3.304   4.293   0.903
  713SOL    HW1 3038   3.306   4.381   0.950
  713SOL    HW2 3039   3.276   4.222   0.968
  714SOL     OW 3040   5.707   4.198   5.200
  714SOL    HW1 3041   5.691   4.146   5.116
  714SOL    HW2 3042   5.782   4.262   5.185
  715SOL     OW 3043   4.843   5.861   6.965
  715SOL    HW1 3044   4.887   5.772   6.974
  715SOL    HW2 3045   4.911   5.934   6.981
  716SOL     OW 3046   0.939   5.540   1.208
  716SOL    HW1 3047   0.904   5.568   1.297
  716SOL    HW2 3048   0.906   5.449   1.186
  717SOL     OW 3049   6.240   4.811   6.542
  717SOL    HW1 3050   6.323   4.756   6.549
  717SOL    HW2 3051   6.217   4.824   6.445
  718SOL     OW 3052   3.583   2.026   6.219
  718SOL    HW1 3053   3.645   1.968   6.272
  718SOL    HW2 3054   3.586   1.999   6.123
  719SOL     OW 3055   6.435   2.311   1.992
  719SOL    HW1 3056   6.484   2.361   1.921
  719SOL    HW2 3057   6.487   2.315   2.078
  720SOL     OW 3058   2.697   1.665   5.758
  720SOL    HW1 3059   2.605   1.703   5.747
  720SOL    HW2 3060   2.698   1.600   5.833
  721SOL     OW 3061   1.555   0.885   4.775
  721SOL    HW1 3062   1.474   0.931   4.738
  721SOL    HW2 3063   1.543   0.874   4.874
  722SOL     OW 3064   4.255   6.608   4.989
  722SOL    HW1 3065   4.306   6.661   4.921
  722SOL    HW2 3066   4.278   6.642   5.081
  723SOL     OW 3067   2.211   2.980   1.728
  723SOL    HW1 3068   2.280   3.052   1.721
  723SOL    HW2 3069   2.120   3.021   1.719
  724SOL     OW 3070   1.596   1.639   4.908
  724SOL    HW1 3071   1.608   1.546   4.940
  724SOL    HW2 3072   1.508   1.675   4.941
  725SOL     OW 3073   2.459   4.961   2.191
  725SOL    HW1 3074   2.504   5.018   2.123
  725SOL    HW2 3075   2.420   5.018   2.263
  726SOL     OW 3076   4.164   4.641   0.254
  726SOL    HW1 3077   4.179   4.604   0.162
  726SOL    HW2 3078   4.246   4.625   0.309
  727SOL     OW 3079   4.247   6.198   4.031
  727SOL    HW1 3080   4.315   6.126   4.023
  727SOL    HW2 3081   4.278   6.279   3.980
  728SOL     OW 3082   0.170   4.420   5.035
  728SOL    HW1 3083   0.214   4.398   5.123
  728SOL    HW2 3084   0.238   4.458   4.973
  729SOL     OW 3085   2.618   0.573   0.315
  729SOL    HW1 3086   2.578   0.496   0.264
  729SOL    HW2 3087   2.660   0.636   0.250
  730SOL     OW 3088   5.894   0.117   3.510
  730SOL    HW1 3089   5.795   0.110   3.495
  730SOL    HW2 3090   5.942   0.078   3.431
  731SOL     OW 3091   5.633   3.219   6.222
  731SOL    HW1 3092   5.575   3.271   6.284
  731SOL    HW2 3093   5.629   3.122   6.246
  732SOL     OW 3094   0.463   3.667   0.841
  732SOL    HW1 3095   0.529   3.632   0.907
  732SOL    HW2 3096   0.473   3.618   0.754
  733SOL     OW 3097   5.537   4.204   4.473
  733SOL    HW1 3098   5.544   4.299   4.504
  733SOL    HW2 3099   5.441   4.181   4.455
  734SOL     OW 3100   6.469   4.724   2.617
  734SOL    HW1 3101   6.520   4.639   2.606
  734SOL    HW2 3102   6.488   4.785   2.540
  735SOL     OW 3103   3.151   2.711   0.788
  735SOL    HW1 3104   3.205   2.760   0.856
  735SOL    HW2 3105   3.061   2.689   0.826
  736SOL     OW 3106   6.942   6.652   2.730
  736SOL    HW1 3107   7.003   6.728   2.710
  736SOL    HW2 3108   6.982   6.596   2.803
  737SOL     OW 3109   4.784   3.426   1.127
  737SOL    HW1 3110   4.688   3.454   1.125
  737SOL    HW2 3111   4.806   3.389   1.217
  738SOL     OW 3112   1.683   4.830   4.021
  738SOL    HW1 3113   1.762   4.771   4.039
  738SOL    HW2 3114   1.614   4.779   3.970
  739SOL     OW 3115   4.963   6.078   5.705
  739SOL    HW1 3116   5.047   6.040   5.744
  739SOL    HW2 3117   4.969   6.077   5.605
  740SOL     OW 3118   5.557   0.333   0.820
  740SOL    HW1 3119   5.546   0.422   0.777
  740SOL    HW2 3120   5.577   0.345   0.917
  741SOL     OW 3121   1.849   6.270   3.559
  741SOL    HW1 3122   1.813   6.284   3.467
  741SOL    HW2 3123   1.775   6.283   3.626
  742SOL     OW 3124   2.029   0.238   2.316
  742SOL    HW1 3125   2.002   0.253   2.411
  742SOL    HW2 3126   2.098   0.166   2.312
  743SOL     OW 3127   1.630   4.367   4.494
  743SOL    HW1 3128   1.726   4.373   4.520
  743SOL    HW2 3129   1.595   4.459   4.472
  744SOL     OW 3130   6.886   6.869   6.414
  744SOL    HW1 3131   6.944   6.910   6.342
  744SOL    HW2 3132   6.929   6.785   6.446
  745SOL     OW 3133   0.843   6.359   4.209
  745SOL    HW1 3134   0.831   6.399   4.118
  745SOL    HW2 3135   0.755   6.327   4.243
  746SOL     OW 3136   0.230   6.756   5.035
  746SOL    HW1 3137   0.266   6.806   4.956
  746SOL    HW2 3138   0.135   6.784   5.052
  747SOL     OW 3139   4.510   5.211   4.407
  747SOL    HW1 3140   4.505   5.118   4.442
  747SOL    HW2 3141   4.520   5.209   4.307
  748SOL     OW 3142   4.270   5.055   2.536
  748SOL    HW1 3143   4.366   5.083   2.525
  748SOL    HW2 3144   4.267   4.966   2.580
  749SOL     OW 3145   6.962   3.368   4.898
  749SOL    HW1 3146   6.887   3.434   4.904
  749SOL    HW2 3147   0.009   3.389   4.967
  750SOL     OW 3148   1.844   3.017   0.598
  750SOL    HW1 3149   1.802   3.000   0.509
  750SOL    HW2 3150   1.778   3.061   0.658
  751SOL     OW 3151   4.011   1.923   6.236
  751SOL    HW1 3152   4.015   1.847   6.171
  751SOL    HW2 3153   3.939   1.906   6.303
  752SOL     OW 3154   4.451   2.477   1.927
  752SOL    HW1 3155   4.482   2.405   1.865
  752SOL    HW2 3156   4.523   2.497   1.993
  753SOL     OW 3157   2.171   3.467   4.285
  753SOL    HW1 3158   2.095   3.412   4.321
  753SOL    HW2 3159   2.213   3.420   4.208
  754SOL     OW 3160   5.926   3.578   6.607
  754SOL    HW1 3161   5.890   3.563   6.700
  754SOL    HW2 3162   5.861   3.542   6.540
  755SOL     OW 3163   1.394   5.891   0.164
  755SOL    HW1 3164   1.300   5.924   0.158
  755SOL    HW2 3165   1.395   5.792   0.149
  756SOL     OW 3166   4.753   6.697   1.162
  756SOL    HW1 3167   4.688   6.701   1.087
  756SOL    HW2 3168   4.846   6.704   1.126
  757SOL     OW 3169   0.872   5.993   3.304
  757SOL    HW1 3170   0.918   6.039   3.228
  757SOL    HW2 3171   0.782   6.034   3.318
  758SOL     OW 3172   3.882   1.134   1.262
  758SOL    HW1 3173   3.837   1.118   1.174
  758SOL    HW2 3174   3.831   1.088   1.335
  759SOL     OW 3175   6.836   1.165   0.471
  759SOL    HW1 3176   6.798   1.172   0.564
  759SOL    HW2 3177   6.806   1.080   0.429
  760SOL     OW 3178   4.241   1.326   6.514
  760SOL    HW1 3179   4.313   1.279   6.463
  760SOL    HW2 3180   4.228   1.418   6.478
  761SOL     OW 3181   5.052   3.672   6.836
  761SOL    HW1 3182   5.008   3.751   6.879
  761SOL    HW2 3183   4.992   3.636   6.764
  762SOL     OW 3184   2.067   6.205   3.398
  762SOL    HW1 3185   1.993   6.210   3.465
  762SOL    HW2 3186   2.060   6.120   3.347
  763SOL     OW 3187   4.243   5.754   6.724
  763SOL    HW1 3188   4.227   5.771   6.627
  763SOL    HW2 3189   4.194   5.822   6.778
  764SOL     OW 3190   4.511   0.175   4.313
  764SOL    HW1 3191   4.605   0.141   4.310
  764SOL    HW2 3192   4.501   0.252   4.250
  765SOL     OW 3193   1.488   6.275   1.400
  765SOL    HW1 3194   1.487   6.188   1.352
  765SOL    HW2 3195   1.480   6.259   1.499
  766SOL     OW 3196   0.236   1.866   6.885
  766SOL    HW1 3197   0.268   1.772   6.890
  766SOL    HW2 3198   0.155   1.878   6.942
  767SOL     OW 3199   0.812   6.191   2.094
  767SOL    HW1 3200   0.778   6.281   2.065
  767SOL    HW2 3201   0.853   6.199   2.185
  768SOL     OW 3202   1.999   0.841   2.674
  768SOL    HW1 3203   2.075   0.905   2.668
  768SOL    HW2 3204   2.009   0.770   2.605
  769SOL     OW 3205   2.985   6.702   3.910
  769SOL    HW1 3206   3.026   6.746   3.830
  769SOL    HW2 3207   2.997   6.761   3.990
  770SOL     OW 3208   1.989   4.381   3.023
  770SOL    HW1 3209   2.080   4.358   2.986
  770SOL    HW2 3210   2.000   4.438   3.104
  771SOL     OW 3211   1.936   5.365   2.374
  771SOL    HW1 3212   1.902   5.389   2.283
  771SOL    HW2 3213   1.939   5.265   2.383
  772SOL     OW 3214   6.605   5.153   0.715
  772SOL    HW1 3215   6.671   5.196   0.654
  772SOL    HW2 3216   6.513   5.177   0.686
  773SOL     OW 3217   0.532   3.474   3.738
  773SOL    HW1 3218   0.625   3.460   3.705
  773SOL    HW2 3219   0.526   3.451   3.835
  774SOL     OW 3220   0.873   1.748   2.024
  774SOL    HW1 3221   0.774   1.765   2.018
  774SOL    HW2 3222   0.920   1.803   1.956
  775SOL     OW 3223   1.189   2.042   3.638
  775SOL    HW1 3224   1.279   2.037   3.682
  775SOL    HW2 3225   1.127   2.096   3.694
  776SOL     OW 3226   6.711   1.068   6.448
  776SOL    HW1 3227   6.750   0.979   6.473
  776SOL    HW2 3228   6.716   1.130   6.526
  777SOL     OW 3229   3.381   6.939   1.103
  777SOL    HW1 3230   3.439   6.948   1.022
  777SOL    HW2 3231   3.310   7.010   1.101
  778SOL     OW 3232   3.591   1.477   3.778
  778SOL    HW1 3233   3.616   1.467   3.874
  778SOL    HW2 3234   3.661   1.531   3.731
  779SOL     OW 3235   0.856   1.854   2.896
  779SOL    HW1 3236   0.785   1.914   2.859
  779SOL    HW2 3237   0.904   1.809   2.820
  780SOL     OW 3238   6.077   3.550   4.748
  780SOL    HW1 3239   6.065   3.643   4.783
  780SOL    HW2 3240   6.031   3.542   4.660
  781SOL     OW 3241   6.205   1.268   6.111
  781SOL    HW1 3242   6.112   1.282   6.076
  781SOL    HW2 3243   6.243   1.355   6.142
  782SOL     OW 3244   1.401   4.274   0.185
  782SOL    HW1 3245   1.482   4.234   0.228
  782SOL    HW2 3246   1.321   4.257   0.241
  783SOL     OW 3247   4.152   4.326   0.641
  783SOL    HW1 3248   4.126   4.347   0.547
  783SOL    HW2 3249   4.073   4.337   0.701
  784SOL     OW 3250   5.434   6.931   5.620
  784SOL    HW1 3251   5.398   6.848   5.663
  784SOL    HW2 3252   5.422   7.009   5.682
  785SOL     OW 3253   6.827   2.143   3.185
  785SOL    HW1 3254   6.842   2.056   3.232
  785SOL    HW2 3255   6.806   2.126   3.089
  786SOL     OW 3256   1.180   0.457   0.727
  786SOL    HW1 3257   1.104   0.412   0.775
  786SOL    HW2 3258   1.142   0.526   0.665
  787SOL     OW 3259   3.246   1.485   6.198
  787SOL    HW1 3260   3.237   1.520   6.105
  787SOL    HW2 3261   3.270   1.559   6.260
  788SOL     OW 3262   2.387   2.553   4.786
  788SOL    HW1 3263   2.407   2.593   4.875
  788SOL    HW2 3264   2.366   2.456   4.796
  789SOL     OW 3265   5.990   4.392   1.479
  789SOL    HW1 3266   6.082   4.368   1.448
  789SOL    HW2 3267   5.922   4.348   1.419
  790SOL     OW 3268   2.424   1.502   3.911
  790SOL    HW1 3269   2.431   1.404   3.928
  790SOL    HW2 3270   2.370   1.545   3.983
  791SOL     OW 3271   3.505   0.387   3.591
  791SOL    HW1 3272   3.500   0.481   3.624
  791SOL    HW2 3273   3.600   0.355   3.596
  792SOL     OW 3274   6.937   0.288   1.122
  792SOL    HW1 3275   7.008   0.262   1.188
  792SOL    HW2 3276   6.972   0.360   1.062
  793SOL     OW 3277   4.315   6.320   2.355
  793SOL    HW1 3278   4.227   6.353   2.390
  793SOL    HW2 3279   4.312   6.319   2.255
  794SOL     OW 3280   2.236   3.717   5.187
  794SOL    HW1 3281   2.173   3.726   5.264
  794SOL    HW2 3282   2.299   3.796   5.186
  795SOL     OW 3283   2.751   5.237   5.152
  795SOL    HW1 3284   2.827   5.171   5.148
  795SOL    HW2 3285   2.667   5.189   5.178
  796SOL     OW 3286   0.672   2.505   6.444
  796SOL    HW1 3287   0.573   2.510   6.430
  796SOL    HW2 3288   0.716   2.466   6.363
  797SOL     OW 3289   5.627   2.728   2.748
  797SOL    HW1 3290   5.537   2.705   2.785
  797SOL    HW2 3291   5.633   2.827   2.732
  798SOL     OW 3292   4.974   0.014   0.989
  798SOL    HW1 3293   5.004   0.105   0.961
  798SOL    HW2 3294   5.030   6.967   0.942
  799SOL     OW 3295   6.727   0.808   4.330
  799SOL    HW1 3296   6.820   0.833   4.303
  799SOL    HW2 3297   6.707   0.847   4.420
  800SOL     OW 3298   5.580   1.194   2.723
  800SOL    HW1 3299   5.556   1.263   2.654
  800SOL    HW2 3300   5.607   1.109   2.677
  801SOL     OW 3301   1.250   3.963   2.937
  801SOL    HW1 3302   1.263   3.974   3.035
  801SOL    HW2 3303   1.319   3.899   2.901
  802SOL     OW 3304   4.373   0.987   0.401
  802SOL    HW1 3305   4.457   1.004   0.350
  802SOL    HW2 3306   4.395   0.945   0.490
  803SOL     OW 3307   6.983   6.031   5.256
  803SOL    HW1 3308   0.031   5.961   5.261
  803SOL    HW2 3309   6.912   6.012   5.324
  804SOL     OW 3310   6.214   6.510   6.862
  804SOL    HW1 3311   6.169   6.457   6.933
  804SOL    HW2 3312   6.153   6.518   6.782
  805SOL     OW 3313   4.108   2.185   5.932
  805SOL    HW1 3314   4.066   2.159   5.845
  805SOL    HW2 3315   4.036   2.214   5.996
  806SOL     OW 3316   4.078   1.533   4.917
  806SOL    HW1 3317   4.106   1.623   4.948
  806SOL    HW2 3318   4.020   1.541   4.836
  807SOL     OW 3319   0.688   1.850   3.574
  807SOL    HW1 3320   0.671   1.752   3.577
  807SOL    HW2 3321   0.778   1.867   3.534
  808SOL     OW 3322   4.950   3.519   6.621
  808SOL    HW1 3323   5.002   3.522   6.536
  808SOL    HW2 3324   4.898   3.434   6.626
  809SOL     OW 3325   1.104   4.802   1.528
  809SOL    HW1 3326   1.041   4.862   1.479
  809SOL    HW2 3327   1.172   4.765   1.463
  810SOL     OW 3328   4.244   2.935   0.973
  810SOL    HW1 3329   4.299   2.855   0.946
  810SOL    HW2 3330   4.173   2.951   0.905
  811SOL     OW 3331   4.833   4.891   3.457
  811SOL    HW1 3332   4.876   4.909   3.369
  811SOL    HW2 3333   4.820   4.977   3.506
  812SOL     OW 3334   0.302   0.739   1.857
  812SOL    HW1 3335   0.219   0.788   1.884
  812SOL    HW2 3336   0.351   0.793   1.789
  813SOL     OW 3337   4.025   5.213   4.347
  813SOL    HW1 3338   4.103   5.262   4.387
  813SOL    HW2 3339   3.976   5.274   4.284
  814SOL     OW 3340   5.125   6.438   3.501
  814SOL    HW1 3341   5.124   6.366   3.431
  814SOL    HW2 3342   5.033   6.477   3.509
  815SOL     OW 3343   6.341   3.111   2.011
  815SOL    HW1 3344   6.282   3.162   2.074
  815SOL    HW2 3345   6.380   3.032   2.058
  816SOL     OW 3346   0.146   6.960   6.817
  816SOL    HW1 3347   0.123   6.899   6.893
  816SOL    HW2 3348   0.078   6.949   6.744
  817SOL     OW 3349   2.105   3.597   2.256
  817SOL    HW1 3350   2.086   3.695   2.248
  817SOL    HW2 3351   2.145   3.564   2.170
  818SOL     OW 3352   6.547   2.900   1.278
  818SOL    HW1 3353   6.644   2.913   1.256
  818SOL    HW2 3354   6.523   2.803   1.268
  819SOL     OW 3355   6.045   3.159   3.944
  819SOL    HW1 3356   6.045   3.061   3.922
  819SOL    HW2 3357   6.066   3.211   3.861
  820SOL     OW 3358   1.410   3.242   5.998
  820SOL    HW1 3359   1.374   3.181   5.928
  820SOL    HW2 3360   1.409   3.197   6.087
  821SOL     OW 3361   2.570   4.523   0.288
  821SOL    HW1 3362   2.635   4.479   0.225
  821SOL    HW2 3363   2.621   4.564   0.364
  822SOL     OW 3364   0.893   4.875   4.763
  822SOL    HW1 3365   0.977   4.912   4.805
  822SOL    HW2 3366   0.848   4.814   4.828
  823SOL     OW 3367   4.632   4.455   0.062
  823SOL    HW1 3368   4.543   4.491   0.036
  823SOL    HW2 3369   4.692   4.453   7.003
  824SOL     OW 3370   5.270   1.001   5.570
  824SOL    HW1 3371   5.353   1.046   5.536
  824SOL    HW2 3372   5.190   1.057   5.548
  825SOL     OW 3373   1.921   3.448   1.524
  825SOL    HW1 3374   1.986   3.412   1.457
  825SOL    HW2 3375   1.962   3.447   1.615
  826SOL     OW 3376   5.757   4.099   0.669
  826SOL    HW1 3377   5.698   4.041   0.725
  826SOL    HW2 3378   5.836   4.128   0.723
  827SOL     OW 3379   2.931   5.300   5.512
  827SOL    HW1 3380   2.877   5.216   5.511
  827SOL    HW2 3381   2.881   5.372   5.464
  828SOL     OW 3382   6.309   0.590   5.377
  828SOL    HW1 3383   6.293   0.621   5.284
  828SOL    HW2 3384   6.406   0.599   5.400
  829SOL     OW 3385   3.011   3.429   4.547
  829SOL    HW1 3386   3.057   3.430   4.459
  829SOL    HW2 3387   3.020   3.519   4.591
  830SOL     OW 3388   5.024   4.512   6.020
  830SOL    HW1 3389   4.949   4.447   6.022
  830SOL    HW2 3390   5.072   4.504   5.933
  831SOL     OW 3391   6.975   0.175   4.837
  831SOL    HW1 3392   7.015   0.211   4.753
  831SOL    HW2 3393   6.991   0.239   4.912
  832SOL     OW 3394   1.755   0.910   6.807
  832SOL    HW1 3395   1.657   0.911   6.790
  832SOL    HW2 3396   1.796   0.995   6.774
  833SOL     OW 3397   0.390   5.505   6.020
  833SOL    HW1 3398   0.473   5.512   5.965
  833SOL    HW2 3399   0.356   5.597   6.041
  834SOL     OW 3400   3.995   3.976   1.850
  834SOL    HW1 3401   3.973   4.054   1.790
  834SOL    HW2 3402   3.997   4.007   1.945
  835SOL     OW 3403   3.622   6.867   4.375
  835SOL    HW1 3404   3.591   6.806   4.448
  835SOL    HW2 3405   3.720   6.884   4.384
  836SOL     OW 3406   2.976   6.208   6.661
  836SOL    HW1 3407   2.902   6.223   6.727
  836SOL    HW2 3408   3.054   6.167   6.708
  837SOL     OW 3409   5.121   6.905   6.735
  837SOL    HW1 3410   5.063   6.977   6.697
  837SOL    HW2 3411   5.074   6.817   6.724
  838SOL     OW 3412   0.477   0.471   4.825
  838SOL    HW1 3413   0.512   0.379   4.805
  838SOL    HW2 3414   0.551   0.538   4.817
  839SOL     OW 3415   2.954   1.648   2.051
  839SOL    HW1 3416   2.964   1.611   1.958
  839SOL    HW2 3417   3.001   1.587   2.115
  840SOL     OW 3418   5.860   0.743   5.421
  840SOL    HW1 3419   5.857   0.733   5.322
  840SOL    HW2 3420   5.869   0.840   5.444
  841SOL     OW 3421   6.150   4.561   0.595
  841SOL    HW1 3422   6.079   4.503   0.635
  841SOL    HW2 3423   6.221   4.504   0.554
  842SOL     OW 3424   4.198   5.067   3.790
  842SOL    HW1 3425   4.139   5.047   3.712
  842SOL    HW2 3426   4.194   5.164   3.812
  843SOL     OW 3427   5.105   2.206   0.344
  843SOL    HW1 3428   5.118   2.165   0.254
  843SOL    HW2 3429   5.187   2.258   0.369
  844SOL     OW 3430   4.572   6.693   0.949
  844SOL    HW1 3431   4.508   6.770   0.954
  844SOL    HW2 3432   4.589   6.670   0.853
  845SOL     OW 3433   6.234   3.240   4.175
  845SOL    HW1 3434   6.224   3.196   4.086
  845SOL    HW2 3435   6.221   3.171   4.247
  846SOL     OW 3436   5.377   1.493   6.686
  846SOL    HW1 3437   5.381   1.557   6.609
  846SOL    HW2 3438   5.462   1.441   6.691
  847SOL     OW 3439   6.195   3.498   1.104
  847SOL    HW1 3440   6.161   3.412   1.141
  847SOL    HW2 3441   6.121   3.548   1.059
  848SOL     OW 3442   5.711   1.181   6.932
  848SOL    HW1 3443   5.807   1.175   6.906
  848SOL    HW2 3444   5.683   1.278   6.933
  849SOL     OW 3445   0.545   5.661   5.272
  849SOL    HW1 3446   0.510   5.579   5.318
  849SOL    HW2 3447   0.581   5.725   5.340
  850SOL     OW 3448   4.738   0.733   3.605
  850SOL    HW1 3449   4.638   0.723   3.600
  850SOL    HW2 3450   4.761   0.797   3.678
  851SOL     OW 3451   0.014   1.346   0.656
  851SOL    HW1 3452   6.963   1.280   0.674
  851SOL    HW2 3453   0.100   1.313   0.695
  852SOL     OW 3454   2.471   2.664   7.015
  852SOL    HW1 3455   2.486   2.749   0.043
  852SOL    HW2 3456   2.480   2.681   6.917
  853SOL     OW 3457   1.010   3.675   3.595
  853SOL    HW1 3458   1.101   3.676   3.637
  853SOL    HW2 3459   0.941   3.700   3.663
  854SOL     OW 3460   5.272   6.148   2.193
  854SOL    HW1 3461   5.186   6.162   2.243
  854SOL    HW2 3462   5.339   6.107   2.254
  855SOL     OW 3463   5.940   6.842   1.000
  855SOL    HW1 3464   5.863   6.818   1.059
  855SOL    HW2 3465   5.948   6.941   0.994
  856SOL     OW 3466   2.037   0.920   5.148
  856SOL    HW1 3467   2.098   0.888   5.221
  856SOL    HW2 3468   1.951   0.869   5.152
  857SOL     OW 3469   6.032   5.294   1.275
  857SOL    HW1 3470   6.042   5.243   1.190
  857SOL    HW2 3471   5.936   5.297   1.301
  858SOL     OW 3472   2.567   4.634   2.121
  858SOL    HW1 3473   2.576   4.711   2.185
  858SOL    HW2 3474   2.650   4.627   2.066
  859SOL     OW 3475   5.739   5.409   6.513
  859SOL    HW1 3476   5.716   5.374   6.604
  859SOL    HW2 3477   5.805   5.484   6.522
  860SOL     OW 3478   4.892   4.313   0.453
  860SOL    HW1 3479   4.942   4.282   0.533
  860SOL    HW2 3480   4.943   4.386   0.407
  861SOL     OW 3481   2.120   6.963   4.679
  861SOL    HW1 3482   2.197   7.008   4.635
  861SOL    HW2 3483   2.086   7.020   4.755
  862SOL     OW 3484   6.022   3.829   5.104
  862SOL    HW1 3485   6.048   3.849   5.010
  862SOL    HW2 3486   6.088   3.870   5.166
  863SOL     OW 3487   1.054   0.034   0.496
  863SOL    HW1 3488   1.138   0.086   0.482
  863SOL    HW2 3489   1.072   6.979   0.557
  864SOL     OW 3490   5.187   4.384   3.492
  864SOL    HW1 3491   5.233   4.467   3.522
  864SOL    HW2 3492   5.129   4.404   3.413
  865SOL     OW 3493   0.548   6.958   4.726
  865SOL    HW1 3494   0.613   6.886   4.753
  865SOL    HW2 3495   0.589   0.026   4.743
  866SOL     OW 3496   2.169   1.665   1.938
  866SOL    HW1 3497   2.151   1.572   1.971
  866SOL    HW2 3498   2.159   1.729   2.013
  867SOL     OW 3499   3.400   2.651   1.112
  867SOL    HW1 3500   3.377   2.709   1.033
  867SOL    HW2 3501   3.386   2.703   1.196
  868SOL     OW 3502   6.060   6.447   1.206
  868SOL    HW1 3503   6.147   6.397   1.208
  868SOL    HW2 3504   6.078   6.544   1.222
  869SOL     OW 3505   6.214   5.353   2.953
  869SOL    HW1 3506   6.149   5.402   3.011
  869SOL    HW2 3507   6.301   5.343   3.000
  870SOL     OW 3508   6.182   4.091   1.578
  870SOL    HW1 3509   6.205   4.069   1.673
  870SOL    HW2 3510   6.241   4.040   1.516
  871SOL     OW 3511   0.017   3.382   1.626
  871SOL    HW1 3512   0.098   3.386   1.567
  871SOL    HW2 3513   6.991   3.296   1.609
  872SOL     OW 3514   6.496   3.468   4.353
  872SOL    HW1 3515   6.539   3.390   4.308
  872SOL    HW2 3516   6.493   3.546   4.290
  873SOL     OW 3517   4.238   0.684   2.842
  873SOL    HW1 3518   4.184   0.668   2.759
  873SOL    HW2 3519   4.248   0.599   2.892
  874SOL     OW 3520   1.391   4.218   5.382
  874SOL    HW1 3521   1.395   4.219   5.482
  874SOL    HW2 3522   1.304   4.179   5.352
  875SOL     OW 3523   5.123   4.475   0.866
  875SOL    HW1 3524   5.167   4.528   0.938
  875SOL    HW2 3525   5.039   4.521   0.837
  876SOL     OW 3526   6.640   4.445   3.491
  876SOL    HW1 3527   6.656   4.425   3.588
  876SOL    HW2 3528   6.727   4.462   3.445
  877SOL     OW 3529   4.553   4.848   7.020
  877SOL    HW1 3530   4.622   4.824   6.952
  877SOL    HW2 3531   4.597   4.860   0.087
  878SOL     OW 3532   3.842   5.234   0.142
  878SOL    HW1 3533   3.804   5.320   0.110
  878SOL    HW2 3534   3.915   5.204   0.079
  879SOL     OW 3535   3.947   1.651   2.420
  879SOL    HW1 3536   3.900   1.709   2.353
  879SOL    HW2 3537   3.993   1.708   2.488
  880SOL     OW 3538   3.259   4.280   6.858
  880SOL    HW1 3539   3.243   4.374   6.829
  880SOL    HW2 3540   3.247   4.273   6.957
  881SOL     OW 3541   4.389   4.885   5.017
  881SOL    HW1 3542   4.358   4.803   4.970
  881SOL    HW2 3543   4.358   4.966   4.968
  882SOL     OW 3544   1.857   1.602   3.960
  882SOL    HW1 3545   1.797   1.651   3.897
  882SOL    HW2 3546   1.836   1.628   4.054
  883SOL     OW 3547   4.273   4.797   5.429
  883SOL    HW1 3548   4.266   4.893   5.454
  883SOL    HW2 3549   4.244   4.784   5.334
  884SOL     OW 3550   6.783   3.377   2.231
  884SOL    HW1 3551   6.689   3.375   2.199
  884SOL    HW2 3552   6.833   3.450   2.183
  885SOL     OW 3553   5.802   6.529   0.316
  885SOL    HW1 3554   5.894   6.562   0.334
  885SOL    HW2 3555   5.799   6.430   0.329
  886SOL     OW 3556   4.148   0.998   0.281
  886SOL    HW1 3557   4.232   1.011   0.334
  886SOL    HW2 3558   4.167   0.938   0.203
  887SOL     OW 3559   4.325   6.530   5.943
  887SOL    HW1 3560   4.417   6.559   5.967
  887SOL    HW2 3561   4.268   6.611   5.926
  888SOL     OW 3562   6.953   6.350   3.602
  888SOL    HW1 3563   0.002   6.418   3.620
  888SOL    HW2 3564   6.893   6.382   3.528
  889SOL     OW 3565   0.359   6.899   6.045
  889SOL    HW1 3566   0.324   6.983   6.004
  889SOL    HW2 3567   0.291   6.862   6.108
  890SOL     OW 3568   2.883   4.793   2.227
  890SOL    HW1 3569   2.853   4.885   2.201
  890SOL    HW2 3570   2.864   4.729   2.152
  891SOL     OW 3571   5.901   3.411   1.364
  891SOL    HW1 3572   5.853   3.369   1.440
  891SOL    HW2 3573   5.857   3.383   1.278
  892SOL     OW 3574   3.834   3.767   0.220
  892SOL    HW1 3575   3.855   3.672   0.197
  892SOL    HW2 3576   3.751   3.771   0.276
  893SOL     OW 3577   1.804   0.703   0.844
  893SOL    HW1 3578   1.767   0.759   0.770
  893SOL    HW2 3579   1.829   0.613   0.808
  894SOL     OW 3580   1.848   4.639   4.340
  894SOL    HW1 3581   1.756   4.600   4.339
  894SOL    HW2 3582   1.913   4.571   4.373
  895SOL     OW 3583   1.935   6.847   4.504
  895SOL    HW1 3584   1.959   6.762   4.457
  895SOL    HW2 3585   1.988   6.854   4.589
  896SOL     OW 3586   5.800   5.864   4.120
  896SOL    HW1 3587   5.856   5.846   4.201
  896SOL    HW2 3588   5.858   5.881   4.041
  897SOL     OW 3589   4.847   1.189   0.623
  897SOL    HW1 3590   4.919   1.141   0.674
  897SOL    HW2 3591   4.886   1.271   0.581
  898SOL     OW 3592   5.167   6.189   4.090
  898SOL    HW1 3593   5.259   6.206   4.056
  898SOL    HW2 3594   5.148   6.250   4.166
  899SOL     OW 3595   0.514   5.055   0.202
  899SOL    HW1 3596   0.599   5.009   0.226
  899SOL    HW2 3597   0.437   5.005   0.241
  900SOL     OW 3598   6.387   5.952   1.932
  900SOL    HW1 3599   6.394   6.016   2.008
  900SOL    HW2 3600   6.436   5.868   1.954
  901SOL     OW 3601   0.240   1.543   4.342
  901SOL    HW1 3602   0.271   1.456   4.303
  901SOL    HW2 3603   0.318   1.604   4.356
  902SOL     OW 3604   0.028   0.718   6.534
  902SOL    HW1 3605   0.108   0.743   6.480
  902SOL    HW2 3606   0.049   0.729   6.631
  903SOL     OW 3607   6.399   4.466   0.498
  903SOL    HW1 3608   6.465   4.528   0.542
  903SOL    HW2 3609   6.439   4.427   0.415
  904SOL     OW 3610   1.563   1.709   3.562
  904SOL    HW1 3611   1.644   1.762   3.584
  904SOL    HW2 3612   1.486   1.771   3.546
  905SOL     OW 3613   5.346   2.311   0.229
  905SOL    HW1 3614   5.417   2.308   0.159
  905SOL    HW2 3615   5.268   2.363   0.194
  906SOL     OW 3616   0.106   4.509   6.877
  906SOL    HW1 3617   0.073   4.539   6.966
  906SOL    HW2 3618   0.054   4.429   6.848
  907SOL     OW 3619   6.083   1.962   2.921
  907SOL    HW1 3620   6.113   2.038   2.980
  907SOL    HW2 3621   6.127   1.878   2.950
  908SOL     OW 3622   1.073   6.843   4.315
  908SOL    HW1 3623   1.121   6.926   4.287
  908SOL    HW2 3624   1.110   6.810   4.401
  909SOL     OW 3625   2.416   1.257   0.359
  909SOL    HW1 3626   2.345   1.186   0.370
  909SOL    HW2 3627   2.493   1.237   0.420
  910SOL     OW 3628   2.114   0.531   0.701
  910SOL    HW1 3629   2.157   0.508   0.614
  910SOL    HW2 3630   2.015   0.525   0.693
  911SOL     OW 3631   0.156   5.100   1.420
  911SOL    HW1 3632   0.131   5.022   1.478
  911SOL    HW2 3633   0.127   5.185   1.464
  912SOL     OW 3634   0.464   1.569   5.861
  912SOL    HW1 3635   0.519   1.573   5.945
  912SOL    HW2 3636   0.384   1.512   5.876
  913SOL     OW 3637   1.890   0.435   3.676
  913SOL    HW1 3638   1.793   0.428   3.697
  913SOL    HW2 3639   1.905   0.509   3.610
  914SOL     OW 3640   2.437   5.651   4.425
  914SOL    HW1 3641   2.505   5.654   4.352
  914SOL    HW2 3642   2.357   5.704   4.398
  915SOL     OW 3643   0.498   3.403   0.202
  915SOL    HW1 3644   0.583   3.350   0.207
  915SOL    HW2 3645   0.420   3.341   0.200
  916SOL     OW 3646   2.173   2.089   2.213
  916SOL    HW1 3647   2.249   2.121   2.156
  916SOL    HW2 3648   2.199   2.003   2.257
  917SOL     OW 3649   3.873   0.802   1.388
  917SOL    HW1 3650   3.787   0.771   1.430
  917SOL    HW2 3651   3.860   0.812   1.289
  918SOL     OW 3652   3.369   5.988   6.467
  918SOL    HW1 3653   3.389   6.050   6.543
  918SOL    HW2 3654   3.408   5.898   6.486
  919SOL     OW 3655   1.457   6.472   1.867
  919SOL    HW1 3656   1.527   6.499   1.801
  919SOL    HW2 3657   1.388   6.416   1.822
  920SOL     OW 3658   2.685   0.558   2.860
  920SOL    HW1 3659   2.773   0.565   2.814
  920SOL    HW2 3660   2.612   0.579   2.796
  921SOL     OW 3661   6.057   4.730   4.381
  921SOL    HW1 3662   5.977   4.720   4.440
  921SOL    HW2 3663   6.089   4.824   4.383
  922SOL     OW 3664   3.396   3.956   0.013
  922SOL    HW1 3665   3.494   3.936   0.018
  922SOL    HW2 3666   3.381   4.053   0.030
  923SOL     OW 3667   2.718   5.876   0.299
  923SOL    HW1 3668   2.682   5.838   0.214
  923SOL    HW2 3669   2.785   5.813   0.338
  924SOL     OW 3670   5.458   2.956   2.518
  924SOL    HW1 3671   5.383   2.909   2.471
  924SOL    HW2 3672   5.448   3.055   2.506
  925SOL     OW 3673   6.855   1.970   5.975
  925SOL    HW1 3674   6.928   2.003   5.916
  925SOL    HW2 3675   6.868   1.873   5.993
  926SOL     OW 3676   5.764   6.952   0.718
  926SOL    HW1 3677   5.696   6.889   0.679
  926SOL    HW2 3678   5.855   6.926   0.686
  927SOL     OW 3679   4.873   3.938   3.672
  927SOL    HW1 3680   4.821   4.022   3.659
  927SOL    HW2 3681   4.967   3.952   3.640
  928SOL     OW 3682   1.526   6.723   0.522
  928SOL    HW1 3683   1.596   6.672   0.472
  928SOL    HW2 3684   1.562   6.751   0.611
  929SOL     OW 3685   0.270   2.788   2.067
  929SOL    HW1 3686   0.242   2.846   2.144
  929SOL    HW2 3687   0.189   2.749   2.024
  930SOL     OW 3688   6.101   4.971   4.070
  930SOL    HW1 3689   6.058   4.899   4.016
  930SOL    HW2 3690   6.031   5.033   4.105
  931SOL     OW 3691   0.510   3.096   3.301
  931SOL    HW1 3692   0.559   3.099   3.214
  931SOL    HW2 3693   0.573   3.072   3.374
  932SOL     OW 3694   3.795   6.361   2.117
  932SOL    HW1 3695   3.777   6.424   2.193
  932SOL    HW2 3696   3.858   6.290   2.147
  933SOL     OW 3697   1.002   4.035   3.214
  933SOL    HW1 3698   0.945   4.016   3.134
  933SOL    HW2 3699   0.952   4.097   3.276
  934SOL     OW 3700   2.637   0.967   4.764
  934SOL    HW1 3701   2.706   1.040   4.767
  934SOL    HW2 3702   2.607   0.954   4.669
  935SOL     OW 3703   4.776   3.698   6.472
  935SOL    HW1 3704   4.821   3.778   6.432
  935SOL    HW2 3705   4.842   3.646   6.527
  936SOL     OW 3706   0.325   6.626   1.156
  936SOL    HW1 3707   0.342   6.626   1.254
  936SOL    HW2 3708   0.377   6.700   1.113
  937SOL     OW 3709   5.195   1.701   4.397
  937SOL    HW1 3710   5.250   1.617   4.397
  937SOL    HW2 3711   5.117   1.689   4.335
  938SOL     OW 3712   0.482   4.183   6.532
  938SOL    HW1 3713   0.487   4.279   6.503
  938SOL    HW2 3714   0.575   4.145   6.537
  939SOL     OW 3715   5.144   1.320   6.489
  939SOL    HW1 3716   5.144   1.317   6.589
  939SOL    HW2 3717   5.066   1.375   6.457
  940SOL     OW 3718   0.280   1.651   2.816
  940SOL    HW1 3719   0.230   1.643   2.730
  940SOL    HW2 3720   0.265   1.569   2.872
  941SOL     OW 3721   5.747   1.222   3.764
  941SOL    HW1 3722   5.667   1.180   3.721
  941SOL    HW2 3723   5.776   1.301   3.710
  942SOL     OW 3724   5.045   0.070   5.251
  942SOL    HW1 3725   5.041   6.996   5.222
  942SOL    HW2 3726   5.085   0.075   5.342
  943SOL     OW 3727   6.825   3.490   2.518
  943SOL    HW1 3728   6.741   3.467   2.566
  943SOL    HW2 3729   6.841   3.425   2.444
  944SOL     OW 3730   6.330   3.499   4.806
  944SOL    HW1 3731   6.361   3.439   4.733
  944SOL    HW2 3732   6.236   3.527   4.789
  945SOL     OW 3733   4.689   4.781   4.113
  945SOL    HW1 3734   4.746   4.707   4.076
  945SOL    HW2 3735   4.687   4.775   4.212
  946SOL     OW 3736   6.156   2.451   6.428
  946SOL    HW1 3737   6.153   2.384   6.354
  946SOL    HW2 3738   6.236   2.434   6.486
  947SOL     OW 3739   3.194   3.634   6.276
  947SOL    HW1 3740   3.150   3.713   6.234
  947SOL    HW2 3741   3.276   3.610   6.224
  948SOL     OW 3742   3.286   0.873   0.205
  948SOL    HW1 3743   3.229   0.954   0.194
  948SOL    HW2 3744   3.383   0.899   0.197
  949SOL     OW 3745   6.643   5.686   6.252
  949SOL    HW1 3746   6.646   5.693   6.152
  949SOL    HW2 3747   6.685   5.767   6.292
  950SOL     OW 3748   3.939   5.137   2.273
  950SOL    HW1 3749   3.899   5.150   2.364
  950SOL    HW2 3750   4.037   5.160   2.276
  951SOL     OW 3751   0.609   0.460   1.751
  951SOL    HW1 3752   0.531   0.458   1.813
  951SOL    HW2 3753   0.616   0.372   1.704
  952SOL     OW 3754   5.381   1.678   2.324
  952SOL    HW1 3755   5.324   1.621   2.384
  952SOL    HW2 3756   5.327   1.708   2.245
  953SOL     OW 3757   4.577   6.006   5.486
  953SOL    HW1 3758   4.533   5.918   5.506
  953SOL    HW2 3759   4.573   6.064   5.567
  954SOL     OW 3760   6.144   0.130   1.504
  954SOL    HW1 3761   6.161   0.099   1.598
  954SOL    HW2 3762   6.123   0.228   1.504
  955SOL     OW 3763   0.936   4.891   3.892
  955SOL    HW1 3764   0.929   4.807   3.838
  955SOL    HW2 3765   0.973   4.964   3.834
  956SOL     OW 3766   1.062   1.476   1.099
  956SOL    HW1 3767   1.154   1.501   1.127
  956SOL    HW2 3768   1.010   1.559   1.079
  957SOL     OW 3769   1.783   4.802   5.882
  957SOL    HW1 3770   1.869   4.839   5.917
  957SOL    HW2 3771   1.715   4.801   5.954
  958SOL     OW 3772   5.128   2.066   0.835
  958SOL    HW1 3773   5.090   1.978   0.805
  958SOL    HW2 3774   5.073   2.100   0.912
  959SOL     OW 3775   2.770   4.724   3.064
  959SOL    HW1 3776   2.780   4.818   3.094
  959SOL    HW2 3777   2.802   4.716   2.969
  960SOL     OW 3778   1.172   6.229   3.892
  960SOL    HW1 3779   1.177   6.200   3.988
  960SOL    HW2 3780   1.128   6.318   3.886
  961SOL     OW 3781   4.280   6.954   2.411
  961SOL    HW1 3782   4.331   0.018   2.418
  961SOL    HW2 3783   4.295   6.899   2.493
  962SOL     OW 3784   1.297   1.272   3.726
  962SOL    HW1 3785   1.264   1.310   3.640
  962SOL    HW2 3786   1.368   1.204   3.708
  963SOL     OW 3787   6.054   0.161   0.655
  963SOL    HW1 3788   5.969   0.180   0.703
  963SOL    HW2 3789   6.099   0.247   0.630
  964SOL     OW 3790   5.402   2.957   0.809
  964SOL    HW1 3791   5.429   2.991   0.719
  964SOL    HW2 3792   5.442   3.015   0.880
  965SOL     OW 3793   6.033   1.689   1.071
  965SOL    HW1 3794   6.033   1.605   1.017
  965SOL    HW2 3795   6.013   1.667   1.167
  966SOL     OW 3796   6.243   1.696   2.921
  966SOL    HW1 3797   6.157   1.654   2.949
  966SOL    HW2 3798   6.229   1.745   2.834
  967SOL     OW 3799   1.548   5.579   0.856
  967SOL    HW1 3800   1.643   5.598   0.882
  967SOL    HW2 3801   1.546   5.502   0.792
  968SOL     OW 3802   5.161   2.459   2.546
  968SOL    HW1 3803   5.177   2.510   2.462
  968SOL    HW2 3804   5.097   2.509   2.604
  969SOL     OW 3805   3.550   5.726   5.650
  969SOL    HW1 3806   3.507   5.650   5.602
  969SOL    HW2 3807   3.592   5.787   5.583
  970SOL     OW 3808   4.305   1.898   5.452
  970SOL    HW1 3809   4.387   1.948   5.477
  970SOL    HW2 3810   4.329   1.823   5.391
  971SOL     OW 3811   0.124   1.118   2.627
  971SOL    HW1 3812   0.050   1.058   2.597
  971SOL    HW2 3813   0.193   1.125   2.555
  972SOL     OW 3814   6.030   4.937   0.836
  972SOL    HW1 3815   5.946   4.968   0.790
  972SOL    HW2 3816   6.097   4.911   0.767
  973SOL     OW 3817   0.461   4.695   6.362
  973SOL    HW1 3818   0.373   4.724   6.401
  973SOL    HW2 3819   0.516   4.775   6.341
  974SOL     OW 3820   3.354   0.981   2.502
  974SOL    HW1 3821   3.396   0.990   2.593
  974SOL    HW2 3822   3.274   1.041   2.497
  975SOL     OW 3823   3.083   6.078   6.357
  975SOL    HW1 3824   3.162   6.019   6.373
  975SOL    HW2 3825   3.114   6.173   6.346
  976SOL     OW 3826   6.985   2.705   2.284
  976SOL    HW1 3827   6.893   2.666   2.273
  976SOL    HW2 3828   6.985   2.768   2.362
  977SOL     OW 3829   2.144   1.296   4.122
  977SOL    HW1 3830   2.120   1.369   4.058
  977SOL    HW2 3831   2.062   1.261   4.166
  978SOL     OW 3832   5.192   4.025   4.818
  978SOL    HW1 3833   5.153   4.092   4.755
  978SOL    HW2 3834   5.121   3.960   4.846
  979SOL     OW 3835   6.480   1.281   3.650
  979SOL    HW1 3836   6.565   1.334   3.644
  979SOL    HW2 3837   6.415   1.328   3.710
  980SOL     OW 3838   5.299   2.426   3.772
  980SOL    HW1 3839   5.311   2.490   3.848
  980SOL    HW2 3840   5.387   2.384   3.750
  981SOL     OW 3841   1.216   1.933   4.932
  981SOL    HW1 3842   1.287   1.898   4.870
  981SOL    HW2 3843   1.239   2.027   4.958
  982SOL     OW 3844   1.851   2.809   2.371
  982SOL    HW1 3845   1.928   2.752   2.398
  982SOL    HW2 3846   1.874   2.857   2.286
  983SOL     OW 3847   5.990   2.458   3.524
  983SOL    HW1 3848   6.022   2.549   3.552
  983SOL    HW2 3849   5.890   2.456   3.526
  984SOL     OW 3850   4.062   0.379   4.912
  984SOL    HW1 3851   4.053   0.403   4.815
  984SOL    HW2 3852   4.155   0.400   4.943
  985SOL     OW 3853   4.273   4.888   0.025
  985SOL    HW1 3854   4.371   4.880   0.006
  985SOL    HW2 3855   4.259   4.927   0.116
  986SOL     OW 3856   5.260   5.802   6.783
  986SOL    HW1 3857   5.270   5.870   6.856
  986SOL    HW2 3858   5.337   5.739   6.786
  987SOL     OW 3859   3.696   6.600   1.427
  987SOL    HW1 3860   3.793   6.594   1.403
  987SOL    HW2 3861   3.686   6.592   1.526
  988SOL     OW 3862   4.219   2.209   1.222
  988SOL    HW1 3863   4.128   2.218   1.180
  988SOL    HW2 3864   4.263   2.126   1.187
  989SOL     OW 3865   0.622   0.771   5.484
  989SOL    HW1 3866   0.555   0.701   5.509
  989SOL    HW2 3867   0.582   0.832   5.416
  990SOL     OW 3868   4.983   6.732   3.774
  990SOL    HW1 3869   4.982   6.686   3.685
  990SOL    HW2 3870   4.939   6.822   3.765
  991SOL     OW 3871   1.813   1.961   4.672
  991SOL    HW1 3872   1.913   1.965   4.674
  991SOL    HW2 3873   1.779   1.936   4.763
  992SOL     OW 3874   0.474   3.184   6.867
  992SOL    HW1 3875   0.450   3.280   6.872
  992SOL    HW2 3876   0.539   3.170   6.792
  993SOL     OW 3877   2.139   5.551   2.375
  993SOL    HW1 3878   2.136   5.588   2.282
  993SOL    HW2 3879   2.060   5.492   2.391
  994SOL     OW 3880   3.838   3.713   2.324
  994SOL    HW1 3881   3.889   3.631   2.350
  994SOL    HW2 3882   3.801   3.757   2.406
  995SOL     OW 3883   2.196   2.513   6.019
  995SOL    HW1 3884   2.105   2.552   6.025
  995SOL    HW2 3885   2.252   2.566   5.956
  996SOL     OW 3886   1.840   3.790   4.238
  996SOL    HW1 3887   1.825   3.888   4.249
  996SOL    HW2 3888   1.932   3.766   4.270
  997SOL     OW 3889   0.235   6.983   1.549
  997SOL    HW1 3890   0.242   0.018   1.631
  997SOL    HW2 3891   0.139   6.970   1.525
  998SOL     OW 3892   4.719   7.001   3.290
  998SOL    HW1 3893   4.674   0.058   3.248
  998SOL    HW2 3894   4.772   6.951   3.221
  999SOL     OW 3895   5.299   5.986   1.290
  999SOL    HW1 3896   5.342   5.913   1.236
  999SOL    HW2 3897   5.274   5.950   1.380
 1000SOL     OW 3898   0.850   1.702   2.318
 1000SOL    HW1 3899   0.913   1.675   2.391
 1000SOL    HW2 3900   0.902   1.733   2.238
 1001SOL     OW 3901   4.390   6.501   6.361
 1001SOL    HW1 3902   4.311   6.517   6.302
 1001SOL    HW2 3903   4.389   6.567   6.437
 1002SOL     OW 3904   5.633   1.482   6.584
 1002SOL    HW1 3905   5.660   1.571   6.620
 1002SOL    HW2 3906   5.614   1.490   6.486
 1003SOL     OW 3907   2.682   6.976   1.701
 1003SOL    HW1 3908   2.698   6.969   1.799
 1003SOL    HW2 3909   2.638   0.041   1.680
 1004SOL     OW 3910   6.668   0.745   0.645
 1004SOL    HW1 3911   6.599   0.673   0.642
 1004SOL    HW2 3912   6.671   0.784   0.737
 1005SOL     OW 3913   6.820   0.735   3.353
 1005SOL    HW1 3914   6.777   0.700   3.270
 1005SOL    HW2 3915   6.757   0.797   3.399
 1006SOL     OW 3916   2.240   5.939   1.447
 1006SOL    HW1 3917   2.199   6.030   1.448
 1006SOL    HW2 3918   2.196   5.882   1.516
 1007SOL     OW 3919   5.857   6.713   3.214
 1007SOL    HW1 3920   5.957   6.719   3.208
 1007SOL    HW2 3921   5.832   6.628   3.260
 1008SOL     OW 3922   1.410   3.017   4.345
 1008SOL    HW1 3923   1.351   3.033   4.425
 1008SOL    HW2 3924   1.504   3.003   4.375
 1009SOL     OW 3925   6.767   5.311   3.834
 1009SOL    HW1 3926   6.688   5.369   3.817
 1009SOL    HW2 3927   6.737   5.222   3.868
 1010SOL     OW 3928   4.501   2.425   0.147
 1010SOL    HW1 3929   4.575   2.442   0.213
 1010SOL    HW2 3930   4.540   2.401   0.058
 1011SOL     OW 3931   3.136   5.136   3.038
 1011SOL    HW1 3932   3.171   5.073   2.968
 1011SOL    HW2 3933   3.195   5.132   3.119
 1012SOL     OW 3934   6.334   5.369   0.167
 1012SOL    HW1 3935   6.241   5.342   0.189
 1012SOL    HW2 3936   6.352   5.460   0.204
 1013SOL     OW 3937   0.329   1.426   6.682
 1013SOL    HW1 3938   0.339   1.427   6.583
 1013SOL    HW2 3939   0.315   1.331   6.713
 1014SOL     OW 3940   5.434   5.577   6.708
 1014SOL    HW1 3941   5.427   5.493   6.654
 1014SOL    HW2 3942   5.490   5.644   6.660
 1015SOL     OW 3943   3.657   6.544   4.915
 1015SOL    HW1 3944   3.625   6.540   5.009
 1015SOL    HW2 3945   3.620   6.467   4.863
 1016SOL     OW 3946   2.657   2.776   0.722
 1016SOL    HW1 3947   2.624   2.861   0.765
 1016SOL    HW2 3948   2.618   2.768   0.631
 1017SOL     OW 3949   4.730   2.517   1.008
 1017SOL    HW1 3950   4.673   2.547   1.084
 1017SOL    HW2 3951   4.693   2.433   0.970
 1018SOL     OW 3952   1.859   3.489   4.081
 1018SOL    HW1 3953   1.833   3.572   4.130
 1018SOL    HW2 3954   1.776   3.443   4.050
 1019SOL     OW 3955   0.655   1.076   0.520
 1019SOL    HW1 3956   0.692   1.142   0.456
 1019SOL    HW2 3957   0.677   0.983   0.490
 1020SOL     OW 3958   1.048   6.749   0.813
 1020SOL    HW1 3959   1.010   6.656   0.812
 1020SOL    HW2 3960   1.148   6.745   0.818
 1021SOL     OW 3961   5.846   1.221   1.430
 1021SOL    HW1 3962   5.818   1.216   1.526
 1021SOL    HW2 3963   5.842   1.316   1.399
 1022SOL     OW 3964   4.164   5.341   6.330
 1022SOL    HW1 3965   4.220   5.258   6.324
 1022SOL    HW2 3966   4.097   5.331   6.403
 1023SOL     OW 3967   6.806   0.255   2.928
 1023SOL    HW1 3968   6.821   0.168   2.976
 1023SOL    HW2 3969   6.734   0.243   2.860
 1024SOL     OW 3970   6.552   2.426   4.390
 1024SOL    HW1 3971   6.492   2.506   4.397
 1024SOL    HW2 3972   6.596   2.426   4.300
 1025SOL     OW 3973   3.807   4.334   0.298
 1025SOL    HW1 3974   3.784   4.263   0.231
 1025SOL    HW2 3975   3.810   4.423   0.252
 1026SOL     OW 3976   1.380   0.962   0.465
 1026SOL    HW1 3977   1.464   1.016   0.464
 1026SOL    HW2 3978   1.319   0.993   0.392
 1027SOL     OW 3979   2.947   5.865   1.712
 1027SOL    HW1 3980   2.885   5.868   1.791
 1027SOL    HW2 3981   3.036   5.901   1.739
 1028SOL     OW 3982   3.059   6.216   0.566
 1028SOL    HW1 3983   3.012   6.300   0.595
 1028SOL    HW2 3984   3.066   6.215   0.466
 1029SOL     OW 3985   2.020   0.861   0.214
 1029SOL    HW1 3986   1.947   0.793   0.211
 1029SOL    HW2 3987   1.992   0.938   0.271
 1030SOL     OW 3988   3.813   3.196   3.243
 1030SOL    HW1 3989   3.837   3.139   3.322
 1030SOL    HW2 3990   3.714   3.195   3.229
 1031SOL     OW 3991   4.546   5.489   1.159
 1031SOL    HW1 3992   4.576   5.460   1.068
 1031SOL    HW2 3993   4.489   5.417   1.199
 1032SOL     OW 3994   1.787   1.699   5.135
 1032SOL    HW1 3995   1.823   1.754   5.210
 1032SOL    HW2 3996   1.714   1.639   5.169
 1033SOL     OW 3997   1.636   6.771   1.377
 1033SOL    HW1 3998   1.581   6.788   1.295
 1033SOL    HW2 3999   1.733   6.768   1.353
 1034SOL     OW 4000   1.803   6.181   4.642
 1034SOL    HW1 4001   1.881   6.148   4.590
 1034SOL    HW2 4002   1.730   6.112   4.640
 1035SOL     OW 4003   2.730   1.805   3.287
 1035SOL    HW1 4004   2.755   1.709   3.279
 1035SOL    HW2 4005   2.673   1.832   3.210
 1036SOL     OW 4006   3.763   0.278   1.169
 1036SOL    HW1 4007   3.785   0.202   1.231
 1036SOL    HW2 4008   3.846   0.311   1.125
 1037SOL     OW 4009   1.260   1.141   1.315
 1037SOL    HW1 4010   1.170   1.184   1.299
 1037SOL    HW2 4011   1.247   1.054   1.363
 1038SOL     OW 4012   0.585   1.140   5.678
 1038SOL    HW1 4013   0.606   1.205   5.750
 1038SOL    HW2 4014   0.498   1.165   5.635
 1039SOL     OW 4015   4.687   1.727   5.647
 1039SOL    HW1 4016   4.755   1.767   5.709
 1039SOL    HW2 4017   4.698   1.767   5.556
 1040SOL     OW 4018   5.580   3.016   3.271
 1040SOL    HW1 4019   5.637   2.978   3.198
 1040SOL    HW2 4020   5.616   3.104   3.300
 1041SOL     OW 4021   6.631   0.297   4.213
 1041SOL    HW1 4022   6.568   0.370   4.238
 1041SOL    HW2 4023   6.580   0.224   4.165
 1042SOL     OW 4024   3.984   5.126   2.583
 1042SOL    HW1 4025   3.938   5.044   2.550
 1042SOL    HW2 4026   4.082   5.121   2.562
 1043SOL     OW 4027   4.161   0.871   6.487
 1043SOL    HW1 4028   4.125   0.807   6.419
 1043SOL    HW2 4029   4.237   0.829   6.535
 1044SOL     OW 4030   3.945   2.793   1.602
 1044SOL    HW1 4031   3.981   2.885   1.618
 1044SOL    HW2 4032   3.887   2.766   1.679
 1045SOL     OW 4033   3.133   0.390   1.816
 1045SOL    HW1 4034   3.155   0.468   1.875
 1045SOL    HW2 4035   3.054   0.341   1.854
 1046SOL     OW 4036   2.688   6.945   6.196
 1046SOL    HW1 4037   2.728   6.976   6.282
 1046SOL    HW2 4038   2.609   6.886   6.214
 1047SOL     OW 4039   1.587   5.513   2.698
 1047SOL    HW1 4040   1.627   5.561   2.619
 1047SOL    HW2 4041   1.528   5.576   2.748
 1048SOL     OW 4042   4.768   5.461   5.481
 1048SOL    HW1 4043   4.708   5.476   5.402
 1048SOL    HW2 4044   4.754   5.534   5.548
 1049SOL     OW 4045   0.606   3.991   4.893
 1049SOL    HW1 4046   0.568   3.911   4.846
 1049SOL    HW2 4047   0.661   4.044   4.828
 1050SOL     OW 4048   3.406   5.287   0.755
 1050SOL    HW1 4049   3.368   5.293   0.847
 1050SOL    HW2 4050   3.470   5.362   0.741
 1051SOL     OW 4051   4.026   4.413   0.429
 1051SOL    HW1 4052   4.049   4.499   0.384
 1051SOL    HW2 4053   3.942   4.377   0.389
 1052SOL     OW 4054   4.292   0.773   3.840
 1052SOL    HW1 4055   4.199   0.787   3.806
 1052SOL    HW2 4056   4.292   0.701   3.909
 1053SOL     OW 4057   5.982   5.700   3.589
 1053SOL    HW1 4058   5.990   5.637   3.512
 1053SOL    HW2 4059   6.018   5.790   3.562
 1054SOL     OW 4060   2.534   4.915   5.787
 1054SOL    HW1 4061   2.547   5.007   5.825
 1054SOL    HW2 4062   2.437   4.898   5.772
 1055SOL     OW 4063   5.631   5.804   4.779
 1055SOL    HW1 4064   5.671   5.740   4.845
 1055SOL    HW2 4065   5.550   5.763   4.738
 1056SOL     OW 4066   1.359   6.423   5.605
 1056SOL    HW1 4067   1.369   6.435   5.704
 1056SOL    HW2 4068   1.439   6.461   5.559
 1057SOL     OW 4069   3.263   4.091   2.996
 1057SOL    HW1 4070   3.302   4.118   3.084
 1057SOL    HW2 4071   3.186   4.029   3.011
 1058SOL     OW 4072   4.832   1.164   2.590
 1058SOL    HW1 4073   4.772   1.168   2.670
 1058SOL    HW2 4074   4.920   1.206   2.612
 1059SOL     OW 4075   3.574   0.627   1.556
 1059SOL    HW1 4076   3.644   0.586   1.614
 1059SOL    HW2 4077   3.483   0.599   1.588
 1060SOL     OW 4078   6.962   3.652   5.840
 1060SOL    HW1 4079   6.999   3.744   5.857
 1060SOL    HW2 4080   6.959   3.636   5.742
 1061SOL     OW 4081   4.397   4.414   0.621
 1061SOL    HW1 4082   4.457   4.339   0.649
 1061SOL    HW2 4083   4.303   4.381   0.616
 1062SOL     OW 4084   6.694   5.998   5.934
 1062SOL    HW1 4085   6.606   6.013   5.980
 1062SOL    HW2 4086   6.694   6.045   5.846
 1063SOL     OW 4087   1.440   4.212   0.578
 1063SOL    HW1 4088   1.495   4.261   0.510
 1063SOL    HW2 4089   1.435   4.115   0.552
 1064SOL     OW 4090   0.957   3.879   2.614
 1064SOL    HW1 4091   1.049   3.873   2.577
 1064SOL    HW2 4092   0.896   3.918   2.545
 1065SOL     OW 4093   4.642   0.646   4.201
 1065SOL    HW1 4094   4.722   0.669   4.256
 1065SOL    HW2 4095   4.653   0.685   4.109
 1066SOL     OW 4096   5.161   0.436   4.145
 1066SOL    HW1 4097   5.117   0.457   4.058
 1066SOL    HW2 4098   5.234   0.502   4.162
 1067SOL     OW 4099   1.094   2.890   0.726
 1067SOL    HW1 4100   1.007   2.864   0.769
 1067SOL    HW2 4101   1.149   2.808   0.711
 1068SOL     OW 4102   6.329   3.528   1.620
 1068SOL    HW1 4103   6.241   3.549   1.578
 1068SOL    HW2 4104   6.314   3.495   1.713
 1069SOL     OW 4105   4.764   4.582   1.130
 1069SOL    HW1 4106   4.703   4.506   1.153
 1069SOL    HW2 4107   4.858   4.549   1.122
 1070SOL     OW 4108   1.802   0.976   6.463
 1070SOL    HW1 4109   1.704   0.986   6.476
 1070SOL    HW2 4110   1.820   0.894   6.408
 1071SOL     OW 4111   3.704   0.607   3.317
 1071SOL    HW1 4112   3.729   0.613   3.413
 1071SOL    HW2 4113   3.634   0.676   3.297
 1072SOL     OW 4114   2.055   6.286   2.371
 1072SOL    HW1 4115   2.097   6.226   2.302
 1072SOL    HW2 4116   1.963   6.253   2.392
 1073SOL     OW 4117   3.408   5.758   2.163
 1073SOL    HW1 4118   3.408   5.854   2.133
 1073SOL    HW2 4119   3.403   5.754   2.262
 1074SOL     OW 4120   1.783   5.984   1.734
 1074SOL    HW1 4121   1.877   5.960   1.758
 1074SOL    HW2 4122   1.762   6.075   1.770
 1075SOL     OW 4123   4.959   4.940   3.232
 1075SOL    HW1 4124   4.991   5.017   3.287
 1075SOL    HW2 4125   5.036   4.884   3.203
 1076SOL     OW 4126   0.427   4.548   4.859
 1076SOL    HW1 4127   0.476   4.531   4.774
 1076SOL    HW2 4128   0.426   4.646   4.878
 1077SOL     OW 4129   6.119   6.999   0.105
 1077SOL    HW1 4130   6.124   6.910   0.151
 1077SOL    HW2 4131   6.055   0.037   0.155
 1078SOL     OW 4132   1.609   1.100   2.243
 1078SOL    HW1 4133   1.553   1.120   2.163
 1078SOL    HW2 4134   1.644   1.185   2.282
 1079SOL     OW 4135   2.097   4.893   3.809
 1079SOL    HW1 4136   2.033   4.820   3.785
 1079SOL    HW2 4137   2.191   4.858   3.806
 1080SOL     OW 4138   2.045   4.828   3.174
 1080SOL    HW1 4139   2.019   4.850   3.269
 1080SOL    HW2 4140   2.144   4.833   3.165
 1081SOL     OW 4141   0.706   1.695   5.453
 1081SOL    HW1 4142   0.697   1.687   5.552
 1081SOL    HW2 4143   0.615   1.693   5.411
 1082SOL     OW 4144   1.491   0.513   5.677
 1082SOL    HW1 4145   1.443   0.428   5.693
 1082SOL    HW2 4146   1.438   0.590   5.714
 1083SOL     OW 4147   4.064   3.845   2.216
 1083SOL    HW1 4148   3.991   3.793   2.260
 1083SOL    HW2 4149   4.130   3.876   2.286
 1084SOL     OW 4150   6.733   5.745   1.090
 1084SOL    HW1 4151   6.646   5.795   1.090
 1084SOL    HW2 4152   6.805   5.804   1.054
 1085SOL     OW 4153   1.959   4.264   3.851
 1085SOL    HW1 4154   1.903   4.191   3.889
 1085SOL    HW2 4155   2.003   4.314   3.926
 1086SOL     OW 4156   6.004   5.572   3.336
 1086SOL    HW1 4157   6.086   5.559   3.280
 1086SOL    HW2 4158   5.937   5.501   3.316
 1087SOL     OW 4159   4.875   2.878   5.708
 1087SOL    HW1 4160   4.849   2.915   5.797
 1087SOL    HW2 4161   4.826   2.927   5.636
 1088SOL     OW 4162   5.665   4.286   3.557
 1088SOL    HW1 4163   5.566   4.276   3.546
 1088SOL    HW2 4164   5.712   4.228   3.491
 1089SOL     OW 4165   0.384   0.801   4.353
 1089SOL    HW1 4166   0.288   0.776   4.368
 1089SOL    HW2 4167   0.442   0.746   4.413
 1090SOL     OW 4168   2.859   1.327   4.583
 1090SOL    HW1 4169   2.804   1.325   4.499
 1090SOL    HW2 4170   2.949   1.365   4.564
 1091SOL     OW 4171   1.754   1.763   3.768
 1091SOL    HW1 4172   1.702   1.848   3.764
 1091SOL    HW2 4173   1.852   1.782   3.757
 1092SOL     OW 4174   2.378   3.766   1.497
 1092SOL    HW1 4175   2.404   3.705   1.423
 1092SOL    HW2 4176   2.279   3.780   1.496
 1093SOL     OW 4177   1.567   1.584   2.512
 1093SOL    HW1 4178   1.666   1.571   2.517
 1093SOL    HW2 4179   1.530   1.536   2.432
 1094SOL     OW 4180   0.256   6.388   2.045
 1094SOL    HW1 4181   0.201   6.374   1.962
 1094SOL    HW2 4182   0.276   6.486   2.055
 1095SOL     OW 4183   6.131   2.244   6.251
 1095SOL    HW1 4184   6.039   2.276   6.231
 1095SOL    HW2 4185   6.175   2.214   6.166
 1096SOL     OW 4186   3.751   5.152   1.510
 1096SOL    HW1 4187   3.717   5.139   1.603
 1096SOL    HW2 4188   3.822   5.085   1.491
 1097SOL     OW 4189   1.084   5.021   4.866
 1097SOL    HW1 4190   1.046   5.106   4.902
 1097SOL    HW2 4191   1.156   5.042   4.800
 1098SOL     OW 4192   5.151   2.312   1.092
 1098SOL    HW1 4193   5.067   2.275   1.132
 1098SOL    HW2 4194   5.129   2.388   1.031
 1099SOL     OW 4195   4.175   1.805   4.535
 1099SOL    HW1 4196   4.227   1.883   4.500
 1099SOL    HW2 4197   4.236   1.739   4.577
 1100SOL     OW 4198   0.709   1.630   6.485
 1100SOL    HW1 4199   0.662   1.636   6.573
 1100SOL    HW2 4200   0.701   1.718   6.437
 1101SOL     OW 4201   5.486   3.500   1.533
 1101SOL    HW1 4202   5.531   3.455   1.611
 1101SOL    HW2 4203   5.388   3.478   1.534
 1102SOL     OW 4204   0.831   4.763   4.113
 1102SOL    HW1 4205   0.912   4.722   4.155
 1102SOL    HW2 4206   0.857   4.810   4.029
 1103SOL     OW 4207   2.031   1.645   1.601
 1103SOL    HW1 4208   2.103   1.656   1.532
 1103SOL    HW2 4209   1.992   1.735   1.623
 1104SOL     OW 4210   1.960   4.301   5.832
 1104SOL    HW1 4211   2.021   4.222   5.831
 1104SOL    HW2 4212   1.943   4.330   5.738
 1105SOL     OW 4213   4.660   4.127   6.720
 1105SOL    HW1 4214   4.663   4.173   6.632
 1105SOL    HW2 4215   4.746   4.143   6.769
 1106SOL     OW 4216   0.793   2.104   6.297
 1106SOL    HW1 4217   0.887   2.084   6.325
 1106SOL    HW2 4218   0.777   2.203   6.302
 1107SOL     OW 4219   1.002   0.315   6.613
 1107SOL    HW1 4220   0.960   0.337   6.701
 1107SOL    HW2 4221   0.948   0.356   6.540
 1108SOL     OW 4222   2.616   0.707   5.171
 1108SOL    HW1 4223   2.569   0.625   5.203
 1108SOL    HW2 4224   2.552   0.763   5.117
 1109SOL     OW 4225   3.790   5.476   4.671
 1109SOL    HW1 4226   3.768   5.417   4.594
 1109SOL    HW2 4227   3.709   5.529   4.697
 1110SOL     OW 4228   2.937   2.093   1.533
 1110SOL    HW1 4229   2.982   2.092   1.444
 1110SOL    HW2 4230   2.917   2.188   1.559
 1111SOL     OW 4231   5.265   6.584   6.688
 1111SOL    HW1 4232   5.294   6.547   6.600
 1111SOL    HW2 4233   5.346   6.613   6.740
 1112SOL     OW 4234   6.197   1.017   3.101
 1112SOL    HW1 4235   6.149   1.051   3.020
 1112SOL    HW2 4236   6.138   0.956   3.152
 1113SOL     OW 4237   6.021   2.965   2.094
 1113SOL    HW1 4238   6.030   3.060   2.066
 1113SOL    HW2 4239   5.984   2.960   2.187
 1114SOL     OW 4240   4.936   0.546   6.396
 1114SOL    HW1 4241   5.000   0.623   6.392
 1114SOL    HW2 4242   4.960   0.480   6.325
 1115SOL     OW 4243   4.236   2.370   0.446
 1115SOL    HW1 4244   4.298   2.419   0.507
 1115SOL    HW2 4245   4.288   2.307   0.388
 1116SOL     OW 4246   5.586   5.398   3.863
 1116SOL    HW1 4247   5.562   5.466   3.933
 1116SOL    HW2 4248   5.686   5.390   3.858
 1117SOL     OW 4249   2.658   2.827   1.301
 1117SOL    HW1 4250   2.643   2.910   1.354
 1117SOL    HW2 4251   2.625   2.748   1.352
 1118SOL     OW 4252   0.949   4.857   2.903
 1118SOL    HW1 4253   0.898   4.937   2.934
 1118SOL    HW2 4254   0.966   4.796   2.981
 1119SOL     OW 4255   4.002   4.204   1.655
 1119SOL    HW1 4256   4.072   4.267   1.689
 1119SOL    HW2 4257   4.024   4.177   1.561
 1120SOL     OW 4258   5.509   6.856   5.984
 1120SOL    HW1 4259   5.535   6.879   6.077
 1120SOL    HW2 4260   5.591   6.828   5.933
 1121SOL     OW 4261   5.229   2.814   2.423
 1121SOL    HW1 4262   5.132   2.788   2.423
 1121SOL    HW2 4263   5.285   2.731   2.417
 1122SOL     OW 4264   5.167   3.057   6.656
 1122SOL    HW1 4265   5.082   3.020   6.617
 1122SOL    HW2 4266   5.198   3.134   6.600
 1123SOL     OW 4267   4.557   1.409   1.859
 1123SOL    HW1 4268   4.484   1.347   1.889
 1123SOL    HW2 4269   4.645   1.371   1.887
 1124SOL     OW 4270   6.656   3.623   4.629
 1124SOL    HW1 4271   6.701   3.582   4.708
 1124SOL    HW2 4272   6.645   3.553   4.557
 1125SOL     OW 4273   2.861   2.103   5.283
 1125SOL    HW1 4274   2.855   2.154   5.198
 1125SOL    HW2 4275   2.830   2.009   5.268
 1126SOL     OW 4276   4.653   6.758   6.704
 1126SOL    HW1 4277   4.727   6.805   6.752
 1126SOL    HW2 4278   4.691   6.682   6.651
 1127SOL     OW 4279   3.043   4.276   5.891
 1127SOL    HW1 4280   3.080   4.249   5.980
 1127SOL    HW2 4281   2.967   4.340   5.904
 1128SOL     OW 4282   4.314   2.325   4.476
 1128SOL    HW1 4283   4.372   2.407   4.480
 1128SOL    HW2 4284   4.298   2.300   4.381
 1129SOL     OW 4285   3.784   6.951   0.081
 1129SOL    HW1 4286   3.820   6.966   7.010
 1129SOL    HW2 4287   3.720   6.874   0.079
 1130SOL     OW 4288   1.923   4.363   1.061
 1130SOL    HW1 4289   1.949   4.281   1.111
 1130SOL    HW2 4290   1.867   4.422   1.119
 1131SOL     OW 4291   0.551   6.290   5.929
 1131SOL    HW1 4292   0.568   6.196   5.898
 1131SOL    HW2 4293   0.635   6.343   5.920
 1132SOL     OW 4294   5.154   0.312   6.685
 1132SOL    HW1 4295   5.199   0.326   6.597
 1132SOL    HW2 4296   5.095   0.390   6.706
 1133SOL     OW 4297   6.895   1.880   1.690
 1133SOL    HW1 4298   6.913   1.908   1.596
 1133SOL    HW2 4299   6.972   1.906   1.748
 1134SOL     OW 4300   5.606   2.092   6.858
 1134SOL    HW1 4301   5.546   2.172   6.858
 1134SOL    HW2 4302   5.637   2.074   6.765
 1135SOL     OW 4303   3.023   2.179   3.143
 1135SOL    HW1 4304   3.113   2.147   3.113
 1135SOL    HW2 4305   2.976   2.222   3.066
 1136SOL     OW 4306   2.823   4.961   4.255
 1136SOL    HW1 4307   2.848   5.007   4.170
 1136SOL    HW2 4308   2.757   5.017   4.305
 1137SOL     OW 4309   0.975   2.102   6.644
 1137SOL    HW1 4310   0.876   2.112   6.638
 1137SOL    HW2 4311   0.999   2.056   6.730
 1138SOL     OW 4312   2.091   2.804   6.029
 1138SOL    HW1 4313   2.181   2.838   6.003
 1138SOL    HW2 4314   2.093   2.773   6.124
 1139SOL     OW 4315   1.706   6.064   2.962
 1139SOL    HW1 4316   1.755   6.049   3.048
 1139SOL    HW2 4317   1.722   5.987   2.901
 1140SOL     OW 4318   3.816   2.154   2.994
 1140SOL    HW1 4319   3.775   2.149   2.902
 1140SOL    HW2 4320   3.909   2.190   2.987
 1141SOL     OW 4321   5.633   5.581   6.015
 1141SOL    HW1 4322   5.558   5.515   6.019
 1141SOL    HW2 4323   5.604   5.661   5.962
 1142SOL     OW 4324   5.299   0.268   4.387
 1142SOL    HW1 4325   5.340   0.235   4.472
 1142SOL    HW2 4326   5.307   0.197   4.316
 1143SOL     OW 4327   4.104   2.127   2.229
 1143SOL    HW1 4328   4.005   2.136   2.222
 1143SOL    HW2 4329   4.148   2.185   2.160
 1144SOL     OW 4330   0.146   4.248   4.291
 1144SOL    HW1 4331   0.238   4.212   4.277
 1144SOL    HW2 4332   0.129   4.258   4.389
 1145SOL     OW 4333   0.212   5.358   3.214
 1145SOL    HW1 4334   0.207   5.385   3.118
 1145SOL    HW2 4335   0.271   5.277   3.222
 1146SOL     OW 4336   5.141   1.435   1.296
 1146SOL    HW1 4337   5.130   1.532   1.320
 1146SOL    HW2 4338   5.053   1.388   1.306
 1147SOL     OW 4339   1.562   3.751   1.169
 1147SOL    HW1 4340   1.556   3.724   1.073
 1147SOL    HW2 4341   1.570   3.669   1.226
 1148SOL     OW 4342   3.443   5.844   6.091
 1148SOL    HW1 4343   3.520   5.780   6.094
 1148SOL    HW2 4344   3.422   5.866   5.996
 1149SOL     OW 4345   6.031   3.403   2.753
 1149SOL    HW1 4346   5.949   3.375   2.803
 1149SOL    HW2 4347   6.109   3.407   2.815
 1150SOL     OW 4348   2.484   4.202   0.861
 1150SOL    HW1 4349   2.458   4.143   0.937
 1150SOL    HW2 4350   2.509   4.293   0.896
 1151SOL     OW 4351   5.581   5.742   6.571
 1151SOL    HW1 4352   5.650   5.774   6.636
 1151SOL    HW2 4353   5.619   5.744   6.479
 1152SOL     OW 4354   1.191   6.805   4.998
 1152SOL    HW1 4355   1.274   6.848   5.034
 1152SOL    HW2 4356   1.112   6.862   5.019
 1153SOL     OW 4357   2.043   6.531   2.849
 1153SOL    HW1 4358   2.019   6.450   2.901
 1153SOL    HW2 4359   1.977   6.604   2.869
 1154SOL     OW 4360   0.279   3.691   1.280
 1154SOL    HW1 4361   0.343   3.761   1.248
 1154SOL    HW2 4362   0.205   3.680   1.213
 1155SOL     OW 4363   3.394   5.973   6.871
 1155SOL    HW1 4364   3.451   5.891   6.868
 1155SOL    HW2 4365   3.415   6.025   6.954
 1156SOL     OW 4366   2.312   0.352   3.682
 1156SOL    HW1 4367   2.285   0.441   3.645
 1156SOL    HW2 4368   2.236   0.287   3.673
 1157SOL     OW 4369   7.009   2.330   4.756
 1157SOL    HW1 4370   6.914   2.309   4.729
 1157SOL    HW2 4371   0.046   2.252   4.732
 1158SOL     OW 4372   5.960   5.098   5.399
 1158SOL    HW1 4373   5.988   5.165   5.330
 1158SOL    HW2 4374   5.956   5.007   5.358
 1159SOL     OW 4375   4.183   0.374   2.723
 1159SOL    HW1 4376   4.202   0.420   2.636
 1159SOL    HW2 4377   4.126   0.434   2.780
 1160SOL     OW 4378   4.050   3.701   1.968
 1160SOL    HW1 4379   4.041   3.782   1.909
 1160SOL    HW2 4380   4.087   3.728   2.056
 1161SOL     OW 4381   5.397   0.202   5.362
 1161SOL    HW1 4382   5.349   0.209   5.274
 1161SOL    HW2 4383   5.357   0.267   5.427
 1162SOL     OW 4384   3.684   2.554   0.973
 1162SOL    HW1 4385   3.674   2.499   1.056
 1162SOL    HW2 4386   3.781   2.557   0.947
 1163SOL     OW 4387   5.325   2.263   2.023
 1163SOL    HW1 4388   5.244   2.258   2.080
 1163SOL    HW2 4389   5.331   2.354   1.982
 1164SOL     OW 4390   5.354   2.707   3.478
 1164SOL    HW1 4391   5.286   2.638   3.454
 1164SOL    HW2 4392   5.331   2.793   3.433
 1165SOL     OW 4393   1.623   3.406   3.996
 1165SOL    HW1 4394   1.621   3.436   3.901
 1165SOL    HW2 4395   1.619   3.306   4.000
 1166SOL     OW 4396   4.265   1.865   6.471
 1166SOL    HW1 4397   4.181   1.831   6.514
 1166SOL    HW2 4398   4.280   1.817   6.385
 1167SOL     OW 4399   3.580   6.892   5.443
 1167SOL    HW1 4400   3.626   6.825   5.501
 1167SOL    HW2 4401   3.628   6.900   5.355
 1168SOL     OW 4402   5.947   0.171   2.429
 1168SOL    HW1 4403   5.858   0.147   2.390
 1168SOL    HW2 4404   5.955   0.131   2.521
 1169SOL     OW 4405   6.970   3.072   0.555
 1169SOL    HW1 4406   6.974   2.992   0.615
 1169SOL    HW2 4407   6.984   3.155   0.609
 1170SOL     OW 4408   3.926   0.614   2.281
 1170SOL    HW1 4409   3.941   0.516   2.292
 1170SOL    HW2 4410   3.863   0.631   2.205
 1171SOL     OW 4411   2.943   5.745   0.927
 1171SOL    HW1 4412   2.854   5.704   0.947
 1171SOL    HW2 4413   2.966   5.811   0.998
 1172SOL     OW 4414   3.031   3.816   3.746
 1172SOL    HW1 4415   2.962   3.809   3.675
 1172SOL    HW2 4416   3.097   3.888   3.722
 1173SOL     OW 4417   3.557   0.170   5.581
 1173SOL    HW1 4418   3.496   0.194   5.505
 1173SOL    HW2 4419   3.625   0.104   5.549
 1174SOL     OW 4420   2.319   5.989   0.686
 1174SOL    HW1 4421   2.351   5.905   0.730
 1174SOL    HW2 4422   2.394   6.033   0.638
 1175SOL     OW 4423   5.585   5.105   6.867
 1175SOL    HW1 4424   5.552   5.143   6.953
 1175SOL    HW2 4425   5.508   5.092   6.805
 1176SOL     OW 4426   5.889   5.345   0.887
 1176SOL    HW1 4427   5.935   5.266   0.927
 1176SOL    HW2 4428   5.900   5.424   0.948
 1177SOL     OW 4429   0.146   2.572   5.130
 1177SOL    HW1 4430   0.198   2.508   5.187
 1177SOL    HW2 4431   0.087   2.628   5.189
 1178SOL     OW 4432   4.802   4.260   1.887
 1178SOL    HW1 4433   4.706   4.273   1.913
 1178SOL    HW2 4434   4.807   4.213   1.799
 1179SOL     OW 4435   1.865   4.385   0.446
 1179SOL    HW1 4436   1.913   4.469   0.471
 1179SOL    HW2 4437   1.902   4.351   0.359
 1180SOL     OW 4438   2.195   0.652   3.779
 1180SOL    HW1 4439   2.196   0.571   3.721
 1180SOL    HW2 4440   2.140   0.724   3.735
 1181SOL     OW 4441   1.137   4.365   4.681
 1181SOL    HW1 4442   1.176   4.303   4.613
 1181SOL    HW2 4443   1.037   4.359   4.677
 1182SOL     OW 4444   2.041   4.513   3.306
 1182SOL    HW1 4445   1.996   4.430   3.337
 1182SOL    HW2 4446   2.010   4.591   3.361
 1183SOL     OW 4447   4.385   5.568   1.801
 1183SOL    HW1 4448   4.361   5.645   1.860
 1183SOL    HW2 4449   4.444   5.504   1.850
 1184SOL     OW 4450   3.001   3.395   5.630
 1184SOL    HW1 4451   2.983   3.482   5.675
 1184SOL    HW2 4452   2.930   3.376   5.562
 1185SOL     OW 4453   2.199   0.616   0.261
 1185SOL    HW1 4454   2.128   0.685   0.274
 1185SOL    HW2 4455   2.168   0.548   0.196
 1186SOL     OW 4456   6.162   0.329   5.385
 1186SOL    HW1 4457   6.064   0.346   5.388
 1186SOL    HW2 4458   6.211   0.410   5.418
 1187SOL     OW 4459   5.487   5.768   5.124
 1187SOL    HW1 4460   5.388   5.771   5.107
 1187SOL    HW2 4461   5.527   5.856   5.097
 1188SOL     OW 4462   2.940   6.655   6.369
 1188SOL    HW1 4463   2.981   6.572   6.409
 1188SOL    HW2 4464   2.945   6.649   6.269
 1189SOL     OW 4465   4.965   1.605   2.602
 1189SOL    HW1 4466   4.873   1.639   2.583
 1189SOL    HW2 4467   4.980   1.603   2.701
 1190SOL     OW 4468   3.876   5.268   3.777
 1190SOL    HW1 4469   3.932   5.261   3.694
 1190SOL    HW2 4470   3.889   5.186   3.833
 1191SOL     OW 4471   3.895   5.272   6.052
 1191SOL    HW1 4472   3.965   5.337   6.082
 1191SOL    HW2 4473   3.805   5.314   6.058
 1192SOL     OW 4474   5.555   4.537   2.986
 1192SOL    HW1 4475   5.548   4.515   3.083
 1192SOL    HW2 4476   5.628   4.604   2.972
 1193SOL     OW 4477   5.477   0.183   4.577
 1193SOL    HW1 4478   5.533   0.158   4.498
 1193SOL    HW2 4479   5.516   0.141   4.659
 1194SOL     OW 4480   0.359   0.888   0.543
 1194SOL    HW1 4481   0.412   0.972   0.549
 1194SOL    HW2 4482   0.265   0.910   0.518
 1195SOL     OW 4483   6.023   1.483   6.968
 1195SOL    HW1 4484   5.953   1.471   6.898
 1195SOL    HW2 4485   6.106   1.519   6.925
 1196SOL     OW 4486   0.023   5.002   2.207
 1196SOL    HW1 4487   0.023   4.903   2.214
 1196SOL    HW2 4488   0.109   5.033   2.166
 1197SOL     OW 4489   4.173   5.988   5.618
 1197SOL    HW1 4490   4.267   5.965   5.643
 1197SOL    HW2 4491   4.157   6.085   5.634
 1198SOL     OW 4492   2.327   2.719   2.100
 1198SOL    HW1 4493   2.269   2.674   2.167
 1198SOL    HW2 4494   2.368   2.650   2.040
 1199SOL     OW 4495   3.924   3.965   2.892
 1199SOL    HW1 4496   3.960   4.057   2.877
 1199SOL    HW2 4497   3.936   3.911   2.808
 1200SOL     OW 4498   4.180   3.902   5.260
 1200SOL    HW1 4499   4.163   4.001   5.261
 1200SOL    HW2 4500   4.272   3.884   5.295
 1201SOL     OW 4501   1.366   1.242   4.964
 1201SOL    HW1 4502   1.306   1.227   5.042
 1201SOL    HW2 4503   1.456   1.273   4.996
 1202SOL     OW 4504   5.702   0.225   6.123
 1202SOL    HW1 4505   5.758   0.142   6.125
 1202SOL    HW2 4506   5.758   0.303   6.152
 1203SOL     OW 4507   5.475   0.193   1.111
 1203SOL    HW1 4508   5.496   0.286   1.081
 1203SOL    HW2 4509   5.445   0.138   1.033
 1204SOL     OW 4510   3.831   1.213   0.345
 1204SOL    HW1 4511   3.899   1.174   0.284
 1204SOL    HW2 4512   3.820   1.310   0.325
 1205SOL     OW 4513   5.495   2.886   7.004
 1205SOL    HW1 4514   5.507   2.953   6.931
 1205SOL    HW2 4515   5.436   2.924   0.053
 1206SOL     OW 4516   1.713   1.884   4.911
 1206SOL    HW1 4517   1.697   1.790   4.941
 1206SOL    HW2 4518   1.794   1.920   4.957
 1207SOL     OW 4519   6.717   6.497   0.581
 1207SOL    HW1 4520   6.662   6.569   0.625
 1207SOL    HW2 4521   6.718   6.512   0.482
 1208SOL     OW 4522   3.579   4.096   2.609
 1208SOL    HW1 4523   3.483   4.097   2.639
 1208SOL    HW2 4524   3.637   4.133   2.682
 1209SOL     OW 4525   6.408   6.003   5.655
 1209SOL    HW1 4526   6.367   5.936   5.717
 1209SOL    HW2 4527   6.337   6.061   5.616
 1210SOL     OW 4528   3.980   0.529   2.895
 1210SOL    HW1 4529   3.966   0.626   2.915
 1210SOL    HW2 4530   3.896   0.490   2.859
 1211SOL     OW 4531   1.683   3.460   3.720
 1211SOL    HW1 4532   1.773   3.495   3.697
 1211SOL    HW2 4533   1.655   3.392   3.652
 1212SOL     OW 4534   1.170   2.812   5.626
 1212SOL    HW1 4535   1.107   2.880   5.591
 1212SOL    HW2 4536   1.145   2.788   5.720
 1213SOL     OW 4537   6.220   2.821   5.084
 1213SOL    HW1 4538   6.226   2.882   5.004
 1213SOL    HW2 4539   6.137   2.765   5.077
 1214SOL     OW 4540   1.848   3.413   4.349
 1214SOL    HW1 4541   1.833   3.390   4.253
 1214SOL    HW2 4542   1.910   3.346   4.390
 1215SOL     OW 4543   2.176   4.172   2.661
 1215SOL    HW1 4544   2.254   4.186   2.599
 1215SOL    HW2 4545   2.093   4.156   2.608
 1216SOL     OW 4546   6.986   6.882   1.873
 1216SOL    HW1 4547   7.003   6.894   1.775
 1216SOL    HW2 4548   7.014   6.964   1.922
 1217SOL     OW 4549   0.962   6.314   0.436
 1217SOL    HW1 4550   0.978   6.384   0.368
 1217SOL    HW2 4551   1.039   6.250   0.437
 1218SOL     OW 4552   1.172   3.098   5.153
 1218SOL    HW1 4553   1.265   3.123   5.127
 1218SOL    HW2 4554   1.139   3.161   5.223
 1219SOL     OW 4555   4.367   5.214   0.810
 1219SOL    HW1 4556   4.313   5.179   0.733
 1219SOL    HW2 4557   4.311   5.213   0.893
 1220SOL     OW 4558   5.646   3.336   2.513
 1220SOL    HW1 4559   5.597   3.397   2.450
 1220SOL    HW2 4560   5.652   3.379   2.603
 1221SOL     OW 4561   5.948   4.113   0.090
 1221SOL    HW1 4562   5.948   4.049   0.167
 1221SOL    HW2 4563   6.042   4.139   0.069
 1222SOL     OW 4564   7.013   6.788   0.747
 1222SOL    HW1 4565   6.988   6.691   0.757
 1222SOL    HW2 4566   0.004   6.828   0.838
 1223SOL     OW 4567   5.960   0.222   0.155
 1223SOL    HW1 4568   5.988   0.317   0.148
 1223SOL    HW2 4569   5.868   0.211   0.116
 1224SOL     OW 4570   4.108   6.104   6.659
 1224SOL    HW1 4571   4.103   6.074   6.564
 1224SOL    HW2 4572   4.152   6.194   6.664
 1225SOL     OW 4573   3.923   1.496   0.870
 1225SOL    HW1 4574   4.000   1.560   0.871
 1225SOL    HW2 4575   3.893   1.482   0.776
 1226SOL     OW 4576   5.705   6.444   0.745
 1226SOL    HW1 4577   5.797   6.480   0.726
 1226SOL    HW2 4578   5.644   6.520   0.768
 1227SOL     OW 4579   5.813   4.677   5.317
 1227SOL    HW1 4580   5.719   4.671   5.352
 1227SOL    HW2 4581   5.876   4.638   5.383
 1228SOL     OW 4582   3.773   2.795   1.848
 1228SOL    HW1 4583   3.691   2.847   1.823
 1228SOL    HW2 4584   3.810   2.832   1.933
 1229SOL     OW 4585   0.575   6.898   2.150
 1229SOL    HW1 4586   0.547   6.804   2.173
 1229SOL    HW2 4587   0.613   6.900   2.058
 1230SOL     OW 4588   5.398   5.641   3.089
 1230SOL    HW1 4589   5.303   5.672   3.094
 1230SOL    HW2 4590   5.457   5.709   3.133
 1231SOL     OW 4591   1.759   2.747   6.122
 1231SOL    HW1 4592   1.673   2.792   6.143
 1231SOL    HW2 4593   1.823   2.813   6.082
 1232SOL     OW 4594   3.916   1.444   4.544
 1232SOL    HW1 4595   3.878   1.476   4.457
 1232SOL    HW2 4596   3.887   1.506   4.617
 1233SOL     OW 4597   1.134   4.610   3.812
 1233SOL    HW1 4598   1.153   4.532   3.753
 1233SOL    HW2 4599   1.094   4.684   3.758
 1234SOL     OW 4600   6.570   3.002   6.947
 1234SOL    HW1 4601   6.487   2.971   6.900
 1234SOL    HW2 4602   6.545   3.035   0.017
 1235SOL     OW 4603   6.108   5.057   6.867
 1235SOL    HW1 4604   6.187   5.036   6.810
 1235SOL    HW2 4605   6.077   4.973   6.913
 1236SOL     OW 4606   3.543   1.598   0.415
 1236SOL    HW1 4607   3.625   1.565   0.369
 1236SOL    HW2 4608   3.473   1.526   0.412
 1237SOL     OW 4609   1.493   0.296   4.703
 1237SOL    HW1 4610   1.565   0.229   4.723
 1237SOL    HW2 4611   1.503   0.328   4.608
 1238SOL     OW 4612   0.345   6.674   2.893
 1238SOL    HW1 4613   0.308   6.762   2.921
 1238SOL    HW2 4614   0.377   6.624   2.973
 1239SOL     OW 4615   6.854   4.844   4.320
 1239SOL    HW1 4616   6.785   4.843   4.393
 1239SOL    HW2 4617   6.912   4.763   4.328
 1240SOL     OW 4618   5.988   5.668   2.698
 1240SOL    HW1 4619   5.992   5.700   2.603
 1240SOL    HW2 4620   6.072   5.696   2.745
 1241SOL     OW 4621   7.012   5.055   4.192
 1241SOL    HW1 4622   0.013   5.143   4.235
 1241SOL    HW2 4623   6.924   5.023   4.228
 1242SOL     OW 4624   2.091   3.673   6.882
 1242SOL    HW1 4625   2.139   3.747   6.930
 1242SOL    HW2 4626   2.002   3.657   6.925
 1243SOL     OW 4627   0.941   2.735   5.781
 1243SOL    HW1 4628   0.961   2.642   5.750
 1243SOL    HW2 4629   0.855   2.766   5.741
 1244SOL     OW 4630   5.850   6.572   5.363
 1244SOL    HW1 4631   5.819   6.508   5.293
 1244SOL    HW2 4632   5.916   6.636   5.323
 1245SOL     OW 4633   5.749   5.639   1.288
 1245SOL    HW1 4634   5.736   5.700   1.367
 1245SOL    HW2 4635   5.735   5.544   1.316
 1246SOL     OW 4636   4.689   0.682   1.254
 1246SOL    HW1 4637   4.723   0.599   1.298
 1246SOL    HW2 4638   4.699   0.760   1.316
 1247SOL     OW 4639   6.514   6.667   4.156
 1247SOL    HW1 4640   6.569   6.608   4.215
 1247SOL    HW2 4641   6.565   6.752   4.137
 1248SOL     OW 4642   0.449   6.656   4.580
 1248SOL    HW1 4643   0.432   6.745   4.538
 1248SOL    HW2 4644   0.540   6.623   4.554
 1249SOL     OW 4645   0.489   4.094   1.339
 1249SOL    HW1 4646   0.576   4.049   1.359
 1249SOL    HW2 4647   0.440   4.110   1.425
 1250SOL     OW 4648   6.026   3.530   5.117
 1250SOL    HW1 4649   6.112   3.493   5.082
 1250SOL    HW2 4650   6.027   3.630   5.111
 1251SOL     OW 4651   2.302   1.650   2.690
 1251SOL    HW1 4652   2.350   1.728   2.650
 1251SOL    HW2 4653   2.353   1.566   2.671
 1252SOL     OW 4654   3.055   5.478   6.941
 1252SOL    HW1 4655   3.110   5.544   6.888
 1252SOL    HW2 4656   3.111   5.398   6.962
 1253SOL     OW 4657   2.866   1.013   1.008
 1253SOL    HW1 4658   2.783   0.974   0.969
 1253SOL    HW2 4659   2.922   0.941   1.047
 1254SOL     OW 4660   5.745   1.497   3.201
 1254SOL    HW1 4661   5.732   1.549   3.117
 1254SOL    HW2 4662   5.681   1.420   3.203
 1255SOL     OW 4663   5.690   2.457   4.965
 1255SOL    HW1 4664   5.756   2.395   5.007
 1255SOL    HW2 4665   5.739   2.528   4.913
 1256SOL     OW 4666   6.522   5.760   3.317
 1256SOL    HW1 4667   6.572   5.675   3.304
 1256SOL    HW2 4668   6.558   5.808   3.396
 1257SOL     OW 4669   0.261   4.497   4.209
 1257SOL    HW1 4670   0.211   4.418   4.243
 1257SOL    HW2 4671   0.359   4.482   4.220
 1258SOL     OW 4672   1.877   5.942   3.496
 1258SOL    HW1 4673   1.927   5.956   3.582
 1258SOL    HW2 4674   1.779   5.952   3.514
 1259SOL     OW 4675   4.628   0.009   5.356
 1259SOL    HW1 4676   4.621   6.994   5.449
 1259SOL    HW2 4677   4.538   0.043   5.327
 1260SOL     OW 4678   2.765   0.744   2.290
 1260SOL    HW1 4679   2.665   0.737   2.294
 1260SOL    HW2 4680   2.793   0.775   2.199
 1261SOL     OW 4681   0.007   3.674   0.091
 1261SOL    HW1 4682   6.948   3.643   0.143
 1261SOL    HW2 4683   0.087   3.671   0.151
 1262SOL     OW 4684   4.525   4.963   1.148
 1262SOL    HW1 4685   4.532   4.924   1.057
 1262SOL    HW2 4686   4.515   4.890   1.216
 1263SOL     OW 4687   6.614   2.122   1.062
 1263SOL    HW1 4688   6.653   2.206   1.024
 1263SOL    HW2 4689   6.526   2.103   1.018
 1264SOL     OW 4690   0.286   4.096   3.438
 1264SOL    HW1 4691   0.305   4.102   3.536
 1264SOL    HW2 4692   0.351   4.154   3.388
 1265SOL     OW 4693   0.409   3.946   3.998
 1265SOL    HW1 4694   0.410   3.889   3.916
 1265SOL    HW2 4695   0.314   3.968   4.023
 1266SOL     OW 4696   2.799   1.795   5.000
 1266SOL    HW1 4697   2.889   1.759   5.022
 1266SOL    HW2 4698   2.730   1.748   5.057
 1267SOL     OW 4699   6.612   5.913   2.574
 1267SOL    HW1 4700   6.703   5.954   2.567
 1267SOL    HW2 4701   6.552   5.952   2.503
 1268SOL     OW 4702   5.693   2.499   0.483
 1268SOL    HW1 4703   5.620   2.479   0.549
 1268SOL    HW2 4704   5.653   2.514   0.393
 1269SOL     OW 4705   6.730   6.833   5.533
 1269SOL    HW1 4706   6.685   6.904   5.479
 1269SOL    HW2 4707   6.784   6.774   5.472
 1270SOL     OW 4708   2.054   4.403   4.972
 1270SOL    HW1 4709   1.961   4.365   4.976
 1270SOL    HW2 4710   2.101   4.384   5.058
 1271SOL     OW 4711   3.317   1.804   3.298
 1271SOL    HW1 4712   3.223   1.835   3.290
 1271SOL    HW2 4713   3.346   1.761   3.212
 1272SOL     OW 4714   0.216   5.927   0.617
 1272SOL    HW1 4715   0.280   5.935   0.694
 1272SOL    HW2 4716   0.122   5.924   0.651
 1273SOL     OW 4717   2.146   3.937   0.520
 1273SOL    HW1 4718   2.224   3.958   0.579
 1273SOL    HW2 4719   2.171   3.953   0.424
 1274SOL     OW 4720   0.252   2.979   1.804
 1274SOL    HW1 4721   0.238   2.881   1.816
 1274SOL    HW2 4722   0.190   3.030   1.864
 1275SOL     OW 4723   4.280   0.459   3.769
 1275SOL    HW1 4724   4.375   0.488   3.776
 1275SOL    HW2 4725   4.241   0.451   3.861
 1276SOL     OW 4726   0.057   0.119   3.268
 1276SOL    HW1 4727   6.984   0.105   3.238
 1276SOL    HW2 4728   0.065   0.210   3.309
 1277SOL     OW 4729   0.526   1.150   4.501
 1277SOL    HW1 4730   0.543   1.106   4.589
 1277SOL    HW2 4731   0.575   1.101   4.429
 1278SOL     OW 4732   2.201   2.140   5.196
 1278SOL    HW1 4733   2.184   2.101   5.106
 1278SOL    HW2 4734   2.133   2.211   5.216
 1279SOL     OW 4735   2.439   6.989   0.775
 1279SOL    HW1 4736   2.372   0.027   0.819
 1279SOL    HW2 4737   2.461   6.913   0.836
 1280SOL     OW 4738   2.595   0.001   3.152
 1280SOL    HW1 4739   2.595   6.997   3.056
 1280SOL    HW2 4740   2.563   0.095   3.162
 1281SOL     OW 4741   1.098   5.160   2.899
 1281SOL    HW1 4742   1.154   5.080   2.876
 1281SOL    HW2 4743   1.114   5.184   2.995
 1282SOL     OW 4744   0.789   0.965   1.007
 1282SOL    HW1 4745   0.864   0.943   1.070
 1282SOL    HW2 4746   0.826   0.979   0.915
 1283SOL     OW 4747   5.618   3.669   5.647
 1283SOL    HW1 4748   5.676   3.630   5.718
 1283SOL    HW2 4749   5.674   3.690   5.567
 1284SOL     OW 4750   3.187   2.715   1.634
 1284SOL    HW1 4751   3.106   2.671   1.673
 1284SOL    HW2 4752   3.212   2.668   1.549
 1285SOL     OW 4753   5.530   3.561   6.578
 1285SOL    HW1 4754   5.456   3.562   6.646
 1285SOL    HW2 4755   5.588   3.641   6.590
 1286SOL     OW 4756   4.677   4.790   2.089
 1286SOL    HW1 4757   4.694   4.865   2.025
 1286SOL    HW2 4758   4.590   4.746   2.067
 1287SOL     OW 4759   5.676   4.850   6.846
 1287SOL    HW1 4760   5.737   4.851   6.766
 1287SOL    HW2 4761   5.630   4.938   6.854
 1288SOL     OW 4762   0.021   2.863   0.715
 1288SOL    HW1 4763   0.027   2.789   0.782
 1288SOL    HW2 4764   0.087   2.934   0.737
 1289SOL     OW 4765   0.160   5.783   1.500
 1289SOL    HW1 4766   0.182   5.685   1.504
 1289SOL    HW2 4767   0.063   5.796   1.518
 1290SOL     OW 4768   0.755   0.810   0.019
 1290SOL    HW1 4769   0.762   0.730   0.078
 1290SOL    HW2 4770   0.803   0.887   0.061
 1291SOL     OW 4771   1.818   4.767   6.282
 1291SOL    HW1 4772   1.758   4.758   6.203
 1291SOL    HW2 4773   1.815   4.862   6.315
 1292SOL     OW 4774   6.877   4.714   2.035
 1292SOL    HW1 4775   6.940   4.730   2.111
 1292SOL    HW2 4776   6.887   4.619   2.003
 1293SOL     OW 4777   2.891   1.170   5.945
 1293SOL    HW1 4778   2.960   1.100   5.926
 1293SOL    HW2 4779   2.917   1.256   5.899
 1294SOL     OW 4780   0.210   2.983   1.416
 1294SOL    HW1 4781   0.303   2.946   1.423
 1294SOL    HW2 4782   0.146   2.918   1.456
 1295SOL     OW 4783   6.263   3.662   2.697
 1295SOL    HW1 4784   6.165   3.664   2.675
 1295SOL    HW2 4785   6.290   3.750   2.736
 1296SOL     OW 4786   3.859   1.614   6.480
 1296SOL    HW1 4787   3.916   1.614   6.398
 1296SOL    HW2 4788   3.763   1.618   6.453
 1297SOL     OW 4789   5.600   1.239   6.002
 1297SOL    HW1 4790   5.612   1.140   6.012
 1297SOL    HW2 4791   5.688   1.282   5.986
 1298SOL     OW 4792   5.861   3.181   3.607
 1298SOL    HW1 4793   5.955   3.161   3.581
 1298SOL    HW2 4794   5.861   3.226   3.697
 1299SOL     OW 4795   1.789   3.968   3.312
 1299SOL    HW1 4796   1.772   4.032   3.387
 1299SOL    HW2 4797   1.761   4.010   3.226
 1300SOL     OW 4798   3.084   3.651   2.187
 1300SOL    HW1 4799   3.056   3.728   2.129
 1300SOL    HW2 4800   3.019   3.576   2.176
 1301SOL     OW 4801   0.856   6.533   2.566
 1301SOL    HW1 4802   0.860   6.441   2.605
 1301SOL    HW2 4803   0.800   6.531   2.483
 1302SOL     OW 4804   2.528   6.756   4.553
 1302SOL    HW1 4805   2.503   6.760   4.456
 1302SOL    HW2 4806   2.513   6.845   4.596
 1303SOL     OW 4807   3.978   0.857   0.788
 1303SOL    HW1 4808   3.880   0.842   0.774
 1303SOL    HW2 4809   3.996   0.956   0.791
 1304SOL     OW 4810   1.896   1.220   6.429
 1304SOL    HW1 4811   1.838   1.263   6.360
 1304SOL    HW2 4812   1.869   1.125   6.442
 1305SOL     OW 4813   5.889   5.457   6.059
 1305SOL    HW1 4814   5.805   5.512   6.056
 1305SOL    HW2 4815   5.893   5.408   6.146
 1306SOL     OW 4816   0.743   4.220   5.375
 1306SOL    HW1 4817   0.783   4.128   5.368
 1306SOL    HW2 4818   0.769   4.273   5.294
 1307SOL     OW 4819   1.675   3.176   4.660
 1307SOL    HW1 4820   1.722   3.254   4.619
 1307SOL    HW2 4821   1.742   3.108   4.690
 1308SOL     OW 4822   4.362   5.992   4.687
 1308SOL    HW1 4823   4.304   5.922   4.730
 1308SOL    HW2 4824   4.309   6.043   4.620
 1309SOL     OW 4825   5.491   3.041   5.248
 1309SOL    HW1 4826   5.494   3.116   5.182
 1309SOL    HW2 4827   5.575   2.987   5.240
 1310SOL     OW 4828   5.580   3.729   4.891
 1310SOL    HW1 4829   5.627   3.665   4.830
 1310SOL    HW2 4830   5.647   3.776   4.948
 1311SOL     OW 4831   6.201   6.342   3.982
 1311SOL    HW1 4832   6.129   6.393   3.934
 1311SOL    HW2 4833   6.162   6.299   4.063
 1312SOL     OW 4834   0.934   0.634   6.731
 1312SOL    HW1 4835   0.905   0.699   6.801
 1312SOL    HW2 4836   0.920   0.674   6.640
 1313SOL     OW 4837   2.380   5.666   5.644
 1313SOL    HW1 4838   2.477   5.647   5.630
 1313SOL    HW2 4839   2.328   5.633   5.565
 1314SOL     OW 4840   1.819   1.451   5.763
 1314SOL    HW1 4841   1.734   1.489   5.726
 1314SOL    HW2 4842   1.893   1.466   5.697
 1315SOL     OW 4843   0.887   1.054   0.101
 1315SOL    HW1 4844   0.882   1.088   0.195
 1315SOL    HW2 4845   0.978   1.016   0.085
 1316SOL     OW 4846   2.011   6.931   2.963
 1316SOL    HW1 4847   1.941   7.002   2.957
 1316SOL    HW2 4848   2.026   6.890   2.873
 1317SOL     OW 4849   0.540   4.509   4.608
 1317SOL    HW1 4850   0.462   4.564   4.577
 1317SOL    HW2 4851   0.625   4.550   4.574
 1318SOL     OW 4852   0.816   1.041   0.754
 1318SOL    HW1 4853   0.891   1.107   0.750
 1318SOL    HW2 4854   0.758   1.052   0.673
 1319SOL     OW 4855   6.337   1.880   0.069
 1319SOL    HW1 4856   6.428   1.895   0.029
 1319SOL    HW2 4857   6.277   1.957   0.044
 1320SOL     OW 4858   5.782   4.526   0.419
 1320SOL    HW1 4859   5.720   4.602   0.437
 1320SOL    HW2 4860   5.749   4.444   0.465
 1321SOL     OW 4861   4.208   2.712   0.192
 1321SOL    HW1 4862   4.198   2.642   0.121
 1321SOL    HW2 4863   4.303   2.713   0.223
 1322SOL     OW 4864   5.032   1.024   3.336
 1322SOL    HW1 4865   4.938   0.994   3.323
 1322SOL    HW2 4866   5.070   1.055   3.249
 1323SOL     OW 4867   5.603   1.530   5.433
 1323SOL    HW1 4868   5.621   1.603   5.368
 1323SOL    HW2 4869   5.515   1.547   5.478
 1324SOL     OW 4870   1.397   2.232   1.961
 1324SOL    HW1 4871   1.480   2.273   1.925
 1324SOL    HW2 4872   1.379   2.268   2.053
 1325SOL     OW 4873   2.371   6.920   2.881
 1325SOL    HW1 4874   2.315   6.838   2.889
 1325SOL    HW2 4875   2.465   6.894   2.859
 1326SOL     OW 4876   4.736   2.781   4.576
 1326SOL    HW1 4877   4.676   2.721   4.629
 1326SOL    HW2 4878   4.707   2.781   4.480
 1327SOL     OW 4879   2.742   5.490   2.755
 1327SOL    HW1 4880   2.671   5.431   2.717
 1327SOL    HW2 4881   2.747   5.474   2.854
 1328SOL     OW 4882   0.760   2.421   0.444
 1328SOL    HW1 4883   0.681   2.398   0.388
 1328SOL    HW2 4884   0.761   2.363   0.526
 1329SOL     OW 4885   6.571   1.494   0.893
 1329SOL    HW1 4886   6.560   1.481   0.991
 1329SOL    HW2 4887   6.572   1.591   0.872
 1330SOL     OW 4888   6.252   0.203   0.916
 1330SOL    HW1 4889   6.342   0.159   0.923
 1330SOL    HW2 4890   6.200   0.185   1.000
 1331SOL     OW 4891   5.085   2.037   3.177
 1331SOL    HW1 4892   5.085   2.051   3.276
 1331SOL    HW2 4893   5.103   1.940   3.157
 1332SOL     OW 4894   3.584   0.245   0.924
 1332SOL    HW1 4895   3.631   0.266   1.010
 1332SOL    HW2 4896   3.626   0.298   0.850
 1333SOL     OW 4897   3.689   4.291   5.483
 1333SOL    HW1 4898   3.622   4.278   5.556
 1333SOL    HW2 4899   3.649   4.348   5.411
 1334SOL     OW 4900   0.564   3.186   4.625
 1334SOL    HW1 4901   0.568   3.156   4.720
 1334SOL    HW2 4902   0.543   3.107   4.567
 1335SOL     OW 4903   1.967   6.262   2.927
 1335SOL    HW1 4904   1.939   6.233   2.835
 1335SOL    HW2 4905   1.916   6.210   2.996
 1336SOL     OW 4906   1.336   1.293   6.181
 1336SOL    HW1 4907   1.255   1.318   6.234
 1336SOL    HW2 4908   1.416   1.288   6.242
 1337SOL     OW 4909   1.024   2.402   5.111
 1337SOL    HW1 4910   1.033   2.499   5.132
 1337SOL    HW2 4911   0.928   2.375   5.114
 1338SOL     OW 4912   4.301   3.754   6.451
 1338SOL    HW1 4913   4.337   3.693   6.521
 1338SOL    HW2 4914   4.345   3.844   6.458
 1339SOL     OW 4915   6.777   5.184   6.617
 1339SOL    HW1 4916   6.815   5.252   6.553
 1339SOL    HW2 4917   6.847   5.156   6.681
 1340SOL     OW 4918   1.210   1.932   1.536
 1340SOL    HW1 4919   1.218   1.894   1.628
 1340SOL    HW2 4920   1.219   1.858   1.469
 1341SOL     OW 4921   4.333   0.815   5.318
 1341SOL    HW1 4922   4.287   0.768   5.394
 1341SOL    HW2 4923   4.387   0.891   5.354
 1342SOL     OW 4924   1.260   5.535   6.358
 1342SOL    HW1 4925   1.357   5.554   6.347
 1342SOL    HW2 4926   1.241   5.512   6.453
 1343SOL     OW 4927   3.715   6.684   2.236
 1343SOL    HW1 4928   3.672   6.693   2.146
 1343SOL    HW2 4929   3.814   6.693   2.226
 1344SOL     OW 4930   6.778   2.617   3.375
 1344SOL    HW1 4931   6.859   2.558   3.369
 1344SOL    HW2 4932   6.698   2.561   3.397
 1345SOL     OW 4933   0.731   1.156   3.623
 1345SOL    HW1 4934   0.653   1.203   3.581
 1345SOL    HW2 4935   0.813   1.212   3.612
 1346SOL     OW 4936   1.515   0.013   2.715
 1346SOL    HW1 4937   1.590   0.078   2.713
 1346SOL    HW2 4938   1.456   0.033   2.794
 1347SOL     OW 4939   6.134   6.485   3.555
 1347SOL    HW1 4940   6.124   6.526   3.646
 1347SOL    HW2 4941   6.222   6.513   3.515
 1348SOL     OW 4942   5.613   5.203   3.546
 1348SOL    HW1 4943   5.528   5.245   3.577
 1348SOL    HW2 4944   5.593   5.138   3.473
 1349SOL     OW 4945   4.750   2.788   6.726
 1349SOL    HW1 4946   4.819   2.805   6.656
 1349SOL    HW2 4947   4.713   2.696   6.716
 1350SOL     OW 4948   3.731   5.080   6.856
 1350SOL    HW1 4949   3.691   5.166   6.888
 1350SOL    HW2 4950   3.831   5.086   6.860
 1351SOL     OW 4951   0.846   0.814   2.890
 1351SOL    HW1 4952   0.806   0.874   2.820
 1351SOL    HW2 4953   0.906   0.868   2.949
 1352SOL     OW 4954   0.384   0.160   3.691
 1352SOL    HW1 4955   0.424   0.219   3.621
 1352SOL    HW2 4956   0.367   0.213   3.774
 1353SOL     OW 4957   6.728   4.426   5.760
 1353SOL    HW1 4958   6.781   4.508   5.778
 1353SOL    HW2 4959   6.693   4.388   5.846
 1354SOL     OW 4960   7.005   1.344   0.953
 1354SOL    HW1 4961   0.059   1.279   0.949
 1354SOL    HW2 4962   6.977   1.369   0.860
 1355SOL     OW 4963   5.326   4.100   0.094
 1355SOL    HW1 4964   5.238   4.090   0.048
 1355SOL    HW2 4965   5.316   4.079   0.192
 1356SOL     OW 4966   3.479   3.746   3.717
 1356SOL    HW1 4967   3.554   3.694   3.676
 1356SOL    HW2 4968   3.392   3.715   3.677
 1357SOL     OW 4969   2.386   3.452   6.184
 1357SOL    HW1 4970   2.477   3.488   6.203
 1357SOL    HW2 4971   2.383   3.414   6.092
 1358SOL     OW 4972   2.539   2.372   5.721
 1358SOL    HW1 4973   2.589   2.317   5.788
 1358SOL    HW2 4974   2.541   2.327   5.632
 1359SOL     OW 4975   6.737   3.761   1.384
 1359SOL    HW1 4976   6.757   3.791   1.477
 1359SOL    HW2 4977   6.744   3.662   1.378
 1360SOL     OW 4978   3.942   3.469   2.413
 1360SOL    HW1 4979   3.879   3.450   2.489
 1360SOL    HW2 4980   3.917   3.412   2.334
 1361SOL     OW 4981   0.509   0.149   6.121
 1361SOL    HW1 4982   0.476   0.104   6.038
 1361SOL    HW2 4983   0.525   0.081   6.192
 1362SOL     OW 4984   2.805   3.339   5.457
 1362SOL    HW1 4985   2.849   3.398   5.389
 1362SOL    HW2 4986   2.739   3.279   5.412
 1363SOL     OW 4987   6.307   5.724   3.948
 1363SOL    HW1 4988   6.319   5.774   4.034
 1363SOL    HW2 4989   6.351   5.634   3.956
 1364SOL     OW 4990   6.993   2.786   0.236
 1364SOL    HW1 4991   6.898   2.759   0.222
 1364SOL    HW2 4992   7.021   2.765   0.329
 1365SOL     OW 4993   0.690   3.843   5.357
 1365SOL    HW1 4994   0.753   3.806   5.426
 1365SOL    HW2 4995   0.740   3.859   5.272
 1366SOL     OW 4996   6.982   3.180   0.835
 1366SOL    HW1 4997   6.958   3.253   0.771
 1366SOL    HW2 4998   0.059   3.174   0.845
 1367SOL     OW 4999   1.290   4.777   3.609
 1367SOL    HW1 5000   1.279   4.846   3.681
 1367SOL    HW2 5001   1.200   4.754   3.572
 1368SOL     OW 5002   6.618   6.959   4.110
 1368SOL    HW1 5003   6.685   6.987   4.179
 1368SOL    HW2 5004   6.573   0.018   4.072
 1369SOL     OW 5005   2.292   6.094   1.781
 1369SOL    HW1 5006   2.204   6.095   1.734
 1369SOL    HW2 5007   2.322   6.188   1.798
 1370SOL     OW 5008   6.806   1.465   4.374
 1370SOL    HW1 5009   6.728   1.527   4.386
 1370SOL    HW2 5010   6.846   1.479   4.283
 1371SOL     OW 5011   4.705   1.401   5.106
 1371SOL    HW1 5012   4.675   1.466   5.176
 1371SOL    HW2 5013   4.692   1.308   5.139
 1372SOL     OW 5014   6.091   2.147   1.048
 1372SOL    HW1 5015   6.058   2.169   0.956
 1372SOL    HW2 5016   6.139   2.059   1.045
 1373SOL     OW 5017   5.151   1.579   0.926
 1373SOL    HW1 5018   5.121   1.520   1.002
 1373SOL    HW2 5019   5.234   1.628   0.953
 1374SOL     OW 5020   5.501   4.451   0.142
 1374SOL    HW1 5021   5.540   4.373   0.093
 1374SOL    HW2 5022   5.434   4.418   0.209
 1375SOL     OW 5023   6.954   6.151   6.338
 1375SOL    HW1 5024   6.936   6.136   6.241
 1375SOL    HW2 5025   0.030   6.144   6.356
 1376SOL     OW 5026   3.261   4.801   6.240
 1376SOL    HW1 5027   3.298   4.812   6.147
 1376SOL    HW2 5028   3.171   4.759   6.235
 1377SOL     OW 5029   1.306   2.606   4.182
 1377SOL    HW1 5030   1.341   2.689   4.137
 1377SOL    HW2 5031   1.360   2.589   4.265
 1378SOL     OW 5032   4.816   2.624   5.144
 1378SOL    HW1 5033   4.892   2.684   5.120
 1378SOL    HW2 5034   4.766   2.662   5.222
 1379SOL     OW 5035   4.959   5.690   2.917
 1379SOL    HW1 5036   5.046   5.739   2.917
 1379SOL    HW2 5037   4.914   5.702   3.005
 1380SOL     OW 5038   6.734   6.508   2.626
 1380SOL    HW1 5039   6.711   6.495   2.529
 1380SOL    HW2 5040   6.779   6.596   2.639
 1381SOL     OW 5041   5.636   1.991   6.589
 1381SOL    HW1 5042   5.662   2.017   6.496
 1381SOL    HW2 5043   5.672   1.899   6.609
 1382SOL     OW 5044   4.842   3.369   1.385
 1382SOL    HW1 5045   4.775   3.423   1.436
 1382SOL    HW2 5046   4.876   3.295   1.442
 1383SOL     OW 5047   0.717   0.103   1.335
 1383SOL    HW1 5048   0.763   0.186   1.304
 1383SOL    HW2 5049   0.670   0.061   1.257
 1384SOL     OW 5050   4.408   6.931   0.970
 1384SOL    HW1 5051   4.470   6.982   0.910
 1384SOL    HW2 5052   4.325   6.985   0.985
 1385SOL     OW 5053   2.352   4.735   3.799
 1385SOL    HW1 5054   2.352   4.769   3.705
 1385SOL    HW2 5055   2.443   4.746   3.839
 1386SOL     OW 5056   3.307   0.179   3.149
 1386SOL    HW1 5057   3.374   0.105   3.151
 1386SOL    HW2 5058   3.221   0.146   3.109
 1387SOL     OW 5059   2.831   5.647   1.999
 1387SOL    HW1 5060   2.780   5.598   2.069
 1387SOL    HW2 5061   2.837   5.591   1.916
 1388SOL     OW 5062   6.331   6.446   1.107
 1388SOL    HW1 5063   6.324   6.366   1.048
 1388SOL    HW2 5064   6.247   6.500   1.102
 1389SOL     OW 5065   5.872   2.170   3.433
 1389SOL    HW1 5066   5.867   2.214   3.344
 1389SOL    HW2 5067   5.878   2.240   3.504
 1390SOL     OW 5068   0.015   3.959   0.261
 1390SOL    HW1 5069   0.054   3.970   0.169
 1390SOL    HW2 5070   6.945   3.998   0.263
 1391SOL     OW 5071   6.483   0.141   3.991
 1391SOL    HW1 5072   6.400   0.133   4.045
 1391SOL    HW2 5073   6.481   0.226   3.939
 1392SOL     OW 5074   5.365   5.618   6.376
 1392SOL    HW1 5075   5.283   5.676   6.368
 1392SOL    HW2 5076   5.402   5.626   6.468
 1393SOL     OW 5077   6.177   4.770   5.043
 1393SOL    HW1 5078   6.255   4.826   5.072
 1393SOL    HW2 5079   6.169   4.773   4.943
 1394SOL     OW 5080   2.933   6.234   4.818
 1394SOL    HW1 5081   2.874   6.186   4.883
 1394SOL    HW2 5082   2.970   6.168   4.752
 1395SOL     OW 5083   2.456   3.974   5.804
 1395SOL    HW1 5084   2.478   4.019   5.717
 1395SOL    HW2 5085   2.383   4.025   5.850
 1396SOL     OW 5086   2.098   1.036   4.896
 1396SOL    HW1 5087   2.086   1.005   4.991
 1396SOL    HW2 5088   2.066   0.965   4.834
 1397SOL     OW 5089   0.314   0.383   3.884
 1397SOL    HW1 5090   0.238   0.410   3.825
 1397SOL    HW2 5091   0.396   0.432   3.857
 1398SOL     OW 5092   2.550   0.989   5.760
 1398SOL    HW1 5093   2.637   1.026   5.727
 1398SOL    HW2 5094   2.565   0.942   5.847
 1399SOL     OW 5095   3.617   6.215   0.913
 1399SOL    HW1 5096   3.564   6.134   0.939
 1399SOL    HW2 5097   3.565   6.297   0.935
 1400SOL     OW 5098   6.914   1.343   2.775
 1400SOL    HW1 5099   6.824   1.302   2.758
 1400SOL    HW2 5100   6.970   1.335   2.693
 1401SOL     OW 5101   0.004   1.933   4.825
 1401SOL    HW1 5102   6.977   1.984   4.895
 1401SOL    HW2 5103   7.003   1.970   4.735
 1402SOL     OW 5104   0.843   4.103   0.229
 1402SOL    HW1 5105   0.798   4.099   0.139
 1402SOL    HW2 5106   0.811   4.183   0.279
 1403SOL     OW 5107   2.856   1.702   1.549
 1403SOL    HW1 5108   2.947   1.704   1.507
 1403SOL    HW2 5109   2.788   1.679   1.479
 1404SOL     OW 5110   5.504   0.011   0.156
 1404SOL    HW1 5111   5.544   6.943   0.179
 1404SOL    HW2 5112   5.407   0.010   0.176
 1405SOL     OW 5113   2.148   3.693   1.029
 1405SOL    HW1 5114   2.102   3.610   1.062
 1405SOL    HW2 5115   2.080   3.757   0.993
 1406SOL     OW 5116   1.187   5.188   1.503
 1406SOL    HW1 5117   1.230   5.125   1.438
 1406SOL    HW2 5118   1.206   5.283   1.475
 1407SOL     OW 5119   0.621   1.868   2.033
 1407SOL    HW1 5120   0.605   1.924   1.952
 1407SOL    HW2 5121   0.640   1.927   2.111
 1408SOL     OW 5122   5.409   1.255   5.758
 1408SOL    HW1 5123   5.477   1.281   5.827
 1408SOL    HW2 5124   5.451   1.261   5.667
 1409SOL     OW 5125   0.655   0.925   4.653
 1409SOL    HW1 5126   0.712   0.869   4.592
 1409SOL    HW2 5127   0.704   0.941   4.739
 1410SOL     OW 5128   1.975   3.372   6.272
 1410SOL    HW1 5129   1.997   3.288   6.221
 1410SOL    HW2 5130   2.031   3.376   6.354
 1411SOL     OW 5131   2.622   6.418   1.959
 1411SOL    HW1 5132   2.689   6.368   1.904
 1411SOL    HW2 5133   2.667   6.497   2.002
 1412SOL     OW 5134   0.140   1.969   1.023
 1412SOL    HW1 5135   0.190   1.990   0.938
 1412SOL    HW2 5136   0.043   1.989   1.010
 1413SOL     OW 5137   1.787   1.268   5.328
 1413SOL    HW1 5138   1.871   1.320   5.341
 1413SOL    HW2 5139   1.773   1.207   5.406
 1414SOL     OW 5140   2.717   1.352   1.770
 1414SOL    HW1 5141   2.776   1.273   1.790
 1414SOL    HW2 5142   2.682   1.344   1.677
 1415SOL     OW 5143   2.287   0.742   4.846
 1415SOL    HW1 5144   2.350   0.783   4.912
 1415SOL    HW2 5145   2.211   0.804   4.829
 1416SOL     OW 5146   4.660   4.437   4.146
 1416SOL    HW1 5147   4.744   4.491   4.150
 1416SOL    HW2 5148   4.678   4.345   4.180
 1417SOL     OW 5149   3.358   1.766   0.308
 1417SOL    HW1 5150   3.403   1.727   0.228
 1417SOL    HW2 5151   3.412   1.746   0.390
 1418SOL     OW 5152   2.984   3.253   3.558
 1418SOL    HW1 5153   2.969   3.344   3.596
 1418SOL    HW2 5154   3.038   3.198   3.622
 1419SOL     OW 5155   2.501   6.099   4.951
 1419SOL    HW1 5156   2.512   6.007   4.914
 1419SOL    HW2 5157   2.427   6.099   5.019
 1420SOL     OW 5158   2.312   0.205   1.653
 1420SOL    HW1 5159   2.246   0.269   1.614
 1420SOL    HW2 5160   2.271   0.114   1.657
 1421SOL     OW 5161   1.875   3.265   3.464
 1421SOL    HW1 5162   1.974   3.278   3.470
 1421SOL    HW2 5163   1.835   3.276   3.555
 1422SOL     OW 5164   1.765   3.353   1.250
 1422SOL    HW1 5165   1.826   3.290   1.298
 1422SOL    HW2 5166   1.818   3.408   1.186
 1423SOL     OW 5167   5.362   6.420   3.303
 1423SOL    HW1 5168   5.401   6.339   3.347
 1423SOL    HW2 5169   5.361   6.496   3.369
 1424SOL     OW 5170   6.546   4.684   5.243
 1424SOL    HW1 5171   6.643   4.703   5.226
 1424SOL    HW2 5172   6.516   4.612   5.181
 1425SOL     OW 5173   1.053   6.361   4.805
 1425SOL    HW1 5174   1.051   6.302   4.885
 1425SOL    HW2 5175   1.115   6.437   4.821
 1426SOL     OW 5176   1.951   2.228   6.072
 1426SOL    HW1 5177   2.039   2.183   6.056
 1426SOL    HW2 5178   1.967   2.324   6.095
 1427SOL     OW 5179   0.294   6.401   3.456
 1427SOL    HW1 5180   0.232   6.467   3.414
 1427SOL    HW2 5181   0.347   6.446   3.529
 1428SOL     OW 5182   5.599   2.679   0.958
 1428SOL    HW1 5183   5.668   2.703   0.889
 1428SOL    HW2 5184   5.609   2.741   1.037
 1429SOL     OW 5185   5.420   1.975   0.519
 1429SOL    HW1 5186   5.490   1.905   0.532
 1429SOL    HW2 5187   5.410   2.029   0.603
 1430SOL     OW 5188   1.710   4.416   3.961
 1430SOL    HW1 5189   1.700   4.408   4.060
 1430SOL    HW2 5190   1.765   4.339   3.927
 1431SOL     OW 5191   2.449   1.848   0.430
 1431SOL    HW1 5192   2.371   1.805   0.474
 1431SOL    HW2 5193   2.423   1.939   0.397
 1432SOL     OW 5194   3.426   1.257   2.802
 1432SOL    HW1 5195   3.370   1.337   2.824
 1432SOL    HW2 5196   3.494   1.282   2.732
 1433SOL     OW 5197   4.027   1.427   5.320
 1433SOL    HW1 5198   3.998   1.408   5.227
 1433SOL    HW2 5199   4.004   1.522   5.344
 1434SOL     OW 5200   7.014   0.703   6.120
 1434SOL    HW1 5201   6.984   0.684   6.214
 1434SOL    HW2 5202   0.065   0.639   6.095
 1435SOL     OW 5203   6.229   0.419   2.880
 1435SOL    HW1 5204   6.242   0.435   2.978
 1435SOL    HW2 5205   6.171   0.491   2.842
 1436SOL     OW 5206   5.943   3.927   0.347
 1436SOL    HW1 5207   5.991   3.985   0.412
 1436SOL    HW2 5208   5.844   3.934   0.363
 1437SOL     OW 5209   2.588   2.482   3.290
 1437SOL    HW1 5210   2.668   2.423   3.283
 1437SOL    HW2 5211   2.537   2.460   3.373
 1438SOL     OW 5212   3.394   6.044   1.247
 1438SOL    HW1 5213   3.320   5.981   1.270
 1438SOL    HW2 5214   3.372   6.090   1.160
 1439SOL     OW 5215   6.824   5.832   1.357
 1439SOL    HW1 5216   6.890   5.908   1.359
 1439SOL    HW2 5217   6.807   5.806   1.262
 1440SOL     OW 5218   3.076   3.590   0.016
 1440SOL    HW1 5219   3.165   3.636   0.008
 1440SOL    HW2 5220   3.090   3.496   0.047
 1441SOL     OW 5221   5.780   0.872   3.048
 1441SOL    HW1 5222   5.751   0.967   3.060
 1441SOL    HW2 5223   5.811   0.836   3.136
 1442SOL     OW 5224   6.889   5.861   6.960
 1442SOL    HW1 5225   6.967   5.805   6.934
 1442SOL    HW2 5226   6.826   5.808   7.017
 1443SOL     OW 5227   0.371   3.135   2.430
 1443SOL    HW1 5228   0.459   3.130   2.478
 1443SOL    HW2 5229   0.298   3.154   2.495
 1444SOL     OW 5230   5.363   6.024   0.827
 1444SOL    HW1 5231   5.299   6.091   0.866
 1444SOL    HW2 5232   5.316   5.971   0.756
 1445SOL     OW 5233   0.575   2.637   2.603
 1445SOL    HW1 5234   0.577   2.698   2.524
 1445SOL    HW2 5235   0.624   2.552   2.580
 1446SOL     OW 5236   5.904   1.104   0.205
 1446SOL    HW1 5237   5.899   1.062   0.115
 1446SOL    HW2 5238   5.840   1.181   0.210
 1447SOL     OW 5239   6.051   5.787   4.217
 1447SOL    HW1 5240   6.110   5.781   4.297
 1447SOL    HW2 5241   6.100   5.830   4.141
 1448SOL     OW 5242   6.488   2.864   5.470
 1448SOL    HW1 5243   6.582   2.839   5.495
 1448SOL    HW2 5244   6.449   2.923   5.541
 1449SOL     OW 5245   1.274   3.691   5.454
 1449SOL    HW1 5246   1.363   3.722   5.488
 1449SOL    HW2 5247   1.210   3.685   5.531
 1450SOL     OW 5248   0.900   2.018   0.145
 1450SOL    HW1 5249   0.808   2.058   0.138
 1450SOL    HW2 5250   0.943   2.047   0.230
 1451SOL     OW 5251   1.190   6.749   2.164
 1451SOL    HW1 5252   1.096   6.717   2.168
 1451SOL    HW2 5253   1.223   6.746   2.070
 1452SOL     OW 5254   4.419   2.469   5.583
 1452SOL    HW1 5255   4.518   2.477   5.597
 1452SOL    HW2 5256   4.372   2.545   5.627
 1453SOL     OW 5257   0.822   3.968   6.091
 1453SOL    HW1 5258   0.880   3.986   6.011
 1453SOL    HW2 5259   0.812   4.053   6.143
 1454SOL     OW 5260   1.059   2.371   1.896
 1454SOL    HW1 5261   0.970   2.393   1.856
 1454SOL    HW2 5262   1.096   2.290   1.852
 1455SOL     OW 5263   1.779   6.906   2.255
 1455SOL    HW1 5264   1.695   6.852   2.252
 1455SOL    HW2 5265   1.763   6.991   2.305
 1456SOL     OW 5266   6.432   0.354   6.383
 1456SOL    HW1 5267   6.501   0.284   6.400
 1456SOL    HW2 5268   6.393   0.341   6.293
 1457SOL     OW 5269   1.036   5.836   0.864
 1457SOL    HW1 5270   0.954   5.884   0.833
 1457SOL    HW2 5271   1.114   5.862   0.806
 1458SOL     OW 5272   5.949   4.887   5.210
 1458SOL    HW1 5273   6.000   4.857   5.130
 1458SOL    HW2 5274   5.897   4.810   5.248
 1459SOL     OW 5275   4.085   6.669   5.282
 1459SOL    HW1 5276   4.022   6.745   5.265
 1459SOL    HW2 5277   4.177   6.696   5.255
 1460SOL     OW 5278   1.228   6.929   5.619
 1460SOL    HW1 5279   1.301   6.991   5.591
 1460SOL    HW2 5280   1.226   6.850   5.557
 1461SOL     OW 5281   7.009   4.080   3.043
 1461SOL    HW1 5282   0.045   4.021   2.987
 1461SOL    HW2 5283   6.921   4.095   2.998
 1462SOL     OW 5284   1.070   1.070   6.616
 1462SOL    HW1 5285   1.044   1.166   6.631
 1462SOL    HW2 5286   0.988   1.017   6.594
 1463SOL     OW 5287   0.874   5.075   5.718
 1463SOL    HW1 5288   0.920   5.149   5.768
 1463SOL    HW2 5289   0.930   4.992   5.724
 1464SOL     OW 5290   6.790   5.425   2.171
 1464SOL    HW1 5291   6.761   5.408   2.076
 1464SOL    HW2 5292   6.884   5.393   2.184
 1465SOL     OW 5293   1.638   0.742   4.186
 1465SOL    HW1 5294   1.699   0.676   4.143
 1465SOL    HW2 5295   1.669   0.835   4.164
 1466SOL     OW 5296   3.627   1.718   2.062
 1466SOL    HW1 5297   3.534   1.755   2.071
 1466SOL    HW2 5298   3.633   1.664   1.979
 1467SOL     OW 5299   1.519   1.111   3.607
 1467SOL    HW1 5300   1.550   1.046   3.538
 1467SOL    HW2 5301   1.562   1.090   3.695
 1468SOL     OW 5302   1.928   5.679   2.079
 1468SOL    HW1 5303   2.027   5.683   2.098
 1468SOL    HW2 5304   1.879   5.733   2.148
 1469SOL     OW 5305   6.808   0.092   2.511
 1469SOL    HW1 5306   6.771   7.021   2.505
 1469SOL    HW2 5307   6.908   0.088   2.511
 1470SOL     OW 5308   0.695   1.304   2.056
 1470SOL    HW1 5309   0.766   1.295   1.986
 1470SOL    HW2 5310   0.699   1.395   2.096
 1471SOL     OW 5311   0.877   0.151   0.165
 1471SOL    HW1 5312   0.938   0.231   0.164
 1471SOL    HW2 5313   0.835   0.142   0.255
 1472SOL     OW 5314   2.868   6.196   6.923
 1472SOL    HW1 5315   2.900   6.111   6.964
 1472SOL    HW2 5316   2.861   6.266   6.995
 1473SOL     OW 5317   3.422   5.635   5.197
 1473SOL    HW1 5318   3.405   5.721   5.244
 1473SOL    HW2 5319   3.518   5.608   5.209
 1474SOL     OW 5320   4.993   4.254   1.201
 1474SOL    HW1 5321   5.049   4.262   1.118
 1474SOL    HW2 5322   4.977   4.345   1.238
 1475SOL     OW 5323   5.286   0.900   0.852
 1475SOL    HW1 5324   5.246   0.967   0.788
 1475SOL    HW2 5325   5.282   0.809   0.811
 1476SOL     OW 5326   2.283   1.758   0.956
 1476SOL    HW1 5327   2.348   1.685   0.975
 1476SOL    HW2 5328   2.293   1.831   1.024
 1477SOL     OW 5329   3.686   5.984   6.609
 1477SOL    HW1 5330   3.662   6.079   6.628
 1477SOL    HW2 5331   3.665   5.963   6.514
 1478SOL     OW 5332   6.300   5.441   5.246
 1478SOL    HW1 5333   6.359   5.475   5.319
 1478SOL    HW2 5334   6.298   5.508   5.172
 1479SOL     OW 5335   3.055   3.591   0.973
 1479SOL    HW1 5336   3.091   3.511   1.022
 1479SOL    HW2 5337   3.021   3.562   0.884
 1480SOL     OW 5338   2.928   6.695   4.257
 1480SOL    HW1 5339   2.973   6.745   4.183
 1480SOL    HW2 5340   2.855   6.638   4.219
 1481SOL     OW 5341   5.888   3.306   6.155
 1481SOL    HW1 5342   5.792   3.297   6.182
 1481SOL    HW2 5343   5.941   3.231   6.193
 1482SOL     OW 5344   4.647   0.395   1.630
 1482SOL    HW1 5345   4.557   0.352   1.631
 1482SOL    HW2 5346   4.635   0.495   1.633
 1483SOL     OW 5347   5.758   2.224   5.275
 1483SOL    HW1 5348   5.668   2.204   5.236
 1483SOL    HW2 5349   5.760   2.318   5.309
 1484SOL     OW 5350   4.671   4.687   3.766
 1484SOL    HW1 5351   4.755   4.739   3.780
 1484SOL    HW2 5352   4.645   4.690   3.670
 1485SOL     OW 5353   5.185   0.504   4.430
 1485SOL    HW1 5354   5.207   0.410   4.403
 1485SOL    HW2 5355   5.139   0.551   4.355
 1486SOL     OW 5356   4.964   0.569   3.567
 1486SOL    HW1 5357   4.871   0.600   3.586
 1486SOL    HW2 5358   5.021   0.648   3.543
 1487SOL     OW 5359   0.040   2.258   6.886
 1487SOL    HW1 5360   0.036   2.324   6.811
 1487SOL    HW2 5361   6.976   2.205   6.887
 1488SOL     OW 5362   4.472   0.093   3.667
 1488SOL    HW1 5363   4.455   7.016   3.675
 1488SOL    HW2 5364   4.417   0.131   3.593
 1489SOL     OW 5365   3.537   4.876   6.323
 1489SOL    HW1 5366   3.459   4.827   6.285
 1489SOL    HW2 5367   3.612   4.875   6.257
 1490SOL     OW 5368   0.206   3.583   0.920
 1490SOL    HW1 5369   0.198   3.506   0.856
 1490SOL    HW2 5370   0.285   3.639   0.896
 1491SOL     OW 5371   6.557   3.797   2.774
 1491SOL    HW1 5372   6.488   3.869   2.779
 1491SOL    HW2 5373   6.567   3.766   2.680
 1492SOL     OW 5374   6.092   0.344   2.272
 1492SOL    HW1 5375   6.052   0.435   2.278
 1492SOL    HW2 5376   6.047   0.283   2.337
 1493SOL     OW 5377   3.969   0.339   6.113
 1493SOL    HW1 5378   4.009   0.375   6.028
 1493SOL    HW2 5379   3.947   0.242   6.101
 1494SOL     OW 5380   6.163   2.652   6.858
 1494SOL    HW1 5381   6.094   2.650   6.931
 1494SOL    HW2 5382   6.184   2.559   6.830
 1495SOL     OW 5383   0.143   4.086   5.439
 1495SOL    HW1 5384   0.234   4.093   5.399
 1495SOL    HW2 5385   0.084   4.033   5.378
 1496SOL     OW 5386   1.495   0.688   0.322
 1496SOL    HW1 5387   1.472   0.761   0.386
 1496SOL    HW2 5388   1.416   0.627   0.312
 1497SOL     OW 5389   5.193   3.071   2.298
 1497SOL    HW1 5390   5.107   3.121   2.289
 1497SOL    HW2 5391   5.178   2.989   2.354
 1498SOL     OW 5392   2.372   4.547   0.749
 1498SOL    HW1 5393   2.287   4.585   0.785
 1498SOL    HW2 5394   2.361   4.448   0.737
 1499SOL     OW 5395   0.235   3.069   5.833
 1499SOL    HW1 5396   0.309   3.007   5.861
 1499SOL    HW2 5397   0.157   3.057   5.895
 1500SOL     OW 5398   0.372   6.721   0.323
 1500SOL    HW1 5399   0.315   6.791   0.365
 1500SOL    HW2 5400   0.319   6.636   0.314
 1501SOL     OW 5401   5.862   1.896   6.238
 1501SOL    HW1 5402   5.912   1.932   6.159
 1501SOL    HW2 5403   5.921   1.831   6.287
 1502SOL     OW 5404   4.711   0.948   0.079
 1502SOL    HW1 5405   4.785   0.930   0.014
 1502SOL    HW2 5406   4.739   0.917   0.170
 1503SOL     OW 5407   1.461   3.362   2.550
 1503SOL    HW1 5408   1.440   3.382   2.455
 1503SOL    HW2 5409   1.544   3.306   2.555
 1504SOL     OW 5410   0.504   0.243   4.031
 1504SOL    HW1 5411   0.592   0.218   3.992
 1504SOL    HW2 5412   0.463   0.317   3.978
 1505SOL     OW 5413   5.070   0.071   5.525
 1505SOL    HW1 5414   4.979   0.110   5.509
 1505SOL    HW2 5415   5.085   0.062   5.623
 1506SOL     OW 5416   1.030   6.919   0.161
 1506SOL    HW1 5417   1.033   6.873   0.072
 1506SOL    HW2 5418   1.005   7.015   0.148
 1507SOL     OW 5419   0.221   1.976   5.309
 1507SOL    HW1 5420   0.232   2.070   5.277
 1507SOL    HW2 5421   0.216   1.977   5.409
 1508SOL     OW 5422   5.901   1.433   1.644
 1508SOL    HW1 5423   5.996   1.421   1.670
 1508SOL    HW2 5424   5.853   1.488   1.712
 1509SOL     OW 5425   4.883   2.045   5.142
 1509SOL    HW1 5426   4.789   2.018   5.163
 1509SOL    HW2 5427   4.887   2.143   5.121
 1510SOL     OW 5428   5.592   0.035   4.766
 1510SOL    HW1 5429   5.505   7.018   4.797
 1510SOL    HW2 5430   5.655   6.984   4.742
 1511SOL     OW 5431   4.137   3.701   4.113
 1511SOL    HW1 5432   4.134   3.635   4.189
 1511SOL    HW2 5433   4.190   3.781   4.141
 1512SOL     OW 5434   6.623   5.730   1.510
 1512SOL    HW1 5435   6.617   5.630   1.511
 1512SOL    HW2 5436   6.698   5.757   1.449
 1513SOL     OW 5437   3.566   0.519   4.389
 1513SOL    HW1 5438   3.557   0.468   4.475
 1513SOL    HW2 5439   3.637   0.589   4.399
 1514SOL     OW 5440   3.787   2.898   5.879
 1514SOL    HW1 5441   3.870   2.842   5.885
 1514SOL    HW2 5442   3.731   2.883   5.961
 1515SOL     OW 5443   5.578   1.558   2.814
 1515SOL    HW1 5444   5.553   1.491   2.884
 1515SOL    HW2 5445   5.512   1.554   2.739
 1516SOL     OW 5446   5.971   5.383   5.810
 1516SOL    HW1 5447   5.899   5.333   5.762
 1516SOL    HW2 5448   5.933   5.428   5.891
 1517SOL     OW 5449   4.067   5.914   2.710
 1517SOL    HW1 5450   4.136   5.963   2.657
 1517SOL    HW2 5451   3.981   5.966   2.708
 1518SOL     OW 5452   6.885   2.501   0.570
 1518SOL    HW1 5453   6.806   2.535   0.622
 1518SOL    HW2 5454   6.935   2.579   0.531
 1519SOL     OW 5455   6.252   4.584   1.124
 1519SOL    HW1 5456   6.333   4.637   1.147
 1519SOL    HW2 5457   6.174   4.645   1.110
 1520SOL     OW 5458   0.510   4.628   1.600
 1520SOL    HW1 5459   0.603   4.594   1.611
 1520SOL    HW2 5460   0.452   4.554   1.563
 1521SOL     OW 5461   2.585   4.432   6.417
 1521SOL    HW1 5462   2.548   4.342   6.395
 1521SOL    HW2 5463   2.666   4.421   6.475
 1522SOL     OW 5464   6.429   5.579   4.992
 1522SOL    HW1 5465   6.365   5.655   4.999
 1522SOL    HW2 5466   6.382   5.498   4.958
 1523SOL     OW 5467   3.693   6.356   6.903
 1523SOL    HW1 5468   3.732   6.270   6.870
 1523SOL    HW2 5469   3.600   6.365   6.868
 1524SOL     OW 5470   2.518   1.759   1.972
 1524SOL    HW1 5471   2.515   1.659   1.972
 1524SOL    HW2 5472   2.598   1.791   1.921
 1525SOL     OW 5473   6.231   2.942   0.623
 1525SOL    HW1 5474   6.150   2.975   0.575
 1525SOL    HW2 5475   6.274   3.019   0.672
 1526SOL     OW 5476   6.863   1.211   0.079
 1526SOL    HW1 5477   6.924   1.155   0.024
 1526SOL    HW2 5478   6.783   1.157   0.106
 1527SOL     OW 5479   3.294   1.043   3.993
 1527SOL    HW1 5480   3.240   1.114   4.038
 1527SOL    HW2 5481   3.303   0.965   4.055
 1528SOL     OW 5482   4.256   4.630   2.636
 1528SOL    HW1 5483   4.346   4.622   2.592
 1528SOL    HW2 5484   4.226   4.539   2.667
 1529SOL     OW 5485   4.399   0.609   7.020
 1529SOL    HW1 5486   4.301   0.596   7.007
 1529SOL    HW2 5487   4.419   0.706   0.006
 1530SOL     OW 5488   4.029   1.735   1.979
 1530SOL    HW1 5489   4.044   1.682   1.895
 1530SOL    HW2 5490   3.974   1.816   1.958
 1531SOL     OW 5491   4.556   0.863   4.814
 1531SOL    HW1 5492   4.617   0.802   4.864
 1531SOL    HW2 5493   4.462   0.829   4.818
 1532SOL     OW 5494   3.828   3.926   5.913
 1532SOL    HW1 5495   3.868   3.835   5.917
 1532SOL    HW2 5496   3.865   3.982   5.987
 1533SOL     OW 5497   6.061   5.466   0.441
 1533SOL    HW1 5498   6.124   5.421   0.505
 1533SOL    HW2 5499   6.067   5.421   0.352
 1534SOL     OW 5500   3.144   6.039   6.037
 1534SOL    HW1 5501   3.089   6.089   6.104
 1534SOL    HW2 5502   3.237   6.026   6.073
 1535SOL     OW 5503   5.490   5.885   4.466
 1535SOL    HW1 5504   5.578   5.916   4.500
 1535SOL    HW2 5505   5.450   5.955   4.408
 1536SOL     OW 5506   4.354   5.577   6.183
 1536SOL    HW1 5507   4.453   5.570   6.183
 1536SOL    HW2 5508   4.318   5.537   6.267
 1537SOL     OW 5509   4.454   5.962   4.053
 1537SOL    HW1 5510   4.405   5.893   4.106
 1537SOL    HW2 5511   4.425   5.957   3.957
 1538SOL     OW 5512   3.438   6.597   6.584
 1538SOL    HW1 5513   3.384   6.657   6.525
 1538SOL    HW2 5514   3.511   6.555   6.530
 1539SOL     OW 5515   4.813   3.610   1.731
 1539SOL    HW1 5516   4.750   3.688   1.734
 1539SOL    HW2 5517   4.782   3.546   1.661
 1540SOL     OW 5518   0.319   6.828   5.523
 1540SOL    HW1 5519   0.355   6.766   5.592
 1540SOL    HW2 5520   0.365   6.811   5.435
 1541SOL     OW 5521   3.380   2.984   4.297
 1541SOL    HW1 5522   3.389   2.978   4.397
 1541SOL    HW2 5523   3.296   3.032   4.274
 1542SOL     OW 5524   6.615   0.640   2.665
 1542SOL    HW1 5525   6.647   0.733   2.647
 1542SOL    HW2 5526   6.545   0.642   2.737
 1543SOL     OW 5527   3.716   4.918   4.727
 1543SOL    HW1 5528   3.725   4.910   4.628
 1543SOL    HW2 5529   3.625   4.887   4.755
 1544SOL     OW 5530   3.297   3.461   3.307
 1544SOL    HW1 5531   3.284   3.475   3.209
 1544SOL    HW2 5532   3.357   3.382   3.322
 1545SOL     OW 5533   4.313   0.456   2.983
 1545SOL    HW1 5534   4.386   0.395   2.955
 1545SOL    HW2 5535   4.249   0.408   3.042
 1546SOL     OW 5536   5.110   6.597   5.400
 1546SOL    HW1 5537   5.132   6.667   5.469
 1546SOL    HW2 5538   5.021   6.557   5.420
 1547SOL     OW 5539   1.838   3.937   1.186
 1547SOL    HW1 5540   1.744   3.909   1.205
 1547SOL    HW2 5541   1.851   3.946   1.088
 1548SOL     OW 5542   5.590   4.009   6.736
 1548SOL    HW1 5543   5.503   4.038   6.776
 1548SOL    HW2 5544   5.660   4.007   6.807
 1549SOL     OW 5545   4.119   1.437   1.359
 1549SOL    HW1 5546   4.051   1.405   1.425
 1549SOL    HW2 5547   4.088   1.523   1.318
 1550SOL     OW 5548   2.904   3.839   0.721
 1550SOL    HW1 5549   2.882   3.910   0.655
 1550SOL    HW2 5550   2.872   3.867   0.812
 1551SOL     OW 5551   2.042   4.113   6.257
 1551SOL    HW1 5552   2.123   4.171   6.262
 1551SOL    HW2 5553   1.968   4.153   6.311
 1552SOL     OW 5554   2.491   5.471   0.753
 1552SOL    HW1 5555   2.519   5.375   0.751
 1552SOL    HW2 5556   2.478   5.503   0.659
 1553SOL     OW 5557   5.998   1.641   0.161
 1553SOL    HW1 5558   6.010   1.583   0.080
 1553SOL    HW2 5559   6.087   1.679   0.188
 1554SOL     OW 5560   3.327   1.818   3.740
 1554SOL    HW1 5561   3.244   1.832   3.686
 1554SOL    HW2 5562   3.380   1.902   3.742
 1555SOL     OW 5563   5.776   3.232   0.161
 1555SOL    HW1 5564   5.690   3.281   0.175
 1555SOL    HW2 5565   5.796   3.226   0.063
 1556SOL     OW 5566   2.068   2.257   6.866
 1556SOL    HW1 5567   2.128   2.191   6.820
 1556SOL    HW2 5568   2.123   2.312   6.929
 1557SOL     OW 5569   1.749   2.453   4.949
 1557SOL    HW1 5570   1.674   2.438   5.013
 1557SOL    HW2 5571   1.755   2.550   4.926
 1558SOL     OW 5572   6.098   0.491   4.540
 1558SOL    HW1 5573   6.049   0.470   4.456
 1558SOL    HW2 5574   6.159   0.569   4.525
 1559SOL     OW 5575   1.969   2.888   6.610
 1559SOL    HW1 5576   1.979   2.979   6.570
 1559SOL    HW2 5577   1.878   2.880   6.651
 1560SOL     OW 5578   6.780   0.687   6.315
 1560SOL    HW1 5579   6.750   0.593   6.297
 1560SOL    HW2 5580   6.741   0.748   6.247
 1561SOL     OW 5581   5.324   6.241   3.759
 1561SOL    HW1 5582   5.252   6.310   3.774
 1561SOL    HW2 5583   5.360   6.212   3.847
 1562SOL     OW 5584   5.034   6.114   2.699
 1562SOL    HW1 5585   4.956   6.119   2.761
 1562SOL    HW2 5586   5.085   6.200   2.702
 1563SOL     OW 5587   2.587   0.297   4.578
 1563SOL    HW1 5588   2.598   0.286   4.479
 1563SOL    HW2 5589   2.527   0.374   4.596
 1564SOL     OW 5590   1.575   1.786   3.183
 1564SOL    HW1 5591   1.493   1.769   3.239
 1564SOL    HW2 5592   1.557   1.863   3.122
 1565SOL     OW 5593   5.065   4.383   3.254
 1565SOL    HW1 5594   5.072   4.312   3.185
 1565SOL    HW2 5595   4.984   4.439   3.237
 1566SOL     OW 5596   5.771   4.269   2.543
 1566SOL    HW1 5597   5.765   4.299   2.448
 1566SOL    HW2 5598   5.712   4.328   2.599
 1567SOL     OW 5599   6.711   6.219   0.699
 1567SOL    HW1 5600   6.767   6.179   0.626
 1567SOL    HW2 5601   6.694   6.315   0.680
 1568SOL     OW 5602   1.596   6.617   0.080
 1568SOL    HW1 5603   1.575   6.642   7.007
 1568SOL    HW2 5604   1.688   6.577   0.084
 1569SOL     OW 5605   4.444   6.108   3.617
 1569SOL    HW1 5606   4.492   6.038   3.564
 1569SOL    HW2 5607   4.385   6.161   3.557
 1570SOL     OW 5608   1.848   0.478   0.697
 1570SOL    HW1 5609   1.863   0.390   0.743
 1570SOL    HW2 5610   1.775   0.469   0.629
 1571SOL     OW 5611   5.780   2.483   1.003
 1571SOL    HW1 5612   5.719   2.556   0.973
 1571SOL    HW2 5613   5.826   2.510   1.087
 1572SOL     OW 5614   0.262   6.972   1.262
 1572SOL    HW1 5615   0.322   6.983   1.340
 1572SOL    HW2 5616   0.189   6.908   1.284
 1573SOL     OW 5617   5.281   2.088   2.340
 1573SOL    HW1 5618   5.266   2.148   2.419
 1573SOL    HW2 5619   5.375   2.100   2.307
 1574SOL     OW 5620   6.061   1.211   2.112
 1574SOL    HW1 5621   6.019   1.280   2.052
 1574SOL    HW2 5622   6.117   1.257   2.181
 1575SOL     OW 5623   3.124   1.258   0.228
 1575SOL    HW1 5624   3.132   1.357   0.217
 1575SOL    HW2 5625   3.126   1.235   0.325
 1576SOL     OW 5626   6.747   5.923   3.950
 1576SOL    HW1 5627   6.743   6.006   4.005
 1576SOL    HW2 5628   6.798   5.941   3.866
 1577SOL     OW 5629   3.333   1.647   4.315
 1577SOL    HW1 5630   3.354   1.566   4.370
 1577SOL    HW2 5631   3.415   1.705   4.309
 1578SOL     OW 5632   6.056   3.737   5.935
 1578SOL    HW1 5633   6.145   3.710   5.898
 1578SOL    HW2 5634   6.022   3.664   5.995
 1579SOL     OW 5635   6.762   1.631   3.185
 1579SOL    HW1 5636   6.795   1.546   3.145
 1579SOL    HW2 5637   6.700   1.612   3.261
 1580SOL     OW 5638   2.916   3.565   5.328
 1580SOL    HW1 5639   2.902   3.648   5.275
 1580SOL    HW2 5640   3.008   3.566   5.368
 1581SOL     OW 5641   6.934   4.522   5.027
 1581SOL    HW1 5642   6.935   4.601   4.966
 1581SOL    HW2 5643   7.014   4.464   5.008
 1582SOL     OW 5644   1.540   6.641   4.431
 1582SOL    HW1 5645   1.510   6.560   4.481
 1582SOL    HW2 5646   1.502   6.639   4.339
 1583SOL     OW 5647   0.824   3.279   3.759
 1583SOL    HW1 5648   0.824   3.281   3.859
 1583SOL    HW2 5649   0.756   3.213   3.727
 1584SOL     OW 5650   1.456   6.615   4.863
 1584SOL    HW1 5651   1.489   6.708   4.847
 1584SOL    HW2 5652   1.534   6.555   4.881
 1585SOL     OW 5653   5.526   1.547   3.385
 1585SOL    HW1 5654   5.516   1.457   3.343
 1585SOL    HW2 5655   5.600   1.597   3.338
 1586SOL     OW 5656   3.444   4.341   1.238
 1586SOL    HW1 5657   3.477   4.424   1.193
 1586SOL    HW2 5658   3.460   4.348   1.337
 1587SOL     OW 5659   3.044   5.088   0.159
 1587SOL    HW1 5660   3.058   5.005   0.105
 1587SOL    HW2 5661   3.106   5.160   0.128
 1588SOL     OW 5662   4.741   1.134   3.108
 1588SOL    HW1 5663   4.791   1.214   3.141
 1588SOL    HW2 5664   4.676   1.104   3.178
 1589SOL     OW 5665   5.800   4.145   3.354
 1589SOL    HW1 5666   5.783   4.057   3.311
 1589SOL    HW2 5667   5.862   4.133   3.431
 1590SOL     OW 5668   2.461   6.729   6.069
 1590SOL    HW1 5669   2.434   6.634   6.056
 1590SOL    HW2 5670   2.423   6.785   5.995
 1591SOL     OW 5671   0.631   4.921   2.891
 1591SOL    HW1 5672   0.673   4.885   2.974
 1591SOL    HW2 5673   0.695   4.982   2.844
 1592SOL     OW 5674   2.526   4.710   1.569
 1592SOL    HW1 5675   2.605   4.740   1.515
 1592SOL    HW2 5676   2.550   4.711   1.666
 1593SOL     OW 5677   0.935   6.456   3.738
 1593SOL    HW1 5678   1.018   6.499   3.773
 1593SOL    HW2 5679   0.957   6.368   3.695
 1594SOL     OW 5680   6.931   5.106   2.901
 1594SOL    HW1 5681   7.007   5.072   2.955
 1594SOL    HW2 5682   6.887   5.029   2.853
 1595SOL     OW 5683   0.765   5.047   6.365
 1595SOL    HW1 5684   0.840   5.048   6.300
 1595SOL    HW2 5685   0.693   5.110   6.335
 1596SOL     OW 5686   0.938   2.491   5.620
 1596SOL    HW1 5687   1.023   2.497   5.569
 1596SOL    HW2 5688   0.876   2.428   5.573
 1597SOL     OW 5689   2.894   5.713   0.431
 1597SOL    HW1 5690   2.913   5.756   0.519
 1597SOL    HW2 5691   2.902   5.613   0.439
 1598SOL     OW 5692   0.741   4.155   7.006
 1598SOL    HW1 5693   0.673   4.082   6.994
 1598SOL    HW2 5694   0.774   4.185   6.917
 1599SOL     OW 5695   4.832   4.316   6.005
 1599SOL    HW1 5696   4.783   4.343   5.922
 1599SOL    HW2 5697   4.781   4.245   6.052
 1600SOL     OW 5698   5.333   1.914   5.170
 1600SOL    HW1 5699   5.380   1.849   5.111
 1600SOL    HW2 5700   5.246   1.940   5.128
 1601SOL     OW 5701   0.322   5.229   4.395
 1601SOL    HW1 5702   0.263   5.176   4.457
 1601SOL    HW2 5703   0.412   5.240   4.437
 1602SOL     OW 5704   2.067   5.625   3.974
 1602SOL    HW1 5705   2.026   5.713   3.997
 1602SOL    HW2 5706   2.046   5.602   3.879
 1603SOL     OW 5707   0.634   6.066   2.323
 1603SOL    HW1 5708   0.583   6.071   2.409
 1603SOL    HW2 5709   0.570   6.067   2.246
 1604SOL     OW 5710   5.976   4.864   0.015
 1604SOL    HW1 5711   5.878   4.883   0.020
 1604SOL    HW2 5712   6.002   4.804   0.091
 1605SOL     OW 5713   6.032   6.617   1.902
 1605SOL    HW1 5714   6.132   6.621   1.895
 1605SOL    HW2 5715   5.992   6.668   1.826
 1606SOL     OW 5716   4.305   0.366   5.083
 1606SOL    HW1 5717   4.347   0.275   5.092
 1606SOL    HW2 5718   4.373   0.436   5.103
 1607SOL     OW 5719   4.626   2.330   0.799
 1607SOL    HW1 5720   4.562   2.362   0.729
 1607SOL    HW2 5721   4.704   2.286   0.755
 1608SOL     OW 5722   1.458   0.705   5.870
 1608SOL    HW1 5723   1.456   0.804   5.865
 1608SOL    HW2 5724   1.535   0.676   5.927
 1609SOL     OW 5725   4.354   0.782   6.651
 1609SOL    HW1 5726   4.294   0.714   6.694
 1609SOL    HW2 5727   4.339   0.872   6.693
 1610SOL     OW 5728   6.317   4.014   5.335
 1610SOL    HW1 5729   6.230   4.064   5.327
 1610SOL    HW2 5730   6.299   3.917   5.346
 1611SOL     OW 5731   3.526   3.319   1.811
 1611SOL    HW1 5732   3.600   3.264   1.848
 1611SOL    HW2 5733   3.520   3.405   1.862
 1612SOL     OW 5734   3.259   1.074   5.505
 1612SOL    HW1 5735   3.283   1.166   5.535
 1612SOL    HW2 5736   3.274   1.009   5.580
 1613SOL     OW 5737   1.696   5.943   1.472
 1613SOL    HW1 5738   1.782   5.917   1.429
 1613SOL    HW2 5739   1.713   5.965   1.569
 1614SOL     OW 5740   6.474   3.752   0.716
 1614SOL    HW1 5741   6.472   3.852   0.711
 1614SOL    HW2 5742   6.535   3.724   0.791
 1615SOL     OW 5743   6.063   4.774   1.049
 1615SOL    HW1 5744   6.053   4.822   0.961
 1615SOL    HW2 5745   6.094   4.839   1.118
 1616SOL     OW 5746   4.494   2.330   5.843
 1616SOL    HW1 5747   4.566   2.381   5.796
 1616SOL    HW2 5748   4.432   2.289   5.775
 1617SOL     OW 5749   5.477   6.692   1.114
 1617SOL    HW1 5750   5.516   6.705   1.206
 1617SOL    HW2 5751   5.487   6.776   1.062
 1618SOL     OW 5752   0.629   3.889   0.803
 1618SOL    HW1 5753   0.683   3.841   0.735
 1618SOL    HW2 5754   0.567   3.824   0.848
 1619SOL     OW 5755   1.540   2.000   4.383
 1619SOL    HW1 5756   1.458   2.052   4.406
 1619SOL    HW2 5757   1.520   1.902   4.389
 1620SOL     OW 5758   1.952   6.001   0.901
 1620SOL    HW1 5759   2.047   5.986   0.924
 1620SOL    HW2 5760   1.899   6.016   0.984
 1621SOL     OW 5761   0.430   1.494   0.695
 1621SOL    HW1 5762   0.501   1.426   0.713
 1621SOL    HW2 5763   0.377   1.466   0.615
 1622SOL     OW 5764   1.623   2.311   4.208
 1622SOL    HW1 5765   1.641   2.308   4.306
 1622SOL    HW2 5766   1.643   2.403   4.173
 1623SOL     OW 5767   2.321   2.634   5.822
 1623SOL    HW1 5768   2.416   2.614   5.801
 1623SOL    HW2 5769   2.294   2.719   5.779
 1624SOL     OW 5770   3.351   0.676   5.854
 1624SOL    HW1 5771   3.432   0.636   5.813
 1624SOL    HW2 5772   3.272   0.617   5.838
 1625SOL     OW 5773   1.404   5.950   2.017
 1625SOL    HW1 5774   1.377   5.937   1.921
 1625SOL    HW2 5775   1.328   5.925   2.077
 1626SOL     OW 5776   2.955   1.719   6.471
 1626SOL    HW1 5777   2.916   1.763   6.552
 1626SOL    HW2 5778   3.053   1.705   6.484
 1627SOL     OW 5779   6.453   2.694   4.378
 1627SOL    HW1 5780   6.453   2.696   4.477
 1627SOL    HW2 5781   6.396   2.768   4.342
 1628SOL     OW 5782   4.577   5.169   6.874
 1628SOL    HW1 5783   4.647   5.203   6.937
 1628SOL    HW2 5784   4.584   5.069   6.868
 1629SOL     OW 5785   3.384   2.107   4.398
 1629SOL    HW1 5786   3.330   2.063   4.470
 1629SOL    HW2 5787   3.477   2.123   4.431
 1630SOL     OW 5788   1.069   6.326   5.665
 1630SOL    HW1 5789   1.157   6.297   5.627
 1630SOL    HW2 5790   1.011   6.246   5.681
 1631SOL     OW 5791   6.985   0.967   5.991
 1631SOL    HW1 5792   6.999   0.868   5.994
 1631SOL    HW2 5793   6.970   1.001   6.083
 1632SOL     OW 5794   0.341   1.606   6.869
 1632SOL    HW1 5795   0.409   1.574   6.934
 1632SOL    HW2 5796   0.326   1.535   6.799
 1633SOL     OW 5797   5.091   2.255   3.905
 1633SOL    HW1 5798   5.085   2.171   3.850
 1633SOL    HW2 5799   5.185   2.290   3.902
 1634SOL     OW 5800   4.108   5.377   5.413
 1634SOL    HW1 5801   4.192   5.427   5.434
 1634SOL    HW2 5802   4.097   5.302   5.478
 1635SOL     OW 5803   6.415   4.920   5.049
 1635SOL    HW1 5804   6.462   4.842   5.009
 1635SOL    HW2 5805   6.469   4.956   5.125
 1636SOL     OW 5806   2.207   4.296   1.212
 1636SOL    HW1 5807   2.194   4.304   1.113
 1636SOL    HW2 5808   2.122   4.264   1.254
 1637SOL     OW 5809   6.445   0.767   2.940
 1637SOL    HW1 5810   6.356   0.767   2.894
 1637SOL    HW2 5811   6.433   0.793   3.036
 1638SOL     OW 5812   0.781   4.351   4.165
 1638SOL    HW1 5813   0.773   4.254   4.140
 1638SOL    HW2 5814   0.861   4.390   4.119
 1639SOL     OW 5815   4.818   6.557   2.583
 1639SOL    HW1 5816   4.803   6.458   2.586
 1639SOL    HW2 5817   4.744   6.600   2.531
 1640SOL     OW 5818   5.733   1.666   0.793
 1640SOL    HW1 5819   5.741   1.734   0.865
 1640SOL    HW2 5820   5.779   1.582   0.821
 1641SOL     OW 5821   5.706   2.465   3.877
 1641SOL    HW1 5822   5.729   2.556   3.843
 1641SOL    HW2 5823   5.666   2.411   3.803
 1642SOL     OW 5824   6.549   3.457   0.333
 1642SOL    HW1 5825   6.579   3.382   0.393
 1642SOL    HW2 5826   6.523   3.536   0.389
 1643SOL     OW 5827   3.087   6.011   3.812
 1643SOL    HW1 5828   3.097   6.093   3.755
 1643SOL    HW2 5829   3.147   6.020   3.892
 1644SOL     OW 5830   1.635   2.496   1.042
 1644SOL    HW1 5831   1.644   2.534   0.949
 1644SOL    HW2 5832   1.704   2.425   1.056
 1645SOL     OW 5833   3.348   6.251   5.076
 1645SOL    HW1 5834   3.296   6.170   5.048
 1645SOL    HW2 5835   3.308   6.333   5.036
 1646SOL     OW 5836   2.581   5.192   1.143
 1646SOL    HW1 5837   2.529   5.276   1.158
 1646SOL    HW2 5838   2.671   5.215   1.107
 1647SOL     OW 5839   5.501   2.670   4.393
 1647SOL    HW1 5840   5.517   2.639   4.299
 1647SOL    HW2 5841   5.537   2.603   4.457
 1648SOL     OW 5842   6.193   6.199   1.762
 1648SOL    HW1 5843   6.200   6.234   1.669
 1648SOL    HW2 5844   6.165   6.103   1.761
 1649SOL     OW 5845   3.196   0.620   3.349
 1649SOL    HW1 5846   3.192   0.558   3.427
 1649SOL    HW2 5847   3.140   0.701   3.368
 1650SOL     OW 5848   2.822   6.996   3.879
 1650SOL    HW1 5849   2.898   6.930   3.886
 1650SOL    HW2 5850   2.842   0.053   3.937
 1651SOL     OW 5851   1.059   0.847   1.158
 1651SOL    HW1 5852   1.136   0.785   1.177
 1651SOL    HW2 5853   1.086   0.912   1.087
 1652SOL     OW 5854   1.557   2.431   1.875
 1652SOL    HW1 5855   1.460   2.439   1.854
 1652SOL    HW2 5856   1.611   2.451   1.792
 1653SOL     OW 5857   0.670   6.015   1.732
 1653SOL    HW1 5858   0.750   6.053   1.779
 1653SOL    HW2 5859   0.671   5.915   1.739
 1654SOL     OW 5860   0.024   2.712   1.975
 1654SOL    HW1 5861   7.003   2.707   2.065
 1654SOL    HW2 5862   6.984   2.676   1.906
 1655SOL     OW 5863   5.523   3.977   6.158
 1655SOL    HW1 5864   5.569   4.065   6.171
 1655SOL    HW2 5865   5.521   3.955   6.060
 1656SOL     OW 5866   1.563   4.381   3.049
 1656SOL    HW1 5867   1.529   4.474   3.034
 1656SOL    HW2 5868   1.558   4.330   2.963
 1657SOL     OW 5869   6.852   1.272   4.552
 1657SOL    HW1 5870   6.831   1.355   4.500
 1657SOL    HW2 5871   6.846   1.291   4.650
 1658SOL     OW 5872   0.579   0.184   3.244
 1658SOL    HW1 5873   0.601   0.087   3.240
 1658SOL    HW2 5874   0.480   0.196   3.249
 1659SOL     OW 5875   3.961   2.199   6.146
 1659SOL    HW1 5876   3.967   2.248   6.234
 1659SOL    HW2 5877   3.977   2.102   6.162
 1660SOL     OW 5878   1.636   5.035   4.201
 1660SOL    HW1 5879   1.633   4.967   4.128
 1660SOL    HW2 5880   1.683   4.998   4.280
 1661SOL     OW 5881   3.522   1.601   1.572
 1661SOL    HW1 5882   3.505   1.691   1.613
 1661SOL    HW2 5883   3.540   1.613   1.474
 1662SOL     OW 5884   6.204   1.066   3.815
 1662SOL    HW1 5885   6.302   1.047   3.824
 1662SOL    HW2 5886   6.191   1.158   3.779
 1663SOL     OW 5887   2.382   1.307   2.984
 1663SOL    HW1 5888   2.410   1.390   3.032
 1663SOL    HW2 5889   2.285   1.312   2.962
 1664SOL     OW 5890   1.452   0.075   3.935
 1664SOL    HW1 5891   1.460   7.002   3.967
 1664SOL    HW2 5892   1.365   0.113   3.967
 1665SOL     OW 5893   0.183   1.920   2.594
 1665SOL    HW1 5894   0.228   1.871   2.669
 1665SOL    HW2 5895   0.200   2.018   2.605
 1666SOL     OW 5896   6.172   3.417   0.702
 1666SOL    HW1 5897   6.109   3.341   0.686
 1666SOL    HW2 5898   6.121   3.503   0.700
 1667SOL     OW 5899   5.512   6.625   0.809
 1667SOL    HW1 5900   5.475   6.665   0.893
 1667SOL    HW2 5901   5.514   6.694   0.737
 1668SOL     OW 5902   4.982   6.538   5.715
 1668SOL    HW1 5903   5.009   6.630   5.742
 1668SOL    HW2 5904   4.924   6.498   5.785
 1669SOL     OW 5905   6.305   6.690   0.523
 1669SOL    HW1 5906   6.345   6.781   0.531
 1669SOL    HW2 5907   6.280   6.657   0.614
 1670SOL     OW 5908   0.318   5.746   6.107
 1670SOL    HW1 5909   0.269   5.728   6.192
 1670SOL    HW2 5910   0.394   5.808   6.124
 1671SOL     OW 5911   4.449   2.588   1.158
 1671SOL    HW1 5912   4.380   2.543   1.214
 1671SOL    HW2 5913   4.406   2.627   1.076
 1672SOL     OW 5914   1.682   3.712   2.810
 1672SOL    HW1 5915   1.742   3.701   2.889
 1672SOL    HW2 5916   1.734   3.755   2.735
 1673SOL     OW 5917   0.417   2.373   4.624
 1673SOL    HW1 5918   0.394   2.415   4.537
 1673SOL    HW2 5919   0.499   2.417   4.662
 1674SOL     OW 5920   1.678   3.851   1.519
 1674SOL    HW1 5921   1.667   3.921   1.448
 1674SOL    HW2 5922   1.756   3.792   1.497
 1675SOL     OW 5923   4.205   6.809   6.210
 1675SOL    HW1 5924   4.283   6.824   6.270
 1675SOL    HW2 5925   4.231   6.828   6.115
 1676SOL     OW 5926   3.416   1.339   2.329
 1676SOL    HW1 5927   3.320   1.340   2.356
 1676SOL    HW2 5928   3.471   1.386   2.398
 1677SOL     OW 5929   4.693   2.436   5.637
 1677SOL    HW1 5930   4.699   2.336   5.634
 1677SOL    HW2 5931   4.785   2.474   5.646
 1678SOL     OW 5932   5.254   4.622   4.499
 1678SOL    HW1 5933   5.162   4.590   4.480
 1678SOL    HW2 5934   5.320   4.548   4.486
 1679SOL     OW 5935   2.084   3.819   5.423
 1679SOL    HW1 5936   2.014   3.762   5.466
 1679SOL    HW2 5937   2.040   3.892   5.371
 1680SOL     OW 5938   1.425   1.639   4.101
 1680SOL    HW1 5939   1.478   1.630   4.016
 1680SOL    HW2 5940   1.389   1.732   4.108
 1681SOL     OW 5941   6.881   5.948   1.011
 1681SOL    HW1 5942   6.837   6.037   1.000
 1681SOL    HW2 5943   6.980   5.962   1.023
 1682SOL     OW 5944   0.147   3.046   4.641
 1682SOL    HW1 5945   0.181   3.127   4.687
 1682SOL    HW2 5946   0.048   3.041   4.650
 1683SOL     OW 5947   4.093   5.334   1.404
 1683SOL    HW1 5948   4.154   5.365   1.477
 1683SOL    HW2 5949   4.104   5.236   1.391
 1684SOL     OW 5950   1.054   6.494   2.986
 1684SOL    HW1 5951   1.091   6.420   2.931
 1684SOL    HW2 5952   0.996   6.457   3.058
 1685SOL     OW 5953   2.419   1.513   6.199
 1685SOL    HW1 5954   2.507   1.464   6.192
 1685SOL    HW2 5955   2.432   1.595   6.254
 1686SOL     OW 5956   2.377   5.216   5.672
 1686SOL    HW1 5957   2.323   5.184   5.750
 1686SOL    HW2 5958   2.345   5.306   5.644
 1687SOL     OW 5959   1.952   3.115   1.383
 1687SOL    HW1 5960   2.019   3.189   1.379
 1687SOL    HW2 5961   1.997   3.028   1.363
 1688SOL     OW 5962   1.805   1.997   3.497
 1688SOL    HW1 5963   1.858   2.078   3.473
 1688SOL    HW2 5964   1.802   1.935   3.419
 1689SOL     OW 5965   3.578   0.806   2.040
 1689SOL    HW1 5966   3.502   0.824   1.977
 1689SOL    HW2 5967   3.573   0.870   2.117
 1690SOL     OW 5968   1.156   2.939   3.106
 1690SOL    HW1 5969   1.228   2.928   3.174
 1690SOL    HW2 5970   1.090   2.864   3.113
 1691SOL     OW 5971   5.023   3.867   2.789
 1691SOL    HW1 5972   4.976   3.906   2.710
 1691SOL    HW2 5973   5.005   3.925   2.869
 1692SOL     OW 5974   6.416   6.748   1.462
 1692SOL    HW1 5975   6.354   6.822   1.440
 1692SOL    HW2 5976   6.455   6.711   1.377
 1693SOL     OW 5977   1.348   2.597   2.354
 1693SOL    HW1 5978   1.438   2.625   2.387
 1693SOL    HW2 5979   1.301   2.676   2.315
 1694SOL     OW 5980   4.492   6.626   4.136
 1694SOL    HW1 5981   4.412   6.657   4.188
 1694SOL    HW2 5982   4.486   6.527   4.124
 1695SOL     OW 5983   2.491   0.876   4.992
 1695SOL    HW1 5984   2.444   0.936   5.057
 1695SOL    HW2 5985   2.536   0.932   4.922
 1696SOL     OW 5986   5.318   5.539   0.911
 1696SOL    HW1 5987   5.340   5.471   0.981
 1696SOL    HW2 5988   5.393   5.605   0.905
 1697SOL     OW 5989   6.719   6.688   1.689
 1697SOL    HW1 5990   6.685   6.606   1.643
 1697SOL    HW2 5991   6.669   6.701   1.774
 1698SOL     OW 5992   4.380   1.231   0.727
 1698SOL    HW1 5993   4.476   1.208   0.742
 1698SOL    HW2 5994   4.343   1.271   0.810
 1699SOL     OW 5995   3.265   1.578   2.448
 1699SOL    HW1 5996   3.249   1.674   2.472
 1699SOL    HW2 5997   3.236   1.562   2.354
 1700SOL     OW 5998   6.553   2.574   3.673
 1700SOL    HW1 5999   6.555   2.673   3.662
 1700SOL    HW2 6000   6.641   2.543   3.708
 1701SOL     OW 6001   4.981   3.160   5.229
 1701SOL    HW1 6002   4.942   3.145   5.138
 1701SOL    HW2 6003   4.934   3.237   5.273
 1702SOL     OW 6004   6.744   3.634   0.512
 1702SOL    HW1 6005   6.819   3.588   0.463
 1702SOL    HW2 6006   6.781   3.710   0.564
 1703SOL     OW 6007   3.663   4.093   3.328
 1703SOL    HW1 6008   3.624   4.165   3.386
 1703SOL    HW2 6009   3.732   4.042   3.379
 1704SOL     OW 6010   0.694   1.492   1.198
 1704SOL    HW1 6011   0.624   1.537   1.143
 1704SOL    HW2 6012   0.711   1.400   1.163
 1705SOL     OW 6013   3.472   2.084   2.158
 1705SOL    HW1 6014   3.537   2.116   2.089
 1705SOL    HW2 6015   3.510   2.100   2.249
 1706SOL     OW 6016   4.100   6.309   1.035
 1706SOL    HW1 6017   4.092   6.408   1.022
 1706SOL    HW2 6018   4.142   6.291   1.124
 1707SOL     OW 6019   3.918   1.368   2.497
 1707SOL    HW1 6020   3.986   1.321   2.441
 1707SOL    HW2 6021   3.922   1.466   2.480
 1708SOL     OW 6022   5.703   5.667   2.526
 1708SOL    HW1 6023   5.645   5.634   2.452
 1708SOL    HW2 6024   5.703   5.601   2.601
 1709SOL     OW 6025   2.740   5.900   1.961
 1709SOL    HW1 6026   2.765   5.804   1.971
 1709SOL    HW2 6027   2.656   5.907   1.907
 1710SOL     OW 6028   6.069   4.707   3.676
 1710SOL    HW1 6029   6.085   4.611   3.653
 1710SOL    HW2 6030   5.973   4.721   3.699
 1711SOL     OW 6031   1.468   4.774   5.408
 1711SOL    HW1 6032   1.462   4.770   5.308
 1711SOL    HW2 6033   1.561   4.800   5.434
 1712SOL     OW 6034   0.443   3.375   6.342
 1712SOL    HW1 6035   0.504   3.343   6.270
 1712SOL    HW2 6036   0.357   3.407   6.301
 1713SOL     OW 6037   2.849   2.165   1.206
 1713SOL    HW1 6038   2.937   2.180   1.251
 1713SOL    HW2 6039   2.845   2.071   1.170
 1714SOL     OW 6040   4.001   1.633   6.205
 1714SOL    HW1 6041   4.002   1.549   6.149
 1714SOL    HW2 6042   4.094   1.665   6.219
 1715SOL     OW 6043   6.835   3.890   2.731
 1715SOL    HW1 6044   6.742   3.856   2.749
 1715SOL    HW2 6045   6.862   3.865   2.638
 1716SOL     OW 6046   5.470   6.595   1.757
 1716SOL    HW1 6047   5.419   6.539   1.693
 1716SOL    HW2 6048   5.487   6.543   1.841
 1717SOL     OW 6049   1.967   6.485   6.419
 1717SOL    HW1 6050   1.873   6.497   6.451
 1717SOL    HW2 6051   1.970   6.493   6.320
 1718SOL     OW 6052   1.768   1.985   0.742
 1718SOL    HW1 6053   1.691   2.012   0.799
 1718SOL    HW2 6054   1.850   1.976   0.799
 1719SOL     OW 6055   2.727   4.504   1.411
 1719SOL    HW1 6056   2.802   4.494   1.477
 1719SOL    HW2 6057   2.763   4.491   1.318
 1720SOL     OW 6058   6.592   1.346   1.482
 1720SOL    HW1 6059   6.522   1.282   1.512
 1720SOL    HW2 6060   6.633   1.313   1.397
 1721SOL     OW 6061   1.211   6.796   2.514
 1721SOL    HW1 6062   1.306   6.778   2.539
 1721SOL    HW2 6063   1.206   6.875   2.453
 1722SOL     OW 6064   5.087   1.179   3.745
 1722SOL    HW1 6065   5.058   1.267   3.709
 1722SOL    HW2 6066   5.153   1.194   3.819
 1723SOL     OW 6067   6.835   2.289   3.467
 1723SOL    HW1 6068   6.818   2.247   3.378
 1723SOL    HW2 6069   6.751   2.334   3.498
 1724SOL     OW 6070   5.913   1.357   0.603
 1724SOL    HW1 6071   5.923   1.398   0.693
 1724SOL    HW2 6072   5.846   1.283   0.607
 1725SOL     OW 6073   3.160   4.498   0.264
 1725SOL    HW1 6074   3.120   4.407   0.266
 1725SOL    HW2 6075   3.229   4.507   0.336
 1726SOL     OW 6076   0.121   4.813   5.489
 1726SOL    HW1 6077   0.060   4.885   5.457
 1726SOL    HW2 6078   0.129   4.819   5.588
 1727SOL     OW 6079   3.650   2.868   4.293
 1727SOL    HW1 6080   3.571   2.893   4.239
 1727SOL    HW2 6081   3.635   2.779   4.336
 1728SOL     OW 6082   5.225   4.899   4.836
 1728SOL    HW1 6083   5.164   4.820   4.832
 1728SOL    HW2 6084   5.213   4.945   4.925
 1729SOL     OW 6085   2.152   3.806   4.061
 1729SOL    HW1 6086   2.251   3.812   4.055
 1729SOL    HW2 6087   2.111   3.891   4.029
 1730SOL     OW 6088   6.507   0.879   4.809
 1730SOL    HW1 6089   6.527   0.809   4.878
 1730SOL    HW2 6090   6.546   0.966   4.839
 1731SOL     OW 6091   1.043   5.398   2.345
 1731SOL    HW1 6092   0.948   5.388   2.313
 1731SOL    HW2 6093   1.103   5.412   2.267
 1732SOL     OW 6094   2.640   4.313   5.941
 1732SOL    HW1 6095   2.542   4.318   5.962
 1732SOL    HW2 6096   2.687   4.392   5.980
 1733SOL     OW 6097   1.125   3.609   2.653
 1733SOL    HW1 6098   1.179   3.526   2.669
 1733SOL    HW2 6099   1.169   3.686   2.699
 1734SOL     OW 6100   4.787   2.977   1.633
 1734SOL    HW1 6101   4.756   2.996   1.727
 1734SOL    HW2 6102   4.797   2.878   1.620
 1735SOL     OW 6103   5.752   5.343   1.321
 1735SOL    HW1 6104   5.693   5.311   1.247
 1735SOL    HW2 6105   5.713   5.317   1.409
 1736SOL     OW 6106   4.823   1.380   0.175
 1736SOL    HW1 6107   4.753   1.322   0.134
 1736SOL    HW2 6108   4.843   1.348   0.267
 1737SOL     OW 6109   2.874   0.621   4.005
 1737SOL    HW1 6110   2.799   0.677   4.041
 1737SOL    HW2 6111   2.933   0.592   4.081
 1738SOL     OW 6112   2.286   2.243   3.602
 1738SOL    HW1 6113   2.188   2.220   3.604
 1738SOL    HW2 6114   2.324   2.228   3.693
 1739SOL     OW 6115   4.959   2.791   5.410
 1739SOL    HW1 6116   4.904   2.737   5.474
 1739SOL    HW2 6117   4.899   2.850   5.356
 1740SOL     OW 6118   0.154   1.718   6.619
 1740SOL    HW1 6119   0.187   1.696   6.711
 1740SOL    HW2 6120   0.055   1.710   6.616
 1741SOL     OW 6121   2.591   1.055   2.262
 1741SOL    HW1 6122   2.573   0.995   2.184
 1741SOL    HW2 6123   2.647   1.132   2.232
 1742SOL     OW 6124   4.399   6.269   5.646
 1742SOL    HW1 6125   4.479   6.329   5.641
 1742SOL    HW2 6126   4.324   6.317   5.692
 1743SOL     OW 6127   2.097   1.438   2.086
 1743SOL    HW1 6128   2.117   1.340   2.085
 1743SOL    HW2 6129   2.048   1.461   2.170
 1744SOL     OW 6130   0.672   6.955   1.886
 1744SOL    HW1 6131   0.732   0.005   1.850
 1744SOL    HW2 6132   0.592   6.945   1.826
 1745SOL     OW 6133   0.084   1.256   4.406
 1745SOL    HW1 6134   0.083   1.188   4.332
 1745SOL    HW2 6135   0.001   1.246   4.460
 1746SOL     OW 6136   1.860   5.780   5.815
 1746SOL    HW1 6137   1.819   5.690   5.803
 1746SOL    HW2 6138   1.867   5.800   5.913
 1747SOL     OW 6139   5.001   6.772   2.557
 1747SOL    HW1 6140   5.025   6.776   2.459
 1747SOL    HW2 6141   4.930   6.703   2.571
 1748SOL     OW 6142   0.011   0.304   3.705
 1748SOL    HW1 6143   0.044   0.398   3.706
 1748SOL    HW2 6144   7.012   0.275   3.798
 1749SOL     OW 6145   3.168   6.441   4.981
 1749SOL    HW1 6146   3.072   6.451   4.952
 1749SOL    HW2 6147   3.228   6.476   4.910
 1750SOL     OW 6148   5.500   1.106   3.637
 1750SOL    HW1 6149   5.419   1.136   3.586
 1750SOL    HW2 6150   5.500   1.006   3.644
 1751SOL     OW 6151   3.229   5.367   4.911
 1751SOL    HW1 6152   3.270   5.321   4.990
 1751SOL    HW2 6153   3.175   5.301   4.858
 1752SOL     OW 6154   6.571   2.329   2.236
 1752SOL    HW1 6155   6.654   2.274   2.231
 1752SOL    HW2 6156   6.542   2.338   2.331
 1753SOL     OW 6157   0.179   1.496   0.493
 1753SOL    HW1 6158   0.100   1.437   0.503
 1753SOL    HW2 6159   0.149   1.591   0.480
 1754SOL     OW 6160   3.373   3.104   1.460
 1754SOL    HW1 6161   3.297   3.071   1.517
 1754SOL    HW2 6162   3.393   3.199   1.485
 1755SOL     OW 6163   6.078   5.042   1.794
 1755SOL    HW1 6164   5.995   4.987   1.797
 1755SOL    HW2 6165   6.136   5.012   1.718
 1756SOL     OW 6166   4.226   4.485   5.789
 1756SOL    HW1 6167   4.145   4.456   5.839
 1756SOL    HW2 6168   4.219   4.455   5.694
 1757SOL     OW 6169   2.318   5.932   4.526
 1757SOL    HW1 6170   2.262   5.882   4.460
 1757SOL    HW2 6171   2.383   5.869   4.569
 1758SOL     OW 6172   2.719   0.410   3.362
 1758SOL    HW1 6173   2.778   0.414   3.282
 1758SOL    HW2 6174   2.624   0.396   3.333
 1759SOL     OW 6175   1.081   5.201   6.443
 1759SOL    HW1 6176   1.056   5.104   6.448
 1759SOL    HW2 6177   1.035   5.243   6.366
 1760SOL     OW 6178   6.183   1.565   1.827
 1760SOL    HW1 6179   6.197   1.481   1.773
 1760SOL    HW2 6180   6.270   1.596   1.864
 1761SOL     OW 6181   0.007   0.015   0.389
 1761SOL    HW1 6182   0.016   0.039   0.292
 1761SOL    HW2 6183   0.098   7.019   0.427
 1762SOL     OW 6184   5.880   1.214   5.174
 1762SOL    HW1 6185   5.851   1.306   5.200
 1762SOL    HW2 6186   5.978   1.203   5.194
 1763SOL     OW 6187   1.624   3.941   4.766
 1763SOL    HW1 6188   1.705   3.905   4.720
 1763SOL    HW2 6189   1.547   3.941   4.701
 1764SOL     OW 6190   1.693   4.068   3.090
 1764SOL    HW1 6191   1.747   4.081   3.007
 1764SOL    HW2 6192   1.598   4.050   3.066
 1765SOL     OW 6193   3.536   2.148   0.037
 1765SOL    HW1 6194   3.504   2.217   0.102
 1765SOL    HW2 6195   3.547   2.060   0.083
 1766SOL     OW 6196   5.092   2.736   4.482
 1766SOL    HW1 6197   5.158   2.777   4.419
 1766SOL    HW2 6198   4.999   2.753   4.448
 1767SOL     OW 6199   5.605   3.787   2.692
 1767SOL    HW1 6200   5.574   3.726   2.619
 1767SOL    HW2 6201   5.632   3.875   2.653
 1768SOL     OW 6202   3.757   1.203   4.775
 1768SOL    HW1 6203   3.838   1.261   4.764
 1768SOL    HW2 6204   3.695   1.244   4.841
 1769SOL     OW 6205   4.449   2.460   4.908
 1769SOL    HW1 6206   4.369   2.497   4.956
 1769SOL    HW2 6207   4.419   2.390   4.843
 1770SOL     OW 6208   1.252   5.812   4.662
 1770SOL    HW1 6209   1.272   5.789   4.757
 1770SOL    HW2 6210   1.235   5.910   4.654
 1771SOL     OW 6211   2.925   5.090   6.891
 1771SOL    HW1 6212   2.896   5.020   6.825
 1771SOL    HW2 6213   2.874   5.078   6.976
 1772SOL     OW 6214   3.334   6.382   3.653
 1772SOL    HW1 6215   3.294   6.419   3.737
 1772SOL    HW2 6216   3.402   6.446   3.617
 1773SOL     OW 6217   2.626   5.161   5.822
 1773SOL    HW1 6218   2.720   5.194   5.830
 1773SOL    HW2 6219   2.583   5.202   5.741
 1774SOL     OW 6220   4.382   6.230   1.450
 1774SOL    HW1 6221   4.437   6.305   1.487
 1774SOL    HW2 6222   4.365   6.245   1.353
 1775SOL     OW 6223   1.579   4.345   4.209
 1775SOL    HW1 6224   1.485   4.314   4.192
 1775SOL    HW2 6225   1.608   4.315   4.300
 1776SOL     OW 6226   3.053   0.333   3.856
 1776SOL    HW1 6227   3.032   0.270   3.782
 1776SOL    HW2 6228   3.152   0.338   3.869
 1777SOL     OW 6229   3.291   5.048   5.818
 1777SOL    HW1 6230   3.292   5.001   5.729
 1777SOL    HW2 6231   3.296   5.147   5.804
 1778SOL     OW 6232   4.355   3.442   5.250
 1778SOL    HW1 6233   4.302   3.465   5.168
 1778SOL    HW2 6234   4.452   3.458   5.233
 1779SOL     OW 6235   4.072   1.013   4.448
 1779SOL    HW1 6236   4.080   0.948   4.372
 1779SOL    HW2 6237   4.118   0.976   4.529
 1780SOL     OW 6238   3.252   2.874   6.695
 1780SOL    HW1 6239   3.213   2.900   6.607
 1780SOL    HW2 6240   3.346   2.907   6.701
 1781SOL     OW 6241   4.662   5.740   4.044
 1781SOL    HW1 6242   4.657   5.736   3.944
 1781SOL    HW2 6243   4.635   5.831   4.075
 1782SOL     OW 6244   3.503   2.085   2.983
 1782SOL    HW1 6245   3.590   2.134   2.993
 1782SOL    HW2 6246   3.520   1.994   2.945
 1783SOL     OW 6247   1.248   4.979   6.119
 1783SOL    HW1 6248   1.238   4.886   6.085
 1783SOL    HW2 6249   1.307   4.980   6.199
 1784SOL     OW 6250   3.609   0.978   5.953
 1784SOL    HW1 6251   3.632   0.912   5.882
 1784SOL    HW2 6252   3.688   1.038   5.969
 1785SOL     OW 6253   6.423   4.394   3.173
 1785SOL    HW1 6254   6.422   4.455   3.252
 1785SOL    HW2 6255   6.374   4.309   3.196
 1786SOL     OW 6256   1.561   2.239   0.645
 1786SOL    HW1 6257   1.519   2.197   0.564
 1786SOL    HW2 6258   1.521   2.329   0.659
 1787SOL     OW 6259   2.678   0.694   4.841
 1787SOL    HW1 6260   2.751   0.688   4.773
 1787SOL    HW2 6261   2.627   0.779   4.829
 1788SOL     OW 6262   3.346   3.067   0.732
 1788SOL    HW1 6263   3.399   3.115   0.802
 1788SOL    HW2 6264   3.408   3.027   0.664
 1789SOL     OW 6265   6.243   2.462   3.396
 1789SOL    HW1 6266   6.147   2.464   3.425
 1789SOL    HW2 6267   6.291   2.388   3.444
 1790SOL     OW 6268   4.093   6.097   4.291
 1790SOL    HW1 6269   4.125   6.163   4.223
 1790SOL    HW2 6270   4.033   6.142   4.357
 1791SOL     OW 6271   6.306   0.804   3.607
 1791SOL    HW1 6272   6.214   0.775   3.582
 1791SOL    HW2 6273   6.314   0.903   3.594
 1792SOL     OW 6274   0.075   2.905   4.986
 1792SOL    HW1 6275   0.075   2.975   4.915
 1792SOL    HW2 6276   0.162   2.907   5.035
 1793SOL     OW 6277   0.092   6.626   3.669
 1793SOL    HW1 6278   0.009   6.678   3.690
 1793SOL    HW2 6279   0.173   6.680   3.692
 1794SOL     OW 6280   5.607   6.257   6.213
 1794SOL    HW1 6281   5.540   6.194   6.173
 1794SOL    HW2 6282   5.586   6.270   6.310
 1795SOL     OW 6283   1.356   2.680   0.729
 1795SOL    HW1 6284   1.410   2.686   0.813
 1795SOL    HW2 6285   1.410   2.714   0.652
 1796SOL     OW 6286   2.323   0.672   4.198
 1796SOL    HW1 6287   2.246   0.686   4.136
 1796SOL    HW2 6288   2.409   0.672   4.146
 1797SOL     OW 6289   1.693   0.060   6.864
 1797SOL    HW1 6290   1.621   7.019   6.891
 1797SOL    HW2 6291   1.778   0.009   6.849
 1798SOL     OW 6292   5.433   2.392   4.200
 1798SOL    HW1 6293   5.476   2.475   4.163
 1798SOL    HW2 6294   5.445   2.317   4.136
 1799SOL     OW 6295   6.651   1.625   6.012
 1799SOL    HW1 6296   6.722   1.661   5.952
 1799SOL    HW2 6297   6.683   1.623   6.106
 1800SOL     OW 6298   4.038   4.928   1.940
 1800SOL    HW1 6299   3.968   4.896   2.003
 1800SOL    HW2 6300   4.089   5.003   1.982
 1801SOL     OW 6301   0.219   0.568   2.234
 1801SOL    HW1 6302   0.180   0.638   2.294
 1801SOL    HW2 6303   0.147   0.505   2.205
 1802SOL     OW 6304   5.508   5.407   3.167
 1802SOL    HW1 6305   5.434   5.341   3.175
 1802SOL    HW2 6306   5.472   5.495   3.135
 1803SOL     OW 6307   0.863   6.228   6.919
 1803SOL    HW1 6308   0.831   6.154   6.978
 1803SOL    HW2 6309   0.856   6.199   6.823
 1804SOL     OW 6310   2.672   3.842   5.370
 1804SOL    HW1 6311   2.638   3.762   5.420
 1804SOL    HW2 6312   2.595   3.899   5.342
 1805SOL     OW 6313   6.264   3.973   5.630
 1805SOL    HW1 6314   6.172   4.012   5.626
 1805SOL    HW2 6315   6.298   3.961   5.537
 1806SOL     OW 6316   0.477   0.655   0.296
 1806SOL    HW1 6317   0.511   0.568   0.260
 1806SOL    HW2 6318   0.503   0.665   0.392
 1807SOL     OW 6319   5.178   2.581   5.689
 1807SOL    HW1 6320   5.185   2.565   5.591
 1807SOL    HW2 6321   5.200   2.677   5.709
 1808SOL     OW 6322   0.760   4.116   6.488
 1808SOL    HW1 6323   0.856   4.123   6.515
 1808SOL    HW2 6324   0.739   4.022   6.462
 1809SOL     OW 6325   2.254   2.370   4.520
 1809SOL    HW1 6326   2.155   2.373   4.508
 1809SOL    HW2 6327   2.279   2.290   4.575
 1810SOL     OW 6328   3.240   6.930   3.515
 1810SOL    HW1 6329   3.339   6.914   3.514
 1810SOL    HW2 6330   3.208   6.947   3.421
 1811SOL     OW 6331   5.750   5.132   3.234
 1811SOL    HW1 6332   5.660   5.128   3.278
 1811SOL    HW2 6333   5.788   5.040   3.227
 1812SOL     OW 6334   4.504   6.408   5.081
 1812SOL    HW1 6335   4.534   6.486   5.137
 1812SOL    HW2 6336   4.577   6.340   5.079
 1813SOL     OW 6337   6.710   5.518   1.263
 1813SOL    HW1 6338   6.774   5.452   1.303
 1813SOL    HW2 6339   6.758   5.573   1.195
 1814SOL     OW 6340   6.019   1.110   0.803
 1814SOL    HW1 6341   6.057   1.202   0.814
 1814SOL    HW2 6342   6.019   1.064   0.891
 1815SOL     OW 6343   7.013   1.894   2.374
 1815SOL    HW1 6344   6.979   1.800   2.368
 1815SOL    HW2 6345   0.066   1.899   2.440
 1816SOL     OW 6346   2.745   3.519   0.933
 1816SOL    HW1 6347   2.712   3.549   1.022
 1816SOL    HW2 6348   2.831   3.565   0.912
 1817SOL     OW 6349   3.432   6.953   2.670
 1817SOL    HW1 6350   3.462   0.008   2.614
 1817SOL    HW2 6351   3.452   6.972   2.766
 1818SOL     OW 6352   1.643   6.720   2.814
 1818SOL    HW1 6353   1.695   6.647   2.858
 1818SOL    HW2 6354   1.608   6.688   2.726
 1819SOL     OW 6355   1.351   4.932   1.662
 1819SOL    HW1 6356   1.276   4.931   1.595
 1819SOL    HW2 6357   1.398   4.844   1.660
 1820SOL     OW 6358   4.712   0.635   2.354
 1820SOL    HW1 6359   4.691   0.642   2.256
 1820SOL    HW2 6360   4.768   0.714   2.382
 1821SOL     OW 6361   0.741   0.861   2.193
 1821SOL    HW1 6362   0.838   0.875   2.214
 1821SOL    HW2 6363   0.730   0.841   2.096
 1822SOL     OW 6364   2.652   3.087   1.099
 1822SOL    HW1 6365   2.684   3.148   1.026
 1822SOL    HW2 6366   2.562   3.050   1.073
 1823SOL     OW 6367   3.097   5.657   2.762
 1823SOL    HW1 6368   3.054   5.567   2.756
 1823SOL    HW2 6369   3.196   5.646   2.769
 1824SOL     OW 6370   3.331   2.487   1.514
 1824SOL    HW1 6371   3.381   2.425   1.574
 1824SOL    HW2 6372   3.395   2.555   1.476
 1825SOL     OW 6373   1.642   1.673   2.777
 1825SOL    HW1 6374   1.581   1.641   2.850
 1825SOL    HW2 6375   1.602   1.651   2.688
 1826SOL     OW 6376   3.486   0.290   1.377
 1826SOL    HW1 6377   3.389   0.287   1.352
 1826SOL    HW2 6378   3.528   0.372   1.338
 1827SOL     OW 6379   0.112   5.134   2.638
 1827SOL    HW1 6380   0.027   5.170   2.600
 1827SOL    HW2 6381   0.145   5.059   2.582
 1828SOL     OW 6382   0.866   2.128   0.619
 1828SOL    HW1 6383   0.925   2.102   0.543
 1828SOL    HW2 6384   0.777   2.084   0.609
 1829SOL     OW 6385   3.798   0.333   3.653
 1829SOL    HW1 6386   3.829   0.400   3.721
 1829SOL    HW2 6387   3.874   0.306   3.595
 1830SOL     OW 6388   5.896   5.849   3.870
 1830SOL    HW1 6389   5.948   5.765   3.861
 1830SOL    HW2 6390   5.951   5.926   3.837
 1831SOL     OW 6391   5.992   0.597   2.333
 1831SOL    HW1 6392   6.069   0.653   2.363
 1831SOL    HW2 6393   5.929   0.652   2.279
 1832SOL     OW 6394   5.145   1.295   1.051
 1832SOL    HW1 6395   5.118   1.199   1.063
 1832SOL    HW2 6396   5.147   1.340   1.141
 1833SOL     OW 6397   5.412   0.624   5.295
 1833SOL    HW1 6398   5.491   0.596   5.350
 1833SOL    HW2 6399   5.391   0.553   5.229
 1834SOL     OW 6400   2.812   3.900   0.201
 1834SOL    HW1 6401   2.723   3.874   0.238
 1834SOL    HW2 6402   2.884   3.862   0.258
 1835SOL     OW 6403   1.388   4.334   1.281
 1835SOL    HW1 6404   1.429   4.384   1.204
 1835SOL    HW2 6405   1.401   4.235   1.267
 1836SOL     OW 6406   5.332   1.287   1.394
 1836SOL    HW1 6407   5.264   1.348   1.352
 1836SOL    HW2 6408   5.354   1.321   1.485
 1837SOL     OW 6409   0.758   2.350   4.348
 1837SOL    HW1 6410   0.824   2.275   4.337
 1837SOL    HW2 6411   0.804   2.430   4.386
 1838SOL     OW 6412   6.990   2.110   4.161
 1838SOL    HW1 6413   6.937   2.184   4.202
 1838SOL    HW2 6414   6.991   2.032   4.224
 1839SOL     OW 6415   4.734   2.944   4.978
 1839SOL    HW1 6416   4.641   2.917   4.951
 1839SOL    HW2 6417   4.800   2.907   4.912
 1840SOL     OW 6418   3.766   5.774   1.525
 1840SOL    HW1 6419   3.724   5.693   1.485
 1840SOL    HW2 6420   3.865   5.773   1.508
 1841SOL     OW 6421   2.421   2.279   4.275
 1841SOL    HW1 6422   2.451   2.359   4.223
 1841SOL    HW2 6423   2.417   2.303   4.372
 1842SOL     OW 6424   0.939   5.599   0.726
 1842SOL    HW1 6425   0.956   5.671   0.793
 1842SOL    HW2 6426   0.918   5.514   0.774
 1843SOL     OW 6427   0.506   1.771   4.544
 1843SOL    HW1 6428   0.450   1.831   4.601
 1843SOL    HW2 6429   0.525   1.686   4.594
 1844SOL     OW 6430   3.603   0.909   5.577
 1844SOL    HW1 6431   3.628   0.995   5.621
 1844SOL    HW2 6432   3.651   0.833   5.622
 1845SOL     OW 6433   2.217   6.503   5.036
 1845SOL    HW1 6434   2.193   6.537   4.945
 1845SOL    HW2 6435   2.252   6.578   5.092
 1846SOL     OW 6436   4.273   2.058   0.644
 1846SOL    HW1 6437   4.354   2.008   0.673
 1846SOL    HW2 6438   4.263   2.140   0.701
 1847SOL     OW 6439   1.438   0.451   6.158
 1847SOL    HW1 6440   1.471   0.427   6.249
 1847SOL    HW2 6441   1.512   0.442   6.092
 1848SOL     OW 6442   0.624   6.965   2.476
 1848SOL    HW1 6443   0.612   6.887   2.537
 1848SOL    HW2 6444   0.549   6.967   2.410
 1849SOL     OW 6445   3.496   1.859   0.575
 1849SOL    HW1 6446   3.495   1.943   0.521
 1849SOL    HW2 6447   3.589   1.824   0.581
 1850SOL     OW 6448   6.759   2.895   2.311
 1850SOL    HW1 6449   6.685   2.900   2.245
 1850SOL    HW2 6450   6.837   2.949   2.279
 1851SOL     OW 6451   0.902   1.849   1.380
 1851SOL    HW1 6452   0.860   1.912   1.314
 1851SOL    HW2 6453   0.991   1.819   1.345
 1852SOL     OW 6454   5.593   3.358   1.753
 1852SOL    HW1 6455   5.653   3.420   1.804
 1852SOL    HW2 6456   5.595   3.267   1.796
 1853SOL     OW 6457   0.446   2.963   2.771
 1853SOL    HW1 6458   0.520   2.983   2.707
 1853SOL    HW2 6459   0.363   3.011   2.741
 1854SOL     OW 6460   2.664   6.170   3.002
 1854SOL    HW1 6461   2.687   6.133   2.912
 1854SOL    HW2 6462   2.589   6.117   3.041
 1855SOL     OW 6463   4.541   4.204   6.994
 1855SOL    HW1 6464   4.568   4.284   0.027
 1855SOL    HW2 6465   4.605   4.129   7.011
 1856SOL     OW 6466   6.478   3.802   5.143
 1856SOL    HW1 6467   6.487   3.750   5.058
 1856SOL    HW2 6468   6.569   3.820   5.180
 1857SOL     OW 6469   3.514   0.541   6.225
 1857SOL    HW1 6470   3.448   0.615   6.213
 1857SOL    HW2 6471   3.501   0.500   6.316
 1858SOL     OW 6472   5.756   2.801   3.902
 1858SOL    HW1 6473   5.774   2.859   3.982
 1858SOL    HW2 6474   5.715   2.855   3.830
 1859SOL     OW 6475   4.437   1.364   3.309
 1859SOL    HW1 6476   4.470   1.332   3.221
 1859SOL    HW2 6477   4.346   1.405   3.298
 1860SOL     OW 6478   6.444   0.443   3.611
 1860SOL    HW1 6479   6.514   0.504   3.574
 1860SOL    HW2 6480   6.434   0.363   3.552
 1861SOL     OW 6481   5.416   6.933   2.594
 1861SOL    HW1 6482   5.377   6.882   2.671
 1861SOL    HW2 6483   5.371   7.022   2.587
 1862SOL     OW 6484   2.402   0.406   6.278
 1862SOL    HW1 6485   2.338   0.483   6.278
 1862SOL    HW2 6486   2.495   0.439   6.291
 1863SOL     OW 6487   2.001   1.701   0.069
 1863SOL    HW1 6488   1.904   1.724   0.068
 1863SOL    HW2 6489   2.017   1.629   0.137
 1864SOL     OW 6490   0.782   6.824   5.854
 1864SOL    HW1 6491   0.881   6.820   5.842
 1864SOL    HW2 6492   0.756   6.913   5.890
 1865SOL     OW 6493   3.622   0.090   5.906
 1865SOL    HW1 6494   3.587   0.175   5.866
 1865SOL    HW2 6495   3.547   0.025   5.917
 1866SOL     OW 6496   4.667   4.923   3.166
 1866SOL    HW1 6497   4.673   4.825   3.149
 1866SOL    HW2 6498   4.758   4.964   3.157
 1867SOL     OW 6499   0.922   4.399   0.098
 1867SOL    HW1 6500   0.825   4.391   0.076
 1867SOL    HW2 6501   0.973   4.326   0.052
 1868SOL     OW 6502   5.098   3.802   0.610
 1868SOL    HW1 6503   5.075   3.710   0.578
 1868SOL    HW2 6504   5.192   3.823   0.586
 1869SOL     OW 6505   6.350   2.613   5.815
 1869SOL    HW1 6506   6.328   2.698   5.864
 1869SOL    HW2 6507   6.274   2.589   5.755
 1870SOL     OW 6508   1.863   2.937   5.680
 1870SOL    HW1 6509   1.949   2.984   5.659
 1870SOL    HW2 6510   1.800   2.947   5.603
 1871SOL     OW 6511   0.252   0.762   6.376
 1871SOL    HW1 6512   0.322   0.827   6.347
 1871SOL    HW2 6513   0.286   0.668   6.362
 1872SOL     OW 6514   3.766   3.044   0.350
 1872SOL    HW1 6515   3.698   3.026   0.279
 1872SOL    HW2 6516   3.852   2.998   0.326
 1873SOL     OW 6517   4.672   1.468   5.590
 1873SOL    HW1 6518   4.685   1.563   5.620
 1873SOL    HW2 6519   4.740   1.409   5.634
 1874SOL     OW 6520   3.313   1.226   1.111
 1874SOL    HW1 6521   3.357   1.299   1.163
 1874SOL    HW2 6522   3.345   1.138   1.145
 1875SOL     OW 6523   0.366   1.386   0.306
 1875SOL    HW1 6524   0.332   1.308   0.254
 1875SOL    HW2 6525   0.290   1.428   0.355
 1876SOL     OW 6526   3.859   6.993   5.815
 1876SOL    HW1 6527   3.760   7.002   5.822
 1876SOL    HW2 6528   3.892   0.025   5.737
 1877SOL     OW 6529   0.384   0.507   2.933
 1877SOL    HW1 6530   0.370   0.548   2.843
 1877SOL    HW2 6531   0.477   0.470   2.940
 1878SOL     OW 6532   6.653   1.885   3.682
 1878SOL    HW1 6533   6.646   1.925   3.591
 1878SOL    HW2 6534   6.743   1.843   3.694
 1879SOL     OW 6535   1.127   4.362   4.299
 1879SOL    HW1 6536   1.140   4.453   4.260
 1879SOL    HW2 6537   1.206   4.305   4.276
 1880SOL     OW 6538   6.944   1.694   4.718
 1880SOL    HW1 6539   6.979   1.768   4.775
 1880SOL    HW2 6540   7.018   1.655   4.664
 1881SOL     OW 6541   5.717   1.674   2.998
 1881SOL    HW1 6542   5.675   1.640   2.914
 1881SOL    HW2 6543   5.705   1.773   3.004
 1882SOL     OW 6544   1.655   3.999   6.274
 1882SOL    HW1 6545   1.734   3.982   6.215
 1882SOL    HW2 6546   1.582   3.933   6.252
 1883SOL     OW 6547   6.558   2.008   3.423
 1883SOL    HW1 6548   6.484   1.942   3.411
 1883SOL    HW2 6549   6.614   2.012   3.340
 1884SOL     OW 6550   0.086   1.763   0.524
 1884SOL    HW1 6551   0.099   1.862   0.526
 1884SOL    HW2 6552   0.043   1.734   0.610
 1885SOL     OW 6553   1.890   1.979   6.019
 1885SOL    HW1 6554   1.850   1.942   6.103
 1885SOL    HW2 6555   1.903   2.078   6.030
 1886SOL     OW 6556   1.361   0.350   1.644
 1886SOL    HW1 6557   1.383   0.415   1.717
 1886SOL    HW2 6558   1.298   0.393   1.580
 1887SOL     OW 6559   0.901   5.226   5.330
 1887SOL    HW1 6560   0.930   5.304   5.386
 1887SOL    HW2 6561   0.827   5.178   5.377
 1888SOL     OW 6562   2.997   2.309   6.681
 1888SOL    HW1 6563   2.899   2.291   6.692
 1888SOL    HW2 6564   3.021   2.392   6.730
 1889SOL     OW 6565   0.548   3.383   5.486
 1889SOL    HW1 6566   0.497   3.349   5.407
 1889SOL    HW2 6567   0.542   3.483   5.488
 1890SOL     OW 6568   1.565   5.736   3.817
 1890SOL    HW1 6569   1.648   5.747   3.872
 1890SOL    HW2 6570   1.590   5.733   3.720
 1891SOL     OW 6571   5.172   2.526   2.273
 1891SOL    HW1 6572   5.114   2.594   2.228
 1891SOL    HW2 6573   5.118   2.445   2.296
 1892SOL     OW 6574   1.498   0.623   2.400
 1892SOL    HW1 6575   1.402   0.645   2.415
 1892SOL    HW2 6576   1.553   0.706   2.409
 1893SOL     OW 6577   3.251   3.923   1.628
 1893SOL    HW1 6578   3.270   3.831   1.661
 1893SOL    HW2 6579   3.252   3.924   1.528
 1894SOL     OW 6580   3.679   4.081   3.864
 1894SOL    HW1 6581   3.752   4.012   3.863
 1894SOL    HW2 6582   3.703   4.154   3.927
 1895SOL     OW 6583   4.500   0.296   1.235
 1895SOL    HW1 6584   4.472   0.323   1.143
 1895SOL    HW2 6585   4.599   0.287   1.239
 1896SOL     OW 6586   5.420   1.420   1.650
 1896SOL    HW1 6587   5.356   1.495   1.663
 1896SOL    HW2 6588   5.388   1.339   1.698
 1897SOL     OW 6589   2.287   5.290   1.488
 1897SOL    HW1 6590   2.233   5.227   1.544
 1897SOL    HW2 6591   2.290   5.257   1.394
 1898SOL     OW 6592   2.146   5.168   3.840
 1898SOL    HW1 6593   2.146   5.166   3.940
 1898SOL    HW2 6594   2.119   5.079   3.804
 1899SOL     OW 6595   0.580   1.340   1.396
 1899SOL    HW1 6596   0.563   1.254   1.347
 1899SOL    HW2 6597   0.637   1.399   1.340
 1900SOL     OW 6598   2.227   0.738   6.826
 1900SOL    HW1 6599   2.175   0.808   6.875
 1900SOL    HW2 6600   2.310   0.778   6.788
 1901SOL     OW 6601   1.632   1.965   0.490
 1901SOL    HW1 6602   1.665   2.052   0.454
 1901SOL    HW2 6603   1.658   1.956   0.586
 1902SOL     OW 6604   2.202   0.549   5.080
 1902SOL    HW1 6605   2.128   0.533   5.144
 1902SOL    HW2 6606   2.167   0.592   4.997
 1903SOL     OW 6607   0.268   3.520   3.170
 1903SOL    HW1 6608   0.361   3.554   3.183
 1903SOL    HW2 6609   0.248   3.453   3.242
 1904SOL     OW 6610   6.208   5.383   3.893
 1904SOL    HW1 6611   6.120   5.335   3.903
 1904SOL    HW2 6612   6.227   5.398   3.796
 1905SOL     OW 6613   0.851   0.040   3.322
 1905SOL    HW1 6614   0.941   0.015   3.286
 1905SOL    HW2 6615   0.782   7.002   3.283
 1906SOL     OW 6616   2.366   0.174   4.976
 1906SOL    HW1 6617   2.461   0.200   4.958
 1906SOL    HW2 6618   2.327   0.131   4.895
 1907SOL     OW 6619   4.377   1.864   1.891
 1907SOL    HW1 6620   4.407   1.932   1.825
 1907SOL    HW2 6621   4.350   1.909   1.977
 1908SOL     OW 6622   3.877   6.273   5.758
 1908SOL    HW1 6623   3.913   6.217   5.833
 1908SOL    HW2 6624   3.790   6.234   5.726
 1909SOL     OW 6625   0.862   3.410   3.508
 1909SOL    HW1 6626   0.954   3.451   3.510
 1909SOL    HW2 6627   0.840   3.376   3.600
 1910SOL     OW 6628   0.145   5.321   5.992
 1910SOL    HW1 6629   0.235   5.364   5.988
 1910SOL    HW2 6630   0.075   5.388   5.965
 1911SOL     OW 6631   6.949   3.608   4.602
 1911SOL    HW1 6632   0.009   3.626   4.547
 1911SOL    HW2 6633   6.868   3.625   4.546
 1912SOL     OW 6634   2.967   6.167   1.373
 1912SOL    HW1 6635   2.943   6.072   1.392
 1912SOL    HW2 6636   3.057   6.187   1.410
 1913SOL     OW 6637   2.854   0.631   4.572
 1913SOL    HW1 6638   2.893   0.703   4.629
 1913SOL    HW2 6639   2.857   0.544   4.622
 1914SOL     OW 6640   3.687   2.988   6.498
 1914SOL    HW1 6641   3.692   2.914   6.431
 1914SOL    HW2 6642   3.779   3.021   6.518
 1915SOL     OW 6643   3.915   2.613   5.649
 1915SOL    HW1 6644   3.834   2.665   5.676
 1915SOL    HW2 6645   3.957   2.656   5.569
 1916SOL     OW 6646   4.021   5.729   1.422
 1916SOL    HW1 6647   4.039   5.657   1.355
 1916SOL    HW2 6648   4.032   5.819   1.379
 1917SOL     OW 6649   2.238   3.291   0.011
 1917SOL    HW1 6650   2.334   3.300   7.009
 1917SOL    HW2 6651   2.228   3.287   0.111
 1918SOL     OW 6652   1.482   1.384   4.609
 1918SOL    HW1 6653   1.554   1.383   4.540
 1918SOL    HW2 6654   1.395   1.358   4.566
 1919SOL     OW 6655   1.628   1.536   1.606
 1919SOL    HW1 6656   1.675   1.603   1.549
 1919SOL    HW2 6657   1.639   1.445   1.566
 1920SOL     OW 6658   6.575   4.050   3.209
 1920SOL    HW1 6659   6.606   4.145   3.210
 1920SOL    HW2 6660   6.520   4.033   3.127
 1921SOL     OW 6661   1.996   3.371   6.995
 1921SOL    HW1 6662   2.092   3.345   7.011
 1921SOL    HW2 6663   1.977   3.369   6.897
 1922SOL     OW 6664   2.836   3.538   1.922
 1922SOL    HW1 6665   2.842   3.636   1.938
 1922SOL    HW2 6666   2.787   3.520   1.837
 1923SOL     OW 6667   4.027   1.781   6.556
 1923SOL    HW1 6668   3.957   1.709   6.552
 1923SOL    HW2 6669   4.006   1.851   6.488
 1924SOL     OW 6670   4.562   6.641   0.399
 1924SOL    HW1 6671   4.485   6.584   0.370
 1924SOL    HW2 6672   4.574   6.716   0.334
 1925SOL     OW 6673   1.263   4.989   1.079
 1925SOL    HW1 6674   1.311   4.901   1.074
 1925SOL    HW2 6675   1.310   5.055   1.021
 1926SOL     OW 6676   3.251   0.062   2.301
 1926SOL    HW1 6677   3.159   0.043   2.267
 1926SOL    HW2 6678   3.263   0.161   2.311
 1927SOL     OW 6679   2.448   4.712   0.127
 1927SOL    HW1 6680   2.461   4.689   0.223
 1927SOL    HW2 6681   2.534   4.743   0.087
 1928SOL     OW 6682   5.701   4.066   4.962
 1928SOL    HW1 6683   5.630   4.067   4.892
 1928SOL    HW2 6684   5.791   4.061   4.919
 1929SOL     OW 6685   2.434   0.648   1.621
 1929SOL    HW1 6686   2.401   0.678   1.531
 1929SOL    HW2 6687   2.367   0.673   1.691
 1930SOL     OW 6688   5.296   3.621   6.716
 1930SOL    HW1 6689   5.291   3.666   6.627
 1930SOL    HW2 6690   5.214   3.642   6.769
 1931SOL     OW 6691   0.867   1.736   0.276
 1931SOL    HW1 6692   0.857   1.812   0.211
 1931SOL    HW2 6693   0.777   1.696   0.294
 1932SOL     OW 6694   4.654   2.689   3.471
 1932SOL    HW1 6695   4.704   2.602   3.461
 1932SOL    HW2 6696   4.579   2.676   3.536
 1933SOL     OW 6697   1.088   2.693   0.434
 1933SOL    HW1 6698   1.095   2.653   0.525
 1933SOL    HW2 6699   0.995   2.682   0.399
 1934SOL     OW 6700   6.965   1.208   4.892
 1934SOL    HW1 6701   6.981   1.232   4.988
 1934SOL    HW2 6702   6.896   1.270   4.853
 1935SOL     OW 6703   4.269   4.650   3.846
 1935SOL    HW1 6704   4.346   4.623   3.903
 1935SOL    HW2 6705   4.303   4.678   3.756
 1936SOL     OW 6706   4.890   3.702   3.778
 1936SOL    HW1 6707   4.904   3.637   3.704
 1936SOL    HW2 6708   4.872   3.793   3.739
 1937SOL     OW 6709   4.355   6.296   0.015
 1937SOL    HW1 6710   4.405   6.336   6.960
 1937SOL    HW2 6711   4.277   6.354   0.038
 1938SOL     OW 6712   1.542   2.131   1.223
 1938SOL    HW1 6713   1.523   2.097   1.315
 1938SOL    HW2 6714   1.588   2.220   1.230
 1939SOL     OW 6715   6.716   6.624   4.373
 1939SOL    HW1 6716   6.696   6.676   4.456
 1939SOL    HW2 6717   6.816   6.616   4.362
 1940SOL     OW 6718   6.318   4.297   1.161
 1940SOL    HW1 6719   6.279   4.385   1.134
 1940SOL    HW2 6720   6.251   4.225   1.143
 1941SOL     OW 6721   1.625   2.724   3.814
 1941SOL    HW1 6722   1.596   2.784   3.889
 1941SOL    HW2 6723   1.592   2.761   3.728
 1942SOL     OW 6724   5.388   3.249   2.715
 1942SOL    HW1 6725   5.460   3.195   2.757
 1942SOL    HW2 6726   5.376   3.221   2.620
 1943SOL     OW 6727   1.080   0.859   2.480
 1943SOL    HW1 6728   1.113   0.789   2.417
 1943SOL    HW2 6729   1.066   0.819   2.570
 1944SOL     OW 6730   6.124   4.276   0.251
 1944SOL    HW1 6731   6.148   4.374   0.253
 1944SOL    HW2 6732   6.028   4.266   0.227
 1945SOL     OW 6733   3.651   5.963   0.468
 1945SOL    HW1 6734   3.686   5.931   0.557
 1945SOL    HW2 6735   3.621   6.058   0.477
 1946SOL     OW 6736   5.889   6.705   1.397
 1946SOL    HW1 6737   5.884   6.610   1.369
 1946SOL    HW2 6738   5.842   6.763   1.330
 1947SOL     OW 6739   5.851   5.565   4.189
 1947SOL    HW1 6740   5.840   5.531   4.095
 1947SOL    HW2 6741   5.844   5.665   4.189
 1948SOL     OW 6742   5.794   5.393   2.518
 1948SOL    HW1 6743   5.842   5.402   2.431
 1948SOL    HW2 6744   5.856   5.416   2.593
 1949SOL     OW 6745   4.182   3.611   0.180
 1949SOL    HW1 6746   4.202   3.519   0.145
 1949SOL    HW2 6747   4.158   3.671   0.103
 1950SOL     OW 6748   4.146   3.447   3.387
 1950SOL    HW1 6749   4.137   3.537   3.346
 1950SOL    HW2 6750   4.105   3.378   3.327
 1951SOL     OW 6751   0.255   4.535   5.979
 1951SOL    HW1 6752   0.168   4.515   6.024
 1951SOL    HW2 6753   0.331   4.519   6.043
 1952SOL     OW 6754   5.782   5.040   1.177
 1952SOL    HW1 6755   5.829   5.059   1.092
 1952SOL    HW2 6756   5.702   5.100   1.186
 1953SOL     OW 6757   6.796   1.606   6.254
 1953SOL    HW1 6758   6.873   1.668   6.257
 1953SOL    HW2 6759   6.773   1.575   6.346
 1954SOL     OW 6760   5.598   6.973   1.496
 1954SOL    HW1 6761   5.628   6.926   1.579
 1954SOL    HW2 6762   5.667   0.018   1.469
 1955SOL     OW 6763   0.415   0.861   1.584
 1955SOL    HW1 6764   0.377   0.925   1.517
 1955SOL    HW2 6765   0.463   0.787   1.536
 1956SOL     OW 6766   4.696   6.911   2.552
 1956SOL    HW1 6767   4.789   6.892   2.584
 1956SOL    HW2 6768   4.659   6.829   2.507
 1957SOL     OW 6769   5.105   4.450   3.796
 1957SOL    HW1 6770   5.110   4.362   3.749
 1957SOL    HW2 6771   5.011   4.483   3.793
 1958SOL     OW 6772   4.697   1.000   1.917
 1958SOL    HW1 6773   4.742   0.934   1.977
 1958SOL    HW2 6774   4.599   0.981   1.914
 1959SOL     OW 6775   0.156   6.333   3.885
 1959SOL    HW1 6776   0.079   6.304   3.828
 1959SOL    HW2 6777   0.217   6.392   3.831
 1960SOL     OW 6778   0.228   3.581   2.399
 1960SOL    HW1 6779   0.194   3.592   2.493
 1960SOL    HW2 6780   0.165   3.523   2.348
 1961SOL     OW 6781   5.808   4.663   4.547
 1961SOL    HW1 6782   5.755   4.722   4.486
 1961SOL    HW2 6783   5.805   4.699   4.640
 1962SOL     OW 6784   1.166   6.260   2.849
 1962SOL    HW1 6785   1.236   6.331   2.841
 1962SOL    HW2 6786   1.208   6.171   2.834
 1963SOL     OW 6787   1.478   2.031   1.452
 1963SOL    HW1 6788   1.384   2.007   1.474
 1963SOL    HW2 6789   1.538   2.000   1.526
 1964SOL     OW 6790   4.792   4.917   1.888
 1964SOL    HW1 6791   4.837   4.988   1.942
 1964SOL    HW2 6792   4.861   4.863   1.840
 1965SOL     OW 6793   2.030   2.664   4.321
 1965SOL    HW1 6794   1.987   2.638   4.407
 1965SOL    HW2 6795   1.992   2.608   4.247
 1966SOL     OW 6796   1.686   5.363   1.061
 1966SOL    HW1 6797   1.738   5.436   1.015
 1966SOL    HW2 6798   1.598   5.399   1.090
 1967SOL     OW 6799   6.122   2.560   4.384
 1967SOL    HW1 6800   6.171   2.624   4.444
 1967SOL    HW2 6801   6.054   2.510   4.437
 1968SOL     OW 6802   2.572   0.846   5.395
 1968SOL    HW1 6803   2.588   0.819   5.301
 1968SOL    HW2 6804   2.477   0.829   5.419
 1969SOL     OW 6805   3.345   0.497   1.642
 1969SOL    HW1 6806   3.301   0.505   1.552
 1969SOL    HW2 6807   3.280   0.459   1.707
 1970SOL     OW 6808   0.265   0.212   5.659
 1970SOL    HW1 6809   0.249   0.289   5.722
 1970SOL    HW2 6810   0.353   0.171   5.680
 1971SOL     OW 6811   0.428   0.874   5.331
 1971SOL    HW1 6812   0.384   0.787   5.353
 1971SOL    HW2 6813   0.401   0.903   5.239
 1972SOL     OW 6814   5.879   2.777   1.633
 1972SOL    HW1 6815   5.956   2.720   1.665
 1972SOL    HW2 6816   5.809   2.780   1.704
 1973SOL     OW 6817   2.568   4.389   1.625
 1973SOL    HW1 6818   2.628   4.435   1.561
 1973SOL    HW2 6819   2.536   4.455   1.694
 1974SOL     OW 6820   4.507   6.699   4.497
 1974SOL    HW1 6821   4.408   6.690   4.483
 1974SOL    HW2 6822   4.550   6.727   4.411
 1975SOL     OW 6823   2.258   2.289   3.911
 1975SOL    HW1 6824   2.239   2.231   3.990
 1975SOL    HW2 6825   2.232   2.384   3.933
 1976SOL     OW 6826   5.188   6.326   6.785
 1976SOL    HW1 6827   5.159   6.406   6.731
 1976SOL    HW2 6828   5.248   6.356   6.859
 1977SOL     OW 6829   2.116   3.101   5.472
 1977SOL    HW1 6830   2.205   3.138   5.445
 1977SOL    HW2 6831   2.121   3.002   5.480
 1978SOL     OW 6832   1.693   6.083   2.624
 1978SOL    HW1 6833   1.709   6.016   2.696
 1978SOL    HW2 6834   1.626   6.151   2.656
 1979SOL     OW 6835   5.273   5.356   6.879
 1979SOL    HW1 6836   5.178   5.361   6.912
 1979SOL    HW2 6837   5.293   5.263   6.848
 1980SOL     OW 6838   3.711   0.758   2.931
 1980SOL    HW1 6839   3.681   0.681   2.987
 1980SOL    HW2 6840   3.807   0.777   2.949
 1981SOL     OW 6841   5.771   2.563   2.600
 1981SOL    HW1 6842   5.710   2.627   2.647
 1981SOL    HW2 6843   5.816   2.610   2.524
 1982SOL     OW 6844   6.664   3.965   3.657
 1982SOL    HW1 6845   6.633   3.943   3.564
 1982SOL    HW2 6846   6.751   4.013   3.652
 1983SOL     OW 6847   0.943   0.356   1.449
 1983SOL    HW1 6848   1.012   0.408   1.499
 1983SOL    HW2 6849   0.988   0.296   1.383
 1984SOL     OW 6850   4.703   2.656   5.441
 1984SOL    HW1 6851   4.619   2.708   5.426
 1984SOL    HW2 6852   4.689   2.591   5.516
 1985SOL     OW 6853   6.745   5.625   2.357
 1985SOL    HW1 6854   6.733   5.556   2.286
 1985SOL    HW2 6855   6.824   5.682   2.336
 1986SOL     OW 6856   2.574   1.244   5.849
 1986SOL    HW1 6857   2.558   1.154   5.808
 1986SOL    HW2 6858   2.669   1.250   5.881
 1987SOL     OW 6859   2.122   1.579   3.510
 1987SOL    HW1 6860   2.210   1.559   3.554
 1987SOL    HW2 6861   2.124   1.673   3.474
 1988SOL     OW 6862   0.236   1.680   1.078
 1988SOL    HW1 6863   0.202   1.770   1.050
 1988SOL    HW2 6864   0.327   1.689   1.118
 1989SOL     OW 6865   2.325   5.783   4.009
 1989SOL    HW1 6866   2.304   5.874   4.042
 1989SOL    HW2 6867   2.240   5.732   3.993
 1990SOL     OW 6868   3.735   6.506   0.821
 1990SOL    HW1 6869   3.698   6.516   0.729
 1990SOL    HW2 6870   3.665   6.466   0.881
 1991SOL     OW 6871   2.107   5.099   0.003
 1991SOL    HW1 6872   2.095   5.077   0.100
 1991SOL    HW2 6873   2.192   5.149   7.012
 1992SOL     OW 6874   6.562   0.377   0.641
 1992SOL    HW1 6875   6.641   0.352   0.698
 1992SOL    HW2 6876   6.573   0.471   0.608
 1993SOL     OW 6877   3.621   2.054   4.830
 1993SOL    HW1 6878   3.587   1.961   4.839
 1993SOL    HW2 6879   3.545   2.119   4.833
 1994SOL     OW 6880   4.904   1.881   1.008
 1994SOL    HW1 6881   4.809   1.910   1.008
 1994SOL    HW2 6882   4.934   1.865   0.914
 1995SOL     OW 6883   5.701   3.445   4.218
 1995SOL    HW1 6884   5.618   3.391   4.209
 1995SOL    HW2 6885   5.775   3.401   4.168
 1996SOL     OW 6886   2.562   1.480   1.302
 1996SOL    HW1 6887   2.531   1.418   1.373
 1996SOL    HW2 6888   2.569   1.573   1.338
 1997SOL     OW 6889   3.149   1.651   3.901
 1997SOL    HW1 6890   3.172   1.582   3.971
 1997SOL    HW2 6891   3.227   1.712   3.888
 1998SOL     OW 6892   1.583   3.841   0.837
 1998SOL    HW1 6893   1.492   3.851   0.796
 1998SOL    HW2 6894   1.607   3.744   0.839
 1999SOL     OW 6895   0.543   0.672   4.527
 1999SOL    HW1 6896   0.621   0.644   4.583
 1999SOL    HW2 6897   0.491   0.591   4.499
 2000SOL     OW 6898   4.284   3.369   6.196
 2000SOL    HW1 6899   4.194   3.366   6.240
 2000SOL    HW2 6900   4.291   3.451   6.140
 2001SOL     OW 6901   1.554   1.584   7.005
 2001SOL    HW1 6902   1.576   1.569   0.080
 2001SOL    HW2 6903   1.512   1.675   6.994
 2002SOL     OW 6904   0.641   5.752   0.773
 2002SOL    HW1 6905   0.636   5.759   0.674
 2002SOL    HW2 6906   0.685   5.834   0.811
 2003SOL     OW 6907   6.797   5.270   1.945
 2003SOL    HW1 6908   6.812   5.234   1.853
 2003SOL    HW2 6909   6.875   5.248   2.003
 2004SOL     OW 6910   4.404   1.132   4.848
 2004SOL    HW1 6911   4.346   1.214   4.841
 2004SOL    HW2 6912   4.473   1.147   4.919
 2005SOL     OW 6913   6.740   4.946   6.952
 2005SOL    HW1 6914   6.815   4.981   6.897
 2005SOL    HW2 6915   6.711   5.015   7.019
 2006SOL     OW 6916   5.642   6.844   4.347
 2006SOL    HW1 6917   5.688   6.786   4.414
 2006SOL    HW2 6918   5.660   6.810   4.255
 2007SOL     OW 6919   5.544   4.001   1.484
 2007SOL    HW1 6920   5.500   3.925   1.532
 2007SOL    HW2 6921   5.487   4.083   1.493
 2008SOL     OW 6922   2.178   3.351   3.849
 2008SOL    HW1 6923   2.146   3.444   3.865
 2008SOL    HW2 6924   2.182   3.302   3.937
 2009SOL     OW 6925   5.493   6.392   2.309
 2009SOL    HW1 6926   5.402   6.432   2.313
 2009SOL    HW2 6927   5.501   6.319   2.377
 2010SOL     OW 6928   1.808   1.645   1.422
 2010SOL    HW1 6929   1.859   1.646   1.508
 2010SOL    HW2 6930   1.863   1.600   1.351
 2011SOL     OW 6931   0.121   0.779   4.718
 2011SOL    HW1 6932   0.197   0.831   4.757
 2011SOL    HW2 6933   0.121   0.686   4.754
 2012SOL     OW 6934   1.261   3.607   1.799
 2012SOL    HW1 6935   1.353   3.638   1.775
 2012SOL    HW2 6936   1.259   3.507   1.798
 2013SOL     OW 6937   6.897   3.226   3.308
 2013SOL    HW1 6938   6.798   3.221   3.301
 2013SOL    HW2 6939   6.923   3.276   3.391
 2014SOL     OW 6940   3.043   0.348   2.928
 2014SOL    HW1 6941   3.023   0.328   3.024
 2014SOL    HW2 6942   3.018   0.269   2.872
 2015SOL     OW 6943   3.258   6.407   1.217
 2015SOL    HW1 6944   3.352   6.383   1.240
 2015SOL    HW2 6945   3.254   6.503   1.189
 2016SOL     OW 6946   1.704   5.742   5.331
 2016SOL    HW1 6947   1.631   5.810   5.317
 2016SOL    HW2 6948   1.792   5.789   5.338
 2017SOL     OW 6949   4.075   0.676   3.444
 2017SOL    HW1 6950   4.105   0.738   3.371
 2017SOL    HW2 6951   3.984   0.702   3.475
 2018SOL     OW 6952   6.904   2.658   3.992
 2018SOL    HW1 6953   6.937   2.746   3.957
 2018SOL    HW2 6954   6.974   2.588   3.978
 2019SOL     OW 6955   6.068   4.371   6.192
 2019SOL    HW1 6956   5.992   4.378   6.257
 2019SOL    HW2 6957   6.140   4.315   6.232
 2020SOL     OW 6958   1.823   6.160   5.909
 2020SOL    HW1 6959   1.848   6.147   5.814
 2020SOL    HW2 6960   1.770   6.245   5.919
 2021SOL     OW 6961   6.181   6.608   3.807
 2021SOL    HW1 6962   6.194   6.616   3.906
 2021SOL    HW2 6963   6.188   6.699   3.766
 2022SOL     OW 6964   2.010   4.739   4.588
 2022SOL    HW1 6965   1.981   4.783   4.503
 2022SOL    HW2 6966   1.930   4.718   4.644
 2023SOL     OW 6967   0.165   0.263   6.952
 2023SOL    HW1 6968   0.216   0.223   6.877
 2023SOL    HW2 6969   0.198   0.356   6.970
 2024SOL     OW 6970   0.234   5.770   3.867
 2024SOL    HW1 6971   0.323   5.727   3.883
 2024SOL    HW2 6972   0.238   5.823   3.783
 2025SOL     OW 6973   3.049   0.830   3.312
 2025SOL    HW1 6974   3.060   0.925   3.341
 2025SOL    HW2 6975   2.958   0.798   3.336
 2026SOL     OW 6976   6.426   2.075   6.555
 2026SOL    HW1 6977   6.507   2.092   6.612
 2026SOL    HW2 6978   6.453   2.073   6.459
 2027SOL     OW 6979   0.551   6.421   1.540
 2027SOL    HW1 6980   0.495   6.487   1.489
 2027SOL    HW2 6981   0.567   6.456   1.633
 2028SOL     OW 6982   3.483   5.816   2.715
 2028SOL    HW1 6983   3.462   5.738   2.773
 2028SOL    HW2 6984   3.455   5.900   2.762
 2029SOL     OW 6985   6.774   2.338   0.062
 2029SOL    HW1 6986   6.708   2.266   0.080
 2029SOL    HW2 6987   6.815   2.368   0.148
 2030SOL     OW 6988   3.070   6.701   2.323
 2030SOL    HW1 6989   2.995   6.756   2.362
 2030SOL    HW2 6990   3.071   6.712   2.224
 2031SOL     OW 6991   6.815   6.218   2.411
 2031SOL    HW1 6992   6.913   6.214   2.432
 2031SOL    HW2 6993   6.762   6.186   2.490
 2032SOL     OW 6994   3.292   1.101   0.704
 2032SOL    HW1 6995   3.332   1.168   0.766
 2032SOL    HW2 6996   3.363   1.041   0.668
 2033SOL     OW 6997   2.013   1.360   0.753
 2033SOL    HW1 6998   2.007   1.272   0.800
 2033SOL    HW2 6999   2.102   1.367   0.707
 2034SOL     OW 7000   1.840   5.113   5.802
 2034SOL    HW1 7001   1.788   5.043   5.852
 2034SOL    HW2 7002   1.789   5.199   5.802
 2035SOL     OW 7003   6.499   6.854   2.240
 2035SOL    HW1 7004   6.536   6.776   2.190
 2035SOL    HW2 7005   6.565   6.930   2.235
 2036SOL     OW 7006   1.579   3.420   3.194
 2036SOL    HW1 7007   1.630   3.506   3.185
 2036SOL    HW2 7008   1.484   3.440   3.215
 2037SOL     OW 7009   6.581   2.674   6.208
 2037SOL    HW1 7010   6.547   2.756   6.160
 2037SOL    HW2 7011   6.503   2.616   6.233
 2038SOL     OW 7012   2.739   1.087   6.967
 2038SOL    HW1 7013   2.695   1.132   6.889
 2038SOL    HW2 7014   2.673   1.080   0.020
 2039SOL     OW 7015   6.866   5.973   2.565
 2039SOL    HW1 7016   6.960   6.007   2.562
 2039SOL    HW2 7017   6.866   5.873   2.571
 2040SOL     OW 7018   1.813   2.089   6.934
 2040SOL    HW1 7019   1.882   2.158   6.911
 2040SOL    HW2 7020   1.795   2.032   6.854
 2041SOL     OW 7021   1.325   0.238   5.418
 2041SOL    HW1 7022   1.268   0.234   5.336
 2041SOL    HW2 7023   1.305   0.322   5.469
 2042SOL     OW 7024   4.796   6.918   6.255
 2042SOL    HW1 7025   4.876   6.904   6.314
 2042SOL    HW2 7026   4.758   7.009   6.272
 2043SOL     OW 7027   6.315   2.603   2.052
 2043SOL    HW1 7028   6.394   2.654   2.019
 2043SOL    HW2 7029   6.315   2.512   2.010
 2044SOL     OW 7030   6.028   1.040   1.598
 2044SOL    HW1 7031   5.997   0.950   1.567
 2044SOL    HW2 7032   5.980   1.065   1.682
 2045SOL     OW 7033   1.229   6.090   4.676
 2045SOL    HW1 7034   1.196   6.083   4.770
 2045SOL    HW2 7035   1.209   6.181   4.640
 2046SOL     OW 7036   6.689   2.196   5.440
 2046SOL    HW1 7037   6.645   2.261   5.501
 2046SOL    HW2 7038   6.784   2.221   5.427
 2047SOL     OW 7039   5.897   2.097   1.305
 2047SOL    HW1 7040   5.840   2.179   1.303
 2047SOL    HW2 7041   5.971   2.106   1.238
 2048SOL     OW 7042   0.214   1.269   4.856
 2048SOL    HW1 7043   0.118   1.242   4.847
 2048SOL    HW2 7044   0.260   1.262   4.768
 2049SOL     OW 7045   4.714   1.436   4.668
 2049SOL    HW1 7046   4.618   1.462   4.683
 2049SOL    HW2 7047   4.760   1.427   4.756
 2050SOL     OW 7048   0.024   2.298   5.020
 2050SOL    HW1 7049   0.021   2.315   4.922
 2050SOL    HW2 7050   0.119   2.288   5.050
 2051SOL     OW 7051   2.008   5.950   0.067
 2051SOL    HW1 7052   2.068   5.978   7.014
 2051SOL    HW2 7053   1.983   6.030   0.121
 2052SOL     OW 7054   1.175   3.150   0.761
 2052SOL    HW1 7055   1.130   3.186   0.680
 2052SOL    HW2 7056   1.145   3.055   0.776
 2053SOL     OW 7057   0.596   5.523   4.248
 2053SOL    HW1 7058   0.598   5.426   4.274
 2053SOL    HW2 7059   0.651   5.576   4.312
 2054SOL     OW 7060   3.281   3.177   2.873
 2054SOL    HW1 7061   3.295   3.259   2.819
 2054SOL    HW2 7062   3.369   3.146   2.911
 2055SOL     OW 7063   6.903   2.787   5.111
 2055SOL    HW1 7064   6.830   2.842   5.151
 2055SOL    HW2 7065   6.970   2.846   5.066
 2056SOL     OW 7066   4.475   4.713   1.264
 2056SOL    HW1 7067   4.378   4.689   1.268
 2056SOL    HW2 7068   4.525   4.658   1.332
 2057SOL     OW 7069   5.142   3.026   4.501
 2057SOL    HW1 7070   5.219   2.990   4.448
 2057SOL    HW2 7071   5.107   2.955   4.562
 2058SOL     OW 7072   0.426   6.590   2.456
 2058SOL    HW1 7073   0.333   6.626   2.453
 2058SOL    HW2 7074   0.426   6.501   2.503
 2059SOL     OW 7075   2.686   0.737   5.625
 2059SOL    HW1 7076   2.663   0.751   5.721
 2059SOL    HW2 7077   2.622   0.789   5.568
 2060SOL     OW 7078   0.549   2.957   1.030
 2060SOL    HW1 7079   0.625   2.946   1.095
 2060SOL    HW2 7080   0.567   2.902   0.948
 2061SOL     OW 7081   1.911   2.928   2.145
 2061SOL    HW1 7082   1.995   2.924   2.091
 2061SOL    HW2 7083   1.850   2.996   2.105
 2062SOL     OW 7084   6.682   5.308   5.655
 2062SOL    HW1 7085   6.775   5.280   5.631
 2062SOL    HW2 7086   6.628   5.320   5.572
 2063SOL     OW 7087   1.630   6.350   4.761
 2063SOL    HW1 7088   1.673   6.389   4.843
 2063SOL    HW2 7089   1.695   6.288   4.716
 2064SOL     OW 7090   1.209   3.471   4.317
 2064SOL    HW1 7091   1.303   3.475   4.283
 2064SOL    HW2 7092   1.172   3.563   4.327
 2065SOL     OW 7093   5.320   3.104   6.256
 2065SOL    HW1 7094   5.279   3.135   6.170
 2065SOL    HW2 7095   5.322   3.004   6.257
 2066SOL     OW 7096   6.722   3.782   5.450
 2066SOL    HW1 7097   6.722   3.777   5.550
 2066SOL    HW2 7098   6.683   3.870   5.422
 2067SOL     OW 7099   6.262   4.779   1.674
 2067SOL    HW1 7100   6.208   4.746   1.751
 2067SOL    HW2 7101   6.282   4.703   1.612
 2068SOL     OW 7102   3.551   1.486   4.197
 2068SOL    HW1 7103   3.461   1.442   4.206
 2068SOL    HW2 7104   3.548   1.555   4.125
 2069SOL     OW 7105   0.018   1.905   4.356
 2069SOL    HW1 7106   0.015   1.805   4.354
 2069SOL    HW2 7107   0.098   1.936   4.406
 2070SOL     OW 7108   1.482   2.721   0.985
 2070SOL    HW1 7109   1.576   2.752   0.970
 2070SOL    HW2 7110   1.483   2.642   1.046
 2071SOL     OW 7111   6.041   1.556   6.339
 2071SOL    HW1 7112   5.958   1.498   6.338
 2071SOL    HW2 7113   6.025   1.636   6.396
 2072SOL     OW 7114   4.042   5.133   5.535
 2072SOL    HW1 7115   4.046   5.082   5.621
 2072SOL    HW2 7116   3.947   5.149   5.511
 2073SOL     OW 7117   3.833   6.155   6.028
 2073SOL    HW1 7118   3.804   6.063   6.052
 2073SOL    HW2 7119   3.756   6.207   5.992
 2074SOL     OW 7120   1.561   2.646   6.301
 2074SOL    HW1 7121   1.494   2.678   6.368
 2074SOL    HW2 7122   1.653   2.674   6.329
 2075SOL     OW 7123   6.568   2.199   2.558
 2075SOL    HW1 7124   6.667   2.209   2.547
 2075SOL    HW2 7125   6.525   2.289   2.547
 2076SOL     OW 7126   6.260   0.285   5.132
 2076SOL    HW1 7127   6.227   0.337   5.053
 2076SOL    HW2 7128   6.257   0.343   5.214
 2077SOL     OW 7129   6.737   2.068   1.807
 2077SOL    HW1 7130   6.789   1.986   1.787
 2077SOL    HW2 7131   6.642   2.044   1.828
 2078SOL     OW 7132   1.606   4.962   6.068
 2078SOL    HW1 7133   1.553   4.942   6.150
 2078SOL    HW2 7134   1.546   4.958   5.988
 2079SOL     OW 7135   5.568   1.004   2.539
 2079SOL    HW1 7136   5.555   0.910   2.508
 2079SOL    HW2 7137   5.636   1.049   2.482
 2080SOL     OW 7138   3.301   1.995   4.633
 2080SOL    HW1 7139   3.242   1.916   4.641
 2080SOL    HW2 7140   3.252   2.077   4.662
 2081SOL     OW 7141   0.619   6.383   3.289
 2081SOL    HW1 7142   0.560   6.304   3.276
 2081SOL    HW2 7143   0.649   6.387   3.384
 2082SOL     OW 7144   0.968   5.819   3.084
 2082SOL    HW1 7145   0.976   5.719   3.080
 2082SOL    HW2 7146   0.934   5.846   3.173
 2083SOL     OW 7147   0.484   5.570   3.787
 2083SOL    HW1 7148   0.575   5.592   3.823
 2083SOL    HW2 7149   0.488   5.566   3.687
 2084SOL     OW 7150   1.304   2.005   1.165
 2084SOL    HW1 7151   1.401   2.027   1.171
 2084SOL    HW2 7152   1.250   2.089   1.168
 2085SOL     OW 7153   4.829   5.822   0.457
 2085SOL    HW1 7154   4.818   5.788   0.550
 2085SOL    HW2 7155   4.918   5.866   0.447
 2086SOL     OW 7156   3.217   6.406   6.961
 2086SOL    HW1 7157   3.226   6.451   0.029
 2086SOL    HW2 7158   3.209   6.308   6.975
 2087SOL     OW 7159   4.193   2.326   6.848
 2087SOL    HW1 7160   4.110   2.376   6.825
 2087SOL    HW2 7161   4.184   2.231   6.819
 2088SOL     OW 7162   0.962   6.069   5.566
 2088SOL    HW1 7163   0.875   6.115   5.547
 2088SOL    HW2 7164   1.028   6.090   5.494
 2089SOL     OW 7165   3.875   2.613   5.327
 2089SOL    HW1 7166   3.964   2.589   5.289
 2089SOL    HW2 7167   3.853   2.708   5.305
 2090SOL     OW 7168   4.732   3.115   5.658
 2090SOL    HW1 7169   4.649   3.070   5.689
 2090SOL    HW2 7170   4.745   3.201   5.707
 2091SOL     OW 7171   6.978   6.068   1.348
 2091SOL    HW1 7172   0.020   6.073   1.425
 2091SOL    HW2 7173   7.004   6.135   1.279
 2092SOL     OW 7174   5.324   3.567   1.263
 2092SOL    HW1 7175   5.313   3.528   1.354
 2092SOL    HW2 7176   5.363   3.499   1.201
 2093SOL     OW 7177   3.802   2.116   2.252
 2093SOL    HW1 7178   3.760   2.151   2.168
 2093SOL    HW2 7179   3.738   2.126   2.328
 2094SOL     OW 7180   6.039   2.648   0.373
 2094SOL    HW1 7181   6.126   2.670   0.330
 2094SOL    HW2 7182   5.970   2.716   0.347
 2095SOL     OW 7183   6.021   6.268   3.191
 2095SOL    HW1 7184   5.994   6.346   3.248
 2095SOL    HW2 7185   6.112   6.236   3.219
 2096SOL     OW 7186   4.704   5.955   2.895
 2096SOL    HW1 7187   4.791   5.950   2.943
 2096SOL    HW2 7188   4.642   5.884   2.929
 2097SOL     OW 7189   3.004   4.183   6.172
 2097SOL    HW1 7190   2.976   4.270   6.213
 2097SOL    HW2 7191   3.070   4.138   6.233
 2098SOL     OW 7192   4.107   6.143   3.491
 2098SOL    HW1 7193   4.105   6.062   3.432
 2098SOL    HW2 7194   4.103   6.115   3.587
 2099SOL     OW 7195   4.270   1.952   0.173
 2099SOL    HW1 7196   4.195   2.018   0.170
 2099SOL    HW2 7197   4.276   1.913   0.265
 2100SOL     OW 7198   5.042   1.061   0.749
 2100SOL    HW1 7199   5.126   1.110   0.770
 2100SOL    HW2 7200   5.051   1.017   0.660
 2101SOL     OW 7201   0.361   6.204   0.588
 2101SOL    HW1 7202   0.328   6.118   0.627
 2101SOL    HW2 7203   0.408   6.185   0.502
 2102SOL     OW 7204   3.733   3.514   1.410
 2102SOL    HW1 7205   3.760   3.499   1.315
 2102SOL    HW2 7206   3.787   3.587   1.449
 2103SOL     OW 7207   3.295   4.211   0.146
 2103SOL    HW1 7208   3.320   4.238   0.239
 2103SOL    HW2 7209   3.234   4.132   0.150
 2104SOL     OW 7210   1.638   4.721   2.459
 2104SOL    HW1 7211   1.626   4.795   2.393
 2104SOL    HW2 7212   1.632   4.758   2.552
 2105SOL     OW 7213   4.667   4.551   0.564
 2105SOL    HW1 7214   4.670   4.603   0.479
 2105SOL    HW2 7215   4.636   4.458   0.545
 2106SOL     OW 7216   5.342   3.812   1.551
 2106SOL    HW1 7217   5.359   3.714   1.559
 2106SOL    HW2 7218   5.264   3.828   1.490
 2107SOL     OW 7219   5.335   3.564   6.083
 2107SOL    HW1 7220   5.417   3.526   6.042
 2107SOL    HW2 7221   5.320   3.657   6.050
 2108SOL     OW 7222   5.826   6.529   6.337
 2108SOL    HW1 7223   5.885   6.450   6.352
 2108SOL    HW2 7224   5.827   6.553   6.240
 2109SOL     OW 7225   3.011   5.313   2.004
 2109SOL    HW1 7226   3.063   5.235   2.038
 2109SOL    HW2 7227   2.980   5.369   2.081
 2110SOL     OW 7228   4.092   0.700   6.300
 2110SOL    HW1 7229   4.009   0.651   6.324
 2110SOL    HW2 7230   4.100   0.707   6.200
 2111SOL     OW 7231   1.347   2.371   5.758
 2111SOL    HW1 7232   1.286   2.428   5.812
 2111SOL    HW2 7233   1.370   2.289   5.811
 2112SOL     OW 7234   5.780   1.894   6.881
 2112SOL    HW1 7235   5.777   1.857   6.974
 2112SOL    HW2 7236   5.732   1.982   6.879
 2113SOL     OW 7237   2.182   6.389   4.677
 2113SOL    HW1 7238   2.100   6.441   4.657
 2113SOL    HW2 7239   2.233   6.434   4.751
 2114SOL     OW 7240   2.820   2.890   0.376
 2114SOL    HW1 7241   2.812   2.803   0.425
 2114SOL    HW2 7242   2.865   2.957   0.434
 2115SOL     OW 7243   1.129   4.326   2.133
 2115SOL    HW1 7244   1.226   4.347   2.121
 2115SOL    HW2 7245   1.074   4.397   2.089
 2116SOL     OW 7246   0.654   2.748   0.715
 2116SOL    HW1 7247   0.708   2.821   0.672
 2116SOL    HW2 7248   0.697   2.721   0.801
 2117SOL     OW 7249   5.271   3.045   1.800
 2117SOL    HW1 7250   5.204   3.049   1.726
 2117SOL    HW2 7251   5.224   3.051   1.888
 2118SOL     OW 7252   6.578   3.736   2.500
 2118SOL    HW1 7253   6.661   3.768   2.454
 2118SOL    HW2 7254   6.565   3.638   2.482
 2119SOL     OW 7255   1.695   0.556   6.791
 2119SOL    HW1 7256   1.678   0.556   6.693
 2119SOL    HW2 7257   1.625   0.502   6.838
 2120SOL     OW 7258   6.827   2.096   2.908
 2120SOL    HW1 7259   6.864   2.171   2.854
 2120SOL    HW2 7260   6.890   2.018   2.906
 2121SOL     OW 7261   2.369   1.541   5.925
 2121SOL    HW1 7262   2.342   1.451   5.892
 2121SOL    HW2 7263   2.397   1.535   6.021
 2122SOL     OW 7264   5.964   6.959   5.859
 2122SOL    HW1 7265   6.064   6.961   5.853
 2122SOL    HW2 7266   5.931   0.024   5.896
 2123SOL     OW 7267   7.007   6.545   2.449
 2123SOL    HW1 7268   0.033   6.631   2.431
 2123SOL    HW2 7269   6.967   6.548   2.541
 2124SOL     OW 7270   3.224   2.801   5.575
 2124SOL    HW1 7271   3.186   2.876   5.521
 2124SOL    HW2 7272   3.281   2.743   5.516
 2125SOL     OW 7273   1.778   6.070   3.217
 2125SOL    HW1 7274   1.817   6.007   3.284
 2125SOL    HW2 7275   1.757   6.157   3.261
 2126SOL     OW 7276   3.807   3.313   0.383
 2126SOL    HW1 7277   3.723   3.361   0.406
 2126SOL    HW2 7278   3.785   3.221   0.350
 2127SOL     OW 7279   6.781   2.808   6.067
 2127SOL    HW1 7280   6.732   2.894   6.078
 2127SOL    HW2 7281   6.727   2.734   6.107
 2128SOL     OW 7282   5.615   3.691   0.866
 2128SOL    HW1 7283   5.645   3.630   0.940
 2128SOL    HW2 7284   5.582   3.636   0.790
 2129SOL     OW 7285   5.089   3.945   3.514
 2129SOL    HW1 7286   5.057   3.919   3.423
 2129SOL    HW2 7287   5.141   3.870   3.554
 2130SOL     OW 7288   2.278   1.738   1.473
 2130SOL    HW1 7289   2.375   1.750   1.452
 2130SOL    HW2 7290   2.264   1.751   1.571
 2131SOL     OW 7291   5.228   1.866   6.247
 2131SOL    HW1 7292   5.314   1.864   6.298
 2131SOL    HW2 7293   5.190   1.773   6.243
 2132SOL     OW 7294   3.184   1.318   6.394
 2132SOL    HW1 7295   3.155   1.232   6.351
 2132SOL    HW2 7296   3.185   1.391   6.325
 2133SOL     OW 7297   2.549   1.763   1.410
 2133SOL    HW1 7298   2.512   1.797   1.323
 2133SOL    HW2 7299   2.585   1.839   1.463
 2134SOL     OW 7300   0.633   0.468   4.253
 2134SOL    HW1 7301   0.651   0.471   4.155
 2134SOL    HW2 7302   0.540   0.437   4.269
 2135SOL     OW 7303   0.477   2.175   3.836
 2135SOL    HW1 7304   0.476   2.203   3.740
 2135SOL    HW2 7305   0.476   2.075   3.842
 2136SOL     OW 7306   1.092   3.608   4.988
 2136SOL    HW1 7307   1.088   3.687   4.927
 2136SOL    HW2 7308   1.031   3.622   5.066
 2137SOL     OW 7309   0.725   6.803   5.575
 2137SOL    HW1 7310   0.651   6.870   5.584
 2137SOL    HW2 7311   0.767   6.788   5.665
 2138SOL     OW 7312   6.705   2.266   1.582
 2138SOL    HW1 7313   6.701   2.202   1.660
 2138SOL    HW2 7314   6.635   2.241   1.515
 2139SOL     OW 7315   2.825   0.746   3.768
 2139SOL    HW1 7316   2.857   0.689   3.844
 2139SOL    HW2 7317   2.837   0.697   3.682
 2140SOL     OW 7318   2.427   6.315   2.756
 2140SOL    HW1 7319   2.503   6.345   2.699
 2140SOL    HW2 7320   2.347   6.298   2.698
 2141SOL     OW 7321   6.768   2.776   1.069
 2141SOL    HW1 7322   6.777   2.681   1.041
 2141SOL    HW2 7323   6.781   2.782   1.168
 2142SOL     OW 7324   1.658   1.943   2.919
 2142SOL    HW1 7325   1.628   1.869   2.858
 2142SOL    HW2 7326   1.752   1.927   2.946
 2143SOL     OW 7327   3.997   6.195   1.459
 2143SOL    HW1 7328   4.021   6.124   1.393
 2143SOL    HW2 7329   4.046   6.180   1.545
 2144SOL     OW 7330   1.127   0.914   2.934
 2144SOL    HW1 7331   1.049   0.972   2.956
 2144SOL    HW2 7332   1.137   0.843   3.004
 2145SOL     OW 7333   3.298   5.531   3.749
 2145SOL    HW1 7334   3.238   5.508   3.673
 2145SOL    HW2 7335   3.298   5.630   3.762
 2146SOL     OW 7336   3.043   3.845   2.013
 2146SOL    HW1 7337   3.027   3.902   1.933
 2146SOL    HW2 7338   3.052   3.902   2.094
 2147SOL     OW 7339   0.161   1.521   0.065
 2147SOL    HW1 7340   0.225   1.515   7.010
 2147SOL    HW2 7341   0.186   1.598   0.123
 2148SOL     OW 7342   4.940   3.638   3.378
 2148SOL    HW1 7343   4.939   3.567   3.307
 2148SOL    HW2 7344   4.946   3.595   3.468
 2149SOL     OW 7345   3.881   0.374   1.839
 2149SOL    HW1 7346   3.794   0.399   1.796
 2149SOL    HW2 7347   3.957   0.418   1.790
 2150SOL     OW 7348   3.704   2.160   2.733
 2150SOL    HW1 7349   3.781   2.101   2.709
 2150SOL    HW2 7350   3.710   2.246   2.681
 2151SOL     OW 7351   3.507   2.440   5.525
 2151SOL    HW1 7352   3.457   2.433   5.612
 2151SOL    HW2 7353   3.471   2.372   5.462
 2152SOL     OW 7354   6.037   6.328   2.334
 2152SOL    HW1 7355   6.032   6.370   2.243
 2152SOL    HW2 7356   6.088   6.389   2.395
 2153SOL     OW 7357   4.616   1.625   4.298
 2153SOL    HW1 7358   4.638   1.718   4.330
 2153SOL    HW2 7359   4.687   1.562   4.327
 2154SOL     OW 7360   3.125   5.846   4.844
 2154SOL    HW1 7361   3.156   5.764   4.797
 2154SOL    HW2 7362   3.034   5.871   4.812
 2155SOL     OW 7363   1.865   5.115   0.169
 2155SOL    HW1 7364   1.767   5.115   0.189
 2155SOL    HW2 7365   1.895   5.208   0.147
 2156SOL     OW 7366   1.855   0.543   1.075
 2156SOL    HW1 7367   1.842   0.627   1.022
 2156SOL    HW2 7368   1.816   0.466   1.025
 2157SOL     OW 7369   6.722   1.391   5.083
 2157SOL    HW1 7370   6.632   1.381   5.125
 2157SOL    HW2 7371   6.793   1.359   5.146
 2158SOL     OW 7372   3.534   6.798   0.657
 2158SOL    HW1 7373   3.598   6.723   0.639
 2158SOL    HW2 7374   3.454   6.763   0.705
 2159SOL     OW 7375   1.283   6.632   5.194
 2159SOL    HW1 7376   1.247   6.690   5.121
 2159SOL    HW2 7377   1.352   6.571   5.156
 2160SOL     OW 7378   3.837   4.229   1.269
 2160SOL    HW1 7379   3.925   4.184   1.253
 2160SOL    HW2 7380   3.820   4.294   1.195
 2161SOL     OW 7381   4.974   3.373   3.255
 2161SOL    HW1 7382   4.943   3.294   3.308
 2161SOL    HW2 7383   5.063   3.403   3.289
 2162SOL     OW 7384   2.068   0.328   6.664
 2162SOL    HW1 7385   2.035   0.351   6.572
 2162SOL    HW2 7386   2.076   0.411   6.719
 2163SOL     OW 7387   1.408   0.359   6.560
 2163SOL    HW1 7388   1.333   0.294   6.550
 2163SOL    HW2 7389   1.410   0.393   6.654
 2164SOL     OW 7390   2.244   0.629   6.226
 2164SOL    HW1 7391   2.218   0.687   6.304
 2164SOL    HW2 7392   2.221   0.676   6.141
 2165SOL     OW 7393   1.537   1.188   2.900
 2165SOL    HW1 7394   1.540   1.208   2.802
 2165SOL    HW2 7395   1.552   1.090   2.914
 2166SOL     OW 7396   1.597   2.444   5.637
 2166SOL    HW1 7397   1.504   2.420   5.665
 2166SOL    HW2 7398   1.637   2.506   5.705
 2167SOL     OW 7399   2.772   0.854   2.008
 2167SOL    HW1 7400   2.845   0.909   1.967
 2167SOL    HW2 7401   2.730   0.796   1.939
 2168SOL     OW 7402   6.229   3.007   5.354
 2168SOL    HW1 7403   6.250   3.012   5.452
 2168SOL    HW2 7404   6.145   3.059   5.336
 2169SOL     OW 7405   5.792   2.684   6.341
 2169SOL    HW1 7406   5.711   2.645   6.298
 2169SOL    HW2 7407   5.808   2.776   6.305
 2170SOL     OW 7408   5.024   4.557   5.060
 2170SOL    HW1 7409   4.939   4.512   5.087
 2170SOL    HW2 7410   5.101   4.514   5.107
 2171SOL     OW 7411   6.735   2.673   0.217
 2171SOL    HW1 7412   6.641   2.674   0.181
 2171SOL    HW2 7413   6.747   2.592   0.274
 2172SOL     OW 7414   3.002   0.981   0.312
 2172SOL    HW1 7415   3.084   0.923   0.324
 2172SOL    HW2 7416   2.975   1.018   0.401
 2173SOL     OW 7417   4.245   0.427   6.111
 2173SOL    HW1 7418   4.206   0.492   6.046
 2173SOL    HW2 7419   4.285   0.477   6.188
 2174SOL     OW 7420   6.680   4.136   5.514
 2174SOL    HW1 7421   6.771   4.109   5.546
 2174SOL    HW2 7422   6.625   4.167   5.591
 2175SOL     OW 7423   3.222   0.454   2.563
 2175SOL    HW1 7424   3.224   0.554   2.561
 2175SOL    HW2 7425   3.298   0.420   2.619
 2176SOL     OW 7426   1.885   2.290   1.673
 2176SOL    HW1 7427   1.854   2.287   1.769
 2176SOL    HW2 7428   1.846   2.213   1.623
 2177SOL     OW 7429   6.882   1.370   1.926
 2177SOL    HW1 7430   6.863   1.276   1.954
 2177SOL    HW2 7431   6.796   1.416   1.903
 2178SOL     OW 7432   1.007   4.871   0.131
 2178SOL    HW1 7433   1.074   4.929   0.085
 2178SOL    HW2 7434   1.016   4.881   0.230
 2179SOL     OW 7435   1.227   5.936   3.590
 2179SOL    HW1 7436   1.171   5.865   3.633
 2179SOL    HW2 7437   1.248   5.909   3.496
 2180SOL     OW 7438   3.510   3.817   2.824
 2180SOL    HW1 7439   3.572   3.823   2.902
 2180SOL    HW2 7440   3.462   3.903   2.813
 2181SOL     OW 7441   4.792   4.742   5.991
 2181SOL    HW1 7442   4.850   4.671   6.032
 2181SOL    HW2 7443   4.703   4.743   6.036
 2182SOL     OW 7444   0.373   3.413   6.769
 2182SOL    HW1 7445   0.288   3.370   6.739
 2182SOL    HW2 7446   0.406   3.475   6.698
 2183SOL     OW 7447   3.090   3.011   0.752
 2183SOL    HW1 7448   3.180   3.052   0.742
 2183SOL    HW2 7449   3.099   2.917   0.785
 2184SOL     OW 7450   3.795   1.008   6.340
 2184SOL    HW1 7451   3.890   1.021   6.313
 2184SOL    HW2 7452   3.776   1.058   6.425
 2185SOL     OW 7453   1.930   1.053   0.390
 2185SOL    HW1 7454   1.841   1.011   0.370
 2185SOL    HW2 7455   1.932   1.083   0.485
 2186SOL     OW 7456   0.007   4.323   2.580
 2186SOL    HW1 7457   0.088   4.297   2.529
 2186SOL    HW2 7458   7.018   4.263   2.659
 2187SOL     OW 7459   6.958   1.239   1.386
 2187SOL    HW1 7460   6.926   1.296   1.310
 2187SOL    HW2 7461   6.907   1.152   1.385
 2188SOL     OW 7462   4.901   6.313   3.738
 2188SOL    HW1 7463   4.982   6.371   3.750
 2188SOL    HW2 7464   4.929   6.217   3.729
 2189SOL     OW 7465   1.544   6.835   5.762
 2189SOL    HW1 7466   1.504   6.899   5.697
 2189SOL    HW2 7467   1.529   6.868   5.855
 2190SOL     OW 7468   6.515   2.885   1.746
 2190SOL    HW1 7469   6.530   2.979   1.716
 2190SOL    HW2 7470   6.420   2.875   1.778
 2191SOL     OW 7471   3.426   2.457   6.716
 2191SOL    HW1 7472   3.506   2.472   6.658
 2191SOL    HW2 7473   3.347   2.504   6.676
 2192SOL     OW 7474   4.329   6.107   5.301
 2192SOL    HW1 7475   4.389   6.098   5.380
 2192SOL    HW2 7476   4.272   6.026   5.292
 2193SOL     OW 7477   0.625   5.052   5.401
 2193SOL    HW1 7478   0.618   5.047   5.302
 2193SOL    HW2 7479   0.701   4.993   5.432
 2194SOL     OW 7480   2.134   5.887   0.494
 2194SOL    HW1 7481   2.190   5.907   0.575
 2194SOL    HW2 7482   2.044   5.927   0.506
 2195SOL     OW 7483   0.887   6.127   1.817
 2195SOL    HW1 7484   0.986   6.129   1.809
 2195SOL    HW2 7485   0.860   6.143   1.912
 2196SOL     OW 7486   3.601   0.700   5.250
 2196SOL    HW1 7487   3.693   0.740   5.243
 2196SOL    HW2 7488   3.594   0.622   5.189
 2197SOL     OW 7489   4.841   4.637   1.519
 2197SOL    HW1 7490   4.895   4.721   1.523
 2197SOL    HW2 7491   4.840   4.593   1.609
 2198SOL     OW 7492   6.734   4.002   6.753
 2198SOL    HW1 7493   6.771   4.080   6.803
 2198SOL    HW2 7494   6.719   4.026   6.658
 2199SOL     OW 7495   4.615   6.876   0.293
 2199SOL    HW1 7496   4.645   6.939   0.364
 2199SOL    HW2 7497   4.676   6.882   0.214
 2200SOL     OW 7498   4.185   0.966   4.732
 2200SOL    HW1 7499   4.190   0.898   4.806
 2200SOL    HW2 7500   4.258   1.033   4.744
 2201SOL     OW 7501   5.945   3.238   2.051
 2201SOL    HW1 7502   5.932   3.273   2.144
 2201SOL    HW2 7503   5.950   3.314   1.987
 2202SOL     OW 7504   4.057   4.943   4.389
 2202SOL    HW1 7505   4.026   4.922   4.297
 2202SOL    HW2 7506   4.067   5.042   4.399
 2203SOL     OW 7507   3.473   2.053   3.699
 2203SOL    HW1 7508   3.489   2.035   3.602
 2203SOL    HW2 7509   3.560   2.054   3.748
 2204SOL     OW 7510   3.529   1.389   6.662
 2204SOL    HW1 7511   3.546   1.367   6.566
 2204SOL    HW2 7512   3.616   1.410   6.708
 2205SOL     OW 7513   1.491   0.098   0.203
 2205SOL    HW1 7514   1.566   0.145   0.156
 2205SOL    HW2 7515   1.515   0.001   0.214
 2206SOL     OW 7516   3.342   3.483   6.502
 2206SOL    HW1 7517   3.280   3.500   6.425
 2206SOL    HW2 7518   3.409   3.557   6.508
 2207SOL     OW 7519   1.208   4.084   6.235
 2207SOL    HW1 7520   1.257   4.168   6.259
 2207SOL    HW2 7521   1.122   4.081   6.286
 2208SOL     OW 7522   0.100   3.425   1.955
 2208SOL    HW1 7523   0.073   3.377   1.872
 2208SOL    HW2 7524   0.199   3.417   1.968
 2209SOL     OW 7525   1.824   5.723   6.668
 2209SOL    HW1 7526   1.915   5.756   6.694
 2209SOL    HW2 7527   1.793   5.771   6.586
 2210SOL     OW 7528   1.057   5.449   3.339
 2210SOL    HW1 7529   1.078   5.508   3.416
 2210SOL    HW2 7530   0.980   5.390   3.362
 2211SOL     OW 7531   6.066   1.390   5.323
 2211SOL    HW1 7532   6.130   1.461   5.354
 2211SOL    HW2 7533   6.047   1.327   5.398
 2212SOL     OW 7534   0.786   0.017   6.085
 2212SOL    HW1 7535   0.754   6.980   6.159
 2212SOL    HW2 7536   0.786   0.113   6.116
 2213SOL     OW 7537   4.242   2.157   4.085
 2213SOL    HW1 7538   4.234   2.135   3.987
 2213SOL    HW2 7539   4.153   2.149   4.128
 2214SOL     OW 7540   4.963   0.662   4.834
 2214SOL    HW1 7541   4.927   0.677   4.742
 2214SOL    HW2 7542   4.987   0.750   4.876
 2215SOL     OW 7543   6.895   1.766   5.573
 2215SOL    HW1 7544   6.921   1.861   5.561
 2215SOL    HW2 7545   6.948   1.709   5.509
 2216SOL     OW 7546   1.209   6.722   1.201
 2216SOL    HW1 7547   1.203   6.622   1.201
 2216SOL    HW2 7548   1.305   6.750   1.213
 2217SOL     OW 7549   4.084   6.623   1.143
 2217SOL    HW1 7550   4.035   6.699   1.186
 2217SOL    HW2 7551   4.171   6.609   1.189
 2218SOL     OW 7552   1.081   5.844   6.373
 2218SOL    HW1 7553   1.130   5.918   6.327
 2218SOL    HW2 7554   1.064   5.770   6.308
 2219SOL     OW 7555   1.548   3.667   3.466
 2219SOL    HW1 7556   1.638   3.691   3.502
 2219SOL    HW2 7557   1.549   3.674   3.366
 2220SOL     OW 7558   0.494   2.051   5.232
 2220SOL    HW1 7559   0.508   2.047   5.331
 2220SOL    HW2 7560   0.526   1.967   5.190
 2221SOL     OW 7561   6.647   1.879   1.444
 2221SOL    HW1 7562   6.667   1.782   1.426
 2221SOL    HW2 7563   6.600   1.888   1.532
 2222SOL     OW 7564   4.673   0.041   1.846
 2222SOL    HW1 7565   4.734   0.093   1.787
 2222SOL    HW2 7566   4.616   0.104   1.900
 2223SOL     OW 7567   5.987   5.256   3.813
 2223SOL    HW1 7568   5.990   5.160   3.785
 2223SOL    HW2 7569   5.972   5.314   3.733
 2224SOL     OW 7570   1.832   5.040   1.558
 2224SOL    HW1 7571   1.875   4.967   1.505
 2224SOL    HW2 7572   1.798   5.110   1.495
 2225SOL     OW 7573   6.515   4.850   2.374
 2225SOL    HW1 7574   6.572   4.916   2.421
 2225SOL    HW2 7575   6.557   4.825   2.287
 2226SOL     OW 7576   3.909   2.793   1.282
 2226SOL    HW1 7577   3.985   2.741   1.243
 2226SOL    HW2 7578   3.912   2.788   1.382
 2227SOL     OW 7579   6.511   4.149   6.227
 2227SOL    HW1 7580   6.420   4.183   6.249
 2227SOL    HW2 7581   6.515   4.050   6.244
 2228SOL     OW 7582   3.231   4.859   6.777
 2228SOL    HW1 7583   3.188   4.814   6.698
 2228SOL    HW2 7584   3.299   4.797   6.817
 2229SOL     OW 7585   4.694   1.168   3.871
 2229SOL    HW1 7586   4.755   1.237   3.910
 2229SOL    HW2 7587   4.599   1.196   3.886
 2230SOL     OW 7588   1.470   5.380   4.402
 2230SOL    HW1 7589   1.374   5.402   4.382
 2230SOL    HW2 7590   1.507   5.324   4.328
 2231SOL     OW 7591   1.784   0.920   2.010
 2231SOL    HW1 7592   1.744   0.998   1.961
 2231SOL    HW2 7593   1.883   0.927   2.007
 2232SOL     OW 7594   0.140   3.212   2.592
 2232SOL    HW1 7595   0.135   3.251   2.500
 2232SOL    HW2 7596   0.057   3.158   2.609
 2233SOL     OW 7597   3.291   5.495   0.394
 2233SOL    HW1 7598   3.216   5.457   0.339
 2233SOL    HW2 7599   3.296   5.594   0.379
 2234SOL     OW 7600   3.711   1.902   0.795
 2234SOL    HW1 7601   3.717   1.812   0.751
 2234SOL    HW2 7602   3.730   1.973   0.727
 2235SOL     OW 7603   1.231   0.219   0.135
 2235SOL    HW1 7604   1.314   0.168   0.115
 2235SOL    HW2 7605   1.207   0.208   0.231
 2236SOL     OW 7606   0.708   4.290   0.930
 2236SOL    HW1 7607   0.800   4.310   0.897
 2236SOL    HW2 7608   0.660   4.233   0.863
 2237SOL     OW 7609   6.891   3.101   4.855
 2237SOL    HW1 7610   6.851   3.090   4.764
 2237SOL    HW2 7611   6.919   3.196   4.868
 2238SOL     OW 7612   0.096   5.535   2.203
 2238SOL    HW1 7613   0.048   5.620   2.181
 2238SOL    HW2 7614   0.068   5.504   2.294
 2239SOL     OW 7615   4.187   4.698   3.509
 2239SOL    HW1 7616   4.177   4.598   3.517
 2239SOL    HW2 7617   4.263   4.728   3.567
 2240SOL     OW 7618   6.644   5.059   3.660
 2240SOL    HW1 7619   6.544   5.067   3.662
 2240SOL    HW2 7620   6.679   5.093   3.573
 2241SOL     OW 7621   0.244   6.228   2.263
 2241SOL    HW1 7622   0.294   6.149   2.227
 2241SOL    HW2 7623   0.226   6.293   2.189
 2242SOL     OW 7624   4.690   1.867   3.356
 2242SOL    HW1 7625   4.634   1.941   3.391
 2242SOL    HW2 7626   4.645   1.826   3.276
 2243SOL     OW 7627   2.279   6.206   4.451
 2243SOL    HW1 7628   2.304   6.118   4.490
 2243SOL    HW2 7629   2.243   6.266   4.522
 2244SOL     OW 7630   3.191   0.562   4.609
 2244SOL    HW1 7631   3.140   0.647   4.626
 2244SOL    HW2 7632   3.262   0.552   4.678
 2245SOL     OW 7633   6.943   2.311   2.728
 2245SOL    HW1 7634   0.012   2.303   2.687
 2245SOL    HW2 7635   6.891   2.383   2.682
 2246SOL     OW 7636   1.465   3.701   5.889
 2246SOL    HW1 7637   1.488   3.620   5.835
 2246SOL    HW2 7638   1.549   3.745   5.920
 2247SOL     OW 7639   2.319   2.039   5.659
 2247SOL    HW1 7640   2.335   2.125   5.611
 2247SOL    HW2 7641   2.223   2.011   5.647
 2248SOL     OW 7642   4.573   4.038   5.456
 2248SOL    HW1 7643   4.664   3.999   5.471
 2248SOL    HW2 7644   4.544   4.088   5.537
 2249SOL     OW 7645   5.371   6.039   2.999
 2249SOL    HW1 7646   5.376   6.137   3.016
 2249SOL    HW2 7647   5.413   5.990   3.076
 2250SOL     OW 7648   5.684   3.660   1.605
 2250SOL    HW1 7649   5.679   3.725   1.530
 2250SOL    HW2 7650   5.624   3.582   1.585
 2251SOL     OW 7651   5.862   1.871   0.194
 2251SOL    HW1 7652   5.781   1.860   0.251
 2251SOL    HW2 7653   5.909   1.783   0.185
 2252SOL     OW 7654   5.440   2.702   5.487
 2252SOL    HW1 7655   5.469   2.762   5.561
 2252SOL    HW2 7656   5.432   2.608   5.521
 2253SOL     OW 7657   2.768   3.095   6.760
 2253SOL    HW1 7658   2.858   3.076   6.799
 2253SOL    HW2 7659   2.765   3.190   6.728
 2254SOL     OW 7660   2.163   3.512   5.977
 2254SOL    HW1 7661   2.218   3.482   6.055
 2254SOL    HW2 7662   2.094   3.443   5.956
 2255SOL     OW 7663   6.006   2.732   1.969
 2255SOL    HW1 7664   6.056   2.648   1.990
 2255SOL    HW2 7665   6.047   2.808   2.020
 2256SOL     OW 7666   4.031   4.874   2.271
 2256SOL    HW1 7667   4.006   4.808   2.200
 2256SOL    HW2 7668   3.988   4.962   2.252
 2257SOL     OW 7669   1.556   3.707   4.460
 2257SOL    HW1 7670   1.637   3.650   4.472
 2257SOL    HW2 7671   1.583   3.802   4.443
 2258SOL     OW 7672   1.963   5.085   5.371
 2258SOL    HW1 7673   1.863   5.097   5.367
 2258SOL    HW2 7674   2.003   5.160   5.424
 2259SOL     OW 7675   5.762   3.812   6.489
 2259SOL    HW1 7676   5.773   3.860   6.403
 2259SOL    HW2 7677   5.673   3.834   6.529
 2260SOL     OW 7678   4.461   5.003   1.898
 2260SOL    HW1 7679   4.453   4.910   1.863
 2260SOL    HW2 7680   4.392   5.061   1.854
 2261SOL     OW 7681   5.206   6.625   0.799
 2261SOL    HW1 7682   5.225   6.644   0.703
 2261SOL    HW2 7683   5.256   6.544   0.828
 2262SOL     OW 7684   5.204   2.532   4.230
 2262SOL    HW1 7685   5.268   2.459   4.206
 2262SOL    HW2 7686   5.246   2.592   4.299
 2263SOL     OW 7687   1.265   5.485   5.715
 2263SOL    HW1 7688   1.168   5.464   5.700
 2263SOL    HW2 7689   1.317   5.400   5.717
 2264SOL     OW 7690   3.070   3.797   3.006
 2264SOL    HW1 7691   2.999   3.747   3.055
 2264SOL    HW2 7692   3.138   3.733   2.971
 2265SOL     OW 7693   6.854   0.750   2.214
 2265SOL    HW1 7694   6.873   0.840   2.175
 2265SOL    HW2 7695   6.880   0.749   2.310
 2266SOL     OW 7696   6.056   0.612   1.018
 2266SOL    HW1 7697   6.042   0.648   1.110
 2266SOL    HW2 7698   6.143   0.645   0.982
 2267SOL     OW 7699   5.949   2.355   5.093
 2267SOL    HW1 7700   5.882   2.292   5.133
 2267SOL    HW2 7701   6.000   2.308   5.021
 2268SOL     OW 7702   0.194   6.499   0.324
 2268SOL    HW1 7703   0.115   6.541   0.281
 2268SOL    HW2 7704   0.167   6.414   0.370
 2269SOL     OW 7705   6.736   5.972   6.198
 2269SOL    HW1 7706   6.674   6.047   6.223
 2269SOL    HW2 7707   6.753   5.974   6.100
 2270SOL     OW 7708   2.918   3.186   2.221
 2270SOL    HW1 7709   2.969   3.101   2.228
 2270SOL    HW2 7710   2.903   3.208   2.124
 2271SOL     OW 7711   5.814   4.606   1.448
 2271SOL    HW1 7712   5.912   4.595   1.465
 2271SOL    HW2 7713   5.792   4.703   1.440
 2272SOL     OW 7714   5.364   1.616   5.512
 2272SOL    HW1 7715   5.307   1.692   5.479
 2272SOL    HW2 7716   5.344   1.600   5.609
 2273SOL     OW 7717   0.727   0.880   3.598
 2273SOL    HW1 7718   0.717   0.858   3.501
 2273SOL    HW2 7719   0.696   0.974   3.613
 2274SOL     OW 7720   1.496   3.896   5.006
 2274SOL    HW1 7721   1.539   3.928   4.921
 2274SOL    HW2 7722   1.525   3.803   5.025
 2275SOL     OW 7723   5.234   5.669   4.842
 2275SOL    HW1 7724   5.316   5.689   4.788
 2275SOL    HW2 7725   5.189   5.588   4.805
 2276SOL     OW 7726   4.309   4.083   0.715
 2276SOL    HW1 7727   4.246   4.155   0.684
 2276SOL    HW2 7728   4.354   4.042   0.636
 2277SOL     OW 7729   3.190   3.180   6.151
 2277SOL    HW1 7730   3.159   3.273   6.174
 2277SOL    HW2 7731   3.114   3.116   6.163
 2278SOL     OW 7732   5.683   6.550   2.464
 2278SOL    HW1 7733   5.652   6.540   2.369
 2278SOL    HW2 7734   5.731   6.467   2.492
 2279SOL     OW 7735   5.809   3.400   5.015
 2279SOL    HW1 7736   5.882   3.462   5.045
 2279SOL    HW2 7737   5.799   3.406   4.916
 2280SOL     OW 7738   6.690   6.290   5.272
 2280SOL    HW1 7739   6.739   6.251   5.195
 2280SOL    HW2 7740   6.621   6.355   5.239
 2281SOL     OW 7741   3.710   2.085   1.729
 2281SOL    HW1 7742   3.648   2.027   1.782
 2281SOL    HW2 7743   3.705   2.179   1.764
 2282SOL     OW 7744   4.232   5.592   3.693
 2282SOL    HW1 7745   4.194   5.507   3.656
 2282SOL    HW2 7746   4.230   5.589   3.793
 2283SOL     OW 7747   6.866   4.168   3.553
 2283SOL    HW1 7748   6.872   4.168   3.454
 2283SOL    HW2 7749   6.872   4.262   3.588
 2284SOL     OW 7750   2.354   2.273   1.387
 2284SOL    HW1 7751   2.404   2.221   1.319
 2284SOL    HW2 7752   2.407   2.354   1.413
 2285SOL     OW 7753   1.494   3.576   0.175
 2285SOL    HW1 7754   1.526   3.625   0.094
 2285SOL    HW2 7755   1.455   3.641   0.240
 2286SOL     OW 7756   6.250   5.585   4.421
 2286SOL    HW1 7757   6.186   5.543   4.356
 2286SOL    HW2 7758   6.341   5.590   4.378
 2287SOL     OW 7759   2.578   2.437   1.138
 2287SOL    HW1 7760   2.660   2.464   1.189
 2287SOL    HW2 7761   2.563   2.502   1.064
 2288SOL     OW 7762   0.337   6.429   3.025
 2288SOL    HW1 7763   0.385   6.353   2.980
 2288SOL    HW2 7764   0.392   6.463   3.101
 2289SOL     OW 7765   5.777   1.361   2.404
 2289SOL    HW1 7766   5.809   1.281   2.354
 2289SOL    HW2 7767   5.681   1.350   2.427
 2290SOL     OW 7768   2.995   3.691   3.487
 2290SOL    HW1 7769   3.036   3.636   3.414
 2290SOL    HW2 7770   2.952   3.630   3.554
 2291SOL     OW 7771   1.974   2.119   1.269
 2291SOL    HW1 7772   2.068   2.100   1.299
 2291SOL    HW2 7773   1.914   2.045   1.299
 2292SOL     OW 7774   4.771   2.161   3.585
 2292SOL    HW1 7775   4.862   2.164   3.544
 2292SOL    HW2 7776   4.771   2.096   3.661
 2293SOL     OW 7777   5.520   1.320   0.863
 2293SOL    HW1 7778   5.421   1.302   0.865
 2293SOL    HW2 7779   5.561   1.269   0.787
 2294SOL     OW 7780   1.516   2.496   6.087
 2294SOL    HW1 7781   1.577   2.515   6.011
 2294SOL    HW2 7782   1.540   2.555   6.165
 2295SOL     OW 7783   6.658   0.155   1.759
 2295SOL    HW1 7784   6.692   0.071   1.802
 2295SOL    HW2 7785   6.566   0.140   1.724
 2296SOL     OW 7786   2.591   5.136   3.110
 2296SOL    HW1 7787   2.580   5.046   3.069
 2296SOL    HW2 7788   2.507   5.161   3.158
 2297SOL     OW 7789   4.830   4.917   5.765
 2297SOL    HW1 7790   4.844   4.836   5.822
 2297SOL    HW2 7791   4.748   4.965   5.795
 2298SOL     OW 7792   3.957   3.054   4.819
 2298SOL    HW1 7793   4.001   3.140   4.848
 2298SOL    HW2 7794   4.006   3.017   4.740
 2299SOL     OW 7795   5.547   3.293   5.075
 2299SOL    HW1 7796   5.637   3.330   5.052
 2299SOL    HW2 7797   5.504   3.351   5.145
 2300SOL     OW 7798   3.857   0.009   3.160
 2300SOL    HW1 7799   3.938   7.001   3.210
 2300SOL    HW2 7800   3.879   0.018   3.063
 2301SOL     OW 7801   3.085   3.180   4.276
 2301SOL    HW1 7802   3.090   3.162   4.178
 2301SOL    HW2 7803   3.088   3.279   4.292
 2302SOL     OW 7804   4.231   1.595   0.516
 2302SOL    HW1 7805   4.273   1.610   0.606
 2302SOL    HW2 7806   4.265   1.509   0.477
 2303SOL     OW 7807   2.897   2.741   0.910
 2303SOL    HW1 7808   2.855   2.778   0.993
 2303SOL    HW2 7809   2.826   2.724   0.842
 2304SOL     OW 7810   6.407   5.926   3.155
 2304SOL    HW1 7811   6.455   5.856   3.207
 2304SOL    HW2 7812   6.371   5.887   3.070
 2305SOL     OW 7813   1.687   1.180   4.710
 2305SOL    HW1 7814   1.683   1.089   4.667
 2305SOL    HW2 7815   1.596   1.220   4.710
 2306SOL     OW 7816   1.965   4.635   3.772
 2306SOL    HW1 7817   1.926   4.631   3.864
 2306SOL    HW2 7818   2.033   4.561   3.762
 2307SOL     OW 7819   1.557   2.921   5.706
 2307SOL    HW1 7820   1.625   2.849   5.721
 2307SOL    HW2 7821   1.516   2.909   5.615
 2308SOL     OW 7822   2.425   4.436   1.303
 2308SOL    HW1 7823   2.354   4.371   1.276
 2308SOL    HW2 7824   2.425   4.447   1.402
 2309SOL     OW 7825   1.384   6.910   4.561
 2309SOL    HW1 7826   1.337   6.824   4.541
 2309SOL    HW2 7827   1.469   6.914   4.510
 2310SOL     OW 7828   4.341   6.465   1.772
 2310SOL    HW1 7829   4.416   6.449   1.836
 2310SOL    HW2 7830   4.376   6.514   1.692
 2311SOL     OW 7831   2.740   6.134   0.533
 2311SOL    HW1 7832   2.741   6.125   0.433
 2311SOL    HW2 7833   2.818   6.189   0.562
 2312SOL     OW 7834   3.304   6.122   2.543
 2312SOL    HW1 7835   3.317   6.023   2.529
 2312SOL    HW2 7836   3.207   6.140   2.562
 2313SOL     OW 7837   4.824   4.795   2.836
 2313SOL    HW1 7838   4.759   4.839   2.897
 2313SOL    HW2 7839   4.884   4.864   2.795
 2314SOL     OW 7840   2.986   5.554   3.132
 2314SOL    HW1 7841   2.952   5.595   3.217
 2314SOL    HW2 7842   3.074   5.595   3.109
 2315SOL     OW 7843   4.571   2.992   6.059
 2315SOL    HW1 7844   4.588   2.971   6.156
 2315SOL    HW2 7845   4.486   3.045   6.052
 2316SOL     OW 7846   5.778   2.888   3.050
 2316SOL    HW1 7847   5.714   2.817   3.020
 2316SOL    HW2 7848   5.859   2.845   3.090
 2317SOL     OW 7849   1.611   4.369   2.707
 2317SOL    HW1 7850   1.527   4.424   2.701
 2317SOL    HW2 7851   1.686   4.427   2.738
 2318SOL     OW 7852   6.936   1.593   2.912
 2318SOL    HW1 7853   6.908   1.500   2.889
 2318SOL    HW2 7854   6.914   1.654   2.836
 2319SOL     OW 7855   1.830   4.835   4.892
 2319SOL    HW1 7856   1.840   4.928   4.855
 2319SOL    HW2 7857   1.920   4.791   4.897
 2320SOL     OW 7858   0.168   2.488   4.044
 2320SOL    HW1 7859   0.227   2.559   4.005
 2320SOL    HW2 7860   0.173   2.406   3.987
 2321SOL     OW 7861   2.836   6.867   4.446
 2321SOL    HW1 7862   2.775   6.930   4.397
 2321SOL    HW2 7863   2.879   6.805   4.381
 2322SOL     OW 7864   1.404   1.019   5.398
 2322SOL    HW1 7865   1.415   0.920   5.397
 2322SOL    HW2 7866   1.365   1.048   5.486
 2323SOL     OW 7867   4.587   5.493   2.880
 2323SOL    HW1 7868   4.549   5.509   2.972
 2323SOL    HW2 7869   4.660   5.424   2.885
 2324SOL     OW 7870   0.798   6.040   2.636
 2324SOL    HW1 7871   0.861   6.026   2.559
 2324SOL    HW2 7872   0.824   5.978   2.710
 2325SOL     OW 7873   1.307   4.152   0.893
 2325SOL    HW1 7874   1.235   4.221   0.905
 2325SOL    HW2 7875   1.393   4.198   0.870
 2326SOL     OW 7876   1.520   5.091   6.842
 2326SOL    HW1 7877   1.562   5.120   6.757
 2326SOL    HW2 7878   1.590   5.048   6.901
 2327SOL     OW 7879   4.840   2.564   4.061
 2327SOL    HW1 7880   4.774   2.537   3.991
 2327SOL    HW2 7881   4.931   2.574   4.020
 2328SOL     OW 7882   4.810   1.416   3.264
 2328SOL    HW1 7883   4.840   1.512   3.266
 2328SOL    HW2 7884   4.830   1.373   3.352
 2329SOL     OW 7885   1.394   5.911   3.913
 2329SOL    HW1 7886   1.446   5.845   3.860
 2329SOL    HW2 7887   1.410   6.003   3.877
 2330SOL     OW 7888   0.863   4.722   2.292
 2330SOL    HW1 7889   0.961   4.739   2.292
 2330SOL    HW2 7890   0.818   4.784   2.356
 2331SOL     OW 7891   0.521   3.995   5.503
 2331SOL    HW1 7892   0.565   3.931   5.440
 2331SOL    HW2 7893   0.488   4.074   5.451
 2332SOL     OW 7894   5.712   2.501   5.758
 2332SOL    HW1 7895   5.668   2.473   5.844
 2332SOL    HW2 7896   5.791   2.443   5.741
 2333SOL     OW 7897   1.177   5.201   3.176
 2333SOL    HW1 7898   1.264   5.241   3.148
 2333SOL    HW2 7899   1.111   5.274   3.192
 2334SOL     OW 7900   3.208   0.003   6.692
 2334SOL    HW1 7901   3.113   6.994   6.703
 2334SOL    HW2 7902   3.227   0.077   6.756
 2335SOL     OW 7903   5.032   6.962   3.213
 2335SOL    HW1 7904   4.971   6.965   3.133
 2335SOL    HW2 7905   5.032   0.030   3.257
 2336SOL     OW 7906   4.976   0.859   6.155
 2336SOL    HW1 7907   4.882   0.880   6.181
 2336SOL    HW2 7908   5.002   0.913   6.074
 2337SOL     OW 7909   5.319   0.379   3.412
 2337SOL    HW1 7910   5.229   0.377   3.455
 2337SOL    HW2 7911   5.317   0.325   3.328
 2338SOL     OW 7912   0.403   6.987   6.907
 2338SOL    HW1 7913   0.314   6.977   6.863
 2338SOL    HW2 7914   0.390   7.014   7.002
 2339SOL     OW 7915   3.838   4.831   6.489
 2339SOL    HW1 7916   3.919   4.812   6.544
 2339SOL    HW2 7917   3.792   4.912   6.525
 2340SOL     OW 7918   3.550   5.575   4.602
 2340SOL    HW1 7919   3.518   5.485   4.631
 2340SOL    HW2 7920   3.478   5.643   4.618
 2341SOL     OW 7921   5.625   5.357   0.809
 2341SOL    HW1 7922   5.574   5.293   0.866
 2341SOL    HW2 7923   5.722   5.355   0.834
 2342SOL     OW 7924   6.568   0.400   5.022
 2342SOL    HW1 7925   6.606   0.440   5.104
 2342SOL    HW2 7926   6.607   0.310   5.007
 2343SOL     OW 7927   1.193   5.442   1.441
 2343SOL    HW1 7928   1.102   5.459   1.401
 2343SOL    HW2 7929   1.216   5.516   1.503
 2344SOL     OW 7930   2.230   2.201   2.532
 2344SOL    HW1 7931   2.273   2.217   2.444
 2344SOL    HW2 7932   2.188   2.285   2.565
 2345SOL     OW 7933   1.581   0.585   4.404
 2345SOL    HW1 7934   1.488   0.575   4.441
 2345SOL    HW2 7935   1.578   0.644   4.324
 2346SOL     OW 7936   5.078   3.572   6.004
 2346SOL    HW1 7937   5.016   3.532   6.071
 2346SOL    HW2 7938   5.173   3.550   6.029
 2347SOL     OW 7939   1.618   3.070   1.810
 2347SOL    HW1 7940   1.529   3.035   1.839
 2347SOL    HW2 7941   1.606   3.153   1.757
 2348SOL     OW 7942   2.965   6.369   2.748
 2348SOL    HW1 7943   2.984   6.425   2.668
 2348SOL    HW2 7944   2.905   6.419   2.811
 2349SOL     OW 7945   0.079   6.522   6.102
 2349SOL    HW1 7946   0.028   6.531   6.017
 2349SOL    HW2 7947   0.169   6.481   6.084
 2350SOL     OW 7948   2.910   0.288   5.667
 2350SOL    HW1 7949   2.999   0.244   5.655
 2350SOL    HW2 7950   2.913   0.381   5.629
 2351SOL     OW 7951   2.690   4.975   3.681
 2351SOL    HW1 7952   2.754   5.043   3.715
 2351SOL    HW2 7953   2.645   4.929   3.757
 2352SOL     OW 7954   0.225   4.094   3.172
 2352SOL    HW1 7955   0.236   4.093   3.272
 2352SOL    HW2 7956   0.128   4.103   3.150
 2353SOL     OW 7957   3.016   4.372   5.557
 2353SOL    HW1 7958   3.020   4.275   5.580
 2353SOL    HW2 7959   2.935   4.390   5.501
 2354SOL     OW 7960   3.822   2.106   0.662
 2354SOL    HW1 7961   3.774   2.180   0.707
 2354SOL    HW2 7962   3.869   2.141   0.580
 2355SOL     OW 7963   0.391   6.589   0.067
 2355SOL    HW1 7964   0.416   6.611   0.161
 2355SOL    HW2 7965   0.309   6.641   0.041
 2356SOL     OW 7966   2.473   5.082   2.693
 2356SOL    HW1 7967   2.375   5.074   2.673
 2356SOL    HW2 7968   2.525   5.030   2.625
 2357SOL     OW 7969   5.734   4.522   2.010
 2357SOL    HW1 7970   5.742   4.505   1.912
 2357SOL    HW2 7971   5.733   4.620   2.027
 2358SOL     OW 7972   4.015   0.467   5.879
 2358SOL    HW1 7973   3.974   0.411   5.808
 2358SOL    HW2 7974   4.044   0.555   5.840
 2359SOL     OW 7975   2.410   1.680   5.247
 2359SOL    HW1 7976   2.422   1.766   5.296
 2359SOL    HW2 7977   2.343   1.692   5.174
 2360SOL     OW 7978   4.099   4.870   1.181
 2360SOL    HW1 7979   4.143   4.809   1.115
 2360SOL    HW2 7980   4.021   4.916   1.138
 2361SOL     OW 7981   3.363   6.667   2.117
 2361SOL    HW1 7982   3.423   6.686   2.040
 2361SOL    HW2 7983   3.377   6.736   2.188
 2362SOL     OW 7984   4.773   5.523   4.786
 2362SOL    HW1 7985   4.717   5.605   4.788
 2362SOL    HW2 7986   4.740   5.461   4.714
 2363SOL     OW 7987   3.143   3.322   0.122
 2363SOL    HW1 7988   3.205   3.283   0.055
 2363SOL    HW2 7989   3.095   3.249   0.170
 2364SOL     OW 7990   4.765   1.717   2.087
 2364SOL    HW1 7991   4.790   1.624   2.113
 2364SOL    HW2 7992   4.730   1.717   1.993
 2365SOL     OW 7993   5.261   3.153   4.112
 2365SOL    HW1 7994   5.350   3.132   4.071
 2365SOL    HW2 7995   5.275   3.195   4.202
 2366SOL     OW 7996   2.419   4.129   5.576
 2366SOL    HW1 7997   2.460   4.089   5.494
 2366SOL    HW2 7998   2.336   4.178   5.551
 2367SOL     OW 7999   0.760   3.795   6.291
 2367SOL    HW1 8000   0.793   3.856   6.218
 2367SOL    HW2 8001   0.717   3.715   6.250
 2368SOL     OW 8002   5.351   0.265   4.056
 2368SOL    HW1 8003   5.284   0.322   4.102
 2368SOL    HW2 8004   5.439   0.271   4.103
 2369SOL     OW 8005   2.994   1.578   3.657
 2369SOL    HW1 8006   3.028   1.579   3.751
 2369SOL    HW2 8007   3.054   1.521   3.601
 2370SOL     OW 8008   5.285   2.886   1.097
 2370SOL    HW1 8009   5.363   2.948   1.090
 2370SOL    HW2 8010   5.277   2.832   1.013
 2371SOL     OW 8011   1.224   6.668   2.905
 2371SOL    HW1 8012   1.152   6.608   2.940
 2371SOL    HW2 8013   1.183   6.752   2.869
 2372SOL     OW 8014   6.559   1.450   5.771
 2372SOL    HW1 8015   6.489   1.503   5.723
 2372SOL    HW2 8016   6.607   1.509   5.837
 2373SOL     OW 8017   6.341   0.611   6.374
 2373SOL    HW1 8018   6.291   0.615   6.288
 2373SOL    HW2 8019   6.377   0.518   6.387
 2374SOL     OW 8020   6.040   6.031   3.049
 2374SOL    HW1 8021   6.074   5.980   3.128
 2374SOL    HW2 8022   6.021   6.125   3.076
 2375SOL     OW 8023   1.130   0.421   3.848
 2375SOL    HW1 8024   1.165   0.514   3.834
 2375SOL    HW2 8025   1.042   0.411   3.802
 2376SOL     OW 8026   6.446   2.568   3.239
 2376SOL    HW1 8027   6.357   2.558   3.284
 2376SOL    HW2 8028   6.457   2.496   3.171
 2377SOL     OW 8029   4.284   4.890   6.089
 2377SOL    HW1 8030   4.220   4.965   6.098
 2377SOL    HW2 8031   4.284   4.857   5.995
 2378SOL     OW 8032   6.124   1.915   0.663
 2378SOL    HW1 8033   6.120   1.823   0.703
 2378SOL    HW2 8034   6.213   1.928   0.617
 2379SOL     OW 8035   0.049   5.028   0.257
 2379SOL    HW1 8036   0.120   5.098   0.256
 2379SOL    HW2 8037   6.981   5.071   0.256
 2380SOL     OW 8038   5.607   3.373   5.500
 2380SOL    HW1 8039   5.562   3.297   5.547
 2380SOL    HW2 8040   5.632   3.443   5.566
 2381SOL     OW 8041   2.443   4.632   5.283
 2381SOL    HW1 8042   2.376   4.684   5.230
 2381SOL    HW2 8043   2.461   4.680   5.369
 2382SOL     OW 8044   1.612   5.903   2.428
 2382SOL    HW1 8045   1.636   5.942   2.517
 2382SOL    HW2 8046   1.562   5.971   2.374
 2383SOL     OW 8047   5.467   5.991   5.455
 2383SOL    HW1 8048   5.387   5.948   5.496
 2383SOL    HW2 8049   5.439   6.071   5.402
 2384SOL     OW 8050   0.906   1.991   1.621
 2384SOL    HW1 8051   0.849   2.066   1.587
 2384SOL    HW2 8052   0.931   1.931   1.545
 2385SOL     OW 8053   0.434   1.895   0.368
 2385SOL    HW1 8054   0.370   1.953   0.317
 2385SOL    HW2 8055   0.512   1.872   0.310
 2386SOL     OW 8056   3.395   5.357   4.269
 2386SOL    HW1 8057   3.435   5.348   4.178
 2386SOL    HW2 8058   3.297   5.373   4.262
 2387SOL     OW 8059   0.946   2.305   3.523
 2387SOL    HW1 8060   0.876   2.340   3.461
 2387SOL    HW2 8061   0.998   2.232   3.477
 2388SOL     OW 8062   0.036   2.134   6.241
 2388SOL    HW1 8063   6.983   2.183   6.196
 2388SOL    HW2 8064   0.015   2.123   6.338
 2389SOL     OW 8065   5.290   5.020   4.139
 2389SOL    HW1 8066   5.267   5.090   4.206
 2389SOL    HW2 8067   5.329   5.064   4.057
 2390SOL     OW 8068   4.668   3.538   6.310
 2390SOL    HW1 8069   4.658   3.450   6.356
 2390SOL    HW2 8070   4.713   3.603   6.372
 2391SOL     OW 8071   3.547   3.889   6.327
 2391SOL    HW1 8072   3.547   3.806   6.382
 2391SOL    HW2 8073   3.561   3.866   6.230
 2392SOL     OW 8074   3.193   5.374   5.595
 2392SOL    HW1 8075   3.207   5.399   5.691
 2392SOL    HW2 8076   3.097   5.347   5.581
 2393SOL     OW 8077   3.812   5.404   1.388
 2393SOL    HW1 8078   3.773   5.317   1.418
 2393SOL    HW2 8079   3.912   5.401   1.399
 2394SOL     OW 8080   6.974   3.497   3.179
 2394SOL    HW1 8081   6.943   3.566   3.113
 2394SOL    HW2 8082   6.987   3.410   3.132
 2395SOL     OW 8083   0.492   3.151   6.508
 2395SOL    HW1 8084   0.515   3.073   6.450
 2395SOL    HW2 8085   0.491   3.235   6.454
 2396SOL     OW 8086   5.387   0.704   4.850
 2396SOL    HW1 8087   5.316   0.700   4.780
 2396SOL    HW2 8088   5.388   0.618   4.901
 2397SOL     OW 8089   0.909   4.955   5.436
 2397SOL    HW1 8090   0.910   4.917   5.343
 2397SOL    HW2 8091   0.970   5.034   5.440
 2398SOL     OW 8092   2.850   5.429   3.460
 2398SOL    HW1 8093   2.785   5.479   3.403
 2398SOL    HW2 8094   2.829   5.331   3.457
 2399SOL     OW 8095   2.619   2.459   3.723
 2399SOL    HW1 8096   2.684   2.480   3.795
 2399SOL    HW2 8097   2.532   2.506   3.740
 2400SOL     OW 8098   1.998   3.826   0.193
 2400SOL    HW1 8099   1.997   3.728   0.172
 2400SOL    HW2 8100   2.090   3.854   0.218
 2401SOL     OW 8101   3.483   0.079   4.677
 2401SOL    HW1 8102   3.424   0.005   4.709
 2401SOL    HW2 8103   3.578   0.059   4.700
 2402SOL     OW 8104   0.821   2.051   2.501
 2402SOL    HW1 8105   0.872   1.966   2.494
 2402SOL    HW2 8106   0.875   2.118   2.553
 2403SOL     OW 8107   3.994   3.382   1.545
 2403SOL    HW1 8108   3.946   3.458   1.588
 2403SOL    HW2 8109   4.092   3.392   1.560
 2404SOL     OW 8110   6.828   1.353   1.157
 2404SOL    HW1 8111   6.879   1.342   1.072
 2404SOL    HW2 8112   6.747   1.409   1.140
 2405SOL     OW 8113   2.577   4.811   6.898
 2405SOL    HW1 8114   2.583   4.861   6.811
 2405SOL    HW2 8115   2.566   4.714   6.879
 2406SOL     OW 8116   1.805   0.589   4.028
 2406SOL    HW1 8117   1.756   0.502   4.020
 2406SOL    HW2 8118   1.903   0.572   4.019
 2407SOL     OW 8119   3.988   2.049   3.300
 2407SOL    HW1 8120   4.066   1.988   3.316
 2407SOL    HW2 8121   4.019   2.130   3.250
 2408SOL     OW 8122   2.317   5.776   3.583
 2408SOL    HW1 8123   2.246   5.801   3.517
 2408SOL    HW2 8124   2.309   5.679   3.607
 2409SOL     OW 8125   2.542   2.607   0.939
 2409SOL    HW1 8126   2.539   2.706   0.957
 2409SOL    HW2 8127   2.484   2.586   0.860
 2410SOL     OW 8128   5.994   3.312   5.872
 2410SOL    HW1 8129   5.925   3.303   5.944
 2410SOL    HW2 8130   5.974   3.394   5.818
 2411SOL     OW 8131   2.859   3.895   6.458
 2411SOL    HW1 8132   2.801   3.975   6.463
 2411SOL    HW2 8133   2.953   3.923   6.435
 2412SOL     OW 8134   3.209   2.615   6.633
 2412SOL    HW1 8135   3.253   2.694   6.677
 2412SOL    HW2 8136   3.119   2.642   6.599
 2413SOL     OW 8137   6.866   3.449   6.278
 2413SOL    HW1 8138   6.927   3.384   6.232
 2413SOL    HW2 8139   6.821   3.402   6.354
 2414SOL     OW 8140   5.532   2.982   4.225
 2414SOL    HW1 8141   5.625   2.962   4.255
 2414SOL    HW2 8142   5.530   2.991   4.126
 2415SOL     OW 8143   2.208   6.668   1.185
 2415SOL    HW1 8144   2.256   6.582   1.205
 2415SOL    HW2 8145   2.125   6.648   1.133
 2416SOL     OW 8146   0.523   3.345   2.870
 2416SOL    HW1 8147   0.443   3.295   2.903
 2416SOL    HW2 8148   0.506   3.379   2.778
 2417SOL     OW 8149   4.699   2.501   6.802
 2417SOL    HW1 8150   4.617   2.447   6.784
 2417SOL    HW2 8151   4.776   2.440   6.817
 2418SOL     OW 8152   4.076   4.230   5.243
 2418SOL    HW1 8153   4.125   4.302   5.194
 2418SOL    HW2 8154   4.016   4.181   5.180
 2419SOL     OW 8155   2.250   6.730   4.584
 2419SOL    HW1 8156   2.349   6.748   4.588
 2419SOL    HW2 8157   2.200   6.812   4.613
 2420SOL     OW 8158   3.358   5.410   2.200
 2420SOL    HW1 8159   3.391   5.495   2.159
 2420SOL    HW2 8160   3.301   5.431   2.279
 2421SOL     OW 8161   3.353   6.505   4.296
 2421SOL    HW1 8162   3.416   6.574   4.263
 2421SOL    HW2 8163   3.267   6.510   4.245
 2422SOL     OW 8164   3.782   6.945   1.782
 2422SOL    HW1 8165   3.708   7.000   1.820
 2422SOL    HW2 8166   3.778   6.946   1.682
 2423SOL     OW 8167   2.130   5.029   1.909
 2423SOL    HW1 8168   2.128   5.036   2.009
 2423SOL    HW2 8169   2.044   4.989   1.877
 2424SOL     OW 8170   5.490   0.117   6.900
 2424SOL    HW1 8171   5.501   0.077   6.991
 2424SOL    HW2 8172   5.447   0.050   6.839
 2425SOL     OW 8173   4.443   5.415   5.748
 2425SOL    HW1 8174   4.513   5.351   5.717
 2425SOL    HW2 8175   4.470   5.454   5.836
 2426SOL     OW 8176   1.298   5.967   5.057
 2426SOL    HW1 8177   1.342   5.994   4.971
 2426SOL    HW2 8178   1.200   5.989   5.053
 2427SOL     OW 8179   5.086   6.613   6.250
 2427SOL    HW1 8180   5.063   6.581   6.342
 2427SOL    HW2 8181   5.181   6.644   6.248
 2428SOL     OW 8182   6.954   1.415   3.470
 2428SOL    HW1 8183   0.031   1.423   3.465
 2428SOL    HW2 8184   6.929   1.346   3.538
 2429SOL     OW 8185   5.178   4.889   2.370
 2429SOL    HW1 8186   5.115   4.824   2.328
 2429SOL    HW2 8187   5.130   4.941   2.440
 2430SOL     OW 8188   5.726   2.153   0.602
 2430SOL    HW1 8189   5.649   2.216   0.610
 2430SOL    HW2 8190   5.805   2.189   0.652
 2431SOL     OW 8191   6.145   1.864   2.082
 2431SOL    HW1 8192   6.048   1.853   2.100
 2431SOL    HW2 8193   6.197   1.795   2.132
 2432SOL     OW 8194   3.230   5.270   1.799
 2432SOL    HW1 8195   3.243   5.353   1.745
 2432SOL    HW2 8196   3.134   5.264   1.828
 2433SOL     OW 8197   0.146   5.692   0.195
 2433SOL    HW1 8198   0.115   5.675   0.289
 2433SOL    HW2 8199   0.084   5.647   0.131
 2434SOL     OW 8200   4.124   1.911   2.790
 2434SOL    HW1 8201   4.196   1.897   2.723
 2434SOL    HW2 8202   4.164   1.936   2.878
 2435SOL     OW 8203   5.404   6.485   6.970
 2435SOL    HW1 8204   5.316   6.514   7.006
 2435SOL    HW2 8205   5.466   6.462   0.023
 2436SOL     OW 8206   1.453   1.245   1.481
 2436SOL    HW1 8207   1.412   1.333   1.502
 2436SOL    HW2 8208   1.397   1.196   1.415
 2437SOL     OW 8209   6.226   6.144   2.339
 2437SOL    HW1 8210   6.145   6.203   2.339
 2437SOL    HW2 8211   6.205   6.058   2.384
 2438SOL     OW 8212   3.582   1.787   4.313
 2438SOL    HW1 8213   3.585   1.857   4.242
 2438SOL    HW2 8214   3.665   1.730   4.308
 2439SOL     OW 8215   0.313   5.633   6.946
 2439SOL    HW1 8216   0.346   5.660   6.856
 2439SOL    HW2 8217   0.362   5.684   7.017
 2440SOL     OW 8218   4.088   1.026   3.973
 2440SOL    HW1 8219   4.021   1.081   3.924
 2440SOL    HW2 8220   4.177   1.036   3.929
 2441SOL     OW 8221   5.735   0.734   6.842
 2441SOL    HW1 8222   5.759   0.715   6.937
 2441SOL    HW2 8223   5.738   0.650   6.789
 2442SOL     OW 8224   5.189   3.628   2.288
 2442SOL    HW1 8225   5.195   3.687   2.207
 2442SOL    HW2 8226   5.095   3.628   2.323
 2443SOL     OW 8227   2.488   1.275   6.934
 2443SOL    HW1 8228   2.514   1.315   7.022
 2443SOL    HW2 8229   2.427   1.197   6.949
 2444SOL     OW 8230   4.628   4.627   0.278
 2444SOL    HW1 8231   4.614   4.726   0.283
 2444SOL    HW2 8232   4.638   4.600   0.183
 2445SOL     OW 8233   6.529   1.740   2.179
 2445SOL    HW1 8234   6.528   1.815   2.112
 2445SOL    HW2 8235   6.566   1.773   2.266
 2446SOL     OW 8236   0.988   2.802   1.842
 2446SOL    HW1 8237   1.082   2.770   1.852
 2446SOL    HW2 8238   0.981   2.860   1.760
 2447SOL     OW 8239   2.491   0.801   0.416
 2447SOL    HW1 8240   2.457   0.838   0.329
 2447SOL    HW2 8241   2.537   0.714   0.398
 2448SOL     OW 8242   6.249   2.196   4.054
 2448SOL    HW1 8243   6.224   2.254   4.132
 2448SOL    HW2 8244   6.298   2.115   4.086
 2449SOL     OW 8245   1.538   3.824   1.760
 2449SOL    HW1 8246   1.580   3.829   1.670
 2449SOL    HW2 8247   1.523   3.916   1.796
 2450SOL     OW 8248   3.177   5.113   6.796
 2450SOL    HW1 8249   3.085   5.120   6.836
 2450SOL    HW2 8250   3.202   5.017   6.787
 2451SOL     OW 8251   0.847   6.982   4.218
 2451SOL    HW1 8252   0.860   0.059   4.206
 2451SOL    HW2 8253   0.919   6.946   4.276
 2452SOL     OW 8254   2.215   2.475   2.908
 2452SOL    HW1 8255   2.257   2.410   2.972
 2452SOL    HW2 8256   2.267   2.561   2.910
 2453SOL     OW 8257   6.774   2.310   0.879
 2453SOL    HW1 8258   6.714   2.377   0.835
 2453SOL    HW2 8259   6.770   2.224   0.828
 2454SOL     OW 8260   3.016   5.717   0.196
 2454SOL    HW1 8261   2.927   5.733   0.152
 2454SOL    HW2 8262   3.004   5.713   0.295
 2455SOL     OW 8263   3.378   1.214   0.193
 2455SOL    HW1 8264   3.280   1.219   0.171
 2455SOL    HW2 8265   3.431   1.233   0.110
 2456SOL     OW 8266   1.010   3.723   6.830
 2456SOL    HW1 8267   1.006   3.744   6.732
 2456SOL    HW2 8268   0.918   3.698   6.862
 2457SOL     OW 8269   5.678   0.933   5.749
 2457SOL    HW1 8270   5.587   0.920   5.789
 2457SOL    HW2 8271   5.671   0.991   5.668
 2458SOL     OW 8272   0.906   1.015   3.088
 2458SOL    HW1 8273   0.847   1.052   3.159
 2458SOL    HW2 8274   1.002   1.023   3.116
 2459SOL     OW 8275   2.764   5.843   5.841
 2459SOL    HW1 8276   2.777   5.776   5.914
 2459SOL    HW2 8277   2.715   5.923   5.878
 2460SOL     OW 8278   1.096   0.626   0.176
 2460SOL    HW1 8279   1.071   0.550   0.116
 2460SOL    HW2 8280   1.032   0.630   0.253
 2461SOL     OW 8281   4.567   6.762   3.934
 2461SOL    HW1 8282   4.636   6.831   3.957
 2461SOL    HW2 8283   4.542   6.711   4.016
 2462SOL     OW 8284   0.855   5.348   0.802
 2462SOL    HW1 8285   0.908   5.310   0.727
 2462SOL    HW2 8286   0.854   5.283   0.878
 2463SOL     OW 8287   6.513   1.774   0.746
 2463SOL    HW1 8288   6.606   1.760   0.714
 2463SOL    HW2 8289   6.451   1.714   0.695
 2464SOL     OW 8290   1.071   2.797   2.658
 2464SOL    HW1 8291   0.989   2.818   2.710
 2464SOL    HW2 8292   1.093   2.699   2.667
 2465SOL     OW 8293   6.698   6.167   6.460
 2465SOL    HW1 8294   6.738   6.217   6.536
 2465SOL    HW2 8295   6.769   6.121   6.408
 2466SOL     OW 8296   1.573   1.877   2.412
 2466SOL    HW1 8297   1.628   1.795   2.391
 2466SOL    HW2 8298   1.553   1.879   2.510
 2467SOL     OW 8299   4.721   2.001   5.934
 2467SOL    HW1 8300   4.766   1.928   5.883
 2467SOL    HW2 8301   4.724   1.981   6.032
 2468SOL     OW 8302   4.162   0.140   6.594
 2468SOL    HW1 8303   4.091   0.069   6.596
 2468SOL    HW2 8304   4.221   0.124   6.515
 2469SOL     OW 8305   3.922   3.164   5.779
 2469SOL    HW1 8306   3.975   3.111   5.712
 2469SOL    HW2 8307   3.884   3.101   5.847
 2470SOL     OW 8308   3.986   5.120   6.472
 2470SOL    HW1 8309   4.038   5.111   6.386
 2470SOL    HW2 8310   3.891   5.093   6.457
 2471SOL     OW 8311   3.339   0.140   0.472
 2471SOL    HW1 8312   3.406   0.145   0.398
 2471SOL    HW2 8313   3.256   0.188   0.445
 2472SOL     OW 8314   4.263   2.319   3.568
 2472SOL    HW1 8315   4.187   2.307   3.633
 2472SOL    HW2 8316   4.229   2.305   3.475
 2473SOL     OW 8317   1.102   4.435   5.444
 2473SOL    HW1 8318   1.160   4.470   5.370
 2473SOL    HW2 8319   1.153   4.370   5.499
 2474SOL     OW 8320   1.191   5.441   0.692
 2474SOL    HW1 8321   1.123   5.511   0.714
 2474SOL    HW2 8322   1.251   5.427   0.771
 2475SOL     OW 8323   4.832   0.200   1.665
 2475SOL    HW1 8324   4.826   0.159   1.574
 2475SOL    HW2 8325   4.801   0.295   1.661
 2476SOL     OW 8326   5.852   0.456   2.520
 2476SOL    HW1 8327   5.877   0.362   2.499
 2476SOL    HW2 8328   5.889   0.517   2.449
 2477SOL     OW 8329   3.821   1.041   3.313
 2477SOL    HW1 8330   3.904   0.988   3.294
 2477SOL    HW2 8331   3.825   1.129   3.266
 2478SOL     OW 8332   4.917   0.851   2.048
 2478SOL    HW1 8333   4.850   0.866   2.120
 2478SOL    HW2 8334   4.988   0.788   2.081
 2479SOL     OW 8335   1.304   2.701   1.301
 2479SOL    HW1 8336   1.233   2.726   1.367
 2479SOL    HW2 8337   1.319   2.602   1.305
 2480SOL     OW 8338   4.122   2.654   1.164
 2480SOL    HW1 8339   4.077   2.619   1.082
 2480SOL    HW2 8340   4.159   2.577   1.216
 2481SOL     OW 8341   3.011   0.423   1.401
 2481SOL    HW1 8342   3.061   0.337   1.410
 2481SOL    HW2 8343   2.960   0.423   1.314
 2482SOL     OW 8344   5.330   3.665   0.083
 2482SOL    HW1 8345   5.390   3.715   0.021
 2482SOL    HW2 8346   5.235   3.675   0.053
 2483SOL     OW 8347   1.613   1.597   0.244
 2483SOL    HW1 8348   1.696   1.602   0.300
 2483SOL    HW2 8349   1.539   1.644   0.292
 2484SOL     OW 8350   3.557   0.675   0.160
 2484SOL    HW1 8351   3.522   0.626   0.240
 2484SOL    HW2 8352   3.490   0.743   0.130
 2485SOL     OW 8353   5.072   3.073   0.558
 2485SOL    HW1 8354   5.058   3.108   0.651
 2485SOL    HW2 8355   5.137   3.132   0.510
 2486SOL     OW 8356   1.126   5.505   5.425
 2486SOL    HW1 8357   1.198   5.572   5.407
 2486SOL    HW2 8358   1.056   5.546   5.483
 2487SOL     OW 8359   4.227   6.378   6.666
 2487SOL    HW1 8360   4.158   6.403   6.735
 2487SOL    HW2 8361   4.222   6.441   6.589
 2488SOL     OW 8362   0.773   3.470   1.807
 2488SOL    HW1 8363   0.730   3.560   1.815
 2488SOL    HW2 8364   0.712   3.407   1.760
 2489SOL     OW 8365   1.318   5.789   3.372
 2489SOL    HW1 8366   1.222   5.759   3.373
 2489SOL    HW2 8367   1.334   5.846   3.291
 2490SOL     OW 8368   0.489   5.849   1.040
 2490SOL    HW1 8369   0.545   5.767   1.035
 2490SOL    HW2 8370   0.451   5.859   1.132
 2491SOL     OW 8371   3.586   4.550   1.006
 2491SOL    HW1 8372   3.490   4.522   1.001
 2491SOL    HW2 8373   3.592   4.649   1.018
 2492SOL     OW 8374   4.182   3.870   0.924
 2492SOL    HW1 8375   4.194   3.944   0.858
 2492SOL    HW2 8376   4.227   3.895   1.010
 2493SOL     OW 8377   6.543   6.938   1.623
 2493SOL    HW1 8378   6.613   6.912   1.689
 2493SOL    HW2 8379   6.502   6.855   1.584
 2494SOL     OW 8380   5.636   4.047   2.293
 2494SOL    HW1 8381   5.726   4.058   2.251
 2494SOL    HW2 8382   5.566   4.086   2.233
 2495SOL     OW 8383   5.065   5.704   3.640
 2495SOL    HW1 8384   5.111   5.729   3.555
 2495SOL    HW2 8385   5.127   5.718   3.717
 2496SOL     OW 8386   0.097   2.852   6.758
 2496SOL    HW1 8387   0.010   2.848   6.709
 2496SOL    HW2 8388   0.148   2.934   6.732
 2497SOL     OW 8389   0.536   0.444   0.858
 2497SOL    HW1 8390   0.555   0.371   0.925
 2497SOL    HW2 8391   0.449   0.487   0.882
 2498SOL     OW 8392   3.058   2.278   5.398
 2498SOL    HW1 8393   3.030   2.203   5.338
 2498SOL    HW2 8394   3.082   2.357   5.343
 2499SOL     OW 8395   6.027   3.360   2.486
 2499SOL    HW1 8396   6.013   3.371   2.584
 2499SOL    HW2 8397   6.099   3.293   2.469
 2500SOL     OW 8398   3.578   4.501   6.683
 2500SOL    HW1 8399   3.634   4.496   6.766
 2500SOL    HW2 8400   3.635   4.533   6.607
 2501SOL     OW 8401   5.373   5.644   0.501
 2501SOL    HW1 8402   5.386   5.575   0.572
 2501SOL    HW2 8403   5.444   5.634   0.431
 2502SOL     OW 8404   0.985   0.400   4.584
 2502SOL    HW1 8405   1.036   0.382   4.668
 2502SOL    HW2 8406   1.017   0.485   4.543
 2503SOL     OW 8407   2.487   6.962   4.166
 2503SOL    HW1 8408   2.510   6.989   4.072
 2503SOL    HW2 8409   2.423   0.007   4.205
 2504SOL     OW 8410   3.546   5.503   3.634
 2504SOL    HW1 8411   3.508   5.488   3.543
 2504SOL    HW2 8412   3.472   5.523   3.698
 2505SOL     OW 8413   0.263   6.912   2.991
 2505SOL    HW1 8414   0.243   6.871   3.080
 2505SOL    HW2 8415   0.341   6.973   2.999
 2506SOL     OW 8416   6.488   3.419   6.306
 2506SOL    HW1 8417   6.503   3.336   6.359
 2506SOL    HW2 8418   6.543   3.416   6.222
 2507SOL     OW 8419   6.324   3.201   0.565
 2507SOL    HW1 8420   6.304   3.266   0.491
 2507SOL    HW2 8421   6.334   3.251   0.651
 2508SOL     OW 8422   2.735   1.491   3.606
 2508SOL    HW1 8423   2.830   1.503   3.637
 2508SOL    HW2 8424   2.730   1.509   3.508
 2509SOL     OW 8425   0.335   4.564   0.847
 2509SOL    HW1 8426   0.343   4.493   0.777
 2509SOL    HW2 8427   0.286   4.642   0.809
 2510SOL     OW 8428   2.737   4.934   0.911
 2510SOL    HW1 8429   2.770   4.935   1.005
 2510SOL    HW2 8430   2.672   4.859   0.899
 2511SOL     OW 8431   3.348   2.150   4.020
 2511SOL    HW1 8432   3.284   2.095   3.966
 2511SOL    HW2 8433   3.300   2.190   4.098
 2512SOL     OW 8434   4.412   3.836   5.358
 2512SOL    HW1 8435   4.458   3.758   5.400
 2512SOL    HW2 8436   4.467   3.919   5.372
 2513SOL     OW 8437   2.054   5.061   4.925
 2513SOL    HW1 8438   2.025   5.033   5.017
 2513SOL    HW2 8439   1.976   5.094   4.873
 2514SOL     OW 8440   0.472   3.521   5.098
 2514SOL    HW1 8441   0.447   3.614   5.128
 2514SOL    HW2 8442   0.438   3.455   5.164
 2515SOL     OW 8443   1.592   6.344   0.657
 2515SOL    HW1 8444   1.611   6.247   0.642
 2515SOL    HW2 8445   1.509   6.370   0.608
 2516SOL     OW 8446   4.931   1.263   2.950
 2516SOL    HW1 8447   4.947   1.333   2.881
 2516SOL    HW2 8448   4.852   1.207   2.924
 2517SOL     OW 8449   1.173   0.342   6.139
 2517SOL    HW1 8450   1.210   0.289   6.216
 2517SOL    HW2 8451   1.236   0.415   6.115
 2518SOL     OW 8452   1.271   5.160   0.831
 2518SOL    HW1 8453   1.356   5.199   0.866
 2518SOL    HW2 8454   1.196   5.183   0.893
 2519SOL     OW 8455   3.997   6.721   2.197
 2519SOL    HW1 8456   4.091   6.703   2.166
 2519SOL    HW2 8457   3.966   6.809   2.161
 2520SOL     OW 8458   3.430   1.587   0.976
 2520SOL    HW1 8459   3.502   1.650   0.947
 2520SOL    HW2 8460   3.356   1.586   0.908
 2521SOL     OW 8461   3.216   0.481   5.385
 2521SOL    HW1 8462   3.215   0.555   5.452
 2521SOL    HW2 8463   3.122   0.458   5.360
 2522SOL     OW 8464   0.802   2.329   5.448
 2522SOL    HW1 8465   0.763   2.403   5.393
 2522SOL    HW2 8466   0.816   2.248   5.391
 2523SOL     OW 8467   1.119   2.465   0.984
 2523SOL    HW1 8468   1.138   2.560   1.007
 2523SOL    HW2 8469   1.188   2.406   1.028
 2524SOL     OW 8470   6.930   6.564   5.202
 2524SOL    HW1 8471   6.994   6.494   5.232
 2524SOL    HW2 8472   6.863   6.524   5.140
 2525SOL     OW 8473   1.273   2.287   5.485
 2525SOL    HW1 8474   1.275   2.373   5.537
 2525SOL    HW2 8475   1.366   2.252   5.475
 2526SOL     OW 8476   1.458   4.957   6.303
 2526SOL    HW1 8477   1.456   4.898   6.383
 2526SOL    HW2 8478   1.461   5.053   6.332
 2527SOL     OW 8479   6.138   6.470   6.060
 2527SOL    HW1 8480   6.172   6.552   6.107
 2527SOL    HW2 8481   6.105   6.495   5.969
 2528SOL     OW 8482   6.419   5.105   0.012
 2528SOL    HW1 8483   6.467   5.101   6.945
 2528SOL    HW2 8484   6.400   5.200   0.035
 2529SOL     OW 8485   6.210   6.428   6.496
 2529SOL    HW1 8486   6.279   6.389   6.556
 2529SOL    HW2 8487   6.242   6.515   6.460
 2530SOL     OW 8488   2.702   6.101   4.629
 2530SOL    HW1 8489   2.662   6.180   4.675
 2530SOL    HW2 8490   2.632   6.030   4.616
 2531SOL     OW 8491   5.739   5.871   4.544
 2531SOL    HW1 8492   5.814   5.933   4.568
 2531SOL    HW2 8493   5.701   5.831   4.628
 2532SOL     OW 8494   0.552   6.002   0.273
 2532SOL    HW1 8495   0.604   6.018   0.358
 2532SOL    HW2 8496   0.503   6.085   0.248
 2533SOL     OW 8497   3.899   6.717   3.940
 2533SOL    HW1 8498   3.901   6.706   3.840
 2533SOL    HW2 8499   3.970   6.781   3.967
 2534SOL     OW 8500   3.774   1.116   2.222
 2534SOL    HW1 8501   3.761   1.102   2.320
 2534SOL    HW2 8502   3.724   1.197   2.192
 2535SOL     OW 8503   3.087   3.121   5.737
 2535SOL    HW1 8504   3.169   3.109   5.680
 2535SOL    HW2 8505   3.049   3.212   5.722
 2536SOL     OW 8506   1.108   1.290   4.912
 2536SOL    HW1 8507   1.093   1.193   4.931
 2536SOL    HW2 8508   1.199   1.302   4.872
 2537SOL     OW 8509   3.393   0.054   6.214
 2537SOL    HW1 8510   3.391   0.072   6.312
 2537SOL    HW2 8511   3.405   0.140   6.165
 2538SOL     OW 8512   0.666   4.012   3.255
 2538SOL    HW1 8513   0.712   3.985   3.170
 2538SOL    HW2 8514   0.668   3.936   3.320
 2539SOL     OW 8515   5.706   0.842   4.809
 2539SOL    HW1 8516   5.706   0.746   4.836
 2539SOL    HW2 8517   5.793   0.884   4.835
 2540SOL     OW 8518   3.908   2.001   2.659
 2540SOL    HW1 8519   3.967   1.961   2.729
 2540SOL    HW2 8520   3.963   2.023   2.578
 2541SOL     OW 8521   2.943   0.819   4.750
 2541SOL    HW1 8522   2.932   0.895   4.685
 2541SOL    HW2 8523   3.038   0.816   4.782
 2542SOL     OW 8524   2.973   2.772   5.948
 2542SOL    HW1 8525   3.009   2.727   5.866
 2542SOL    HW2 8526   3.038   2.842   5.979
 2543SOL     OW 8527   0.707   0.857   3.337
 2543SOL    HW1 8528   0.692   0.803   3.254
 2543SOL    HW2 8529   0.681   0.952   3.320
 2544SOL     OW 8530   0.733   5.982   1.053
 2544SOL    HW1 8531   0.644   5.939   1.037
 2544SOL    HW2 8532   0.748   5.989   1.152
 2545SOL     OW 8533   0.925   6.887   2.060
 2545SOL    HW1 8534   0.831   6.910   2.035
 2545SOL    HW2 8535   0.984   6.894   1.979
 2546SOL     OW 8536   6.694   1.149   2.049
 2546SOL    HW1 8537   6.720   1.199   2.131
 2546SOL    HW2 8538   6.642   1.068   2.075
 2547SOL     OW 8539   6.562   4.403   0.295
 2547SOL    HW1 8540   6.639   4.461   0.325
 2547SOL    HW2 8541   6.579   4.309   0.322
 2548SOL     OW 8542   0.649   0.150   5.379
 2548SOL    HW1 8543   0.749   0.145   5.377
 2548SOL    HW2 8544   0.615   0.161   5.285
 2549SOL     OW 8545   1.255   0.087   0.799
 2549SOL    HW1 8546   1.297   0.020   0.737
 2549SOL    HW2 8547   1.156   0.089   0.782
 2550SOL     OW 8548   0.287   0.769   6.747
 2550SOL    HW1 8549   0.271   0.703   6.821
 2550SOL    HW2 8550   0.381   0.761   6.715
 2551SOL     OW 8551   3.702   4.588   0.206
 2551SOL    HW1 8552   3.684   4.625   0.297
 2551SOL    HW2 8553   3.616   4.564   0.162
 2552SOL     OW 8554   1.920   6.196   4.309
 2552SOL    HW1 8555   2.000   6.255   4.297
 2552SOL    HW2 8556   1.940   6.126   4.377
 2553SOL     OW 8557   4.504   3.528   5.836
 2553SOL    HW1 8558   4.460   3.498   5.751
 2553SOL    HW2 8559   4.435   3.540   5.907
 2554SOL     OW 8560   2.545   0.032   0.533
 2554SOL    HW1 8561   2.517   0.123   0.504
 2554SOL    HW2 8562   2.528   0.021   0.631
 2555SOL     OW 8563   5.695   0.182   4.980
 2555SOL    HW1 8564   5.756   0.125   5.036
 2555SOL    HW2 8565   5.652   0.125   4.910
 2556SOL     OW 8566   3.979   6.244   6.960
 2556SOL    HW1 8567   3.960   6.272   0.033
 2556SOL    HW2 8568   4.036   6.314   6.916
 2557SOL     OW 8569   2.406   4.502   6.669
 2557SOL    HW1 8570   2.466   4.574   6.635
 2557SOL    HW2 8571   2.366   4.452   6.592
 2558SOL     OW 8572   5.003   1.694   5.464
 2558SOL    HW1 8573   5.084   1.751   5.449
 2558SOL    HW2 8574   4.921   1.752   5.463
 2559SOL     OW 8575   0.453   3.762   5.210
 2559SOL    HW1 8576   0.536   3.813   5.234
 2559SOL    HW2 8577   0.378   3.827   5.194
 2560SOL     OW 8578   5.585   2.964   4.919
 2560SOL    HW1 8579   5.519   2.928   4.984
 2560SOL    HW2 8580   5.539   3.024   4.854
 2561SOL     OW 8581   3.209   6.026   5.032
 2561SOL    HW1 8582   3.194   5.970   4.950
 2561SOL    HW2 8583   3.154   5.990   5.107
 2562SOL     OW 8584   2.366   4.861   1.392
 2562SOL    HW1 8585   2.272   4.837   1.417
 2562SOL    HW2 8586   2.429   4.819   1.457
 2563SOL     OW 8587   3.469   2.086   0.444
 2563SOL    HW1 8588   3.469   2.172   0.496
 2563SOL    HW2 8589   3.394   2.088   0.377
 2564SOL     OW 8590   2.442   5.634   6.434
 2564SOL    HW1 8591   2.482   5.725   6.424
 2564SOL    HW2 8592   2.344   5.638   6.413
 2565SOL     OW 8593   1.484   6.876   6.970
 2565SOL    HW1 8594   1.485   6.852   0.046
 2565SOL    HW2 8595   1.423   6.814   6.921
 2566SOL     OW 8596   2.091   0.025   1.266
 2566SOL    HW1 8597   2.054   0.113   1.296
 2566SOL    HW2 8598   2.181   0.039   1.225
 2567SOL     OW 8599   1.448   0.441   0.703
 2567SOL    HW1 8600   1.349   0.437   0.714
 2567SOL    HW2 8601   1.476   0.535   0.683
 2568SOL     OW 8602   4.238   1.062   6.970
 2568SOL    HW1 8603   4.271   1.111   6.889
 2568SOL    HW2 8604   4.151   1.017   6.947
 2569SOL     OW 8605   3.000   0.838   2.385
 2569SOL    HW1 8606   2.912   0.791   2.383
 2569SOL    HW2 8607   2.985   0.936   2.398
 2570SOL     OW 8608   5.442   7.009   6.444
 2570SOL    HW1 8609   5.422   7.011   6.542
 2570SOL    HW2 8610   5.529   6.962   6.429
 2571SOL     OW 8611   2.542   4.387   5.235
 2571SOL    HW1 8612   2.545   4.383   5.136
 2571SOL    HW2 8613   2.504   4.476   5.264
 2572SOL     OW 8614   2.479   6.113   0.951
 2572SOL    HW1 8615   2.519   6.104   1.043
 2572SOL    HW2 8616   2.538   6.069   0.884
 2573SOL     OW 8617   6.868   1.590   1.674
 2573SOL    HW1 8618   6.884   1.688   1.681
 2573SOL    HW2 8619   6.950   1.540   1.702
 2574SOL     OW 8620   5.667   3.979   0.429
 2574SOL    HW1 8621   5.613   3.900   0.456
 2574SOL    HW2 8622   5.708   4.021   0.510
 2575SOL     OW 8623   4.927   5.567   0.791
 2575SOL    HW1 8624   4.965   5.567   0.883
 2575SOL    HW2 8625   4.934   5.658   0.751
 2576SOL     OW 8626   4.438   6.746   4.801
 2576SOL    HW1 8627   4.424   6.811   4.726
 2576SOL    HW2 8628   4.527   6.762   4.843
 2577SOL     OW 8629   4.059   6.659   2.471
 2577SOL    HW1 8630   4.035   6.697   2.382
 2577SOL    HW2 8631   4.042   6.560   2.472
 2578SOL     OW 8632   4.470   1.559   4.730
 2578SOL    HW1 8633   4.458   1.571   4.829
 2578SOL    HW2 8634   4.380   1.557   4.686
 2579SOL     OW 8635   1.392   6.639   3.521
 2579SOL    HW1 8636   1.359   6.698   3.595
 2579SOL    HW2 8637   1.353   6.547   3.533
 2580SOL     OW 8638   3.140   4.767   6.522
 2580SOL    HW1 8639   3.187   4.850   6.490
 2580SOL    HW2 8640   3.114   4.711   6.443
 2581SOL     OW 8641   2.286   4.745   2.134
 2581SOL    HW1 8642   2.319   4.666   2.186
 2581SOL    HW2 8643   2.349   4.822   2.145
 2582SOL     OW 8644   0.635   4.321   1.200
 2582SOL    HW1 8645   0.663   4.301   1.106
 2582SOL    HW2 8646   0.592   4.241   1.240
 2583SOL     OW 8647   1.293   1.589   6.575
 2583SOL    HW1 8648   1.277   1.631   6.664
 2583SOL    HW2 8649   1.379   1.537   6.578
 2584SOL     OW 8650   5.080   5.568   6.068
 2584SOL    HW1 8651   5.147   5.509   6.024
 2584SOL    HW2 8652   5.100   5.664   6.045
 2585SOL     OW 8653   3.595   3.326   0.893
 2585SOL    HW1 8654   3.584   3.364   0.802
 2585SOL    HW2 8655   3.690   3.295   0.905
 2586SOL     OW 8656   3.203   0.684   5.194
 2586SOL    HW1 8657   3.184   0.612   5.261
 2586SOL    HW2 8658   3.262   0.648   5.122
 2587SOL     OW 8659   5.942   0.944   3.676
 2587SOL    HW1 8660   6.008   0.986   3.739
 2587SOL    HW2 8661   5.851   0.945   3.718
 2588SOL     OW 8662   4.424   2.183   6.379
 2588SOL    HW1 8663   4.338   2.136   6.400
 2588SOL    HW2 8664   4.434   2.192   6.280
 2589SOL     OW 8665   1.472   6.576   5.865
 2589SOL    HW1 8666   1.414   6.598   5.944
 2589SOL    HW2 8667   1.485   6.659   5.810
 2590SOL     OW 8668   3.921   4.740   0.159
 2590SOL    HW1 8669   3.842   4.684   0.185
 2590SOL    HW2 8670   4.002   4.706   0.206
 2591SOL     OW 8671   6.669   4.309   3.127
 2591SOL    HW1 8672   6.722   4.371   3.070
 2591SOL    HW2 8673   6.583   4.353   3.153
 2592SOL     OW 8674   3.340   4.678   0.142
 2592SOL    HW1 8675   3.289   4.761   0.119
 2592SOL    HW2 8676   3.276   4.609   0.177
 2593SOL     OW 8677   4.208   6.002   0.034
 2593SOL    HW1 8678   4.200   5.910   0.072
 2593SOL    HW2 8679   4.303   6.016   0.004
 2594SOL     OW 8680   1.733   4.044   5.688
 2594SOL    HW1 8681   1.710   4.064   5.593
 2594SOL    HW2 8682   1.831   4.026   5.695
 2595SOL     OW 8683   0.020   0.657   4.118
 2595SOL    HW1 8684   0.116   0.635   4.139
 2595SOL    HW2 8685   6.988   0.573   4.117
 2596SOL     OW 8686   2.898   2.364   1.612
 2596SOL    HW1 8687   2.959   2.408   1.547
 2596SOL    HW2 8688   2.916   2.400   1.704
 2597SOL     OW 8689   0.413   5.179   6.215
 2597SOL    HW1 8690   0.378   5.271   6.233
 2597SOL    HW2 8691   0.407   5.125   6.298
 2598SOL     OW 8692   6.439   1.471   2.617
 2598SOL    HW1 8693   6.474   1.480   2.710
 2598SOL    HW2 8694   6.357   1.528   2.606
 2599SOL     OW 8695   1.478   5.831   0.918
 2599SOL    HW1 8696   1.481   5.731   0.911
 2599SOL    HW2 8697   1.404   5.866   0.860
 2600SOL     OW 8698   5.563   2.875   4.554
 2600SOL    HW1 8699   5.504   2.826   4.618
 2600SOL    HW2 8700   5.550   2.837   4.462
 2601SOL     OW 8701   1.356   1.532   1.497
 2601SOL    HW1 8702   1.281   1.517   1.561
 2601SOL    HW2 8703   1.439   1.555   1.548
 2602SOL     OW 8704   1.226   4.803   5.002
 2602SOL    HW1 8705   1.201   4.788   5.098
 2602SOL    HW2 8706   1.179   4.884   4.967
 2603SOL     OW 8707   2.965   1.411   2.944
 2603SOL    HW1 8708   2.924   1.493   2.904
 2603SOL    HW2 8709   2.900   1.336   2.942
 2604SOL     OW 8710   4.484   2.028   3.021
 2604SOL    HW1 8711   4.548   1.994   2.952
 2604SOL    HW2 8712   4.528   2.100   3.075
 2605SOL     OW 8713   1.318   3.457   2.750
 2605SOL    HW1 8714   1.300   3.370   2.796
 2605SOL    HW2 8715   1.388   3.444   2.680
 2606SOL     OW 8716   6.301   5.274   1.794
 2606SOL    HW1 8717   6.304   5.370   1.765
 2606SOL    HW2 8718   6.389   5.230   1.773
 2607SOL     OW 8719   0.804   1.233   1.098
 2607SOL    HW1 8720   0.874   1.269   1.036
 2607SOL    HW2 8721   0.771   1.145   1.063
 2608SOL     OW 8722   3.510   5.355   0.441
 2608SOL    HW1 8723   3.421   5.399   0.435
 2608SOL    HW2 8724   3.514   5.280   0.375
 2609SOL     OW 8725   5.900   1.585   1.900
 2609SOL    HW1 8726   5.866   1.664   1.949
 2609SOL    HW2 8727   6.000   1.590   1.893
 2610SOL     OW 8728   0.764   4.605   4.500
 2610SOL    HW1 8729   0.855   4.645   4.506
 2610SOL    HW2 8730   0.726   4.624   4.409
 2611SOL     OW 8731   4.498   6.203   0.401
 2611SOL    HW1 8732   4.408   6.213   0.443
 2611SOL    HW2 8733   4.538   6.116   0.429
 2612SOL     OW 8734   5.716   6.373   4.736
 2612SOL    HW1 8735   5.716   6.275   4.756
 2612SOL    HW2 8736   5.726   6.425   4.821
 2613SOL     OW 8737   2.370   5.347   6.504
 2613SOL    HW1 8738   2.274   5.353   6.475
 2613SOL    HW2 8739   2.423   5.418   6.457
 2614SOL     OW 8740   6.561   1.871   0.288
 2614SOL    HW1 8741   6.549   1.952   0.231
 2614SOL    HW2 8742   6.472   1.841   0.322
 2615SOL     OW 8743   1.298   3.184   1.655
 2615SOL    HW1 8744   1.377   3.237   1.625
 2615SOL    HW2 8745   1.329   3.100   1.699
 2616SOL     OW 8746   1.660   1.743   5.858
 2616SOL    HW1 8747   1.750   1.750   5.816
 2616SOL    HW2 8748   1.603   1.681   5.804
 2617SOL     OW 8749   4.643   1.199   0.808
 2617SOL    HW1 8750   4.697   1.214   0.725
 2617SOL    HW2 8751   4.655   1.276   0.871
 2618SOL     OW 8752   6.981   6.571   4.341
 2618SOL    HW1 8753   0.009   6.487   4.361
 2618SOL    HW2 8754   0.024   6.648   4.338
 2619SOL     OW 8755   4.602   1.666   1.864
 2619SOL    HW1 8756   4.518   1.718   1.882
 2619SOL    HW2 8757   4.582   1.568   1.871
 2620SOL     OW 8758   6.657   0.286   2.677
 2620SOL    HW1 8759   6.566   0.262   2.711
 2620SOL    HW2 8760   6.698   0.206   2.633
 2621SOL     OW 8761   1.087   4.833   2.477
 2621SOL    HW1 8762   1.008   4.859   2.533
 2621SOL    HW2 8763   1.140   4.915   2.455
 2622SOL     OW 8764   2.864   3.568   6.030
 2622SOL    HW1 8765   2.962   3.575   6.010
 2622SOL    HW2 8766   2.848   3.598   6.124
 2623SOL     OW 8767   0.784   0.883   4.894
 2623SOL    HW1 8768   0.777   0.982   4.903
 2623SOL    HW2 8769   0.725   0.839   4.962
 2624SOL     OW 8770   6.885   2.081   5.011
 2624SOL    HW1 8771   6.930   2.170   5.019
 2624SOL    HW2 8772   6.787   2.095   5.000
 2625SOL     OW 8773   2.272   3.652   5.522
 2625SOL    HW1 8774   2.367   3.671   5.549
 2625SOL    HW2 8775   2.236   3.730   5.470
 2626SOL     OW 8776   6.584   0.149   6.076
 2626SOL    HW1 8777   6.659   0.088   6.053
 2626SOL    HW2 8778   6.581   0.163   6.175
 2627SOL     OW 8779   1.476   0.980   5.848
 2627SOL    HW1 8780   1.416   1.019   5.918
 2627SOL    HW2 8781   1.549   1.045   5.827
 2628SOL     OW 8782   1.875   3.921   5.202
 2628SOL    HW1 8783   1.794   3.908   5.259
 2628SOL    HW2 8784   1.848   3.961   5.114
 2629SOL     OW 8785   4.075   3.606   2.853
 2629SOL    HW1 8786   4.058   3.677   2.785
 2629SOL    HW2 8787   4.108   3.523   2.808
 2630SOL     OW 8788   3.470   1.702   3.556
 2630SOL    HW1 8789   3.419   1.725   3.639
 2630SOL    HW2 8790   3.432   1.752   3.478
 2631SOL     OW 8791   5.330   1.086   6.706
 2631SOL    HW1 8792   5.319   1.017   6.778
 2631SOL    HW2 8793   5.427   1.096   6.684
 2632SOL     OW 8794   6.020   3.633   0.679
 2632SOL    HW1 8795   5.942   3.690   0.705
 2632SOL    HW2 8796   6.069   3.678   0.604
 2633SOL     OW 8797   6.611   2.038   4.734
 2633SOL    HW1 8798   6.640   2.129   4.762
 2633SOL    HW2 8799   6.673   2.003   4.664
 2634SOL     OW 8800   0.455   5.574   3.526
 2634SOL    HW1 8801   0.442   5.636   3.448
 2634SOL    HW2 8802   0.373   5.519   3.539
 2635SOL     OW 8803   6.470   5.497   4.013
 2635SOL    HW1 8804   6.426   5.407   4.020
 2635SOL    HW2 8805   6.566   5.490   4.040
 2636SOL     OW 8806   3.864   0.723   6.687
 2636SOL    HW1 8807   3.942   0.785   6.685
 2636SOL    HW2 8808   3.828   0.711   6.594
 2637SOL     OW 8809   6.311   1.552   4.186
 2637SOL    HW1 8810   6.240   1.606   4.141
 2637SOL    HW2 8811   6.386   1.612   4.214
 2638SOL     OW 8812   7.005   6.902   4.531
 2638SOL    HW1 8813   0.040   6.830   4.491
 2638SOL    HW2 8814   7.003   6.891   4.630
 2639SOL     OW 8815   6.162   5.512   6.156
 2639SOL    HW1 8816   6.085   5.538   6.098
 2639SOL    HW2 8817   6.196   5.422   6.129
 2640SOL     OW 8818   6.871   0.110   5.221
 2640SOL    HW1 8819   6.958   0.062   5.211
 2640SOL    HW2 8820   6.886   0.199   5.263
 2641SOL     OW 8821   4.594   1.903   1.231
 2641SOL    HW1 8822   4.519   1.901   1.296
 2641SOL    HW2 8823   4.654   1.824   1.246
 2642SOL     OW 8824   6.464   0.382   3.869
 2642SOL    HW1 8825   6.456   0.422   3.778
 2642SOL    HW2 8826   6.528   0.435   3.924
 2643SOL     OW 8827   1.315   3.148   3.930
 2643SOL    HW1 8828   1.300   3.134   4.028
 2643SOL    HW2 8829   1.234   3.117   3.879
 2644SOL     OW 8830   4.710   5.210   4.869
 2644SOL    HW1 8831   4.653   5.228   4.950
 2644SOL    HW2 8832   4.806   5.218   4.894
 2645SOL     OW 8833   5.248   4.697   3.523
 2645SOL    HW1 8834   5.152   4.687   3.499
 2645SOL    HW2 8835   5.261   4.783   3.573
 2646SOL     OW 8836   0.092   3.080   6.990
 2646SOL    HW1 8837   0.007   3.130   6.976
 2646SOL    HW2 8838   0.105   3.015   6.914
 2647SOL     OW 8839   5.952   6.755   1.657
 2647SOL    HW1 8840   5.986   6.849   1.659
 2647SOL    HW2 8841   5.919   6.734   1.565
 2648SOL     OW 8842   0.138   6.760   4.321
 2648SOL    HW1 8843   0.229   6.722   4.334
 2648SOL    HW2 8844   0.145   6.858   4.303
 2649SOL     OW 8845   6.059   3.328   1.651
 2649SOL    HW1 8846   6.000   3.249   1.634
 2649SOL    HW2 8847   6.043   3.362   1.744
 2650SOL     OW 8848   2.558   5.822   4.661
 2650SOL    HW1 8849   2.550   5.729   4.625
 2650SOL    HW2 8850   2.571   5.819   4.760
 2651SOL     OW 8851   3.265   1.025   6.963
 2651SOL    HW1 8852   3.256   1.027   6.864
 2651SOL    HW2 8853   3.175   1.035   7.006
 2652SOL     OW 8854   4.747   3.373   5.751
 2652SOL    HW1 8855   4.657   3.393   5.791
 2652SOL    HW2 8856   4.766   3.439   5.679
 2653SOL     OW 8857   4.459   6.047   5.763
 2653SOL    HW1 8858   4.551   6.077   5.788
 2653SOL    HW2 8859   4.404   6.125   5.736
 2654SOL     OW 8860   5.173   6.175   0.949
 2654SOL    HW1 8861   5.093   6.136   0.905
 2654SOL    HW2 8862   5.154   6.194   1.046
 2655SOL     OW 8863   4.541   5.287   3.682
 2655SOL    HW1 8864   4.507   5.194   3.693
 2655SOL    HW2 8865   4.593   5.293   3.596
 2656SOL     OW 8866   3.434   4.983   3.538
 2656SOL    HW1 8867   3.477   5.049   3.476
 2656SOL    HW2 8868   3.495   4.965   3.615
 2657SOL     OW 8869   1.965   3.451   0.883
 2657SOL    HW1 8870   1.972   3.481   0.788
 2657SOL    HW2 8871   1.976   3.351   0.887
 2658SOL     OW 8872   4.958   4.560   0.268
 2658SOL    HW1 8873   5.038   4.588   0.320
 2658SOL    HW2 8874   4.876   4.572   0.323
 2659SOL     OW 8875   4.649   3.137   5.379
 2659SOL    HW1 8876   4.662   3.132   5.478
 2659SOL    HW2 8877   4.711   3.205   5.341
 2660SOL     OW 8878   0.901   0.790   1.358
 2660SOL    HW1 8879   0.964   0.809   1.283
 2660SOL    HW2 8880   0.809   0.777   1.321
 2661SOL     OW 8881   1.771   0.220   1.766
 2661SOL    HW1 8882   1.858   0.184   1.733
 2661SOL    HW2 8883   1.700   0.204   1.697
 2662SOL     OW 8884   2.525   0.215   3.685
 2662SOL    HW1 8885   2.553   0.204   3.589
 2662SOL    HW2 8886   2.442   0.270   3.689
 2663SOL     OW 8887   4.584   5.580   5.956
 2663SOL    HW1 8888   4.550   5.674   5.946
 2663SOL    HW2 8889   4.684   5.582   5.957
 2664SOL     OW 8890   4.060   3.066   5.543
 2664SOL    HW1 8891   4.052   3.148   5.488
 2664SOL    HW2 8892   4.069   2.986   5.484
 2665SOL     OW 8893   2.344   3.262   5.320
 2665SOL    HW1 8894   2.304   3.328   5.256
 2665SOL    HW2 8895   2.384   3.186   5.269
 2666SOL     OW 8896   1.564   3.839   2.054
 2666SOL    HW1 8897   1.548   3.812   1.959
 2666SOL    HW2 8898   1.510   3.921   2.075
 2667SOL     OW 8899   0.879   5.277   3.997
 2667SOL    HW1 8900   0.945   5.217   4.041
 2667SOL    HW2 8901   0.832   5.332   4.066
 2668SOL     OW 8902   5.721   3.293   4.552
 2668SOL    HW1 8903   5.693   3.365   4.615
 2668SOL    HW2 8904   5.662   3.296   4.471
 2669SOL     OW 8905   3.229   5.670   6.779
 2669SOL    HW1 8906   3.313   5.720   6.795
 2669SOL    HW2 8907   3.217   5.654   6.681
 2670SOL     OW 8908   6.502   2.651   4.794
 2670SOL    HW1 8909   6.524   2.749   4.790
 2670SOL    HW2 8910   6.577   2.599   4.753
 2671SOL     OW 8911   4.865   5.570   5.887
 2671SOL    HW1 8912   4.878   5.660   5.845
 2671SOL    HW2 8913   4.945   5.549   5.944
 2672SOL     OW 8914   3.266   0.156   1.718
 2672SOL    HW1 8915   3.356   0.166   1.677
 2672SOL    HW2 8916   3.212   0.239   1.702
 2673SOL     OW 8917   5.614   1.792   2.314
 2673SOL    HW1 8918   5.648   1.813   2.406
 2673SOL    HW2 8919   5.516   1.774   2.318
 2674SOL     OW 8920   1.348   4.703   3.986
 2674SOL    HW1 8921   1.441   4.694   3.950
 2674SOL    HW2 8922   1.288   4.737   3.913
 2675SOL     OW 8923   0.386   6.602   4.281
 2675SOL    HW1 8924   0.416   6.655   4.202
 2675SOL    HW2 8925   0.463   6.590   4.344
 2676SOL     OW 8926   3.727   3.814   2.623
 2676SOL    HW1 8927   3.706   3.764   2.707
 2676SOL    HW2 8928   3.642   3.841   2.578
 2677SOL     OW 8929   3.074   4.842   1.148
 2677SOL    HW1 8930   3.007   4.909   1.117
 2677SOL    HW2 8931   3.062   4.826   1.246
 2678SOL     OW 8932   0.179   2.514   2.310
 2678SOL    HW1 8933   0.122   2.591   2.282
 2678SOL    HW2 8934   0.271   2.525   2.272
 2679SOL     OW 8935   1.893   5.099   2.358
 2679SOL    HW1 8936   1.798   5.072   2.339
 2679SOL    HW2 8937   1.930   5.040   2.430
 2680SOL     OW 8938   1.520   2.576   0.190
 2680SOL    HW1 8939   1.452   2.601   0.258
 2680SOL    HW2 8940   1.490   2.608   0.100
 2681SOL     OW 8941   1.399   2.623   4.934
 2681SOL    HW1 8942   1.470   2.693   4.932
 2681SOL    HW2 8943   1.311   2.665   4.953
 2682SOL     OW 8944   5.397   3.890   3.134
 2682SOL    HW1 8945   5.308   3.863   3.096
 2682SOL    HW2 8946   5.470   3.862   3.071
 2683SOL     OW 8947   2.336   4.200   2.412
 2683SOL    HW1 8948   2.354   4.212   2.315
 2683SOL    HW2 8949   2.385   4.270   2.464
 2684SOL     OW 8950   5.090   0.032   1.508
 2684SOL    HW1 8951   5.139   0.018   1.594
 2684SOL    HW2 8952   5.154   0.063   1.437
 2685SOL     OW 8953   6.513   4.728   4.887
 2685SOL    HW1 8954   6.489   4.658   4.954
 2685SOL    HW2 8955   6.507   4.690   4.795
 2686SOL     OW 8956   1.074   0.828   5.104
 2686SOL    HW1 8957   1.016   0.769   5.047
 2686SOL    HW2 8958   1.168   0.827   5.068
 2687SOL     OW 8959   3.558   6.382   1.268
 2687SOL    HW1 8960   3.587   6.470   1.306
 2687SOL    HW2 8961   3.602   6.308   1.317
 2688SOL     OW 8962   2.922   2.050   0.950
 2688SOL    HW1 8963   2.968   2.138   0.959
 2688SOL    HW2 8964   2.983   1.977   0.980
 2689SOL     OW 8965   0.394   3.994   2.541
 2689SOL    HW1 8966   0.298   3.982   2.564
 2689SOL    HW2 8967   0.451   3.940   2.604
 2690SOL     OW 8968   3.004   3.095   6.564
 2690SOL    HW1 8969   2.930   3.029   6.557
 2690SOL    HW2 8970   3.081   3.065   6.508
 2691SOL     OW 8971   0.339   4.105   3.715
 2691SOL    HW1 8972   0.305   4.016   3.743
 2691SOL    HW2 8973   0.288   4.177   3.762
 2692SOL     OW 8974   2.210   6.361   3.155
 2692SOL    HW1 8975   2.295   6.379   3.106
 2692SOL    HW2 8976   2.222   6.282   3.216
 2693SOL     OW 8977   1.922   4.689   4.052
 2693SOL    HW1 8978   1.911   4.675   4.151
 2693SOL    HW2 8979   2.014   4.663   4.025
 2694SOL     OW 8980   4.061   6.821   3.075
 2694SOL    HW1 8981   4.024   6.831   2.983
 2694SOL    HW2 8982   4.108   6.733   3.082
 2695SOL     OW 8983   6.179   6.838   2.853
 2695SOL    HW1 8984   6.265   6.830   2.904
 2695SOL    HW2 8985   6.127   6.917   2.886
 2696SOL     OW 8986   4.425   3.998   6.372
 2696SOL    HW1 8987   4.506   4.030   6.420
 2696SOL    HW2 8988   4.452   3.943   6.293
 2697SOL     OW 8989   4.528   1.293   2.252
 2697SOL    HW1 8990   4.524   1.277   2.351
 2697SOL    HW2 8991   4.479   1.377   2.231
 2698SOL     OW 8992   1.968   4.701   6.737
 2698SOL    HW1 8993   1.927   4.654   6.659
 2698SOL    HW2 8994   1.956   4.646   6.819
 2699SOL     OW 8995   2.705   5.590   0.973
 2699SOL    HW1 8996   2.662   5.586   0.883
 2699SOL    HW2 8997   2.639   5.561   1.042
 2700SOL     OW 8998   2.869   1.664   1.104
 2700SOL    HW1 8999   2.859   1.625   1.196
 2700SOL    HW2 9000   2.801   1.737   1.091
 2701SOL     OW 9001   5.260   2.520   5.963
 2701SOL    HW1 9002   5.241   2.522   5.864
 2701SOL    HW2 9003   5.254   2.613   6.000
 2702SOL     OW 9004   1.351   2.234   3.172
 2702SOL    HW1 9005   1.428   2.268   3.225
 2702SOL    HW2 9006   1.333   2.295   3.094
 2703SOL     OW 9007   1.678   5.456   1.565
 2703SOL    HW1 9008   1.767   5.435   1.525
 2703SOL    HW2 9009   1.625   5.372   1.577
 2704SOL     OW 9010   6.578   5.484   2.793
 2704SOL    HW1 9011   6.658   5.428   2.816
 2704SOL    HW2 9012   6.568   5.490   2.694
 2705SOL     OW 9013   6.363   1.476   5.157
 2705SOL    HW1 9014   6.389   1.389   5.198
 2705SOL    HW2 9015   6.414   1.550   5.199
 2706SOL     OW 9016   5.946   4.070   4.819
 2706SOL    HW1 9017   5.921   4.120   4.736
 2706SOL    HW2 9018   6.033   4.104   4.854
 2707SOL     OW 9019   4.142   6.923   4.284
 2707SOL    HW1 9020   4.152   6.868   4.201
 2707SOL    HW2 9021   4.128   7.019   4.259
 2708SOL     OW 9022   6.617   2.483   0.747
 2708SOL    HW1 9023   6.653   2.576   0.742
 2708SOL    HW2 9024   6.517   2.486   0.750
 2709SOL     OW 9025   5.013   6.957   6.398
 2709SOL    HW1 9026   5.107   6.943   6.365
 2709SOL    HW2 9027   5.015   7.017   6.478
 2710SOL     OW 9028   1.886   2.530   3.485
 2710SOL    HW1 9029   1.858   2.625   3.496
 2710SOL    HW2 9030   1.970   2.526   3.431
 2711SOL     OW 9031   3.062   1.548   3.281
 2711SOL    HW1 9032   3.056   1.647   3.266
 2711SOL    HW2 9033   3.052   1.501   3.193
 2712SOL     OW 9034   2.853   5.414   1.818
 2712SOL    HW1 9035   2.921   5.377   1.881
 2712SOL    HW2 9036   2.855   5.363   1.732
 2713SOL     OW 9037   4.199   4.181   6.568
 2713SOL    HW1 9038   4.179   4.094   6.522
 2713SOL    HW2 9039   4.264   4.166   6.642
 2714SOL     OW 9040   4.046   4.200   0.066
 2714SOL    HW1 9041   4.142   4.227   0.055
 2714SOL    HW2 9042   4.035   4.149   0.151
 2715SOL     OW 9043   5.167   2.347   0.679
 2715SOL    HW1 9044   5.173   2.393   0.767
 2715SOL    HW2 9045   5.202   2.253   0.687
 2716SOL     OW 9046   4.806   2.899   3.287
 2716SOL    HW1 9047   4.852   2.976   3.331
 2716SOL    HW2 9048   4.731   2.867   3.344
 2717SOL     OW 9049   0.584   6.750   2.670
 2717SOL    HW1 9050   0.608   6.673   2.611
 2717SOL    HW2 9051   0.502   6.727   2.723
 2718SOL     OW 9052   6.835   0.924   4.996
 2718SOL    HW1 9053   6.776   1.003   5.011
 2718SOL    HW2 9054   6.818   0.885   4.906
 2719SOL     OW 9055   1.412   4.384   2.071
 2719SOL    HW1 9056   1.369   4.435   1.997
 2719SOL    HW2 9057   1.507   4.362   2.046
 2720SOL     OW 9058   1.137   0.162   4.274
 2720SOL    HW1 9059   1.088   0.250   4.275
 2720SOL    HW2 9060   1.219   0.170   4.332
 2721SOL     OW 9061   3.369   6.543   2.924
 2721SOL    HW1 9062   3.358   6.503   2.834
 2721SOL    HW2 9063   3.288   6.598   2.946
 2722SOL     OW 9064   5.027   5.297   6.478
 2722SOL    HW1 9065   4.937   5.332   6.449
 2722SOL    HW2 9066   5.086   5.286   6.398
 2723SOL     OW 9067   2.684   6.330   6.599
 2723SOL    HW1 9068   2.753   6.297   6.535
 2723SOL    HW2 9069   2.715   6.415   6.642
 2724SOL     OW 9070   1.339   5.786   6.498
 2724SOL    HW1 9071   1.284   5.772   6.416
 2724SOL    HW2 9072   1.354   5.884   6.511
 2725SOL     OW 9073   5.429   3.910   4.386
 2725SOL    HW1 9074   5.360   3.976   4.356
 2725SOL    HW2 9075   5.422   3.896   4.485
 2726SOL     OW 9076   0.665   2.146   1.809
 2726SOL    HW1 9077   0.571   2.155   1.841
 2726SOL    HW2 9078   0.688   2.222   1.749
 2727SOL     OW 9079   1.586   4.009   4.393
 2727SOL    HW1 9080   1.672   4.038   4.352
 2727SOL    HW2 9081   1.559   4.074   4.464
 2728SOL     OW 9082   5.098   5.835   6.566
 2728SOL    HW1 9083   5.035   5.766   6.530
 2728SOL    HW2 9084   5.133   5.805   6.655
 2729SOL     OW 9085   6.754   6.504   0.056
 2729SOL    HW1 9086   6.732   6.560   6.998
 2729SOL    HW2 9087   6.672   6.459   0.091
 2730SOL     OW 9088   0.801   5.605   1.438
 2730SOL    HW1 9089   0.794   5.539   1.513
 2730SOL    HW2 9090   0.725   5.669   1.443
 2731SOL     OW 9091   3.271   3.458   3.020
 2731SOL    HW1 9092   3.218   3.379   3.050
 2731SOL    HW2 9093   3.234   3.492   2.933
 2732SOL     OW 9094   5.752   2.099   1.574
 2732SOL    HW1 9095   5.733   2.003   1.596
 2732SOL    HW2 9096   5.850   2.112   1.565
 2733SOL     OW 9097   0.157   1.546   5.020
 2733SOL    HW1 9098   0.179   1.616   4.951
 2733SOL    HW2 9099   0.150   1.457   4.976
 2734SOL     OW 9100   3.518   5.756   1.661
 2734SOL    HW1 9101   3.487   5.812   1.737
 2734SOL    HW2 9102   3.609   5.786   1.632
 2735SOL     OW 9103   1.345   2.217   0.866
 2735SOL    HW1 9104   1.252   2.212   0.829
 2735SOL    HW2 9105   1.409   2.236   0.791
 2736SOL     OW 9106   6.095   6.203   4.634
 2736SOL    HW1 9107   6.088   6.254   4.548
 2736SOL    HW2 9108   6.111   6.268   4.709
 2737SOL     OW 9109   2.689   2.828   5.940
 2737SOL    HW1 9110   2.783   2.832   5.975
 2737SOL    HW2 9111   2.687   2.771   5.858
 2738SOL     OW 9112   6.436   6.790   2.525
 2738SOL    HW1 9113   6.342   6.821   2.545
 2738SOL    HW2 9114   6.454   6.802   2.427
 2739SOL     OW 9115   0.584   5.303   1.025
 2739SOL    HW1 9116   0.536   5.276   1.108
 2739SOL    HW2 9117   0.555   5.246   0.949
 2740SOL     OW 9118   7.016   5.266   2.154
 2740SOL    HW1 9119   0.062   5.283   2.226
 2740SOL    HW2 9120   6.998   5.168   2.148
 2741SOL     OW 9121   0.222   1.813   4.952
 2741SOL    HW1 9122   0.135   1.842   4.913
 2741SOL    HW2 9123   0.207   1.779   5.045
 2742SOL     OW 9124   2.549   5.199   1.506
 2742SOL    HW1 9125   2.617   5.270   1.522
 2742SOL    HW2 9126   2.457   5.239   1.513
 2743SOL     OW 9127   6.986   4.547   2.420
 2743SOL    HW1 9128   0.011   4.595   2.495
 2743SOL    HW2 9129   6.977   4.450   2.443
 2744SOL     OW 9130   4.167   3.221   1.830
 2744SOL    HW1 9131   4.211   3.211   1.741
 2744SOL    HW2 9132   4.093   3.155   1.839
 2745SOL     OW 9133   6.826   1.320   5.377
 2745SOL    HW1 9134   6.811   1.412   5.414
 2745SOL    HW2 9135   6.839   1.255   5.453
 2746SOL     OW 9136   0.715   2.153   4.035
 2746SOL    HW1 9137   0.813   2.153   4.016
 2746SOL    HW2 9138   0.664   2.160   3.949
 2747SOL     OW 9139   4.721   5.463   6.607
 2747SOL    HW1 9140   4.691   5.446   6.514
 2747SOL    HW2 9141   4.642   5.471   6.667
 2748SOL     OW 9142   4.628   0.670   1.708
 2748SOL    HW1 9143   4.595   0.763   1.690
 2748SOL    HW2 9144   4.725   0.665   1.687
 2749SOL     OW 9145   0.689   5.085   0.778
 2749SOL    HW1 9146   0.777   5.059   0.739
 2749SOL    HW2 9147   0.620   5.088   0.706
 2750SOL     OW 9148   1.992   4.436   1.863
 2750SOL    HW1 9149   2.040   4.524   1.856
 2750SOL    HW2 9150   2.009   4.382   1.781
 2751SOL     OW 9151   1.662   2.331   1.400
 2751SOL    HW1 9152   1.595   2.311   1.472
 2751SOL    HW2 9153   1.656   2.427   1.374
 2752SOL     OW 9154   3.625   4.502   6.246
 2752SOL    HW1 9155   3.650   4.416   6.202
 2752SOL    HW2 9156   3.696   4.528   6.312
 2753SOL     OW 9157   6.825   6.179   5.073
 2753SOL    HW1 9158   6.865   6.259   5.029
 2753SOL    HW2 9159   6.897   6.128   5.121
 2754SOL     OW 9160   0.491   7.015   0.268
 2754SOL    HW1 9161   0.423   6.948   0.239
 2754SOL    HW2 9162   0.573   6.968   0.300
 2755SOL     OW 9163   3.865   0.367   3.252
 2755SOL    HW1 9164   3.782   0.413   3.283
 2755SOL    HW2 9165   3.871   0.277   3.294
 2756SOL     OW 9166   4.126   6.108   0.276
 2756SOL    HW1 9167   4.175   6.087   0.192
 2756SOL    HW2 9168   4.040   6.056   0.279
 2757SOL     OW 9169   1.840   6.713   0.666
 2757SOL    HW1 9170   1.787   6.712   0.580
 2757SOL    HW2 9171   1.856   6.619   0.695
 2758SOL     OW 9172   4.980   0.164   4.755
 2758SOL    HW1 9173   4.980   0.175   4.854
 2758SOL    HW2 9174   4.991   0.254   4.712
 2759SOL     OW 9175   5.330   6.465   4.978
 2759SOL    HW1 9176   5.352   6.368   4.986
 2759SOL    HW2 9177   5.325   6.506   5.069
 2760SOL     OW 9178   1.312   5.684   1.559
 2760SOL    HW1 9179   1.412   5.695   1.558
 2760SOL    HW2 9180   1.272   5.741   1.488
 2761SOL     OW 9181   2.316   4.797   4.403
 2761SOL    HW1 9182   2.252   4.721   4.399
 2761SOL    HW2 9183   2.402   4.766   4.442
 2762SOL     OW 9184   0.778   1.151   4.948
 2762SOL    HW1 9185   0.770   1.227   4.884
 2762SOL    HW2 9186   0.705   1.156   5.016
 2763SOL     OW 9187   5.672   1.596   3.796
 2763SOL    HW1 9188   5.672   1.658   3.717
 2763SOL    HW2 9189   5.744   1.528   3.786
 2764SOL     OW 9190   6.211   0.501   1.269
 2764SOL    HW1 9191   6.142   0.540   1.330
 2764SOL    HW2 9192   6.168   0.469   1.185
 2765SOL     OW 9193   5.808   0.189   0.762
 2765SOL    HW1 9194   5.734   0.244   0.800
 2765SOL    HW2 9195   5.770   0.107   0.719
 2766SOL     OW 9196   4.915   2.459   0.588
 2766SOL    HW1 9197   4.905   2.473   0.490
 2766SOL    HW2 9198   4.992   2.398   0.605
 2767SOL     OW 9199   6.680   4.950   6.518
 2767SOL    HW1 9200   6.630   5.003   6.449
 2767SOL    HW2 9201   6.745   5.009   6.565
 2768SOL     OW 9202   5.027   0.640   0.149
 2768SOL    HW1 9203   4.947   0.585   0.128
 2768SOL    HW2 9204   5.038   0.711   0.079
 2769SOL     OW 9205   6.632   4.194   3.893
 2769SOL    HW1 9206   6.558   4.241   3.940
 2769SOL    HW2 9207   6.604   4.172   3.800
 2770SOL     OW 9208   2.206   5.558   6.280
 2770SOL    HW1 9209   2.113   5.529   6.262
 2770SOL    HW2 9210   2.252   5.578   6.193
 2771SOL     OW 9211   5.321   1.442   1.985
 2771SOL    HW1 9212   5.333   1.540   1.969
 2771SOL    HW2 9213   5.405   1.403   2.022
 2772SOL     OW 9214   4.447   1.727   1.053
 2772SOL    HW1 9215   4.521   1.795   1.058
 2772SOL    HW2 9216   4.474   1.651   0.994
 2773SOL     OW 9217   5.522   3.109   5.552
 2773SOL    HW1 9218   5.546   3.142   5.461
 2773SOL    HW2 9219   5.554   3.014   5.562
 2774SOL     OW 9220   6.918   3.115   2.906
 2774SOL    HW1 9221   6.851   3.041   2.899
 2774SOL    HW2 9222   6.983   3.094   2.978
 2775SOL     OW 9223   6.867   5.326   0.053
 2775SOL    HW1 9224   6.888   5.416   0.090
 2775SOL    HW2 9225   6.842   5.263   0.127
 2776SOL     OW 9226   4.960   5.100   5.629
 2776SOL    HW1 9227   4.912   5.124   5.545
 2776SOL    HW2 9228   4.908   5.032   5.680
 2777SOL     OW 9229   2.824   1.134   1.871
 2777SOL    HW1 9230   2.840   1.063   1.802
 2777SOL    HW2 9231   2.894   1.127   1.942
 2778SOL     OW 9232   1.252   1.033   4.787
 2778SOL    HW1 9233   1.316   1.100   4.825
 2778SOL    HW2 9234   1.255   0.950   4.842
 2779SOL     OW 9235   4.855   6.871   0.772
 2779SOL    HW1 9236   4.856   6.797   0.840
 2779SOL    HW2 9237   4.825   6.834   0.684
 2780SOL     OW 9238   6.937   5.652   6.235
 2780SOL    HW1 9239   6.938   5.719   6.309
 2780SOL    HW2 9240   6.843   5.619   6.221
 2781SOL     OW 9241   6.039   5.733   1.619
 2781SOL    HW1 9242   5.989   5.815   1.592
 2781SOL    HW2 9243   6.090   5.697   1.541
 2782SOL     OW 9244   3.006   2.301   5.702
 2782SOL    HW1 9245   3.004   2.281   5.604
 2782SOL    HW2 9246   2.954   2.231   5.752
 2783SOL     OW 9247   6.090   3.277   4.791
 2783SOL    HW1 9248   5.996   3.246   4.773
 2783SOL    HW2 9249   6.088   3.373   4.818
 2784SOL     OW 9250   3.145   1.918   0.972
 2784SOL    HW1 9251   3.227   1.965   0.941
 2784SOL    HW2 9252   3.168   1.822   0.992
 2785SOL     OW 9253   5.496   1.542   0.701
 2785SOL    HW1 9254   5.557   1.613   0.737
 2785SOL    HW2 9255   5.505   1.459   0.756
 2786SOL     OW 9256   4.105   5.777   1.681
 2786SOL    HW1 9257   4.077   5.762   1.587
 2786SOL    HW2 9258   4.205   5.776   1.688
 2787SOL     OW 9259   2.522   2.727   6.757
 2787SOL    HW1 9260   2.595   2.687   6.703
 2787SOL    HW2 9261   2.520   2.826   6.743
 2788SOL     OW 9262   2.311   4.377   6.893
 2788SOL    HW1 9263   2.387   4.317   6.918
 2788SOL    HW2 9264   2.335   4.428   6.810
 2789SOL     OW 9265   1.898   2.840   3.491
 2789SOL    HW1 9266   1.898   2.903   3.414
 2789SOL    HW2 9267   1.974   2.862   3.552
 2790SOL     OW 9268   2.822   5.589   2.478
 2790SOL    HW1 9269   2.829   5.683   2.445
 2790SOL    HW2 9270   2.812   5.590   2.578
 2791SOL     OW 9271   1.289   4.179   4.534
 2791SOL    HW1 9272   1.315   4.153   4.440
 2791SOL    HW2 9273   1.371   4.186   4.590
 2792SOL     OW 9274   0.676   6.609   5.116
 2792SOL    HW1 9275   0.775   6.620   5.107
 2792SOL    HW2 9276   0.652   6.600   5.212
 2793SOL     OW 9277   4.778   2.775   2.881
 2793SOL    HW1 9278   4.847   2.711   2.915
 2793SOL    HW2 9279   4.787   2.862   2.929
 2794SOL     OW 9280   0.061   2.184   0.809
 2794SOL    HW1 9281   0.016   2.099   0.835
 2794SOL    HW2 9282   0.005   2.234   0.743
 2795SOL     OW 9283   2.373   3.399   0.759
 2795SOL    HW1 9284   2.366   3.452   0.843
 2795SOL    HW2 9285   2.350   3.457   0.681
 2796SOL     OW 9286   6.467   4.932   2.961
 2796SOL    HW1 9287   6.490   4.872   3.038
 2796SOL    HW2 9288   6.372   4.963   2.970
 2797SOL     OW 9289   5.017   5.523   4.456
 2797SOL    HW1 9290   4.931   5.539   4.407
 2797SOL    HW2 9291   4.998   5.476   4.542
 2798SOL     OW 9292   1.037   4.741   1.770
 2798SOL    HW1 9293   1.055   4.756   1.673
 2798SOL    HW2 9294   1.123   4.749   1.821
 2799SOL     OW 9295   0.221   5.950   6.800
 2799SOL    HW1 9296   0.163   5.994   6.731
 2799SOL    HW2 9297   0.199   5.988   6.890
 2800SOL     OW 9298   4.060   5.039   6.765
 2800SOL    HW1 9299   4.143   4.985   6.749
 2800SOL    HW2 9300   4.032   5.083   6.680
 2801SOL     OW 9301   4.511   5.610   4.462
 2801SOL    HW1 9302   4.443   5.581   4.529
 2801SOL    HW2 9303   4.545   5.701   4.486
 2802SOL     OW 9304   4.729   3.215   6.281
 2802SOL    HW1 9305   4.809   3.209   6.221
 2802SOL    HW2 9306   4.700   3.123   6.306
 2803SOL     OW 9307   3.479   6.103   6.260
 2803SOL    HW1 9308   3.455   6.043   6.183
 2803SOL    HW2 9309   3.434   6.070   6.343
 2804SOL     OW 9310   0.119   4.622   4.642
 2804SOL    HW1 9311   0.083   4.580   4.559
 2804SOL    HW2 9312   0.045   4.669   4.691
 2805SOL     OW 9313   4.901   2.734   1.551
 2805SOL    HW1 9314   4.949   2.650   1.576
 2805SOL    HW2 9315   4.967   2.809   1.543
 2806SOL     OW 9316   6.260   4.949   4.317
 2806SOL    HW1 9317   6.229   5.033   4.361
 2806SOL    HW2 9318   6.235   4.950   4.220
 2807SOL     OW 9319   5.869   5.130   4.097
 2807SOL    HW1 9320   5.854   5.229   4.095
 2807SOL    HW2 9321   5.803   5.085   4.037
 2808SOL     OW 9322   4.970   2.704   2.441
 2808SOL    HW1 9323   4.954   2.703   2.540
 2808SOL    HW2 9324   4.895   2.750   2.395
 2809SOL     OW 9325   6.118   2.408   1.847
 2809SOL    HW1 9326   6.018   2.400   1.847
 2809SOL    HW2 9327   6.158   2.318   1.829
 2810SOL     OW 9328   3.056   6.547   4.444
 2810SOL    HW1 9329   3.031   6.594   4.359
 2810SOL    HW2 9330   3.055   6.448   4.428
 2811SOL     OW 9331   0.315   0.901   3.234
 2811SOL    HW1 9332   0.335   0.942   3.145
 2811SOL    HW2 9333   0.317   0.801   3.226
 2812SOL     OW 9334   5.825   3.586   0.457
 2812SOL    HW1 9335   5.879   3.568   0.374
 2812SOL    HW2 9336   5.887   3.607   0.533
 2813SOL     OW 9337   6.315   0.193   6.081
 2813SOL    HW1 9338   6.276   0.226   5.995
 2813SOL    HW2 9339   6.415   0.197   6.076
 2814SOL     OW 9340   4.741   2.859   0.003
 2814SOL    HW1 9341   4.787   2.943   0.032
 2814SOL    HW2 9342   4.739   2.856   6.925
 2815SOL     OW 9343   0.143   1.496   5.452
 2815SOL    HW1 9344   0.116   1.579   5.403
 2815SOL    HW2 9345   0.225   1.457   5.410
 2816SOL     OW 9346   6.763   6.156   3.632
 2816SOL    HW1 9347   6.821   6.237   3.639
 2816SOL    HW2 9348   6.810   6.078   3.673
 2817SOL     OW 9349   2.099   0.396   1.163
 2817SOL    HW1 9350   2.014   0.448   1.150
 2817SOL    HW2 9351   2.156   0.442   1.230
 2818SOL     OW 9352   0.048   6.371   6.936
 2818SOL    HW1 9353   0.058   6.387   6.837
 2818SOL    HW2 9354   6.990   6.313   6.952
 2819SOL     OW 9355   0.233   1.299   1.337
 2819SOL    HW1 9356   0.169   1.342   1.273
 2819SOL    HW2 9357   0.231   1.348   1.424
 2820SOL     OW 9358   1.294   1.978   2.931
 2820SOL    HW1 9359   1.323   1.961   2.837
 2820SOL    HW2 9360   1.366   2.025   2.980
 2821SOL     OW 9361   4.102   3.751   6.984
 2821SOL    HW1 9362   4.176   3.795   6.932
 2821SOL    HW2 9363   4.023   3.812   6.986
 2822SOL     OW 9364   4.340   2.601   6.808
 2822SOL    HW1 9365   4.416   2.624   6.868
 2822SOL    HW2 9366   4.302   2.513   6.835
 2823SOL     OW 9367   3.289   6.915   0.596
 2823SOL    HW1 9368   3.381   6.884   0.619
 2823SOL    HW2 9369   3.294   6.997   0.540
 2824SOL     OW 9370   2.716   1.266   4.338
 2824SOL    HW1 9371   2.682   1.334   4.273
 2824SOL    HW2 9372   2.764   1.193   4.288
 2825SOL     OW 9373   6.806   0.748   6.943
 2825SOL    HW1 9374   6.814   0.728   0.019
 2825SOL    HW2 9375   6.712   0.735   6.913
 2826SOL     OW 9376   5.212   2.071   0.133
 2826SOL    HW1 9377   5.277   2.140   0.164
 2826SOL    HW2 9378   5.220   2.060   0.034
 2827SOL     OW 9379   5.674   0.823   5.146
 2827SOL    HW1 9380   5.597   0.766   5.117
 2827SOL    HW2 9381   5.643   0.918   5.153
 2828SOL     OW 9382   3.217   0.529   0.284
 2828SOL    HW1 9383   3.181   0.435   0.290
 2828SOL    HW2 9384   3.214   0.560   0.189
 2829SOL     OW 9385   3.515   3.827   6.065
 2829SOL    HW1 9386   3.560   3.872   5.988
 2829SOL    HW2 9387   3.420   3.804   6.040
 2830SOL     OW 9388   1.055   3.394   6.913
 2830SOL    HW1 9389   1.146   3.381   6.951
 2830SOL    HW2 9390   1.002   3.453   6.974
 2831SOL     OW 9391   0.511   5.920   3.745
 2831SOL    HW1 9392   0.485   5.952   3.836
 2831SOL    HW2 9393   0.596   5.868   3.752
 2832SOL     OW 9394   0.440   1.141   2.007
 2832SOL    HW1 9395   0.474   1.071   1.944
 2832SOL    HW2 9396   0.512   1.208   2.025
 2833SOL     OW 9397   4.752   2.392   2.641
 2833SOL    HW1 9398   4.839   2.422   2.602
 2833SOL    HW2 9399   4.729   2.302   2.605
 2834SOL     OW 9400   2.658   6.901   5.820
 2834SOL    HW1 9401   2.562   6.883   5.797
 2834SOL    HW2 9402   2.707   6.814   5.829
 2835SOL     OW 9403   6.862   0.557   2.040
 2835SOL    HW1 9404   6.827   0.476   2.086
 2835SOL    HW2 9405   6.852   0.636   2.101
 2836SOL     OW 9406   6.212   6.559   1.583
 2836SOL    HW1 9407   6.130   6.615   1.577
 2836SOL    HW2 9408   6.290   6.610   1.546
 2837SOL     OW 9409   5.825   3.380   3.178
 2837SOL    HW1 9410   5.915   3.423   3.179
 2837SOL    HW2 9411   5.821   3.314   3.103
 2838SOL     OW 9412   1.983   4.181   1.287
 2838SOL    HW1 9413   1.967   4.192   1.385
 2838SOL    HW2 9414   1.942   4.096   1.256
 2839SOL     OW 9415   5.811   1.336   1.983
 2839SOL    HW1 9416   5.831   1.432   1.968
 2839SOL    HW2 9417   5.712   1.324   1.995
 2840SOL     OW 9418   0.906   1.346   3.586
 2840SOL    HW1 9419   0.962   1.407   3.641
 2840SOL    HW2 9420   0.873   1.394   3.504
 2841SOL     OW 9421   0.057   0.734   5.526
 2841SOL    HW1 9422   0.125   0.792   5.571
 2841SOL    HW2 9423   6.989   0.778   5.530
 2842SOL     OW 9424   6.986   2.764   4.333
 2842SOL    HW1 9425   7.002   2.668   4.307
 2842SOL    HW2 9426   0.020   2.824   4.275
 2843SOL     OW 9427   2.912   1.998   3.420
 2843SOL    HW1 9428   2.844   1.937   3.379
 2843SOL    HW2 9429   2.916   1.981   3.519
 2844SOL     OW 9430   1.212   5.565   0.318
 2844SOL    HW1 9431   1.154   5.585   0.239
 2844SOL    HW2 9432   1.232   5.467   0.321
 2845SOL     OW 9433   0.765   2.731   0.972
 2845SOL    HW1 9434   0.850   2.773   1.001
 2845SOL    HW2 9435   0.701   2.727   1.049
 2846SOL     OW 9436   4.473   1.045   6.546
 2846SOL    HW1 9437   4.405   0.979   6.514
 2846SOL    HW2 9438   4.477   1.122   6.482
 2847SOL     OW 9439   5.143   3.148   3.066
 2847SOL    HW1 9440   5.139   3.056   3.104
 2847SOL    HW2 9441   5.053   3.192   3.078
 2848SOL     OW 9442   1.259   3.641   6.754
 2848SOL    HW1 9443   1.246   3.563   6.694
 2848SOL    HW2 9444   1.172   3.665   6.798
 2849SOL     OW 9445   4.164   6.748   1.408
 2849SOL    HW1 9446   4.180   6.799   1.324
 2849SOL    HW2 9447   4.082   6.692   1.398
 2850SOL     OW 9448   3.428   6.873   2.290
 2850SOL    HW1 9449   3.361   6.945   2.306
 2850SOL    HW2 9450   3.513   6.912   2.254
 2851SOL     OW 9451   0.222   3.336   5.776
 2851SOL    HW1 9452   0.131   3.362   5.741
 2851SOL    HW2 9453   0.230   3.236   5.776
 2852SOL     OW 9454   5.692   4.291   0.498
 2852SOL    HW1 9455   5.660   4.259   0.409
 2852SOL    HW2 9456   5.718   4.213   0.554
 2853SOL     OW 9457   2.211   2.437   0.349
 2853SOL    HW1 9458   2.288   2.489   0.312
 2853SOL    HW2 9459   2.215   2.343   0.315
 2854SOL     OW 9460   3.850   1.581   4.746
 2854SOL    HW1 9461   3.761   1.549   4.776
 2854SOL    HW2 9462   3.848   1.680   4.732
 2855SOL     OW 9463   2.528   0.860   5.990
 2855SOL    HW1 9464   2.533   0.768   6.030
 2855SOL    HW2 9465   2.577   0.924   6.048
 2856SOL     OW 9466   1.879   2.951   5.981
 2856SOL    HW1 9467   1.878   2.979   5.885
 2856SOL    HW2 9468   1.965   2.904   6.000
 2857SOL     OW 9469   3.378   1.778   2.242
 2857SOL    HW1 9470   3.322   1.785   2.324
 2857SOL    HW2 9471   3.374   1.863   2.190
 2858SOL     OW 9472   5.933   3.761   1.668
 2858SOL    HW1 9473   5.916   3.859   1.654
 2858SOL    HW2 9474   5.855   3.709   1.633
 2859SOL     OW 9475   5.152   1.901   0.350
 2859SOL    HW1 9476   5.154   1.928   0.254
 2859SOL    HW2 9477   5.242   1.916   0.390
 2860SOL     OW 9478   3.784   1.918   1.198
 2860SOL    HW1 9479   3.844   1.959   1.129
 2860SOL    HW2 9480   3.767   1.984   1.271
 2861SOL     OW 9481   4.556   4.929   6.167
 2861SOL    HW1 9482   4.570   4.830   6.169
 2861SOL    HW2 9483   4.477   4.950   6.109
 2862SOL     OW 9484   5.176   1.869   3.437
 2862SOL    HW1 9485   5.175   1.791   3.374
 2862SOL    HW2 9486   5.258   1.924   3.422
 2863SOL     OW 9487   5.221   1.548   6.915
 2863SOL    HW1 9488   5.140   1.577   6.864
 2863SOL    HW2 9489   5.282   1.496   6.855
 2864SOL     OW 9490   4.053   1.107   1.660
 2864SOL    HW1 9491   4.020   1.058   1.741
 2864SOL    HW2 9492   4.111   1.046   1.607
 2865SOL     OW 9493   5.371   4.489   5.469
 2865SOL    HW1 9494   5.387   4.557   5.540
 2865SOL    HW2 9495   5.273   4.470   5.462
 2866SOL     OW 9496   6.483   6.390   6.838
 2866SOL    HW1 9497   6.402   6.447   6.823
 2866SOL    HW2 9498   6.458   6.308   6.889
 2867SOL     OW 9499   6.008   3.894   2.347
 2867SOL    HW1 9500   5.982   3.886   2.443
 2867SOL    HW2 9501   6.000   3.989   2.318
 2868SOL     OW 9502   0.504   2.988   5.317
 2868SOL    HW1 9503   0.521   2.899   5.275
 2868SOL    HW2 9504   0.422   2.984   5.373
 2869SOL     OW 9505   5.834   1.145   4.053
 2869SOL    HW1 9506   5.834   1.167   3.955
 2869SOL    HW2 9507   5.911   1.190   4.097
 2870SOL     OW 9508   0.290   1.249   4.213
 2870SOL    HW1 9509   0.238   1.232   4.296
 2870SOL    HW2 9510   0.227   1.267   4.137
 2871SOL     OW 9511   1.221   1.650   0.119
 2871SOL    HW1 9512   1.311   1.694   0.112
 2871SOL    HW2 9513   1.203   1.625   0.214
 2872SOL     OW 9514   2.721   1.508   3.308
 2872SOL    HW1 9515   2.687   1.487   3.216
 2872SOL    HW2 9516   2.783   1.436   3.338
 2873SOL     OW 9517   0.371   4.902   2.967
 2873SOL    HW1 9518   0.333   4.844   2.895
 2873SOL    HW2 9519   0.465   4.928   2.942
 2874SOL     OW 9520   3.676   6.203   3.104
 2874SOL    HW1 9521   3.712   6.255   3.181
 2874SOL    HW2 9522   3.751   6.160   3.054
 2875SOL     OW 9523   4.749   6.272   0.340
 2875SOL    HW1 9524   4.650   6.287   0.344
 2875SOL    HW2 9525   4.795   6.359   0.322
 2876SOL     OW 9526   0.952   0.344   1.992
 2876SOL    HW1 9527   0.903   0.367   2.076
 2876SOL    HW2 9528   1.045   0.314   2.015
 2877SOL     OW 9529   3.863   2.913   5.231
 2877SOL    HW1 9530   3.798   2.976   5.273
 2877SOL    HW2 9531   3.956   2.947   5.244
 2878SOL     OW 9532   3.740   5.294   4.460
 2878SOL    HW1 9533   3.667   5.252   4.407
 2878SOL    HW2 9534   3.827   5.249   4.440
 2879SOL     OW 9535   5.364   4.852   0.852
 2879SOL    HW1 9536   5.389   4.762   0.816
 2879SOL    HW2 9537   5.383   4.856   0.950
 2880SOL     OW 9538   5.581   6.922   0.935
 2880SOL    HW1 9539   5.513   6.987   0.901
 2880SOL    HW2 9540   5.646   6.901   0.863
 2881SOL     OW 9541   5.847   6.461   1.034
 2881SOL    HW1 9542   5.866   6.499   0.943
 2881SOL    HW2 9543   5.933   6.451   1.084
 2882SOL     OW 9544   0.586   4.179   2.382
 2882SOL    HW1 9545   0.506   4.143   2.334
 2882SOL    HW2 9546   0.596   4.276   2.361
 2883SOL     OW 9547   5.403   5.924   4.043
 2883SOL    HW1 9548   5.364   5.865   3.972
 2883SOL    HW2 9549   5.501   5.905   4.053
 2884SOL     OW 9550   0.643   5.716   2.744
 2884SOL    HW1 9551   0.589   5.751   2.667
 2884SOL    HW2 9552   0.736   5.698   2.713
 2885SOL     OW 9553   0.409   3.412   2.006
 2885SOL    HW1 9554   0.451   3.493   2.047
 2885SOL    HW2 9555   0.403   3.339   2.075
 2886SOL     OW 9556   2.337   3.951   6.291
 2886SOL    HW1 9557   2.247   3.949   6.334
 2886SOL    HW2 9558   2.338   3.886   6.214
 2887SOL     OW 9559   1.229   0.029   4.739
 2887SOL    HW1 9560   1.306   7.017   4.684
 2887SOL    HW2 9561   1.143   0.006   4.694
 2888SOL     OW 9562   0.547   4.929   6.829
 2888SOL    HW1 9563   0.559   4.974   6.740
 2888SOL    HW2 9564   0.632   4.935   6.881
 2889SOL     OW 9565   1.755   0.111   2.401
 2889SOL    HW1 9566   1.663   0.086   2.432
 2889SOL    HW2 9567   1.749   0.185   2.335
 2890SOL     OW 9568   2.826   0.764   1.238
 2890SOL    HW1 9569   2.813   0.736   1.333
 2890SOL    HW2 9570   2.923   0.785   1.222
 2891SOL     OW 9571   2.306   4.154   4.064
 2891SOL    HW1 9572   2.278   4.106   3.981
 2891SOL    HW2 9573   2.349   4.240   4.040
 2892SOL     OW 9574   5.582   3.698   0.431
 2892SOL    HW1 9575   5.531   3.616   0.457
 2892SOL    HW2 9576   5.679   3.675   0.419
 2893SOL     OW 9577   0.129   6.467   4.867
 2893SOL    HW1 9578   0.210   6.493   4.920
 2893SOL    HW2 9579   0.047   6.504   4.911
 2894SOL     OW 9580   3.105   2.839   0.080
 2894SOL    HW1 9581   3.130   2.764   0.019
 2894SOL    HW2 9582   3.140   2.821   0.172
 2895SOL     OW 9583   3.997   2.919   6.492
 2895SOL    HW1 9584   4.038   2.964   6.572
 2895SOL    HW2 9585   4.046   2.946   6.410
 2896SOL     OW 9586   3.147   5.254   6.538
 2896SOL    HW1 9587   3.181   5.203   6.459
 2896SOL    HW2 9588   3.180   5.211   6.622
 2897SOL     OW 9589   2.976   5.842   2.981
 2897SOL    HW1 9590   2.968   5.797   2.891
 2897SOL    HW2 9591   3.044   5.793   3.036
 2898SOL     OW 9592   4.447   4.994   3.749
 2898SOL    HW1 9593   4.481   4.953   3.833
 2898SOL    HW2 9594   4.351   5.019   3.760
 2899SOL     OW 9595   0.259   2.053   0.209
 2899SOL    HW1 9596   0.194   2.008   0.149
 2899SOL    HW2 9597   0.235   2.149   0.219
 2900SOL     OW 9598   2.000   4.928   5.645
 2900SOL    HW1 9599   2.013   5.017   5.601
 2900SOL    HW2 9600   1.933   4.937   5.718
 2901SOL     OW 9601   1.974   0.222   3.243
 2901SOL    HW1 9602   1.911   0.250   3.316
 2901SOL    HW2 9603   1.961   0.125   3.224
 2902SOL     OW 9604   5.671   6.117   1.642
 2902SOL    HW1 9605   5.674   6.070   1.554
 2902SOL    HW2 9606   5.585   6.094   1.689
 2903SOL     OW 9607   2.907   0.385   1.163
 2903SOL    HW1 9608   2.933   0.430   1.078
 2903SOL    HW2 9609   2.823   0.333   1.150
 2904SOL     OW 9610   1.920   3.481   5.349
 2904SOL    HW1 9611   1.876   3.522   5.269
 2904SOL    HW2 9612   1.939   3.552   5.417
 2905SOL     OW 9613   1.413   2.584   3.570
 2905SOL    HW1 9614   1.497   2.639   3.566
 2905SOL    HW2 9615   1.395   2.556   3.664
 2906SOL     OW 9616   5.040   5.473   2.755
 2906SOL    HW1 9617   5.035   5.549   2.819
 2906SOL    HW2 9618   5.032   5.507   2.661
 2907SOL     OW 9619   0.547   1.213   4.116
 2907SOL    HW1 9620   0.448   1.224   4.129
 2907SOL    HW2 9621   0.573   1.119   4.139
 2908SOL     OW 9622   4.357   0.031   4.055
 2908SOL    HW1 9623   4.435   6.990   4.049
 2908SOL    HW2 9624   4.310   0.036   3.966
 2909SOL     OW 9625   0.747   6.109   3.642
 2909SOL    HW1 9626   0.658   6.080   3.608
 2909SOL    HW2 9627   0.779   6.045   3.712
 2910SOL     OW 9628   4.622   6.147   4.139
 2910SOL    HW1 9629   4.683   6.185   4.069
 2910SOL    HW2 9630   4.563   6.078   4.098
 2911SOL     OW 9631   1.798   5.370   3.481
 2911SOL    HW1 9632   1.727   5.394   3.546
 2911SOL    HW2 9633   1.847   5.289   3.514
 2912SOL     OW 9634   4.070   6.575   6.465
 2912SOL    HW1 9635   4.072   6.563   6.366
 2912SOL    HW2 9636   3.983   6.542   6.501
 2913SOL     OW 9637   2.094   5.064   2.174
 2913SOL    HW1 9638   2.009   5.078   2.226
 2913SOL    HW2 9639   2.170   5.104   2.225
 2914SOL     OW 9640   6.439   6.356   5.856
 2914SOL    HW1 9641   6.491   6.411   5.922
 2914SOL    HW2 9642   6.394   6.281   5.905
 2915SOL     OW 9643   5.198   1.634   5.032
 2915SOL    HW1 9644   5.166   1.726   5.012
 2915SOL    HW2 9645   5.139   1.592   5.101
 2916SOL     OW 9646   6.463   5.375   5.886
 2916SOL    HW1 9647   6.462   5.408   5.981
 2916SOL    HW2 9648   6.509   5.287   5.881
 2917SOL     OW 9649   4.268   0.086   2.004
 2917SOL    HW1 9650   4.243   0.089   1.907
 2917SOL    HW2 9651   4.343   0.022   2.017
 2918SOL     OW 9652   0.093   3.886   3.422
 2918SOL    HW1 9653   0.174   3.943   3.437
 2918SOL    HW2 9654   0.093   3.852   3.328
 2919SOL     OW 9655   6.641   0.941   0.447
 2919SOL    HW1 9656   6.587   0.910   0.369
 2919SOL    HW2 9657   6.669   0.862   0.502
 2920SOL     OW 9658   3.235   1.853   2.465
 2920SOL    HW1 9659   3.186   1.850   2.552
 2920SOL    HW2 9660   3.248   1.948   2.437
 2921SOL     OW 9661   0.771   0.384   3.208
 2921SOL    HW1 9662   0.705   0.310   3.222
 2921SOL    HW2 9663   0.824   0.366   3.125
 2922SOL     OW 9664   6.046   6.866   6.899
 2922SOL    HW1 9665   6.062   6.932   6.973
 2922SOL    HW2 9666   5.961   6.817   6.917
 2923SOL     OW 9667   0.147   4.614   1.661
 2923SOL    HW1 9668   0.194   4.540   1.613
 2923SOL    HW2 9669   0.052   4.588   1.676
 2924SOL     OW 9670   0.016   2.191   6.587
 2924SOL    HW1 9671   0.088   2.260   6.579
 2924SOL    HW2 9672   0.057   2.100   6.591
 2925SOL     OW 9673   5.092   0.794   3.471
 2925SOL    HW1 9674   5.057   0.886   3.454
 2925SOL    HW2 9675   5.157   0.769   3.399
 2926SOL     OW 9676   0.305   1.250   4.603
 2926SOL    HW1 9677   0.384   1.216   4.553
 2926SOL    HW2 9678   0.226   1.255   4.541
 2927SOL     OW 9679   1.333   1.715   2.228
 2927SOL    HW1 9680   1.428   1.686   2.239
 2927SOL    HW2 9681   1.310   1.717   2.130
 2928SOL     OW 9682   6.708   2.294   5.893
 2928SOL    HW1 9683   6.732   2.266   5.986
 2928SOL    HW2 9684   6.696   2.212   5.836
 2929SOL     OW 9685   0.589   1.181   6.165
 2929SOL    HW1 9686   0.574   1.093   6.121
 2929SOL    HW2 9687   0.637   1.167   6.252
 2930SOL     OW 9688   4.716   6.262   5.075
 2930SOL    HW1 9689   4.796   6.323   5.074
 2930SOL    HW2 9690   4.704   6.222   4.985
 2931SOL     OW 9691   5.743   5.963   0.081
 2931SOL    HW1 9692   5.699   5.873   0.068
 2931SOL    HW2 9693   5.740   5.988   0.177
 2932SOL     OW 9694   1.490   5.269   1.965
 2932SOL    HW1 9695   1.528   5.339   1.904
 2932SOL    HW2 9696   1.555   5.194   1.974
 2933SOL     OW 9697   6.288   3.251   3.191
 2933SOL    HW1 9698   6.312   3.164   3.234
 2933SOL    HW2 9699   6.312   3.326   3.252
 2934SOL     OW 9700   3.797   1.055   0.061
 2934SOL    HW1 9701   3.803   1.014   0.152
 2934SOL    HW2 9702   3.741   1.138   0.065
 2935SOL     OW 9703   6.555   3.453   1.461
 2935SOL    HW1 9704   6.484   3.513   1.497
 2935SOL    HW2 9705   6.523   3.358   1.463
 2936SOL     OW 9706   4.792   5.317   2.135
 2936SOL    HW1 9707   4.839   5.402   2.160
 2936SOL    HW2 9708   4.822   5.243   2.196
 2937SOL     OW 9709   3.880   4.988   0.562
 2937SOL    HW1 9710   3.848   4.979   0.468
 2937SOL    HW2 9711   3.955   5.054   0.566
 2938SOL     OW 9712   5.272   4.670   5.646
 2938SOL    HW1 9713   5.229   4.740   5.589
 2938SOL    HW2 9714   5.329   4.714   5.715
 2939SOL     OW 9715   0.544   0.228   4.676
 2939SOL    HW1 9716   0.637   0.214   4.642
 2939SOL    HW2 9717   0.479   0.223   4.600
 2940SOL     OW 9718   5.715   6.998   6.370
 2940SOL    HW1 9719   5.782   0.009   6.436
 2940SOL    HW2 9720   5.756   6.997   6.278
 2941SOL     OW 9721   2.102   1.952   4.674
 2941SOL    HW1 9722   2.156   2.035   4.664
 2941SOL    HW2 9723   2.163   1.872   4.670
 2942SOL     OW 9724   2.392   1.367   1.479
 2942SOL    HW1 9725   2.368   1.404   1.568
 2942SOL    HW2 9726   2.445   1.283   1.491
 2943SOL     OW 9727   5.998   3.648   2.636
 2943SOL    HW1 9728   6.001   3.552   2.664
 2943SOL    HW2 9729   5.939   3.658   2.556
 2944SOL     OW 9730   2.343   5.815   5.105
 2944SOL    HW1 9731   2.380   5.836   5.196
 2944SOL    HW2 9732   2.249   5.848   5.099
 2945SOL     OW 9733   3.871   3.888   3.873
 2945SOL    HW1 9734   3.929   3.901   3.953
 2945SOL    HW2 9735   3.906   3.812   3.819
 2946SOL     OW 9736   0.487   5.417   6.930
 2946SOL    HW1 9737   0.422   5.490   6.953
 2946SOL    HW2 9738   0.562   5.455   6.877
 2947SOL     OW 9739   0.710   4.484   6.939
 2947SOL    HW1 9740   0.747   4.418   6.874
 2947SOL    HW2 9741   0.618   4.455   6.967
 2948SOL     OW 9742   0.251   4.621   5.361
 2948SOL    HW1 9743   0.326   4.657   5.305
 2948SOL    HW2 9744   0.200   4.696   5.401
 2949SOL     OW 9745   1.897   6.470   1.316
 2949SOL    HW1 9746   1.878   6.568   1.326
 2949SOL    HW2 9747   1.925   6.451   1.223
 2950SOL     OW 9748   4.905   3.775   4.485
 2950SOL    HW1 9749   4.924   3.873   4.492
 2950SOL    HW2 9750   4.874   3.740   4.574
 2951SOL     OW 9751   6.841   2.516   1.052
 2951SOL    HW1 9752   6.840   2.459   0.970
 2951SOL    HW2 9753   6.873   2.463   1.130
 2952SOL     OW 9754   0.846   5.955   4.778
 2952SOL    HW1 9755   0.746   5.955   4.778
 2952SOL    HW2 9756   0.880   6.034   4.727
 2953SOL     OW 9757   4.799   2.989   3.037
 2953SOL    HW1 9758   4.810   2.962   3.133
 2953SOL    HW2 9759   4.806   3.088   3.029
 2954SOL     OW 9760   0.835   5.622   2.066
 2954SOL    HW1 9761   0.914   5.562   2.081
 2954SOL    HW2 9762   0.751   5.572   2.089
 2955SOL     OW 9763   1.312   3.904   0.774
 2955SOL    HW1 9764   1.220   3.870   0.755
 2955SOL    HW2 9765   1.306   3.990   0.826
 2956SOL     OW 9766   6.293   6.141   3.292
 2956SOL    HW1 9767   6.317   6.059   3.240
 2956SOL    HW2 9768   6.340   6.139   3.381
 2957SOL     OW 9769   6.831   3.481   1.464
 2957SOL    HW1 9770   6.734   3.479   1.492
 2957SOL    HW2 9771   6.884   3.422   1.525
 2958SOL     OW 9772   2.698   4.663   4.732
 2958SOL    HW1 9773   2.605   4.633   4.756
 2958SOL    HW2 9774   2.753   4.668   4.815
 2959SOL     OW 9775   4.465   4.072   0.457
 2959SOL    HW1 9776   4.392   4.046   0.394
 2959SOL    HW2 9777   4.532   4.129   0.409
 2960SOL     OW 9778   3.279   0.295   6.782
 2960SOL    HW1 9779   3.224   0.319   6.863
 2960SOL    HW2 9780   3.355   0.360   6.774
 2961SOL     OW 9781   5.392   2.809   5.054
 2961SOL    HW1 9782   5.296   2.836   5.047
 2961SOL    HW2 9783   5.417   2.753   4.975
 2962SOL     OW 9784   4.423   1.263   3.945
 2962SOL    HW1 9785   4.401   1.168   3.966
 2962SOL    HW2 9786   4.378   1.324   4.011
 2963SOL     OW 9787   1.965   1.107   5.831
 2963SOL    HW1 9788   1.991   1.195   5.871
 2963SOL    HW2 9789   2.047   1.055   5.808
 2964SOL     OW 9790   0.404   0.098   2.077
 2964SOL    HW1 9791   0.463   0.023   2.108
 2964SOL    HW2 9792   0.440   0.185   2.110
 2965SOL     OW 9793   6.829   0.996   4.529
 2965SOL    HW1 9794   6.832   1.095   4.521
 2965SOL    HW2 9795   6.861   0.968   4.619
 2966SOL     OW 9796   5.859   4.997   4.353
 2966SOL    HW1 9797   5.780   4.936   4.362
 2966SOL    HW2 9798   5.854   5.045   4.265
 2967SOL     OW 9799   6.037   2.153   4.471
 2967SOL    HW1 9800   6.104   2.098   4.521
 2967SOL    HW2 9801   5.947   2.109   4.477
 2968SOL     OW 9802   1.208   4.026   5.964
 2968SOL    HW1 9803   1.308   4.030   5.956
 2968SOL    HW2 9804   1.180   4.067   6.050
 2969SOL     OW 9805   5.841   1.114   4.470
 2969SOL    HW1 9806   5.895   1.131   4.387
 2969SOL    HW2 9807   5.844   1.016   4.492
 2970SOL     OW 9808   1.128   3.822   6.455
 2970SOL    HW1 9809   1.160   3.739   6.410
 2970SOL    HW2 9810   1.189   3.846   6.530
 2971SOL     OW 9811   5.246   2.950   5.890
 2971SOL    HW1 9812   5.233   2.905   5.802
 2971SOL    HW2 9813   5.238   2.882   5.963
 2972SOL     OW 9814   6.391   5.214   6.241
 2972SOL    HW1 9815   6.439   5.294   6.204
 2972SOL    HW2 9816   6.454   5.136   6.241
 2973SOL     OW 9817   5.423   1.120   4.445
 2973SOL    HW1 9818   5.328   1.098   4.467
 2973SOL    HW2 9819   5.484   1.064   4.500
 2974SOL     OW 9820   0.567   3.685   2.724
 2974SOL    HW1 9821   0.494   3.620   2.704
 2974SOL    HW2 9822   0.656   3.641   2.710
 2975SOL     OW 9823   0.727   2.632   5.000
 2975SOL    HW1 9824   0.726   2.543   5.046
 2975SOL    HW2 9825   0.641   2.645   4.952
 2976SOL     OW 9826   4.174   1.385   2.980
 2976SOL    HW1 9827   4.214   1.475   2.961
 2976SOL    HW2 9828   4.120   1.355   2.902
 2977SOL     OW 9829   1.655   6.877   4.502
 2977SOL    HW1 9830   1.736   6.878   4.562
 2977SOL    HW2 9831   1.632   6.782   4.479
 2978SOL     OW 9832   3.980   5.378   6.590
 2978SOL    HW1 9833   3.904   5.439   6.614
 2978SOL    HW2 9834   3.947   5.284   6.584
 2979SOL     OW 9835   5.080   6.654   4.323
 2979SOL    HW1 9836   5.174   6.688   4.326
 2979SOL    HW2 9837   5.029   6.705   4.253
 2980SOL     OW 9838   1.366   6.134   3.729
 2980SOL    HW1 9839   1.295   6.166   3.793
 2980SOL    HW2 9840   1.332   6.053   3.681
 2981SOL     OW 9841   0.806   0.905   5.777
 2981SOL    HW1 9842   0.891   0.903   5.724
 2981SOL    HW2 9843   0.730   0.873   5.720
 2982SOL     OW 9844   4.945   6.187   3.292
 2982SOL    HW1 9845   4.933   6.236   3.206
 2982SOL    HW2 9846   4.881   6.223   3.360
 2983SOL     OW 9847   1.037   1.783   4.196
 2983SOL    HW1 9848   0.967   1.855   4.197
 2983SOL    HW2 9849   1.019   1.720   4.120
 2984SOL     OW 9850   4.857   5.763   1.829
 2984SOL    HW1 9851   4.837   5.666   1.819
 2984SOL    HW2 9852   4.900   5.779   1.918
 2985SOL     OW 9853   0.925   2.771   4.898
 2985SOL    HW1 9854   0.847   2.719   4.932
 2985SOL    HW2 9855   0.895   2.836   4.828
 2986SOL     OW 9856   2.220   3.655   6.458
 2986SOL    HW1 9857   2.258   3.567   6.485
 2986SOL    HW2 9858   2.264   3.728   6.511
 2987SOL     OW 9859   4.975   0.651   3.928
 2987SOL    HW1 9860   5.039   0.589   3.882
 2987SOL    HW2 9861   5.003   0.746   3.913
 2988SOL     OW 9862   0.844   6.873   2.993
 2988SOL    HW1 9863   0.829   6.811   2.916
 2988SOL    HW2 9864   0.913   6.834   3.054
 2989SOL     OW 9865   6.438   6.230   0.480
 2989SOL    HW1 9866   6.517   6.195   0.430
 2989SOL    HW2 9867   6.398   6.158   0.536
 2990SOL     OW 9868   4.513   1.275   3.562
 2990SOL    HW1 9869   4.511   1.175   3.572
 2990SOL    HW2 9870   4.479   1.301   3.472
 2991SOL     OW 9871   6.769   4.217   6.957
 2991SOL    HW1 9872   6.807   4.274   0.009
 2991SOL    HW2 9873   6.760   4.123   6.989
 2992SOL     OW 9874   2.314   5.186   6.050
 2992SOL    HW1 9875   2.337   5.161   6.144
 2992SOL    HW2 9876   2.356   5.273   6.027
 2993SOL     OW 9877   0.852   5.263   1.997
 2993SOL    HW1 9878   0.902   5.299   1.918
 2993SOL    HW2 9879   0.764   5.227   1.966
 2994SOL     OW 9880   3.913   0.211   0.784
 2994SOL    HW1 9881   3.937   0.229   0.879
 2994SOL    HW2 9882   3.981   0.255   0.724
 2995SOL     OW 9883   1.532   3.624   6.769
 2995SOL    HW1 9884   1.436   3.636   6.795
 2995SOL    HW2 9885   1.539   3.607   6.671
 2996SOL     OW 9886   2.445   6.027   3.575
 2996SOL    HW1 9887   2.436   6.049   3.672
 2996SOL    HW2 9888   2.391   5.946   3.553
 2997SOL     OW 9889   5.014   0.143   1.879
 2997SOL    HW1 9890   4.993   0.169   1.785
 2997SOL    HW2 9891   4.969   0.206   1.943
 2998SOL     OW 9892   5.692   6.502   4.968
 2998SOL    HW1 9893   5.652   6.594   4.971
 2998SOL    HW2 9894   5.691   6.463   5.061
 2999SOL     OW 9895   3.172   5.248   3.826
 2999SOL    HW1 9896   3.125   5.328   3.788
 2999SOL    HW2 9897   3.184   5.180   3.754
 3000SOL     OW 9898   1.816   3.780   7.004
 3000SOL    HW1 9899   1.867   3.832   0.051
 3000SOL    HW2 9900   1.718   3.802   7.011
 3001SOL     OW 9901   5.590   6.752   6.696
 3001SOL    HW1 9902   5.671   6.750   6.637
 3001SOL    HW2 9903   5.596   6.678   6.763
 3002SOL     OW 9904   4.652   0.331   6.087
 3002SOL    HW1 9905   4.606   0.255   6.042
 3002SOL    HW2 9906   4.705   0.383   6.020
 3003SOL     OW 9907   2.678   0.064   6.559
 3003SOL    HW1 9908   2.723   7.003   6.525
 3003SOL    HW2 9909   2.584   0.042   6.586
 3004SOL     OW 9910   0.739   5.307   3.775
 3004SOL    HW1 9911   0.647   5.270   3.787
 3004SOL    HW2 9912   0.796   5.281   3.854
 3005SOL     OW 9913   3.103   2.610   6.924
 3005SOL    HW1 9914   3.127   2.586   6.829
 3005SOL    HW2 9915   3.173   2.575   6.985
 3006SOL     OW 9916   5.941   2.107   6.675
 3006SOL    HW1 9917   5.917   2.036   6.741
 3006SOL    HW2 9918   6.001   2.069   6.605
 3007SOL     OW 9919   6.294   5.015   2.054
 3007SOL    HW1 9920   6.338   5.045   2.139
 3007SOL    HW2 9921   6.309   4.917   2.042
 3008SOL     OW 9922   3.113   0.597   6.444
 3008SOL    HW1 9923   3.036   0.566   6.499
 3008SOL    HW2 9924   3.100   0.568   6.349
 3009SOL     OW 9925   0.172   6.193   2.772
 3009SOL    HW1 9926   0.131   6.219   2.859
 3009SOL    HW2 9927   0.113   6.222   2.696
 3010SOL     OW 9928   3.407   6.328   3.341
 3010SOL    HW1 9929   3.315   6.292   3.359
 3010SOL    HW2 9930   3.400   6.422   3.308
 3011SOL     OW 9931   5.612   1.469   0.437
 3011SOL    HW1 9932   5.572   1.560   0.434
 3011SOL    HW2 9933   5.594   1.427   0.527
 3012SOL     OW 9934   1.234   3.464   5.313
 3012SOL    HW1 9935   1.160   3.411   5.353
 3012SOL    HW2 9936   1.231   3.558   5.348
 3013SOL     OW 9937   5.618   5.406   4.558
 3013SOL    HW1 9938   5.680   5.483   4.574
 3013SOL    HW2 9939   5.662   5.340   4.497
 3014SOL     OW 9940   4.965   3.129   4.235
 3014SOL    HW1 9941   4.898   3.203   4.223
 3014SOL    HW2 9942   5.031   3.154   4.305
 3015SOL     OW 9943   2.998   2.564   0.212
 3015SOL    HW1 9944   2.933   2.602   0.147
 3015SOL    HW2 9945   3.018   2.469   0.188
 3016SOL     OW 9946   2.950   5.888   3.586
 3016SOL    HW1 9947   2.994   5.930   3.666
 3016SOL    HW2 9948   2.851   5.900   3.593
 3017SOL     OW 9949   0.620   5.175   1.930
 3017SOL    HW1 9950   0.597   5.148   2.023
 3017SOL    HW2 9951   0.568   5.119   1.865
 3018SOL     OW 9952   2.931   0.094   4.911
 3018SOL    HW1 9953   2.877   0.057   4.835
 3018SOL    HW2 9954   2.873   0.104   4.991
 3019SOL     OW 9955   1.990   0.013   0.873
 3019SOL    HW1 9956   1.977   0.110   0.849
 3019SOL    HW2 9957   1.981   6.979   0.790
 3020SOL     OW 9958   3.723   4.260   1.691
 3020SOL    HW1 9959   3.800   4.197   1.681
 3020SOL    HW2 9960   3.754   4.353   1.673
 3021SOL     OW 9961   3.211   1.161   6.700
 3021SOL    HW1 9962   3.150   1.231   6.662
 3021SOL    HW2 9963   3.283   1.142   6.634
 3022SOL     OW 9964   3.900   5.742   3.532
 3022SOL    HW1 9965   3.940   5.745   3.624
 3022SOL    HW2 9966   3.801   5.759   3.538
 3023SOL     OW 9967   4.573   6.672   2.474
 3023SOL    HW1 9968   4.504   6.684   2.545
 3023SOL    HW2 9969   4.536   6.614   2.401
 3024SOL     OW 9970   4.360   6.981   5.983
 3024SOL    HW1 9971   4.308   0.038   6.014
 3024SOL    HW2 9972   4.319   6.944   5.899
 3025SOL     OW 9973   3.617   1.946   0.224
 3025SOL    HW1 9974   3.593   1.987   0.312
 3025SOL    HW2 9975   3.574   1.856   0.216
 3026SOL     OW 9976   2.164   2.208   0.209
 3026SOL    HW1 9977   2.256   2.175   0.188
 3026SOL    HW2 9978   2.098   2.134   0.197
 3027SOL     OW 9979   4.361   0.797   2.125
 3027SOL    HW1 9980   4.403   0.877   2.168
 3027SOL    HW2 9981   4.416   0.716   2.145
 3028SOL     OW 9982   1.852   3.635   5.784
 3028SOL    HW1 9983   1.816   3.543   5.802
 3028SOL    HW2 9984   1.803   3.702   5.840
 3029SOL     OW 9985   0.232   5.110   5.177
 3029SOL    HW1 9986   0.281   5.043   5.234
 3029SOL    HW2 9987   0.183   5.174   5.236
 3030SOL     OW 9988   0.783   2.380   6.211
 3030SOL    HW1 9989   0.868   2.354   6.166
 3030SOL    HW2 9990   0.706   2.335   6.167
 3031SOL     OW 9991   0.087   3.482   0.666
 3031SOL    HW1 9992   7.021   3.451   0.631
 3031SOL    HW2 9993   0.160   3.457   0.602
 3032SOL     OW 9994   4.396   6.736   1.189
 3032SOL    HW1 9995   4.407   6.820   1.135
 3032SOL    HW2 9996   4.455   6.664   1.151
 3033SOL     OW 9997   0.865   2.781   1.355
 3033SOL    HW1 9998   0.954   2.781   1.401
 3033SOL    HW2 9999   0.854   2.696   1.303
 3034SOL     OW10000   1.782   5.235   3.250
 3034SOL    HW110001   1.735   5.290   3.180
 3034SOL    HW210002   1.813   5.295   3.323
 3035SOL     OW10003   6.441   2.994   0.415
 3035SOL    HW110004   6.500   2.951   0.484
 3035SOL    HW210005   6.395   3.073   0.455
 3036SOL     OW10006   1.448   3.082   6.445
 3036SOL    HW110007   1.506   3.013   6.488
 3036SOL    HW210008   1.503   3.163   6.423
 3037SOL     OW10009   6.736   5.475   4.065
 3037SOL    HW110010   6.774   5.565   4.089
 3037SOL    HW210011   6.796   5.431   3.998
 3038SOL     OW10012   5.840   6.672   6.569
 3038SOL    HW110013   5.828   6.614   6.489
 3038SOL    HW210014   5.886   6.757   6.544
 3039SOL     OW10015   6.694   3.708   2.230
 3039SOL    HW110016   6.728   3.616   2.209
 3039SOL    HW210017   6.598   3.715   2.205
 3040SOL     OW10018   4.893   3.481   6.176
 3040SOL    HW110019   4.804   3.487   6.221
 3040SOL    HW210020   4.965   3.475   6.245
 3041SOL     OW10021   2.152   2.749   5.293
 3041SOL    HW110022   2.237   2.802   5.296
 3041SOL    HW210023   2.117   2.747   5.200
 3042SOL     OW10024   5.646   6.823   1.725
 3042SOL    HW110025   5.745   6.805   1.722
 3042SOL    HW210026   5.596   6.737   1.718
 3043SOL     OW10027   0.856   5.281   1.187
 3043SOL    HW110028   0.883   5.238   1.273
 3043SOL    HW210029   0.758   5.265   1.172
 3044SOL     OW10030   2.992   4.788   6.275
 3044SOL    HW110031   2.918   4.729   6.306
 3044SOL    HW210032   2.954   4.872   6.235
 3045SOL     OW10033   4.824   0.699   3.164
 3045SOL    HW110034   4.803   0.766   3.235
 3045SOL    HW210035   4.772   0.615   3.182
 3046SOL     OW10036   2.742   1.928   6.584
 3046SOL    HW110037   2.655   1.880   6.572
 3046SOL    HW210038   2.759   1.986   6.505
 3047SOL     OW10039   5.349   6.804   2.339
 3047SOL    HW110040   5.250   6.790   2.347
 3047SOL    HW210041   5.386   6.829   2.429
 3048SOL     OW10042   3.882   2.949   2.073
 3048SOL    HW110043   3.858   2.918   2.165
 3048SOL    HW210044   3.816   3.017   2.042
 3049SOL     OW10045   1.274   6.283   1.750
 3049SOL    HW110046   1.211   6.329   1.688
 3049SOL    HW210047   1.348   6.242   1.697
 3050SOL     OW10048   3.471   1.094   3.114
 3050SOL    HW110049   3.480   1.188   3.081
 3050SOL    HW210050   3.431   1.095   3.205
 3051SOL     OW10051   2.251   3.951   0.274
 3051SOL    HW110052   2.334   4.005   0.291
 3051SOL    HW210053   2.241   3.935   0.175
 3052SOL     OW10054   4.095   0.652   2.599
 3052SOL    HW110055   4.091   0.751   2.588
 3052SOL    HW210056   4.003   0.614   2.590
 3053SOL     OW10057   6.915   0.886   6.725
 3053SOL    HW110058   6.896   0.827   6.804
 3053SOL    HW210059   6.847   0.870   6.654
 3054SOL     OW10060   0.501   2.683   1.163
 3054SOL    HW110061   0.433   2.613   1.183
 3054SOL    HW210062   0.468   2.741   1.088
 3055SOL     OW10063   4.744   6.962   4.025
 3055SOL    HW110064   4.721   0.006   3.954
 3055SOL    HW210065   4.843   6.948   4.026
 3056SOL     OW10066   6.690   1.198   6.150
 3056SOL    HW110067   6.676   1.180   6.248
 3056SOL    HW210068   6.768   1.259   6.139
 3057SOL     OW10069   4.074   5.888   3.400
 3057SOL    HW110070   3.990   5.858   3.444
 3057SOL    HW210071   4.089   5.837   3.316
 3058SOL     OW10072   0.071   5.618   1.029
 3058SOL    HW110073   0.106   5.565   1.107
 3058SOL    HW210074   0.107   5.711   1.034
 3059SOL     OW10075   2.319   2.160   4.682
 3059SOL    HW110076   2.287   2.183   4.774
 3059SOL    HW210077   2.395   2.096   4.688
 3060SOL     OW10078   0.586   6.386   0.682
 3060SOL    HW110079   0.586   6.383   0.582
 3060SOL    HW210080   0.517   6.323   0.718
 3061SOL     OW10081   6.132   1.103   5.197
 3061SOL    HW110082   6.176   1.049   5.125
 3061SOL    HW210083   6.203   1.149   5.252
 3062SOL     OW10084   1.307   6.607   6.984
 3062SOL    HW110085   1.378   6.590   6.915
 3062SOL    HW210086   1.250   6.525   6.993
 3063SOL     OW10087   2.824   5.530   1.360
 3063SOL    HW110088   2.867   5.584   1.432
 3063SOL    HW210089   2.741   5.575   1.329
 3064SOL     OW10090   5.163   3.382   3.952
 3064SOL    HW110091   5.237   3.379   3.884
 3064SOL    HW210092   5.191   3.332   4.033
 3065SOL     OW10093   2.169   1.124   6.760
 3065SOL    HW110094   2.189   1.102   6.855
 3065SOL    HW210095   2.254   1.132   6.709
 3066SOL     OW10096   4.884   4.944   0.675
 3066SOL    HW110097   4.796   4.964   0.718
 3066SOL    HW210098   4.956   4.995   0.721
 3067SOL     OW10099   4.032   2.202   4.449
 3067SOL    HW110100   3.953   2.167   4.499
 3067SOL    HW210101   4.109   2.212   4.511
 3068SOL     OW10102   5.443   5.779   0.944
 3068SOL    HW110103   5.445   5.763   1.043
 3068SOL    HW210104   5.443   5.877   0.925
 3069SOL     OW10105   6.782   6.241   1.947
 3069SOL    HW110106   6.821   6.155   1.913
 3069SOL    HW210107   6.816   6.317   1.892
 3070SOL     OW10108   1.673   0.863   2.380
 3070SOL    HW110109   1.661   0.951   2.334
 3070SOL    HW210110   1.690   0.879   2.478
 3071SOL     OW10111   5.853   6.080   3.435
 3071SOL    HW110112   5.868   6.111   3.341
 3071SOL    HW210113   5.912   6.130   3.498
 3072SOL     OW10114   0.726   6.366   0.982
 3072SOL    HW110115   0.747   6.331   0.892
 3072SOL    HW210116   0.638   6.415   0.980
 3073SOL     OW10117   1.072   3.231   5.358
 3073SOL    HW110118   0.976   3.218   5.334
 3073SOL    HW210119   1.086   3.209   5.454
 3074SOL     OW10120   5.910   2.522   1.244
 3074SOL    HW110121   5.995   2.471   1.259
 3074SOL    HW210122   5.910   2.604   1.302
 3075SOL     OW10123   1.894   6.755   1.325
 3075SOL    HW110124   1.930   6.797   1.242
 3075SOL    HW210125   1.947   6.788   1.404
 3076SOL     OW10126   6.714   1.584   4.654
 3076SOL    HW110127   6.702   1.615   4.560
 3076SOL    HW210128   6.802   1.616   4.689
 3077SOL     OW10129   5.111   5.605   2.400
 3077SOL    HW110130   5.129   5.692   2.446
 3077SOL    HW210131   5.180   5.538   2.428
 3078SOL     OW10132   1.351   3.318   1.134
 3078SOL    HW110133   1.253   3.327   1.149
 3078SOL    HW210134   1.377   3.222   1.137
 3079SOL     OW10135   2.586   2.015   4.096
 3079SOL    HW110136   2.660   1.984   4.156
 3079SOL    HW210137   2.499   2.006   4.144
 3080SOL     OW10138   5.316   4.527   2.776
 3080SOL    HW110139   5.222   4.535   2.807
 3080SOL    HW210140   5.376   4.515   2.855
 3081SOL     OW10141   0.227   3.467   6.199
 3081SOL    HW110142   0.176   3.540   6.245
 3081SOL    HW210143   0.229   3.486   6.100
 3082SOL     OW10144   3.466   6.653   3.425
 3082SOL    HW110145   3.490   6.732   3.482
 3082SOL    HW210146   3.371   6.628   3.442
 3083SOL     OW10147   4.031   6.367   3.634
 3083SOL    HW110148   4.001   6.313   3.712
 3083SOL    HW210149   4.036   6.309   3.553
 3084SOL     OW10150   4.782   4.142   4.725
 3084SOL    HW110151   4.693   4.184   4.744
 3084SOL    HW210152   4.781   4.103   4.633
 3085SOL     OW10153   0.747   4.716   2.044
 3085SOL    HW110154   0.791   4.710   2.133
 3085SOL    HW210155   0.783   4.795   1.994
 3086SOL     OW10156   4.179   1.713   2.221
 3086SOL    HW110157   4.135   1.679   2.304
 3086SOL    HW210158   4.116   1.705   2.144
 3087SOL     OW10159   1.003   5.007   4.122
 3087SOL    HW110160   1.019   4.928   4.182
 3087SOL    HW210161   0.980   4.975   4.030
 3088SOL     OW10162   2.131   5.198   5.848
 3088SOL    HW110163   2.045   5.149   5.865
 3088SOL    HW210164   2.197   5.175   5.919
 3089SOL     OW10165   0.583   3.280   0.478
 3089SOL    HW110166   0.593   3.322   0.569
 3089SOL    HW210167   0.493   3.236   0.473
 3090SOL     OW10168   1.825   2.276   1.934
 3090SOL    HW110169   1.874   2.337   1.995
 3090SOL    HW210170   1.751   2.231   1.983
 3091SOL     OW10171   2.139   6.504   0.148
 3091SOL    HW110172   2.232   6.475   0.172
 3091SOL    HW210173   2.142   6.597   0.111
 3092SOL     OW10174   4.852   6.943   0.151
 3092SOL    HW110175   4.854   6.922   0.053
 3092SOL    HW210176   4.892   0.012   0.166
 3093SOL     OW10177   5.250   5.393   5.971
 3093SOL    HW110178   5.314   5.367   6.044
 3093SOL    HW210179   5.298   5.390   5.883
 3094SOL     OW10180   3.153   6.486   4.103
 3094SOL    HW110181   3.160   6.387   4.099
 3094SOL    HW210182   3.057   6.514   4.092
 3095SOL     OW10183   2.767   5.392   4.379
 3095SOL    HW110184   2.772   5.380   4.479
 3095SOL    HW210185   2.742   5.306   4.336
 3096SOL     OW10186   0.722   0.584   4.720
 3096SOL    HW110187   0.769   0.515   4.666
 3096SOL    HW210188   0.786   0.626   4.784
 3097SOL     OW10189   0.607   2.387   1.076
 3097SOL    HW110190   0.676   2.393   1.003
 3097SOL    HW210191   0.538   2.457   1.062
 3098SOL     OW10192   2.558   3.836   0.942
 3098SOL    HW110193   2.655   3.855   0.926
 3098SOL    HW210194   2.517   3.913   0.992
 3099SOL     OW10195   0.043   5.618   4.676
 3099SOL    HW110196   0.084   5.533   4.643
 3099SOL    HW210197   0.043   5.619   4.776
 3100SOL     OW10198   6.496   0.215   4.723
 3100SOL    HW110199   6.409   0.221   4.675
 3100SOL    HW210200   6.484   0.166   4.810
 3101SOL     OW10201   5.232   6.059   5.748
 3101SOL    HW110202   5.224   6.149   5.705
 3101SOL    HW210203   5.268   5.994   5.681
 3102SOL     OW10204   0.464   4.900   3.224
 3102SOL    HW110205   0.528   4.975   3.208
 3102SOL    HW210206   0.420   4.874   3.138
 3103SOL     OW10207   3.436   1.359   1.661
 3103SOL    HW110208   3.468   1.342   1.754
 3103SOL    HW210209   3.477   1.443   1.626
 3104SOL     OW10210   5.893   6.914   4.951
 3104SOL    HW110211   5.979   6.890   4.905
 3104SOL    HW210212   5.910   6.989   5.015
 3105SOL     OW10213   6.692   4.347   2.189
 3105SOL    HW110214   6.639   4.358   2.105
 3105SOL    HW210215   6.633   4.312   2.262
 3106SOL     OW10216   6.446   0.880   3.202
 3106SOL    HW110217   6.442   0.832   3.290
 3106SOL    HW210218   6.360   0.929   3.187
 3107SOL     OW10219   4.039   0.736   3.759
 3107SOL    HW110220   4.051   0.656   3.701
 3107SOL    HW210221   3.943   0.763   3.760
 3108SOL     OW10222   1.614   0.259   4.423
 3108SOL    HW110223   1.646   0.166   4.408
 3108SOL    HW210224   1.666   0.322   4.365
 3109SOL     OW10225   5.364   5.855   2.586
 3109SOL    HW110226   5.413   5.921   2.644
 3109SOL    HW210227   5.381   5.763   2.619
 3110SOL     OW10228   0.951   1.850   3.482
 3110SOL    HW110229   0.968   1.780   3.414
 3110SOL    HW210230   0.980   1.818   3.572
 3111SOL     OW10231   6.551   5.495   3.745
 3111SOL    HW110232   6.531   5.496   3.843
 3111SOL    HW210233   6.630   5.554   3.727
 3112SOL     OW10234   4.945   2.615   6.408
 3112SOL    HW110235   5.001   2.655   6.481
 3112SOL    HW210236   4.886   2.685   6.369
 3113SOL     OW10237   2.139   6.653   4.812
 3113SOL    HW110238   2.194   6.645   4.729
 3113SOL    HW210239   2.078   6.732   4.804
 3114SOL     OW10240   4.440   3.135   6.852
 3114SOL    HW110241   4.449   3.061   6.786
 3114SOL    HW210242   4.397   3.100   6.935
 3115SOL     OW10243   4.518   3.394   6.891
 3115SOL    HW110244   4.498   3.421   6.985
 3115SOL    HW210245   4.476   3.306   6.871
 3116SOL     OW10246   6.743   3.932   0.009
 3116SOL    HW110247   6.728   3.921   6.933
 3116SOL    HW210248   6.659   3.909   0.058
 3117SOL     OW10249   4.570   3.640   5.418
 3117SOL    HW110250   4.545   3.559   5.471
 3117SOL    HW210251   4.592   3.614   5.324
 3118SOL     OW10252   0.179   4.708   0.051
 3118SOL    HW110253   0.085   4.742   0.040
 3118SOL    HW210254   0.239   4.755   7.008
 3119SOL     OW10255   1.582   3.572   5.622
 3119SOL    HW110256   1.570   3.523   5.536
 3119SOL    HW210257   1.602   3.669   5.603
 3120SOL     OW10258   2.298   6.711   4.055
 3120SOL    HW110259   2.310   6.763   4.139
 3120SOL    HW210260   2.205   6.674   4.051
 3121SOL     OW10261   0.676   1.737   2.528
 3121SOL    HW110262   0.664   1.649   2.575
 3121SOL    HW210263   0.732   1.724   2.446
 3122SOL     OW10264   2.685   6.036   6.212
 3122SOL    HW110265   2.758   5.968   6.204
 3122SOL    HW210266   2.726   6.126   6.228
 3123SOL     OW10267   3.395   0.297   4.118
 3123SOL    HW110268   3.428   0.218   4.170
 3123SOL    HW210269   3.383   0.375   4.180
 3124SOL     OW10270   4.337   7.005   4.458
 3124SOL    HW110271   4.290   6.942   4.398
 3124SOL    HW210272   4.341   0.074   4.416
 3125SOL     OW10273   6.174   1.977   5.598
 3125SOL    HW110274   6.184   1.944   5.504
 3125SOL    HW210275   6.079   1.965   5.628
 3126SOL     OW10276   5.064   4.797   6.436
 3126SOL    HW110277   5.125   4.874   6.454
 3126SOL    HW210278   4.987   4.828   6.381
 3127SOL     OW10279   1.350   2.459   3.029
 3127SOL    HW110280   1.342   2.553   3.063
 3127SOL    HW210281   1.411   2.458   2.949
 3128SOL     OW10282   2.395   0.090   6.633
 3128SOL    HW110283   2.403   0.181   6.673
 3128SOL    HW210284   2.350   0.097   6.544
 3129SOL     OW10285   1.578   4.246   6.378
 3129SOL    HW110286   1.583   4.157   6.332
 3129SOL    HW210287   1.576   4.232   6.477
 3130SOL     OW10288   1.939   4.456   1.562
 3130SOL    HW110289   1.978   4.502   1.482
 3130SOL    HW210290   2.003   4.386   1.594
 3131SOL     OW10291   0.537   2.560   1.457
 3131SOL    HW110292   0.456   2.601   1.500
 3131SOL    HW210293   0.570   2.619   1.384
 3132SOL     OW10294   5.042   5.191   5.907
 3132SOL    HW110295   5.031   5.180   5.808
 3132SOL    HW210296   5.122   5.248   5.926
 3133SOL     OW10297   3.216   2.200   3.679
 3133SOL    HW110298   3.316   2.192   3.690
 3133SOL    HW210299   3.193   2.195   3.582
 3134SOL     OW10300   4.987   4.510   1.316
 3134SOL    HW110301   4.913   4.541   1.375
 3134SOL    HW210302   5.075   4.524   1.362
 3135SOL     OW10303   4.595   1.559   5.341
 3135SOL    HW110304   4.495   1.548   5.346
 3135SOL    HW210305   4.638   1.504   5.412
 3136SOL     OW10306   5.778   0.510   6.697
 3136SOL    HW110307   5.826   0.582   6.645
 3136SOL    HW210308   5.720   0.458   6.635
 3137SOL     OW10309   5.965   6.939   3.684
 3137SOL    HW110310   5.893   6.891   3.735
 3137SOL    HW210311   5.926   7.020   3.640
 3138SOL     OW10312   6.611   2.096   3.858
 3138SOL    HW110313   6.583   2.171   3.798
 3138SOL    HW210314   6.618   2.012   3.804
 3139SOL     OW10315   4.394   6.977   6.960
 3139SOL    HW110316   4.467   0.004   6.910
 3139SOL    HW210317   4.305   7.004   6.924
 3140SOL     OW10318   6.340   6.945   6.438
 3140SOL    HW110319   6.400   6.957   6.517
 3140SOL    HW210320   6.269   7.016   6.439
 3141SOL     OW10321   1.081   6.529   6.302
 3141SOL    HW110322   1.129   6.466   6.363
 3141SOL    HW210323   1.040   6.603   6.356
 3142SOL     OW10324   4.917   6.025   1.479
 3142SOL    HW110325   4.923   5.980   1.568
 3142SOL    HW210326   4.966   6.112   1.481
 3143SOL     OW10327   0.520   2.738   6.756
 3143SOL    HW110328   0.593   2.794   6.715
 3143SOL    HW210329   0.457   2.798   6.805
 3144SOL     OW10330   2.834   3.973   1.226
 3144SOL    HW110331   2.926   3.988   1.263
 3144SOL    HW210332   2.767   4.023   1.281
 3145SOL     OW10333   1.978   4.753   2.756
 3145SOL    HW110334   2.025   4.664   2.758
 3145SOL    HW210335   1.879   4.739   2.760
 3146SOL     OW10336   1.311   6.805   3.291
 3146SOL    HW110337   1.355   6.886   3.330
 3146SOL    HW210338   1.320   6.729   3.355
 3147SOL     OW10339   4.296   5.226   6.901
 3147SOL    HW110340   4.300   5.262   6.808
 3147SOL    HW210341   4.389   5.202   6.932
 3148SOL     OW10342   5.041   5.442   4.788
 3148SOL    HW110343   4.945   5.456   4.813
 3148SOL    HW210344   5.047   5.366   4.723
 3149SOL     OW10345   3.368   0.221   5.398
 3149SOL    HW110346   3.419   0.209   5.313
 3149SOL    HW210347   3.311   0.303   5.391
 3150SOL     OW10348   6.067   5.423   4.281
 3150SOL    HW110349   6.025   5.381   4.361
 3150SOL    HW210350   5.999   5.479   4.233
 3151SOL     OW10351   4.034   0.721   0.006
 3151SOL    HW110352   4.008   0.805   6.981
 3151SOL    HW210353   3.968   0.700   0.077
 3152SOL     OW10354   1.196   5.116   1.787
 3152SOL    HW110355   1.247   5.042   1.743
 3152SOL    HW210356   1.145   5.167   1.718
 3153SOL     OW10357   6.694   4.026   1.705
 3153SOL    HW110358   6.633   3.949   1.685
 3153SOL    HW210359   6.777   3.992   1.749
 3154SOL     OW10360   6.060   1.996   0.403
 3154SOL    HW110361   6.047   1.986   0.502
 3154SOL    HW210362   5.979   2.036   0.362
 3155SOL     OW10363   6.945   5.587   1.467
 3155SOL    HW110364   6.918   5.667   1.413
 3155SOL    HW210365   6.864   5.549   1.513
 3156SOL     OW10366   3.981   3.183   3.877
 3156SOL    HW110367   3.984   3.123   3.958
 3156SOL    HW210368   3.974   3.278   3.907
 3157SOL     OW10369   1.945   3.514   4.952
 3157SOL    HW110370   1.985   3.465   5.030
 3157SOL    HW210371   1.906   3.601   4.983
 3158SOL     OW10372   4.786   6.994   1.171
 3158SOL    HW110373   4.757   6.899   1.184
 3158SOL    HW210374   4.864   6.998   1.109
 3159SOL     OW10375   5.604   0.437   0.177
 3159SOL    HW110376   5.645   0.517   0.133
 3159SOL    HW210377   5.601   0.362   0.111
 3160SOL     OW10378   6.317   5.601   5.781
 3160SOL    HW110379   6.244   5.555   5.731
 3160SOL    HW210380   6.385   5.533   5.809
 3161SOL     OW10381   1.032   1.628   2.697
 3161SOL    HW110382   1.127   1.647   2.720
 3161SOL    HW210383   0.978   1.621   2.780
 3162SOL     OW10384   0.423   5.504   0.233
 3162SOL    HW110385   0.511   5.551   0.225
 3162SOL    HW210386   0.350   5.565   0.204
 3163SOL     OW10387   3.478   2.196   6.787
 3163SOL    HW110388   3.459   2.283   6.743
 3163SOL    HW210389   3.478   2.208   6.887
 3164SOL     OW10390   4.595   4.287   1.316
 3164SOL    HW110391   4.632   4.349   1.385
 3164SOL    HW210392   4.637   4.306   1.227
 3165SOL     OW10393   0.861   6.678   1.800
 3165SOL    HW110394   0.945   6.639   1.762
 3165SOL    HW210395   0.855   6.775   1.774
 3166SOL     OW10396   4.732   2.465   6.483
 3166SOL    HW110397   4.774   2.375   6.496
 3166SOL    HW210398   4.803   2.532   6.462
 3167SOL     OW10399   0.253   4.826   1.917
 3167SOL    HW110400   0.208   4.738   1.930
 3167SOL    HW210401   0.348   4.811   1.890
 3168SOL     OW10402   5.047   2.822   0.470
 3168SOL    HW110403   5.067   2.905   0.521
 3168SOL    HW210404   4.963   2.781   0.504
 3169SOL     OW10405   0.370   2.891   6.196
 3169SOL    HW110406   0.405   2.874   6.104
 3169SOL    HW210407   0.329   2.982   6.200
 3170SOL     OW10408   3.997   0.272   6.961
 3170SOL    HW110409   4.045   0.195   7.002
 3170SOL    HW210410   3.943   0.318   0.009
 3171SOL     OW10411   6.805   6.579   1.067
 3171SOL    HW110412   6.783   6.550   0.974
 3171SOL    HW210413   6.904   6.590   1.075
 3172SOL     OW10414   0.842   5.830   5.425
 3172SOL    HW110415   0.894   5.885   5.491
 3172SOL    HW210416   0.747   5.822   5.456
 3173SOL     OW10417   3.166   1.678   1.111
 3173SOL    HW110418   3.069   1.675   1.135
 3173SOL    HW210419   3.218   1.624   1.177
 3174SOL     OW10420   2.515   3.004   6.795
 3174SOL    HW110421   2.607   3.044   6.786
 3174SOL    HW210422   2.466   3.017   6.709
 3175SOL     OW10423   0.225   6.211   0.044
 3175SOL    HW110424   0.153   6.257   7.013
 3175SOL    HW210425   0.185   6.139   0.099
 3176SOL     OW10426   1.910   5.442   4.755
 3176SOL    HW110427   1.982   5.391   4.709
 3176SOL    HW210428   1.952   5.510   4.816
 3177SOL     OW10429   5.375   5.596   5.648
 3177SOL    HW110430   5.315   5.517   5.668
 3177SOL    HW210431   5.449   5.566   5.588
 3178SOL     OW10432   6.936   3.174   1.105
 3178SOL    HW110433   6.953   3.196   1.009
 3178SOL    HW210434   7.016   3.127   1.143
 3179SOL     OW10435   1.972   2.620   1.533
 3179SOL    HW110436   2.043   2.593   1.598
 3179SOL    HW210437   1.964   2.550   1.461
 3180SOL     OW10438   3.802   0.727   6.416
 3180SOL    HW110439   3.807   0.655   6.347
 3180SOL    HW210440   3.794   0.816   6.371
 3181SOL     OW10441   0.475   0.068   2.945
 3181SOL    HW110442   0.575   0.072   2.948
 3181SOL    HW210443   0.437   0.150   2.988
 3182SOL     OW10444   1.021   0.878   5.585
 3182SOL    HW110445   0.959   0.919   5.518
 3182SOL    HW210446   1.116   0.890   5.556
 3183SOL     OW10447   4.783   4.099   1.660
 3183SOL    HW110448   4.846   4.090   1.583
 3183SOL    HW210449   4.695   4.134   1.627
 3184SOL     OW10450   2.989   2.123   2.218
 3184SOL    HW110451   2.940   2.040   2.189
 3184SOL    HW210452   2.962   2.199   2.159
 3185SOL     OW10453   6.104   0.434   6.514
 3185SOL    HW110454   6.091   0.402   6.608
 3185SOL    HW210455   6.176   0.504   6.513
 3186SOL     OW10456   3.153   1.303   3.117
 3186SOL    HW110457   3.120   1.220   3.161
 3186SOL    HW210458   3.086   1.333   3.048
 3187SOL     OW10459   4.180   4.453   6.881
 3187SOL    HW110460   4.106   4.390   6.859
 3187SOL    HW210461   4.148   4.547   6.871
 3188SOL     OW10462   3.633   5.866   3.451
 3188SOL    HW110463   3.552   5.922   3.436
 3188SOL    HW210464   3.706   5.897   3.390
 3189SOL     OW10465   2.364   1.540   3.207
 3189SOL    HW110466   2.266   1.544   3.225
 3189SOL    HW210467   2.407   1.626   3.234
 3190SOL     OW10468   0.899   6.782   1.419
 3190SOL    HW110469   0.937   6.834   1.343
 3190SOL    HW210470   0.973   6.744   1.474
 3191SOL     OW10471   3.507   0.013   1.336
 3191SOL    HW110472   3.447   7.007   1.262
 3191SOL    HW210473   3.505   0.112   1.346
 3192SOL     OW10474   0.508   1.795   1.183
 3192SOL    HW110475   0.556   1.717   1.223
 3192SOL    HW210476   0.458   1.845   1.254
 3193SOL     OW10477   4.128   2.522   6.305
 3193SOL    HW110478   4.089   2.443   6.352
 3193SOL    HW210479   4.191   2.570   6.367
 3194SOL     OW10480   1.496   2.606   6.909
 3194SOL    HW110481   1.594   2.615   6.929
 3194SOL    HW210482   1.482   2.528   6.848
 3195SOL     OW10483   2.122   2.524   3.366
 3195SOL    HW110484   2.120   2.562   3.273
 3195SOL    HW210485   2.215   2.528   3.401
 3196SOL     OW10486   6.689   0.560   5.232
 3196SOL    HW110487   6.647   0.593   5.316
 3196SOL    HW210488   6.749   0.630   5.194
 3197SOL     OW10489   1.322   5.913   3.122
 3197SOL    HW110490   1.363   5.998   3.089
 3197SOL    HW210491   1.353   5.837   3.065
 3198SOL     OW10492   6.666   2.060   6.706
 3198SOL    HW110493   6.715   1.992   6.761
 3198SOL    HW210494   6.712   2.149   6.714
 3199SOL     OW10495   4.437   2.768   1.671
 3199SOL    HW110496   4.517   2.787   1.726
 3199SOL    HW210497   4.416   2.670   1.674
 3200SOL     OW10498   0.322   2.457   1.182
 3200SOL    HW110499   0.397   2.399   1.213
 3200SOL    HW210500   0.252   2.401   1.136
 3201SOL     OW10501   5.233   3.692   3.895
 3201SOL    HW110502   5.327   3.665   3.915
 3201SOL    HW210503   5.172   3.614   3.911
 3202SOL     OW10504   1.849   4.651   2.263
 3202SOL    HW110505   1.799   4.672   2.348
 3202SOL    HW210506   1.855   4.552   2.252
 3203SOL     OW10507   5.738   1.053   1.063
 3203SOL    HW110508   5.687   1.139   1.067
 3203SOL    HW210509   5.727   1.004   1.149
 3204SOL     OW10510   5.940   5.973   1.549
 3204SOL    HW110511   5.891   6.052   1.587
 3204SOL    HW210512   6.002   6.005   1.478
 3205SOL     OW10513   0.135   4.256   0.216
 3205SOL    HW110514   0.173   4.182   0.160
 3205SOL    HW210515   0.190   4.339   0.203
 3206SOL     OW10516   0.006   6.969   6.185
 3206SOL    HW110517   0.045   0.038   6.201
 3206SOL    HW210518   0.060   6.920   6.117
 3207SOL     OW10519   0.229   1.439   5.901
 3207SOL    HW110520   0.192   1.353   5.937
 3207SOL    HW210521   0.186   1.460   5.813
 3208SOL     OW10522   4.444   6.005   5.041
 3208SOL    HW110523   4.422   6.048   5.128
 3208SOL    HW210524   4.472   6.075   4.975
 3209SOL     OW10525   2.935   6.627   3.497
 3209SOL    HW110526   2.876   6.708   3.502
 3209SOL    HW210527   2.881   6.545   3.513
 3210SOL     OW10528   0.115   3.369   2.276
 3210SOL    HW110529   0.170   3.295   2.236
 3210SOL    HW210530   0.072   3.421   2.203
 3211SOL     OW10531   2.179   4.691   0.064
 3211SOL    HW110532   2.269   4.694   0.109
 3211SOL    HW210533   2.190   4.665   6.990
 3212SOL     OW10534   4.519   2.043   6.707
 3212SOL    HW110535   4.574   2.037   6.623
 3212SOL    HW210536   4.480   1.953   6.727
 3213SOL     OW10537   6.105   5.105   2.581
 3213SOL    HW110538   6.137   5.021   2.625
 3213SOL    HW210539   6.062   5.164   2.650
 3214SOL     OW10540   4.484   6.109   0.142
 3214SOL    HW110541   4.437   6.184   0.094
 3214SOL    HW210542   4.495   6.133   0.238
 3215SOL     OW10543   6.362   2.981   1.048
 3215SOL    HW110544   6.424   3.043   1.096
 3215SOL    HW210545   6.288   3.033   1.006
 3216SOL     OW10546   5.365   5.594   2.684
 3216SOL    HW110547   5.356   5.548   2.595
 3216SOL    HW210548   5.440   5.553   2.736
 3217SOL     OW10549   1.429   4.074   3.600
 3217SOL    HW110550   1.445   4.170   3.576
 3217SOL    HW210551   1.346   4.042   3.554
 3218SOL     OW10552   4.369   6.516   3.311
 3218SOL    HW110553   4.344   6.484   3.402
 3218SOL    HW210554   4.402   6.611   3.317
 3219SOL     OW10555   0.079   0.353   3.426
 3219SOL    HW110556   0.024   0.325   3.505
 3219SOL    HW210557   0.076   0.452   3.416
 3220SOL     OW10558   6.765   4.859   5.804
 3220SOL    HW110559   6.691   4.924   5.823
 3220SOL    HW210560   6.760   4.831   5.708
 3221SOL     OW10561   2.775   6.277   2.278
 3221SOL    HW110562   2.765   6.206   2.348
 3221SOL    HW210563   2.737   6.243   2.191
 3222SOL     OW10564   5.046   2.167   3.536
 3222SOL    HW110565   5.119   2.201   3.476
 3222SOL    HW210566   5.086   2.111   3.608
 3223SOL     OW10567   2.624   5.368   6.690
 3223SOL    HW110568   2.530   5.345   6.713
 3223SOL    HW210569   2.679   5.284   6.686
 3224SOL     OW10570   4.756   5.122   6.219
 3224SOL    HW110571   4.798   5.176   6.146
 3224SOL    HW210572   4.669   5.084   6.186
 3225SOL     OW10573   4.656   2.695   6.233
 3225SOL    HW110574   4.698   2.687   6.142
 3225SOL    HW210575   4.581   2.629   6.241
 3226SOL     OW10576   2.282   1.080   4.290
 3226SOL    HW110577   2.299   1.112   4.384
 3226SOL    HW210578   2.247   1.155   4.235
 3227SOL     OW10579   3.027   2.049   6.633
 3227SOL    HW110580   2.936   2.013   6.653
 3227SOL    HW210581   3.026   2.149   6.640
 3228SOL     OW10582   5.528   3.261   4.308
 3228SOL    HW110583   5.544   3.168   4.275
 3228SOL    HW210584   5.434   3.268   4.342
 3229SOL     OW10585   3.083   1.723   5.770
 3229SOL    HW110586   2.999   1.776   5.780
 3229SOL    HW210587   3.124   1.744   5.681
 3230SOL     OW10588   0.259   1.751   3.066
 3230SOL    HW110589   0.273   1.722   2.972
 3230SOL    HW210590   0.180   1.703   3.104
 3231SOL     OW10591   4.607   5.943   1.871
 3231SOL    HW110592   4.645   6.017   1.814
 3231SOL    HW210593   4.644   5.855   1.839
 3232SOL     OW10594   4.318   5.053   4.830
 3232SOL    HW110595   4.277   4.994   4.761
 3232SOL    HW210596   4.387   5.112   4.787
 3233SOL     OW10597   0.819   4.272   0.630
 3233SOL    HW110598   0.868   4.189   0.658
 3233SOL    HW210599   0.877   4.352   0.643
 3234SOL     OW10600   0.075   2.708   0.478
 3234SOL    HW110601   0.053   2.777   0.547
 3234SOL    HW210602   0.128   2.634   0.520
 3235SOL     OW10603   5.925   5.947   2.681
 3235SOL    HW110604   5.871   5.865   2.700
 3235SOL    HW210605   6.012   5.941   2.730
 3236SOL     OW10606   1.557   3.364   1.821
 3236SOL    HW110607   1.613   3.414   1.756
 3236SOL    HW210608   1.595   3.375   1.913
 3237SOL     OW10609   4.765   0.086   4.310
 3237SOL    HW110610   4.861   0.114   4.323
 3237SOL    HW210611   4.757   0.031   4.226
 3238SOL     OW10612   0.747   5.978   6.741
 3238SOL    HW110613   0.661   6.024   6.765
 3238SOL    HW210614   0.777   5.921   6.817
 3239SOL     OW10615   6.062   1.296   0.368
 3239SOL    HW110616   5.994   1.261   0.304
 3239SOL    HW210617   6.016   1.329   0.451
 3240SOL     OW10618   0.286   6.936   4.854
 3240SOL    HW110619   0.360   6.936   4.787
 3240SOL    HW210620   0.302   7.009   4.920
 3241SOL     OW10621   4.821   1.434   4.384
 3241SOL    HW110622   4.794   1.398   4.473
 3241SOL    HW210623   4.905   1.389   4.354
 3242SOL     OW10624   3.255   5.079   0.646
 3242SOL    HW110625   3.227   5.087   0.550
 3242SOL    HW210626   3.311   5.159   0.670
 3243SOL     OW10627   5.388   5.129   0.088
 3243SOL    HW110628   5.460   5.080   0.137
 3243SOL    HW210629   5.366   5.213   0.137
 3244SOL     OW10630   5.613   5.987   5.703
 3244SOL    HW110631   5.610   5.901   5.753
 3244SOL    HW210632   5.573   5.976   5.613
 3245SOL     OW10633   3.787   2.923   6.195
 3245SOL    HW110634   3.846   3.004   6.190
 3245SOL    HW210635   3.844   2.841   6.196
 3246SOL     OW10636   5.329   0.402   2.881
 3246SOL    HW110637   5.405   0.467   2.887
 3246SOL    HW210638   5.274   0.409   2.964
 3247SOL     OW10639   0.282   4.366   2.720
 3247SOL    HW110640   0.354   4.313   2.764
 3247SOL    HW210641   0.267   4.451   2.771
 3248SOL     OW10642   5.993   3.708   2.146
 3248SOL    HW110643   6.008   3.778   2.216
 3248SOL    HW210644   6.067   3.641   2.151
 3249SOL     OW10645   3.677   4.889   5.396
 3249SOL    HW110646   3.708   4.813   5.338
 3249SOL    HW210647   3.657   4.854   5.488
 3250SOL     OW10648   5.792   0.077   3.012
 3250SOL    HW110649   5.749   0.036   3.092
 3250SOL    HW210650   5.834   0.005   2.956
 3251SOL     OW10651   3.743   1.636   3.243
 3251SOL    HW110652   3.796   1.627   3.159
 3251SOL    HW210653   3.761   1.724   3.285
 3252SOL     OW10654   3.481   0.995   2.732
 3252SOL    HW110655   3.489   1.085   2.776
 3252SOL    HW210656   3.542   0.930   2.778
 3253SOL     OW10657   4.702   2.549   1.690
 3253SOL    HW110658   4.732   2.624   1.631
 3253SOL    HW210659   4.662   2.587   1.773
 3254SOL     OW10660   3.998   4.878   4.122
 3254SOL    HW110661   3.921   4.942   4.113
 3254SOL    HW210662   3.979   4.795   4.069
 3255SOL     OW10663   4.707   5.220   0.539
 3255SOL    HW110664   4.770   5.251   0.610
 3255SOL    HW210665   4.660   5.138   0.570
 3256SOL     OW10666   5.615   6.729   6.233
 3256SOL    HW110667   5.662   6.765   6.314
 3256SOL    HW210668   5.676   6.668   6.183
 3257SOL     OW10669   1.338   2.016   0.614
 3257SOL    HW110670   1.390   2.037   0.531
 3257SOL    HW210671   1.271   2.089   0.630
 3258SOL     OW10672   4.903   6.708   1.733
 3258SOL    HW110673   4.915   6.755   1.821
 3258SOL    HW210674   4.986   6.718   1.679
 3259SOL     OW10675   4.381   5.719   4.199
 3259SOL    HW110676   4.412   5.718   4.294
 3259SOL    HW210677   4.282   5.732   4.197
 3260SOL     OW10678   1.831   1.551   0.417
 3260SOL    HW110679   1.863   1.576   0.509
 3260SOL    HW210680   1.903   1.500   0.370
 3261SOL     OW10681   4.104   6.484   0.553
 3261SOL    HW110682   4.026   6.540   0.523
 3261SOL    HW210683   4.075   6.425   0.628
 3262SOL     OW10684   3.737   1.891   3.413
 3262SOL    HW110685   3.648   1.937   3.422
 3262SOL    HW210686   3.797   1.920   3.487
 3263SOL     OW10687   4.838   7.011   3.017
 3263SOL    HW110688   4.761   6.956   2.983
 3263SOL    HW210689   4.854   0.065   2.954
 3264SOL     OW10690   0.065   5.262   6.908
 3264SOL    HW110691   7.012   5.299   6.964
 3264SOL    HW210692   0.150   5.264   6.961
 3265SOL     OW10693   3.783   2.307   6.627
 3265SOL    HW110694   3.730   2.225   6.605
 3265SOL    HW210695   3.794   2.313   6.726
 3266SOL     OW10696   0.082   2.267   0.151
 3266SOL    HW110697   0.011   2.217   0.200
 3266SOL    HW210698   0.056   2.275   0.054
 3267SOL     OW10699   3.488   2.693   1.379
 3267SOL    HW110700   3.565   2.632   1.363
 3267SOL    HW210701   3.516   2.787   1.361
 3268SOL     OW10702   1.084   4.171   0.035
 3268SOL    HW110703   1.038   4.147   6.971
 3268SOL    HW210704   1.033   4.131   0.112
 3269SOL     OW10705   5.174   5.071   1.729
 3269SOL    HW110706   5.125   4.997   1.683
 3269SOL    HW210707   5.184   5.050   1.826
 3270SOL     OW10708   0.505   5.159   3.797
 3270SOL    HW110709   0.472   5.166   3.891
 3270SOL    HW210710   0.428   5.172   3.734
 3271SOL     OW10711   5.375   1.966   2.693
 3271SOL    HW110712   5.327   1.948   2.607
 3271SOL    HW210713   5.455   2.022   2.675
 3272SOL     OW10714   3.573   6.791   0.156
 3272SOL    HW110715   3.541   6.711   0.206
 3272SOL    HW210716   3.613   6.857   0.221
 3273SOL     OW10717   1.148   6.440   1.967
 3273SOL    HW110718   1.174   6.349   1.936
 3273SOL    HW210719   1.083   6.433   2.042
 3274SOL     OW10720   3.573   1.598   6.441
 3274SOL    HW110721   3.536   1.509   6.415
 3274SOL    HW210722   3.501   1.667   6.436
 3275SOL     OW10723   2.081   0.471   0.025
 3275SOL    HW110724   2.153   0.414   7.009
 3275SOL    HW210725   2.039   0.525   6.973
 3276SOL     OW10726   3.436   5.291   6.668
 3276SOL    HW110727   3.428   5.192   6.653
 3276SOL    HW210728   3.359   5.323   6.722
 3277SOL     OW10729   6.597   0.134   6.349
 3277SOL    HW110730   6.532   0.061   6.372
 3277SOL    HW210731   6.690   0.101   6.365
 3278SOL     OW10732   0.380   1.344   5.361
 3278SOL    HW110733   0.360   1.335   5.263
 3278SOL    HW210734   0.479   1.336   5.375
 3279SOL     OW10735   6.901   0.046   0.859
 3279SOL    HW110736   6.839   0.113   0.899
 3279SOL    HW210737   6.932   7.004   0.930
 3280SOL     OW10738   2.418   5.231   6.835
 3280SOL    HW110739   2.462   5.169   6.900
 3280SOL    HW210740   2.367   5.178   6.767
 3281SOL     OW10741   1.806   5.602   0.963
 3281SOL    HW110742   1.840   5.672   1.026
 3281SOL    HW210743   1.864   5.600   0.882
 3282SOL     OW10744   3.033   6.288   4.413
 3282SOL    HW110745   2.947   6.260   4.370
 3282SOL    HW210746   3.061   6.220   4.481
 3283SOL     OW10747   3.063   1.836   3.233
 3283SOL    HW110748   3.025   1.895   3.305
 3283SOL    HW210749   3.030   1.867   3.144
 3284SOL     OW10750   0.090   6.692   6.976
 3284SOL    HW110751   0.099   6.600   6.938
 3284SOL    HW210752   0.060   6.686   0.049
 3285SOL     OW10753   0.379   2.793   3.488
 3285SOL    HW110754   0.310   2.803   3.559
 3285SOL    HW210755   0.457   2.853   3.508
 3286SOL     OW10756   3.942   3.522   3.955
 3286SOL    HW110757   3.947   3.521   3.855
 3286SOL    HW210758   3.995   3.599   3.990
 3287SOL     OW10759   1.377   5.616   0.066
 3287SOL    HW110760   1.434   5.595   0.146
 3287SOL    HW210761   1.423   5.586   7.005
 3288SOL     OW10762   0.431   6.276   6.859
 3288SOL    HW110763   0.471   6.365   6.839
 3288SOL    HW210764   0.350   6.288   6.915
 3289SOL     OW10765   1.094   6.129   5.356
 3289SOL    HW110766   1.151   6.210   5.370
 3289SOL    HW210767   1.051   6.133   5.266
 3290SOL     OW10768   0.633   5.740   2.273
 3290SOL    HW110769   0.621   5.650   2.315
 3290SOL    HW210770   0.631   5.811   2.344
 3291SOL     OW10771   1.717   6.497   6.491
 3291SOL    HW110772   1.690   6.488   6.395
 3291SOL    HW210773   1.682   6.420   6.543
 3292SOL     OW10774   0.589   1.017   6.649
 3292SOL    HW110775   0.585   1.090   6.718
 3292SOL    HW210776   0.506   1.018   6.594
 3293SOL     OW10777   6.877   1.682   3.486
 3293SOL    HW110778   6.918   1.597   3.451
 3293SOL    HW210779   6.784   1.689   3.451
 3294SOL     OW10780   6.600   1.231   6.819
 3294SOL    HW110781   6.592   1.326   6.849
 3294SOL    HW210782   6.666   1.225   6.744
 3295SOL     OW10783   2.589   2.024   0.553
 3295SOL    HW110784   2.610   2.034   0.650
 3295SOL    HW210785   2.548   1.934   0.537
 3296SOL     OW10786   2.374   6.918   1.881
 3296SOL    HW110787   2.314   6.905   1.960
 3296SOL    HW210788   2.459   6.961   1.911
 3297SOL     OW10789   3.183   2.058   5.260
 3297SOL    HW110790   3.174   2.135   5.196
 3297SOL    HW210791   3.252   2.079   5.328
 3298SOL     OW10792   6.405   3.203   2.947
 3298SOL    HW110793   6.346   3.215   3.027
 3298SOL    HW210794   6.490   3.253   2.959
 3299SOL     OW10795   1.817   0.237   4.116
 3299SOL    HW110796   1.833   0.211   4.021
 3299SOL    HW210797   1.862   0.171   4.176
 3300SOL     OW10798   6.782   0.276   5.657
 3300SOL    HW110799   6.712   0.205   5.657
 3300SOL    HW210800   6.831   0.275   5.744
 3301SOL     OW10801   0.736   3.999   3.655
 3301SOL    HW110802   0.798   4.065   3.612
 3301SOL    HW210803   0.707   4.034   3.744
 3302SOL     OW10804   1.349   4.826   4.430
 3302SOL    HW110805   1.393   4.839   4.341
 3302SOL    HW210806   1.360   4.909   4.485
 3303SOL     OW10807   3.146   2.993   2.686
 3303SOL    HW110808   3.047   2.999   2.698
 3303SOL    HW210809   3.192   3.040   2.761
 3304SOL     OW10810   1.189   5.219   3.507
 3304SOL    HW110811   1.192   5.316   3.531
 3304SOL    HW210812   1.281   5.187   3.483
 3305SOL     OW10813   1.700   1.109   1.837
 3305SOL    HW110814   1.640   1.161   1.898
 3305SOL    HW210815   1.769   1.170   1.799
 3306SOL     OW10816   2.090   3.934   3.341
 3306SOL    HW110817   1.998   3.950   3.304
 3306SOL    HW210818   2.157   3.944   3.268
 3307SOL     OW10819   0.241   5.966   0.225
 3307SOL    HW110820   0.206   5.873   0.211
 3307SOL    HW210821   0.338   5.969   0.204
 3308SOL     OW10822   4.373   5.856   0.362
 3308SOL    HW110823   4.373   5.932   0.297
 3308SOL    HW210824   4.414   5.886   0.448
 3309SOL     OW10825   0.833   4.849   2.614
 3309SOL    HW110826   0.737   4.823   2.609
 3309SOL    HW210827   0.870   4.825   2.704
 3310SOL     OW10828   0.488   3.609   3.266
 3310SOL    HW110829   0.586   3.590   3.273
 3310SOL    HW210830   0.474   3.691   3.210
 3311SOL     OW10831   2.942   5.820   0.658
 3311SOL    HW110832   2.916   5.787   0.749
 3311SOL    HW210833   3.013   5.890   0.667
 3312SOL     OW10834   3.300   4.461   6.236
 3312SOL    HW110835   3.312   4.545   6.183
 3312SOL    HW210836   3.304   4.382   6.175
 3313SOL     OW10837   1.047   5.113   3.745
 3313SOL    HW110838   1.023   5.208   3.767
 3313SOL    HW210839   1.065   5.106   3.647
 3314SOL     OW10840   1.425   2.915   4.868
 3314SOL    HW110841   1.497   2.972   4.908
 3314SOL    HW210842   1.350   2.907   4.934
 3315SOL     OW10843   6.663   3.009   3.850
 3315SOL    HW110844   6.597   2.934   3.854
 3315SOL    HW210845   6.752   2.977   3.882
 3316SOL     OW10846   3.998   2.313   6.405
 3316SOL    HW110847   4.030   2.242   6.469
 3316SOL    HW210848   3.912   2.352   6.439
 3317SOL     OW10849   4.647   2.743   1.880
 3317SOL    HW110850   4.639   2.841   1.895
 3317SOL    HW210851   4.700   2.702   1.954
 3318SOL     OW10852   2.430   6.269   6.204
 3318SOL    HW110853   2.365   6.194   6.216
 3318SOL    HW210854   2.523   6.232   6.200
 3319SOL     OW10855   0.102   6.342   4.418
 3319SOL    HW110856   0.139   6.266   4.365
 3319SOL    HW210857   0.176   6.385   4.470
 3320SOL     OW10858   5.653   1.369   5.215
 3320SOL    HW110859   5.641   1.423   5.299
 3320SOL    HW210860   5.697   1.425   5.145
 3321SOL     OW10861   3.399   3.256   2.440
 3321SOL    HW110862   3.482   3.241   2.386
 3321SOL    HW210863   3.337   3.316   2.389
 3322SOL     OW10864   4.626   1.989   0.997
 3322SOL    HW110865   4.624   1.957   1.091
 3322SOL    HW210866   4.590   2.082   0.993
 3323SOL     OW10867   2.267   4.300   6.538
 3323SOL    HW110868   2.225   4.232   6.597
 3323SOL    HW210869   2.196   4.362   6.503
 3324SOL     OW10870   1.388   3.949   0.487
 3324SOL    HW110871   1.333   3.908   0.415
 3324SOL    HW210872   1.362   3.910   0.575
 3325SOL     OW10873   2.252   3.509   0.315
 3325SOL    HW110874   2.346   3.535   0.292
 3325SOL    HW210875   2.247   3.410   0.328
 3326SOL     OW10876   5.693   2.226   2.086
 3326SOL    HW110877   5.641   2.211   2.002
 3326SOL    HW210878   5.785   2.189   2.076
 3327SOL     OW10879   2.349   6.634   2.023
 3327SOL    HW110880   2.295   6.715   2.044
 3327SOL    HW210881   2.411   6.654   1.947
 3328SOL     OW10882   4.408   0.987   1.908
 3328SOL    HW110883   4.389   0.960   1.813
 3328SOL    HW210884   4.390   0.909   1.968
 3329SOL     OW10885   4.082   0.790   4.950
 3329SOL    HW110886   4.017   0.726   4.991
 3329SOL    HW210887   4.103   0.863   5.016
 3330SOL     OW10888   5.928   6.815   2.116
 3330SOL    HW110889   5.935   6.905   2.073
 3330SOL    HW210890   5.966   6.745   2.055
 3331SOL     OW10891   1.975   3.604   3.141
 3331SOL    HW110892   1.877   3.618   3.155
 3331SOL    HW210893   2.011   3.678   3.084
 3332SOL     OW10894   5.321   4.687   0.226
 3332SOL    HW110895   5.392   4.751   0.256
 3332SOL    HW210896   5.363   4.602   0.196
 3333SOL     OW10897   3.283   3.951   1.346
 3333SOL    HW110898   3.255   3.863   1.307
 3333SOL    HW210899   3.367   3.939   1.398
 3334SOL     OW10900   1.404   2.940   2.330
 3334SOL    HW110901   1.370   3.020   2.280
 3334SOL    HW210902   1.448   2.877   2.267
 3335SOL     OW10903   3.473   4.388   5.855
 3335SOL    HW110904   3.540   4.372   5.927
 3335SOL    HW210905   3.388   4.420   5.895
 3336SOL     OW10906   2.566   7.019   3.884
 3336SOL    HW110907   2.551   0.084   3.838
 3336SOL    HW210908   2.665   7.002   3.893
 3337SOL     OW10909   3.806   3.381   2.626
 3337SOL    HW110910   3.725   3.324   2.617
 3337SOL    HW210911   3.839   3.377   2.720
 3338SOL     OW10912   1.114   2.183   1.692
 3338SOL    HW110913   1.170   2.133   1.626
 3338SOL    HW210914   1.024   2.140   1.698
 3339SOL     OW10915   1.758   0.097   5.540
 3339SOL    HW110916   1.800   0.183   5.510
 3339SOL    HW210917   1.761   0.092   5.640
 3340SOL     OW10918   4.652   0.991   4.133
 3340SOL    HW110919   4.734   1.046   4.116
 3340SOL    HW210920   4.622   0.950   4.047
 3341SOL     OW10921   2.251   4.580   2.439
 3341SOL    HW110922   2.308   4.545   2.365
 3341SOL    HW210923   2.182   4.642   2.403
 3342SOL     OW10924   6.353   0.079   3.229
 3342SOL    HW110925   6.425   0.097   3.162
 3342SOL    HW210926   6.362   0.143   3.305
 3343SOL     OW10927   5.101   5.496   6.653
 3343SOL    HW110928   5.086   5.424   6.585
 3343SOL    HW210929   5.196   5.494   6.684
 3344SOL     OW10930   6.524   2.869   2.150
 3344SOL    HW110931   6.471   2.809   2.209
 3344SOL    HW210932   6.560   2.816   2.072
 3345SOL     OW10933   0.827   3.720   0.672
 3345SOL    HW110934   0.908   3.778   0.686
 3345SOL    HW210935   0.837   3.669   0.587
 3346SOL     OW10936   2.559   1.052   0.146
 3346SOL    HW110937   2.470   1.038   0.190
 3346SOL    HW210938   2.631   1.053   0.216
 3347SOL     OW10939   1.047   3.075   6.395
 3347SOL    HW110940   1.082   2.983   6.405
 3347SOL    HW210941   1.048   3.122   6.484
 3348SOL     OW10942   3.766   4.183   6.471
 3348SOL    HW110943   3.836   4.228   6.527
 3348SOL    HW210944   3.686   4.242   6.463
 3349SOL     OW10945   2.440   4.377   3.963
 3349SOL    HW110946   2.423   4.411   3.871
 3349SOL    HW210947   2.477   4.451   4.020
 3350SOL     OW10948   0.504   4.012   5.763
 3350SOL    HW110949   0.524   4.103   5.797
 3350SOL    HW210950   0.500   4.013   5.663
 3351SOL     OW10951   5.370   0.593   1.296
 3351SOL    HW110952   5.436   0.561   1.228
 3351SOL    HW210953   5.290   0.533   1.296
 3352SOL     OW10954   5.420   2.459   0.918
 3352SOL    HW110955   5.331   2.497   0.894
 3352SOL    HW210956   5.478   2.531   0.956
 3353SOL     OW10957   1.861   0.565   1.351
 3353SOL    HW110958   1.922   0.642   1.371
 3353SOL    HW210959   1.869   0.541   1.255
 3354SOL     OW10960   4.092   3.449   5.828
 3354SOL    HW110961   4.047   3.538   5.830
 3354SOL    HW210962   4.023   3.377   5.839
 3355SOL     OW10963   1.952   1.462   5.006
 3355SOL    HW110964   1.956   1.408   4.922
 3355SOL    HW210965   1.888   1.538   4.993
 3356SOL     OW10966   1.057   6.774   5.832
 3356SOL    HW110967   1.078   6.729   5.746
 3356SOL    HW210968   1.113   6.856   5.842
 3357SOL     OW10969   2.860   3.458   2.183
 3357SOL    HW110970   2.840   3.473   2.087
 3357SOL    HW210971   2.854   3.360   2.203
 3358SOL     OW10972   5.344   1.279   3.333
 3358SOL    HW110973   5.302   1.239   3.415
 3358SOL    HW210974   5.423   1.225   3.306
 3359SOL     OW10975   0.349   5.179   4.039
 3359SOL    HW110976   0.361   5.276   4.018
 3359SOL    HW210977   0.252   5.156   4.035
 3360SOL     OW10978   0.850   2.411   5.896
 3360SOL    HW110979   0.887   2.408   5.803
 3360SOL    HW210980   0.801   2.497   5.910
 3361SOL     OW10981   0.788   0.222   4.523
 3361SOL    HW110982   0.856   0.289   4.553
 3361SOL    HW210983   0.795   0.209   4.424
 3362SOL     OW10984   3.944   1.621   4.037
 3362SOL    HW110985   3.973   1.526   4.045
 3362SOL    HW210986   3.967   1.671   4.121
 3363SOL     OW10987   6.761   3.107   1.300
 3363SOL    HW110988   6.703   3.185   1.326
 3363SOL    HW210989   6.833   3.138   1.239
 3364SOL     OW10990   1.551   4.106   2.654
 3364SOL    HW110991   1.455   4.107   2.680
 3364SOL    HW210992   1.591   4.196   2.672
 3365SOL     OW10993   2.136   3.223   4.746
 3365SOL    HW110994   2.077   3.174   4.810
 3365SOL    HW210995   2.122   3.321   4.756
 3366SOL     OW10996   6.954   3.376   4.338
 3366SOL    HW110997   7.021   3.323   4.286
 3366SOL    HW210998   6.937   3.332   4.426
 3367SOL     OW10999   3.783   3.668   4.572
 3367SOL    HW111000   3.764   3.748   4.630
 3367SOL    HW211001   3.877   3.672   4.539
 3368SOL     OW11002   1.595   6.323   6.700
 3368SOL    HW111003   1.497   6.334   6.712
 3368SOL    HW211004   1.621   6.228   6.719
 3369SOL     OW11005   4.312   1.557   1.498
 3369SOL    HW111006   4.232   1.513   1.457
 3369SOL    HW211007   4.289   1.650   1.526
 3370SOL     OW11008   6.699   6.211   1.370
 3370SOL    HW111009   6.757   6.134   1.341
 3370SOL    HW211010   6.752   6.296   1.365
 3371SOL     OW11011   2.064   3.496   2.514
 3371SOL    HW111012   1.985   3.437   2.496
 3371SOL    HW211013   2.095   3.536   2.428
 3372SOL     OW11014   6.773   2.662   1.353
 3372SOL    HW111015   6.791   2.564   1.354
 3372SOL    HW211016   6.759   2.694   1.446
 3373SOL     OW11017   0.247   1.134   1.799
 3373SOL    HW111018   0.284   1.161   1.710
 3373SOL    HW211019   0.313   1.157   1.870
 3374SOL     OW11020   0.497   6.747   4.067
 3374SOL    HW111021   0.579   6.751   4.124
 3374SOL    HW211022   0.481   6.837   4.027
 3375SOL     OW11023   6.856   4.682   6.811
 3375SOL    HW111024   6.916   4.732   6.748
 3375SOL    HW211025   6.861   4.584   6.792
 3376SOL     OW11026   2.383   3.402   5.584
 3376SOL    HW111027   2.343   3.493   5.574
 3376SOL    HW211028   2.376   3.353   5.497
 3377SOL     OW11029   6.478   5.145   4.225
 3377SOL    HW111030   6.397   5.193   4.192
 3377SOL    HW211031   6.450   5.063   4.274
 3378SOL     OW11032   0.883   6.625   6.875
 3378SOL    HW111033   0.837   6.625   6.963
 3378SOL    HW211034   0.817   6.645   6.802
 3379SOL     OW11035   1.052   3.274   4.393
 3379SOL    HW111036   1.116   3.339   4.352
 3379SOL    HW211037   1.024   3.306   4.483
 3380SOL     OW11038   3.775   4.577   5.935
 3380SOL    HW111039   3.763   4.636   5.855
 3380SOL    HW211040   3.690   4.572   5.986
 3381SOL     OW11041   0.716   3.019   1.643
 3381SOL    HW111042   0.708   3.075   1.561
 3381SOL    HW211043   0.628   2.975   1.662
 3382SOL     OW11044   6.927   2.282   1.240
 3382SOL    HW111045   6.889   2.189   1.246
 3382SOL    HW211046   6.921   2.325   1.330
 3383SOL     OW11047   3.554   4.847   0.266
 3383SOL    HW111048   3.515   4.772   0.213
 3383SOL    HW211049   3.594   4.810   0.350
 3384SOL     OW11050   2.834   4.633   0.350
 3384SOL    HW111051   2.837   4.566   0.425
 3384SOL    HW211052   2.901   4.705   0.367
 3385SOL     OW11053   0.034   2.228   3.610
 3385SOL    HW111054   0.122   2.220   3.564
 3385SOL    HW211055   6.984   2.246   3.542
 3386SOL     OW11056   6.527   4.551   6.853
 3386SOL    HW111057   6.578   4.475   6.811
 3386SOL    HW211058   6.466   4.516   6.923
 3387SOL     OW11059   5.508   0.846   3.265
 3387SOL    HW111060   5.572   0.811   3.332
 3387SOL    HW211061   5.523   0.800   3.177
 3388SOL     OW11062   4.962   4.134   1.466
 3388SOL    HW111063   5.001   4.206   1.523
 3388SOL    HW211064   4.933   4.174   1.379
 3389SOL     OW11065   6.094   6.344   0.348
 3389SOL    HW111066   6.078   6.305   0.439
 3389SOL    HW211067   6.186   6.383   0.344
 3390SOL     OW11068   3.935   6.799   5.547
 3390SOL    HW111069   4.007   6.731   5.537
 3390SOL    HW211070   3.845   6.754   5.546
 3391SOL     OW11071   5.802   3.005   4.208
 3391SOL    HW111072   5.872   2.953   4.256
 3391SOL    HW211073   5.805   3.101   4.238
 3392SOL     OW11074   4.136   6.941   4.677
 3392SOL    HW111075   4.096   7.018   4.727
 3392SOL    HW211076   4.230   6.964   4.650
 3393SOL     OW11077   4.844   0.306   0.723
 3393SOL    HW111078   4.744   0.309   0.725
 3393SOL    HW211079   4.875   0.249   0.648
 3394SOL     OW11080   3.511   5.125   1.093
 3394SOL    HW111081   3.532   5.222   1.107
 3394SOL    HW211082   3.417   5.115   1.062
 3395SOL     OW11083   4.036   0.887   3.228
 3395SOL    HW111084   4.074   0.969   3.185
 3395SOL    HW211085   3.997   0.827   3.157
 3396SOL     OW11086   5.680   0.808   3.850
 3396SOL    HW111087   5.719   0.726   3.891
 3396SOL    HW211088   5.653   0.872   3.922
 3397SOL     OW11089   2.454   5.701   6.100
 3397SOL    HW111090   2.503   5.757   6.167
 3397SOL    HW211091   2.421   5.759   6.026
 3398SOL     OW11092   0.661   1.694   5.714
 3398SOL    HW111093   0.699   1.754   5.784
 3398SOL    HW211094   0.585   1.642   5.754
 3399SOL     OW11095   0.263   4.478   3.236
 3399SOL    HW111096   0.338   4.529   3.278
 3399SOL    HW211097   0.181   4.485   3.293
 3400SOL     OW11098   5.664   3.315   5.968
 3400SOL    HW111099   5.578   3.296   5.921
 3400SOL    HW211100   5.659   3.277   6.061
 3401SOL     OW11101   6.521   3.882   6.313
 3401SOL    HW111102   6.447   3.860   6.377
 3401SOL    HW211103   6.578   3.800   6.299
 3402SOL     OW11104   6.651   5.171   0.994
 3402SOL    HW111105   6.654   5.146   0.897
 3402SOL    HW211106   6.619   5.265   1.004
 3403SOL     OW11107   4.698   6.461   5.852
 3403SOL    HW111108   4.626   6.461   5.921
 3403SOL    HW211109   4.720   6.555   5.826
 3404SOL     OW11110   4.931   3.278   5.970
 3404SOL    HW111111   4.893   3.312   5.885
 3404SOL    HW211112   4.937   3.352   6.037
 3405SOL     OW11113   5.631   6.353   5.943
 3405SOL    HW111114   5.598   6.340   6.037
 3405SOL    HW211115   5.556   6.337   5.879
 3406SOL     OW11116   2.042   3.861   2.219
 3406SOL    HW111117   2.049   3.918   2.137
 3406SOL    HW211118   1.984   3.906   2.287
 3407SOL     OW11119   2.271   4.282   0.653
 3407SOL    HW111120   2.300   4.326   0.568
 3407SOL    HW211121   2.342   4.218   0.683
 3408SOL     OW11122   4.408   2.365   4.095
 3408SOL    HW111123   4.332   2.301   4.085
 3408SOL    HW211124   4.484   2.318   4.141
 3409SOL     OW11125   4.143   6.736   0.192
 3409SOL    HW111126   4.105   6.826   0.214
 3409SOL    HW211127   4.073   6.679   0.150
 3410SOL     OW11128   6.044   6.605   2.897
 3410SOL    HW111129   6.091   6.682   2.854
 3410SOL    HW211130   5.948   6.627   2.910
 3411SOL     OW11131   6.807   1.741   0.998
 3411SOL    HW111132   6.786   1.687   1.079
 3411SOL    HW211133   6.807   1.682   0.917
 3412SOL     OW11134   5.322   3.766   1.842
 3412SOL    HW111135   5.419   3.742   1.848
 3412SOL    HW211136   5.294   3.772   1.746
 3413SOL     OW11137   6.448   1.765   6.491
 3413SOL    HW111138   6.541   1.731   6.475
 3413SOL    HW211139   6.423   1.829   6.419
 3414SOL     OW11140   3.915   2.990   0.003
 3414SOL    HW111141   3.999   3.044   7.013
 3414SOL    HW211142   3.839   3.036   6.979
 3415SOL     OW11143   2.585   2.526   4.198
 3415SOL    HW111144   2.600   2.531   4.297
 3415SOL    HW211145   2.673   2.510   4.153
 3416SOL     OW11146   6.254   0.302   0.075
 3416SOL    HW111147   6.222   0.258   0.160
 3416SOL    HW211148   6.224   0.397   0.075
 3417SOL     OW11149   0.541   0.300   3.530
 3417SOL    HW111150   0.612   0.259   3.473
 3417SOL    HW211151   0.584   0.351   3.605
 3418SOL     OW11152   3.936   5.530   2.796
 3418SOL    HW111153   4.001   5.455   2.810
 3418SOL    HW211154   3.962   5.581   2.714
 3419SOL     OW11155   3.944   5.838   5.539
 3419SOL    HW111156   4.014   5.896   5.580
 3419SOL    HW211157   3.927   5.759   5.598
 3420SOL     OW11158   4.685   2.775   3.919
 3420SOL    HW111159   4.615   2.705   3.905
 3420SOL    HW211160   4.729   2.761   4.008
 3421SOL     OW11161   5.406   1.819   3.685
 3421SOL    HW111162   5.365   1.735   3.649
 3421SOL    HW211163   5.485   1.844   3.629
 3422SOL     OW11164   2.046   0.027   0.022
 3422SOL    HW111165   2.016   0.116   0.056
 3422SOL    HW211166   2.137   0.035   7.003
 3423SOL     OW11167   0.814   4.270   5.999
 3423SOL    HW111168   0.862   4.199   5.946
 3423SOL    HW211169   0.836   4.260   6.096
 3424SOL     OW11170   4.375   6.630   1.556
 3424SOL    HW111171   4.299   6.659   1.497
 3424SOL    HW211172   4.461   6.660   1.516
 3425SOL     OW11173   5.077   4.374   1.679
 3425SOL    HW111174   5.054   4.339   1.770
 3425SOL    HW211175   5.035   4.464   1.666
 3426SOL     OW11176   5.210   3.428   0.865
 3426SOL    HW111177   5.285   3.439   0.931
 3426SOL    HW211178   5.165   3.340   0.880
 3427SOL     OW11179   1.369   2.388   1.065
 3427SOL    HW111180   1.467   2.405   1.077
 3427SOL    HW211181   1.356   2.307   1.008
 3428SOL     OW11182   4.621   5.242   5.662
 3428SOL    HW111183   4.706   5.285   5.634
 3428SOL    HW211184   4.579   5.196   5.583
 3429SOL     OW11185   0.485   1.030   1.034
 3429SOL    HW111186   0.416   0.968   0.997
 3429SOL    HW211187   0.575   0.986   1.031
 3430SOL     OW11188   2.256   4.836   5.709
 3430SOL    HW111189   2.178   4.898   5.699
 3430SOL    HW211190   2.224   4.747   5.741
 3431SOL     OW11191   1.906   6.564   2.594
 3431SOL    HW111192   1.964   6.527   2.667
 3431SOL    HW211193   1.889   6.661   2.610
 3432SOL     OW11194   2.234   4.700   6.813
 3432SOL    HW111195   2.297   4.647   6.757
 3432SOL    HW211196   2.147   4.711   6.765
 3433SOL     OW11197   2.456   0.917   6.313
 3433SOL    HW111198   2.506   0.976   6.250
 3433SOL    HW211199   2.512   0.898   6.393
 3434SOL     OW11200   2.865   2.077   1.816
 3434SOL    HW111201   2.857   2.155   1.877
 3434SOL    HW211202   2.924   2.099   1.739
 3435SOL     OW11203   2.307   0.955   0.211
 3435SOL    HW111204   2.269   1.016   0.280
 3435SOL    HW211205   2.234   0.902   0.168
 3436SOL     OW11206   4.235   5.211   0.347
 3436SOL    HW111207   4.235   5.113   0.327
 3436SOL    HW211208   4.142   5.241   0.369
 3437SOL     OW11209   1.405   6.526   6.507
 3437SOL    HW111210   1.442   6.456   6.446
 3437SOL    HW211211   1.347   6.484   6.576
 3438SOL     OW11212   0.831   3.714   1.445
 3438SOL    HW111213   0.893   3.657   1.499
 3438SOL    HW211214   0.736   3.695   1.474
 3439SOL     OW11215   2.141   5.906   2.834
 3439SOL    HW111216   2.232   5.926   2.798
 3439SOL    HW211217   2.072   5.952   2.778
 3440SOL     OW11218   3.751   2.907   4.929
 3440SOL    HW111219   3.785   2.857   5.008
 3440SOL    HW211220   3.821   2.970   4.897
 3441SOL     OW11221   6.330   5.736   6.222
 3441SOL    HW111222   6.292   5.649   6.191
 3441SOL    HW211223   6.429   5.736   6.210
 3442SOL     OW11224   2.980   4.096   1.501
 3442SOL    HW111225   2.916   4.155   1.550
 3442SOL    HW211226   3.009   4.022   1.561
 3443SOL     OW11227   3.116   5.836   2.565
 3443SOL    HW111228   3.057   5.916   2.581
 3443SOL    HW211229   3.102   5.770   2.638
 3444SOL     OW11230   5.596   4.664   1.231
 3444SOL    HW111231   5.607   4.567   1.249
 3444SOL    HW211232   5.673   4.697   1.176
 3445SOL     OW11233   6.337   5.000   3.919
 3445SOL    HW111234   6.340   4.900   3.918
 3445SOL    HW211235   6.253   5.030   3.966
 3446SOL     OW11236   5.623   0.068   2.028
 3446SOL    HW111237   5.587   7.005   2.068
 3446SOL    HW211238   5.550   0.136   2.025
 3447SOL     OW11239   5.334   0.578   0.091
 3447SOL    HW111240   5.237   0.595   0.072
 3447SOL    HW211241   5.364   0.497   0.041
 3448SOL     OW11242   1.561   6.562   5.440
 3448SOL    HW111243   1.642   6.523   5.485
 3448SOL    HW211244   1.590   6.634   5.377
 3449SOL     OW11245   6.172   5.200   5.238
 3449SOL    HW111246   6.217   5.282   5.272
 3449SOL    HW211247   6.216   5.171   5.153
 3450SOL     OW11248   1.249   0.125   6.594
 3450SOL    HW111249   1.170   0.176   6.629
 3450SOL    HW211250   1.277   0.056   6.661
 3451SOL     OW11251   1.702   5.896   0.787
 3451SOL    HW111252   1.783   5.934   0.831
 3451SOL    HW211253   1.632   5.878   0.857
 3452SOL     OW11254   5.420   1.160   5.391
 3452SOL    HW111255   5.359   1.238   5.376
 3452SOL    HW211256   5.408   1.093   5.319
 3453SOL     OW11257   5.795   6.570   6.019
 3453SOL    HW111258   5.791   6.640   5.947
 3453SOL    HW211259   5.738   6.492   5.994
 3454SOL     OW11260   1.837   2.871   3.085
 3454SOL    HW111261   1.790   2.919   3.011
 3454SOL    HW211262   1.851   2.933   3.162
 3455SOL     OW11263   1.677   2.715   4.946
 3455SOL    HW111264   1.769   2.742   4.973
 3455SOL    HW211265   1.670   2.715   4.846
 3456SOL     OW11266   4.542   4.483   2.112
 3456SOL    HW111267   4.487   4.550   2.062
 3456SOL    HW211268   4.537   4.394   2.066
 3457SOL     OW11269   3.830   5.331   4.969
 3457SOL    HW111270   3.770   5.307   4.892
 3457SOL    HW211271   3.924   5.309   4.946
 3458SOL     OW11272   4.710   1.615   2.547
 3458SOL    HW111273   4.707   1.685   2.476
 3458SOL    HW211274   4.702   1.525   2.506
 3459SOL     OW11275   4.006   1.287   2.783
 3459SOL    HW111276   3.970   1.194   2.775
 3459SOL    HW211277   4.009   1.330   2.693
 3460SOL     OW11278   3.859   1.533   5.638
 3460SOL    HW111279   3.924   1.609   5.638
 3460SOL    HW211280   3.777   1.559   5.687
 3461SOL     OW11281   5.392   5.082   6.693
 3461SOL    HW111282   5.444   5.064   6.610
 3461SOL    HW211283   5.294   5.072   6.675
 3462SOL     OW11284   2.176   3.370   6.511
 3462SOL    HW111285   2.211   3.399   6.600
 3462SOL    HW211286   2.240   3.306   6.469
 3463SOL     OW11287   0.202   3.873   0.938
 3463SOL    HW111288   0.217   3.972   0.944
 3463SOL    HW211289   0.261   3.826   1.003
 3464SOL     OW11290   0.413   4.446   6.438
 3464SOL    HW111291   0.420   4.528   6.381
 3464SOL    HW211292   0.391   4.472   6.532
 3465SOL     OW11293   1.949   1.474   1.250
 3465SOL    HW111294   2.036   1.495   1.296
 3465SOL    HW211295   1.957   1.498   1.153
 3466SOL     OW11296   0.100   4.856   5.750
 3466SOL    HW111297   0.080   4.925   5.819
 3466SOL    HW211298   0.084   4.765   5.789
 3467SOL     OW11299   2.188   2.259   6.425
 3467SOL    HW111300   2.226   2.267   6.332
 3467SOL    HW211301   2.089   2.271   6.422
 3468SOL     OW11302   2.671   5.898   3.481
 3468SOL    HW111303   2.596   5.958   3.509
 3468SOL    HW211304   2.713   5.932   3.397
 3469SOL     OW11305   6.887   2.267   3.893
 3469SOL    HW111306   6.933   2.225   3.971
 3469SOL    HW211307   6.833   2.197   3.846
 3470SOL     OW11308   0.365   5.244   1.239
 3470SOL    HW111309   0.344   5.148   1.258
 3470SOL    HW211310   0.412   5.284   1.318
 3471SOL     OW11311   4.345   5.630   5.162
 3471SOL    HW111312   4.301   5.706   5.209
 3471SOL    HW211313   4.275   5.572   5.120
 3472SOL     OW11314   2.612   1.091   4.501
 3472SOL    HW111315   2.516   1.118   4.511
 3472SOL    HW211316   2.658   1.155   4.440
 3473SOL     OW11317   5.797   1.457   5.899
 3473SOL    HW111318   5.864   1.506   5.843
 3473SOL    HW211319   5.716   1.436   5.843
 3474SOL     OW11320   3.418   4.945   2.107
 3474SOL    HW111321   3.407   5.034   2.063
 3474SOL    HW211322   3.491   4.894   2.061
 3475SOL     OW11323   1.100   6.635   4.141
 3475SOL    HW111324   1.088   6.565   4.212
 3475SOL    HW211325   1.077   6.725   4.178
 3476SOL     OW11326   4.522   1.254   4.486
 3476SOL    HW111327   4.560   1.338   4.525
 3476SOL    HW211328   4.517   1.183   4.556
 3477SOL     OW11329   3.800   5.980   1.161
 3477SOL    HW111330   3.740   5.902   1.179
 3477SOL    HW211331   3.793   6.006   1.064
 3478SOL     OW11332   3.072   5.847   5.871
 3478SOL    HW111333   2.972   5.840   5.866
 3478SOL    HW211334   3.096   5.931   5.919
 3479SOL     OW11335   0.563   0.759   2.415
 3479SOL    HW111336   0.608   0.708   2.488
 3479SOL    HW211337   0.631   0.804   2.358
 3480SOL     OW11338   6.914   1.251   3.691
 3480SOL    HW111339   7.006   1.215   3.710
 3480SOL    HW211340   6.847   1.176   3.698
 3481SOL     OW11341   3.181   6.309   6.275
 3481SOL    HW111342   3.138   6.325   6.186
 3481SOL    HW211343   3.266   6.258   6.262
 3482SOL     OW11344   6.392   1.905   1.673
 3482SOL    HW111345   6.479   1.875   1.713
 3482SOL    HW211346   6.317   1.851   1.710
 3483SOL     OW11347   2.171   0.815   1.823
 3483SOL    HW111348   2.138   0.844   1.912
 3483SOL    HW211349   2.155   0.888   1.756
 3484SOL     OW11350   3.596   3.016   3.268
 3484SOL    HW111351   3.535   2.950   3.311
 3484SOL    HW211352   3.625   2.982   3.179
 3485SOL     OW11353   2.017   2.026   4.967
 3485SOL    HW111354   2.039   2.119   4.999
 3485SOL    HW211355   2.062   2.010   4.879
 3486SOL     OW11356   4.127   1.372   1.652
 3486SOL    HW111357   4.217   1.394   1.613
 3486SOL    HW211358   4.116   1.273   1.656
 3487SOL     OW11359   5.881   1.454   6.714
 3487SOL    HW111360   5.950   1.512   6.671
 3487SOL    HW211361   5.797   1.456   6.660
 3488SOL     OW11362   6.172   3.520   4.180
 3488SOL    HW111363   6.250   3.564   4.135
 3488SOL    HW211364   6.197   3.427   4.206
 3489SOL     OW11365   3.413   6.674   0.946
 3489SOL    HW111366   3.319   6.643   0.961
 3489SOL    HW211367   3.429   6.758   0.997
 3490SOL     OW11368   5.541   4.238   7.017
 3490SOL    HW111369   5.517   4.275   6.927
 3490SOL    HW211370   5.467   4.179   0.028
 3491SOL     OW11371   0.241   2.958   5.400
 3491SOL    HW111372   0.226   3.010   5.316
 3491SOL    HW211373   0.188   3.000   5.474
 3492SOL     OW11374   0.458   5.716   6.740
 3492SOL    HW111375   0.428   5.682   6.651
 3492SOL    HW211376   0.556   5.698   6.751
 3493SOL     OW11377   6.115   4.985   1.211
 3493SOL    HW111378   6.208   5.007   1.183
 3493SOL    HW211379   6.107   4.991   1.310
 3494SOL     OW11380   3.886   0.246   1.508
 3494SOL    HW111381   3.938   0.215   1.588
 3494SOL    HW211382   3.846   0.336   1.527
 3495SOL     OW11383   4.030   5.405   2.100
 3495SOL    HW111384   3.941   5.366   2.123
 3495SOL    HW211385   4.028   5.438   2.006
 3496SOL     OW11386   2.059   2.766   0.980
 3496SOL    HW111387   2.076   2.826   0.902
 3496SOL    HW211388   2.132   2.777   1.047
 3497SOL     OW11389   4.347   0.943   3.267
 3497SOL    HW111390   4.324   0.855   3.226
 3497SOL    HW211391   4.286   0.960   3.344
 3498SOL     OW11392   2.980   1.283   1.322
 3498SOL    HW111393   3.003   1.272   1.225
 3498SOL    HW211394   3.056   1.328   1.369
 3499SOL     OW11395   0.399   3.104   3.908
 3499SOL    HW111396   0.384   3.064   3.998
 3499SOL    HW211397   0.413   3.031   3.841
 3500SOL     OW11398   6.136   4.025   6.504
 3500SOL    HW111399   6.073   4.011   6.580
 3500SOL    HW211400   6.100   3.981   6.422
 3501SOL     OW11401   1.182   4.780   5.261
 3501SOL    HW111402   1.103   4.737   5.305
 3501SOL    HW211403   1.213   4.857   5.317
 3502SOL     OW11404   0.578   1.416   1.756
 3502SOL    HW111405   0.667   1.410   1.802
 3502SOL    HW211406   0.582   1.366   1.669
 3503SOL     OW11407   4.357   5.452   5.494
 3503SOL    HW111408   4.434   5.480   5.437
 3503SOL    HW211409   4.390   5.427   5.585
 3504SOL     OW11410   2.894   3.605   1.233
 3504SOL    HW111411   2.862   3.511   1.225
 3504SOL    HW211412   2.836   3.664   1.177
 3505SOL     OW11413   5.619   6.075   5.086
 3505SOL    HW111414   5.651   6.098   4.994
 3505SOL    HW211415   5.698   6.054   5.144
 3506SOL     OW11416   3.844   5.379   4.199
 3506SOL    HW111417   3.791   5.433   4.134
 3506SOL    HW211418   3.813   5.400   4.292
 3507SOL     OW11419   1.313   0.674   6.284
 3507SOL    HW111420   1.331   0.767   6.251
 3507SOL    HW211421   1.316   0.610   6.207
 3508SOL     OW11422   5.296   2.585   0.521
 3508SOL    HW111423   5.244   2.663   0.557
 3508SOL    HW211424   5.279   2.504   0.577
 3509SOL     OW11425   6.167   6.007   7.009
 3509SOL    HW111426   6.175   5.928   6.948
 3509SOL    HW211427   6.181   5.978   0.081
 3510SOL     OW11428   1.932   2.390   1.359
 3510SOL    HW111429   1.836   2.375   1.383
 3510SOL    HW211430   1.956   2.332   1.280
 3511SOL     OW11431   0.720   2.856   6.577
 3511SOL    HW111432   0.797   2.815   6.527
 3511SOL    HW211433   0.642   2.865   6.516
 3512SOL     OW11434   1.836   3.447   0.352
 3512SOL    HW111435   1.910   3.471   0.290
 3512SOL    HW211436   1.765   3.397   0.301
 3513SOL     OW11437   6.583   4.385   1.166
 3513SOL    HW111438   6.643   4.371   1.087
 3513SOL    HW211439   6.505   4.323   1.160
 3514SOL     OW11440   0.390   6.648   1.418
 3514SOL    HW111441   0.462   6.718   1.422
 3514SOL    HW211442   0.333   6.654   1.500
 3515SOL     OW11443   2.747   6.427   2.905
 3515SOL    HW111444   2.688   6.453   2.829
 3515SOL    HW211445   2.732   6.331   2.928
 3516SOL     OW11446   3.320   0.785   0.478
 3516SOL    HW111447   3.238   0.737   0.508
 3516SOL    HW211448   3.308   0.816   0.384
 3517SOL     OW11449   0.733   1.337   6.757
 3517SOL    HW111450   0.698   1.248   6.787
 3517SOL    HW211451   0.823   1.324   6.715
 3518SOL     OW11452   4.652   3.605   6.773
 3518SOL    HW111453   4.587   3.552   6.827
 3518SOL    HW211454   4.732   3.548   6.752
 3519SOL     OW11455   1.096   6.811   6.934
 3519SOL    HW111456   1.017   6.750   6.924
 3519SOL    HW211457   1.176   6.757   6.961
 3520SOL     OW11458   4.007   4.484   1.140
 3520SOL    HW111459   3.991   4.469   1.237
 3520SOL    HW211460   3.920   4.486   1.091
 3521SOL     OW11461   5.503   2.769   1.629
 3521SOL    HW111462   5.473   2.691   1.575
 3521SOL    HW211463   5.498   2.746   1.727
 3522SOL     OW11464   2.906   4.841   1.601
 3522SOL    HW111465   2.948   4.752   1.613
 3522SOL    HW211466   2.877   4.877   1.690
 3523SOL     OW11467   2.975   4.860   4.946
 3523SOL    HW111468   3.070   4.833   4.965
 3523SOL    HW211469   2.914   4.784   4.968
 3524SOL     OW11470   2.446   0.507   0.741
 3524SOL    HW111471   2.361   0.539   0.698
 3524SOL    HW211472   2.514   0.489   0.671
 3525SOL     OW11473   0.472   2.878   1.696
 3525SOL    HW111474   0.386   2.918   1.727
 3525SOL    HW211475   0.478   2.883   1.596
 3526SOL     OW11476   0.593   0.770   3.101
 3526SOL    HW111477   0.646   0.734   3.025
 3526SOL    HW211478   0.533   0.843   3.068
 3527SOL     OW11479   5.479   2.935   6.491
 3527SOL    HW111480   5.429   3.007   6.540
 3527SOL    HW211481   5.518   2.871   6.558
 3528SOL     OW11482   0.710   5.578   3.173
 3528SOL    HW111483   0.640   5.506   3.168
 3528SOL    HW211484   0.687   5.652   3.110
 3529SOL     OW11485   4.853   6.877   5.637
 3529SOL    HW111486   4.918   6.845   5.567
 3529SOL    HW211487   4.877   6.837   5.725
 3530SOL     OW11488   2.517   5.668   2.542
 3530SOL    HW111489   2.552   5.591   2.488
 3530SOL    HW211490   2.424   5.691   2.511
 3531SOL     OW11491   5.660   4.750   0.524
 3531SOL    HW111492   5.658   4.834   0.578
 3531SOL    HW211493   5.589   4.688   0.557
 3532SOL     OW11494   2.685   0.782   6.904
 3532SOL    HW111495   2.701   0.712   6.833
 3532SOL    HW211496   2.767   0.837   6.915
 3533SOL     OW11497   1.336   1.866   3.488
 3533SOL    HW111498   1.278   1.929   3.540
 3533SOL    HW211499   1.339   1.894   3.393
 3534SOL     OW11500   5.641   1.767   5.265
 3534SOL    HW111501   5.567   1.780   5.199
 3534SOL    HW211502   5.689   1.853   5.280
 3535SOL     OW11503   6.343   5.378   6.471
 3535SOL    HW111504   6.362   5.318   6.394
 3535SOL    HW211505   6.395   5.463   6.461
 3536SOL     OW11506   2.109   3.105   3.080
 3536SOL    HW111507   2.101   3.066   2.988
 3536SOL    HW211508   2.118   3.204   3.074
 3537SOL     OW11509   2.426   5.599   0.505
 3537SOL    HW111510   2.466   5.547   0.430
 3537SOL    HW211511   2.455   5.695   0.497
 3538SOL     OW11512   3.227   6.662   2.517
 3538SOL    HW111513   3.309   6.715   2.538
 3538SOL    HW211514   3.182   6.700   2.436
 3539SOL     OW11515   5.609   4.890   6.094
 3539SOL    HW111516   5.644   4.978   6.062
 3539SOL    HW211517   5.658   4.816   6.049
 3540SOL     OW11518   2.330   3.206   6.756
 3540SOL    HW111519   2.316   3.154   6.672
 3540SOL    HW211520   2.243   3.218   6.804
 3541SOL     OW11521   2.975   3.164   0.960
 3541SOL    HW111522   2.890   3.201   0.924
 3541SOL    HW211523   3.029   3.124   0.886
 3542SOL     OW11524   5.405   2.643   6.986
 3542SOL    HW111525   5.426   2.739   7.003
 3542SOL    HW211526   5.335   2.612   0.029
 3543SOL     OW11527   2.123   2.960   2.855
 3543SOL    HW111528   2.079   2.871   2.867
 3543SOL    HW211529   2.130   2.981   2.757
 3544SOL     OW11530   2.987   4.443   6.234
 3544SOL    HW111531   2.910   4.505   6.248
 3544SOL    HW211532   3.073   4.489   6.258
 3545SOL     OW11533   3.531   6.444   0.999
 3545SOL    HW111534   3.552   6.437   1.097
 3545SOL    HW211535   3.485   6.530   0.981
 3546SOL     OW11536   6.411   3.712   3.253
 3546SOL    HW111537   6.475   3.679   3.183
 3546SOL    HW211538   6.376   3.802   3.226
 3547SOL     OW11539   0.266   3.554   5.315
 3547SOL    HW111540   0.266   3.547   5.414
 3547SOL    HW211541   0.249   3.649   5.288
 3548SOL     OW11542   5.177   1.603   6.247
 3548SOL    HW111543   5.123   1.586   6.164
 3548SOL    HW211544   5.258   1.544   6.246
 3549SOL     OW11545   2.434   5.921   6.979
 3549SOL    HW111546   2.436   5.960   6.887
 3549SOL    HW211547   2.436   5.995   0.025
 3550SOL     OW11548   5.241   1.840   5.424
 3550SOL    HW111549   5.213   1.934   5.444
 3550SOL    HW211550   5.290   1.838   5.337
 3551SOL     OW11551   3.852   2.166   5.648
 3551SOL    HW111552   3.859   2.218   5.564
 3551SOL    HW211553   3.849   2.228   5.726
 3552SOL     OW11554   6.879   5.835   1.984
 3552SOL    HW111555   6.869   5.915   1.926
 3552SOL    HW211556   6.904   5.756   1.928
 3553SOL     OW11557   4.134   5.935   6.009
 3553SOL    HW111558   4.060   5.929   6.077
 3553SOL    HW211559   4.161   6.031   5.998
 3554SOL     OW11560   4.077   3.775   1.306
 3554SOL    HW111561   4.062   3.781   1.207
 3554SOL    HW211562   4.155   3.715   1.324
 3555SOL     OW11563   1.870   2.386   3.767
 3555SOL    HW111564   1.793   2.404   3.706
 3555SOL    HW211565   1.840   2.324   3.840
 3556SOL     OW11566   4.177   0.964   5.137
 3556SOL    HW111567   4.129   1.040   5.181
 3556SOL    HW211568   4.237   0.920   5.203
 3557SOL     OW11569   0.294   0.829   2.429
 3557SOL    HW111570   0.277   0.811   2.526
 3557SOL    HW211571   0.386   0.798   2.405
 3558SOL     OW11572   3.275   6.459   0.687
 3558SOL    HW111573   3.259   6.428   0.781
 3558SOL    HW211574   3.235   6.550   0.674
 3559SOL     OW11575   3.557   6.312   4.756
 3559SOL    HW111576   3.538   6.337   4.661
 3559SOL    HW211577   3.489   6.247   4.788
 3560SOL     OW11578   1.507   5.531   4.943
 3560SOL    HW111579   1.538   5.494   4.856
 3560SOL    HW211580   1.585   5.565   4.994
 3561SOL     OW11581   4.786   4.492   5.213
 3561SOL    HW111582   4.692   4.525   5.212
 3561SOL    HW211583   4.787   4.394   5.230
 3562SOL     OW11584   2.302   1.537   4.799
 3562SOL    HW111585   2.304   1.598   4.878
 3562SOL    HW211586   2.379   1.473   4.804
 3563SOL     OW11587   5.852   2.226   6.022
 3563SOL    HW111588   5.856   2.293   6.097
 3563SOL    HW211589   5.909   2.147   6.045
 3564SOL     OW11590   0.004   4.374   2.952
 3564SOL    HW111591   7.020   4.322   2.867
 3564SOL    HW211592   0.019   4.312   3.029
 3565SOL     OW11593   3.569   5.311   2.888
 3565SOL    HW111594   3.520   5.225   2.905
 3565SOL    HW211595   3.662   5.290   2.860
 3566SOL     OW11596   6.514   1.405   5.471
 3566SOL    HW111597   6.514   1.368   5.564
 3566SOL    HW211598   6.579   1.480   5.465
 3567SOL     OW11599   0.450   4.375   6.969
 3567SOL    HW111600   0.441   4.317   0.028
 3567SOL    HW211601   0.441   4.318   6.887
 3568SOL     OW11602   6.759   3.551   5.997
 3568SOL    HW111603   6.785   3.545   6.094
 3568SOL    HW211604   6.839   3.578   5.943
 3569SOL     OW11605   2.867   1.736   5.559
 3569SOL    HW111606   2.853   1.835   5.563
 3569SOL    HW211607   2.798   1.690   5.615
 3570SOL     OW11608   5.465   0.793   4.344
 3570SOL    HW111609   5.533   0.853   4.386
 3570SOL    HW211610   5.419   0.841   4.270
 3571SOL     OW11611   6.542   5.958   6.651
 3571SOL    HW111612   6.460   6.009   6.680
 3571SOL    HW211613   6.552   5.964   6.552
 3572SOL     OW11614   5.464   3.446   3.723
 3572SOL    HW111615   5.452   3.509   3.800
 3572SOL    HW211616   5.404   3.474   3.648
 3573SOL     OW11617   0.983   4.445   3.981
 3573SOL    HW111618   1.017   4.477   3.892
 3573SOL    HW211619   1.045   4.475   4.053
 3574SOL     OW11620   0.358   4.893   0.328
 3574SOL    HW111621   0.278   4.841   0.299
 3574SOL    HW211622   0.400   4.850   0.407
 3575SOL     OW11623   5.734   5.332   3.033
 3575SOL    HW111624   5.752   5.245   3.079
 3575SOL    HW211625   5.657   5.377   3.078
 3576SOL     OW11626   1.042   1.402   6.133
 3576SOL    HW111627   0.961   1.417   6.077
 3576SOL    HW211628   1.123   1.428   6.080
 3577SOL     OW11629   0.782   2.502   6.688
 3577SOL    HW111630   0.742   2.481   6.599
 3577SOL    HW211631   0.721   2.470   6.760
 3578SOL     OW11632   3.491   4.172   6.753
 3578SOL    HW111633   3.410   4.206   6.801
 3578SOL    HW211634   3.480   4.186   6.655
 3579SOL     OW11635   6.757   3.548   4.956
 3579SOL    HW111636   6.807   3.602   5.025
 3579SOL    HW211637   6.726   3.462   4.997
 3580SOL     OW11638   5.395   1.995   1.924
 3580SOL    HW111639   5.394   2.073   1.987
 3580SOL    HW211640   5.349   2.021   1.839
 3581SOL     OW11641   6.931   0.003   3.008
 3581SOL    HW111642   0.007   7.009   3.018
 3581SOL    HW211643   6.880   6.950   3.050
 3582SOL     OW11644   1.329   1.627   5.487
 3582SOL    HW111645   1.233   1.618   5.516
 3582SOL    HW211646   1.337   1.605   5.390
 3583SOL     OW11647   0.913   4.685   6.963
 3583SOL    HW111648   0.936   4.720   0.032
 3583SOL    HW211649   0.880   4.591   6.971
 3584SOL     OW11650   6.030   6.372   6.299
 3584SOL    HW111651   6.043   6.374   6.200
 3584SOL    HW211652   6.119   6.382   6.344
 3585SOL     OW11653   3.498   5.367   4.968
 3585SOL    HW111654   3.557   5.317   4.904
 3585SOL    HW211655   3.467   5.304   5.040
 3586SOL     OW11656   6.245   2.614   5.362
 3586SOL    HW111657   6.214   2.520   5.349
 3586SOL    HW211658   6.239   2.639   5.458
 3587SOL     OW11659   2.762   6.926   1.352
 3587SOL    HW111660   2.685   6.864   1.369
 3587SOL    HW211661   2.803   6.952   1.439
 3588SOL     OW11662   1.771   2.269   5.501
 3588SOL    HW111663   1.820   2.231   5.580
 3588SOL    HW211664   1.716   2.347   5.530
 3589SOL     OW11665   3.589   0.884   4.417
 3589SOL    HW111666   3.541   0.865   4.332
 3589SOL    HW211667   3.621   0.978   4.418
 3590SOL     OW11668   1.208   4.688   6.335
 3590SOL    HW111669   1.152   4.605   6.337
 3590SOL    HW211670   1.285   4.678   6.398
 3591SOL     OW11671   5.734   3.009   6.409
 3591SOL    HW111672   5.647   2.962   6.397
 3591SOL    HW211673   5.797   2.982   6.336
 3592SOL     OW11674   5.365   2.668   2.773
 3592SOL    HW111675   5.317   2.725   2.706
 3592SOL    HW211676   5.300   2.638   2.843
 3593SOL     OW11677   2.625   6.405   4.417
 3593SOL    HW111678   2.567   6.474   4.461
 3593SOL    HW211679   2.711   6.398   4.468
 3594SOL     OW11680   2.921   1.098   3.223
 3594SOL    HW111681   2.938   1.019   3.163
 3594SOL    HW211682   2.835   1.085   3.272
 3595SOL     OW11683   2.421   6.336   5.453
 3595SOL    HW111684   2.379   6.357   5.542
 3595SOL    HW211685   2.494   6.402   5.435
 3596SOL     OW11686   6.408   0.910   2.646
 3596SOL    HW111687   6.458   0.891   2.562
 3596SOL    HW211688   6.400   1.009   2.658
 3597SOL     OW11689   3.653   6.204   4.339
 3597SOL    HW111690   3.631   6.224   4.243
 3597SOL    HW211691   3.683   6.109   4.347
 3598SOL     OW11692   0.841   0.919   5.348
 3598SOL    HW111693   0.754   0.967   5.335
 3598SOL    HW211694   0.824   0.829   5.387
 3599SOL     OW11695   0.714   1.825   5.956
 3599SOL    HW111696   0.720   1.920   5.986
 3599SOL    HW211697   0.778   1.769   6.008
 3600SOL     OW11698   6.620   3.040   0.661
 3600SOL    HW111699   6.598   3.138   0.659
 3600SOL    HW211700   6.691   3.023   0.730
 3601SOL     OW11701   0.013   4.155   0.779
 3601SOL    HW111702   0.096   4.138   0.725
 3601SOL    HW211703   6.956   4.118   0.730
 3602SOL     OW11704   2.193   1.089   0.419
 3602SOL    HW111705   2.231   1.091   0.511
 3602SOL    HW211706   2.095   1.068   0.423
 3603SOL     OW11707   3.981   5.706   4.016
 3603SOL    HW111708   3.931   5.620   4.005
 3603SOL    HW211709   4.016   5.712   4.110
 3604SOL     OW11710   6.939   3.077   2.619
 3604SOL    HW111711   6.935   3.097   2.717
 3604SOL    HW211712   6.893   2.990   2.602
 3605SOL     OW11713   6.421   4.519   5.910
 3605SOL    HW111714   6.493   4.454   5.888
 3605SOL    HW211715   6.416   4.532   6.009
 3606SOL     OW11716   0.093   5.036   5.972
 3606SOL    HW111717   0.170   4.977   5.997
 3606SOL    HW211718   0.118   5.132   5.985
 3607SOL     OW11719   5.213   0.368   0.440
 3607SOL    HW111720   5.281   0.317   0.494
 3607SOL    HW211721   5.256   0.451   0.403
 3608SOL     OW11722   6.639   1.483   1.778
 3608SOL    HW111723   6.723   1.505   1.727
 3608SOL    HW211724   6.585   1.418   1.725
 3609SOL     OW11725   6.202   0.945   4.309
 3609SOL    HW111726   6.274   0.996   4.356
 3609SOL    HW211727   6.236   0.912   4.221
 3610SOL     OW11728   0.573   0.230   5.079
 3610SOL    HW111729   0.490   0.280   5.053
 3610SOL    HW211730   0.650   0.261   5.024
 3611SOL     OW11731   3.802   5.142   5.456
 3611SOL    HW111732   3.817   5.162   5.359
 3611SOL    HW211733   3.746   5.060   5.464
 3612SOL     OW11734   0.860   6.339   6.157
 3612SOL    HW111735   0.784   6.392   6.194
 3612SOL    HW211736   0.940   6.398   6.147
 3613SOL     OW11737   5.207   5.145   0.992
 3613SOL    HW111738   5.300   5.176   0.972
 3613SOL    HW211739   5.160   5.213   1.049
 3614SOL     OW11740   3.634   3.460   3.236
 3614SOL    HW111741   3.677   3.421   3.317
 3614SOL    HW211742   3.702   3.515   3.186
 3615SOL     OW11743   5.990   5.932   5.781
 3615SOL    HW111744   5.930   6.007   5.753
 3615SOL    HW211745   5.984   5.858   5.715
 3616SOL     OW11746   6.202   2.381   6.854
 3616SOL    HW111747   6.224   2.342   6.765
 3616SOL    HW211748   6.254   2.333   6.925
 3617SOL     OW11749   5.452   1.802   6.382
 3617SOL    HW111750   5.500   1.715   6.375
 3617SOL    HW211751   5.425   1.819   6.477
 3618SOL     OW11752   1.494   1.880   5.215
 3618SOL    HW111753   1.513   1.965   5.166
 3618SOL    HW211754   1.479   1.900   5.312
 3619SOL     OW11755   5.980   2.154   3.974
 3619SOL    HW111756   6.075   2.159   4.005
 3619SOL    HW211757   5.924   2.217   4.027
 3620SOL     OW11758   5.804   6.599   5.613
 3620SOL    HW111759   5.806   6.588   5.513
 3620SOL    HW211760   5.775   6.513   5.655
 3621SOL     OW11761   2.653   2.522   5.980
 3621SOL    HW111762   2.670   2.560   5.889
 3621SOL    HW211763   2.655   2.422   5.975
 3622SOL     OW11764   1.068   1.949   3.063
 3622SOL    HW111765   1.137   1.965   2.993
 3622SOL    HW211766   0.977   1.946   3.021
 3623SOL     OW11767   6.277   5.323   4.133
 3623SOL    HW111768   6.252   5.353   4.042
 3623SOL    HW211769   6.208   5.353   4.199
 3624SOL     OW11770   1.999   6.051   2.625
 3624SOL    HW111771   1.956   6.142   2.623
 3624SOL    HW211772   1.935   5.984   2.588
 3625SOL     OW11773   6.268   2.862   6.393
 3625SOL    HW111774   6.235   2.794   6.327
 3625SOL    HW211775   6.193   2.893   6.450
 3626SOL     OW11776   2.468   3.472   5.876
 3626SOL    HW111777   2.471   3.469   5.776
 3626SOL    HW211778   2.488   3.565   5.908
 3627SOL     OW11779   3.935   4.000   3.475
 3627SOL    HW111780   4.019   4.051   3.456
 3627SOL    HW211781   3.929   3.982   3.573
 3628SOL     OW11782   1.927   6.839   2.054
 3628SOL    HW111783   1.863   6.779   2.006
 3628SOL    HW211784   1.886   6.870   2.140
 3629SOL     OW11785   6.560   2.028   5.107
 3629SOL    HW111786   6.492   2.101   5.102
 3629SOL    HW211787   6.542   1.960   5.036
 3630SOL     OW11788   5.585   2.633   4.130
 3630SOL    HW111789   5.675   2.651   4.170
 3630SOL    HW211790   5.590   2.642   4.031
 3631SOL     OW11791   2.301   0.342   4.472
 3631SOL    HW111792   2.347   0.395   4.543
 3631SOL    HW211793   2.323   0.380   4.382
 3632SOL     OW11794   4.984   0.771   0.773
 3632SOL    HW111795   4.953   0.853   0.821
 3632SOL    HW211796   4.906   0.710   0.757
 3633SOL     OW11797   3.162   2.346   5.940
 3633SOL    HW111798   3.105   2.376   6.016
 3633SOL    HW211799   3.109   2.349   5.855
 3634SOL     OW11800   0.655   5.641   4.487
 3634SOL    HW111801   0.569   5.614   4.529
 3634SOL    HW211802   0.722   5.662   4.558
 3635SOL     OW11803   3.862   0.396   5.318
 3635SOL    HW111804   3.958   0.370   5.309
 3635SOL    HW211805   3.804   0.331   5.269
 3636SOL     OW11806   0.682   6.068   5.819
 3636SOL    HW111807   0.764   6.046   5.873
 3636SOL    HW211808   0.707   6.072   5.722
 3637SOL     OW11809   6.422   1.659   1.284
 3637SOL    HW111810   6.406   1.757   1.276
 3637SOL    HW211811   6.508   1.644   1.333
 3638SOL     OW11812   6.407   4.714   4.390
 3638SOL    HW111813   6.366   4.646   4.330
 3638SOL    HW211814   6.379   4.806   4.360
 3639SOL     OW11815   4.005   3.704   1.028
 3639SOL    HW111816   4.065   3.763   0.974
 3639SOL    HW211817   3.940   3.658   0.967
 3640SOL     OW11818   3.559   6.421   6.401
 3640SOL    HW111819   3.554   6.481   6.321
 3640SOL    HW211820   3.518   6.333   6.379
 3641SOL     OW11821   4.230   2.187   5.023
 3641SOL    HW111822   4.310   2.199   4.965
 3641SOL    HW211823   4.198   2.277   5.055
 3642SOL     OW11824   4.749   1.738   6.039
 3642SOL    HW111825   4.766   1.810   6.107
 3642SOL    HW211826   4.835   1.696   6.012
 3643SOL     OW11827   2.906   5.624   4.609
 3643SOL    HW111828   2.885   5.552   4.676
 3643SOL    HW211829   2.971   5.589   4.542
 3644SOL     OW11830   6.825   0.991   1.401
 3644SOL    HW111831   6.876   1.002   1.487
 3644SOL    HW211832   6.770   0.908   1.405
 3645SOL     OW11833   5.619   0.964   4.058
 3645SOL    HW111834   5.702   1.019   4.049
 3645SOL    HW211835   5.541   1.025   4.075
 3646SOL     OW11836   0.308   4.938   6.109
 3646SOL    HW111837   0.395   4.895   6.083
 3646SOL    HW211838   0.326   5.030   6.144
 3647SOL     OW11839   1.711   3.954   0.610
 3647SOL    HW111840   1.709   3.880   0.543
 3647SOL    HW211841   1.652   3.931   0.687
 3648SOL     OW11842   3.350   5.754   2.495
 3648SOL    HW111843   3.416   5.776   2.568
 3648SOL    HW211844   3.259   5.783   2.523
 3649SOL     OW11845   4.261   3.203   1.571
 3649SOL    HW111846   4.210   3.122   1.543
 3649SOL    HW211847   4.358   3.181   1.577
 3650SOL     OW11848   6.708   5.599   0.853
 3650SOL    HW111849   6.649   5.657   0.909
 3650SOL    HW211850   6.803   5.630   0.863
 3651SOL     OW11851   0.650   5.774   3.016
 3651SOL    HW111852   0.692   5.786   2.926
 3651SOL    HW211853   0.570   5.833   3.023
 3652SOL     OW11854   5.120   5.984   3.394
 3652SOL    HW111855   5.077   6.068   3.360
 3652SOL    HW211856   5.169   6.004   3.479
 3653SOL     OW11857   6.607   0.484   3.281
 3653SOL    HW111858   6.576   0.558   3.341
 3653SOL    HW211859   6.649   0.412   3.336
 3654SOL     OW11860   2.099   6.752   0.040
 3654SOL    HW111861   2.110   6.852   0.042
 3654SOL    HW211862   2.145   6.715   6.981
 3655SOL     OW11863   1.187   6.927   3.891
 3655SOL    HW111864   1.108   6.906   3.950
 3655SOL    HW211865   1.201   0.004   3.889
 3656SOL     OW11866   1.703   2.951   1.259
 3656SOL    HW111867   1.644   2.881   1.299
 3656SOL    HW211868   1.773   2.977   1.324
 3657SOL     OW11869   5.077   5.758   5.828
 3657SOL    HW111870   5.145   5.817   5.872
 3657SOL    HW211871   5.119   5.672   5.800
 3658SOL     OW11872   1.439   5.109   4.005
 3658SOL    HW111873   1.475   5.141   3.918
 3658SOL    HW211874   1.510   5.113   4.075
 3659SOL     OW11875   3.221   3.803   5.625
 3659SOL    HW111876   3.211   3.893   5.669
 3659SOL    HW211877   3.295   3.753   5.670
 3660SOL     OW11878   5.202   6.344   2.002
 3660SOL    HW111879   5.220   6.435   2.037
 3660SOL    HW211880   5.253   6.276   2.056
 3661SOL     OW11881   4.493   2.395   6.595
 3661SOL    HW111882   4.580   2.430   6.561
 3661SOL    HW211883   4.467   2.314   6.542
 3662SOL     OW11884   3.237   0.849   4.195
 3662SOL    HW111885   3.266   0.789   4.121
 3662SOL    HW211886   3.284   0.824   4.279
 3663SOL     OW11887   1.613   1.241   0.335
 3663SOL    HW111888   1.653   1.247   0.426
 3663SOL    HW211889   1.592   1.146   0.314
 3664SOL     OW11890   5.070   1.932   1.533
 3664SOL    HW111891   4.988   1.942   1.588
 3664SOL    HW211892   5.047   1.945   1.436
 3665SOL     OW11893   0.718   6.172   5.522
 3665SOL    HW111894   0.675   6.154   5.434
 3665SOL    HW211895   0.736   6.270   5.531
 3666SOL     OW11896   2.037   4.288   3.536
 3666SOL    HW111897   2.104   4.223   3.501
 3666SOL    HW211898   2.082   4.353   3.597
 3667SOL     OW11899   6.120   0.154   0.396
 3667SOL    HW111900   6.073   0.126   0.480
 3667SOL    HW211901   6.218   0.162   0.414
 3668SOL     OW11902   1.354   0.361   1.257
 3668SOL    HW111903   1.399   0.274   1.276
 3668SOL    HW211904   1.421   0.435   1.268
 3669SOL     OW11905   5.939   1.311   4.665
 3669SOL    HW111906   5.917   1.297   4.762
 3669SOL    HW211907   5.889   1.244   4.610
 3670SOL     OW11908   2.010   5.125   0.673
 3670SOL    HW111909   2.103   5.138   0.707
 3670SOL    HW211910   1.976   5.036   0.702
 3671SOL     OW11911   6.191   0.613   3.247
 3671SOL    HW111912   6.107   0.560   3.262
 3671SOL    HW211913   6.247   0.568   3.178
 3672SOL     OW11914   5.547   1.606   1.022
 3672SOL    HW111915   5.584   1.599   1.115
 3672SOL    HW211916   5.623   1.614   0.957
 3673SOL     OW11917   3.129   0.558   5.767
 3673SOL    HW111918   3.037   0.594   5.779
 3673SOL    HW211919   3.137   0.470   5.812
 3674SOL     OW11920   0.447   0.615   5.623
 3674SOL    HW111921   0.490   0.650   5.706
 3674SOL    HW211922   0.355   0.581   5.645
 3675SOL     OW11923   1.610   3.057   5.041
 3675SOL    HW111924   1.541   3.129   5.050
 3675SOL    HW211925   1.689   3.079   5.099
 3676SOL     OW11926   4.453   4.911   4.498
 3676SOL    HW111927   4.394   4.859   4.436
 3676SOL    HW211928   4.396   4.969   4.556
 3677SOL     OW11929   1.187   6.023   2.717
 3677SOL    HW111930   1.124   5.974   2.778
 3677SOL    HW211931   1.279   5.984   2.726
 3678SOL     OW11932   0.927   3.156   4.068
 3678SOL    HW111933   0.939   3.254   4.054
 3678SOL    HW211934   1.013   3.115   4.098
 3679SOL     OW11935   1.135   1.183   2.728
 3679SOL    HW111936   1.156   1.264   2.673
 3679SOL    HW211937   1.174   1.193   2.819
 3680SOL     OW11938   6.721   3.155   3.642
 3680SOL    HW111939   6.694   3.093   3.716
 3680SOL    HW211940   6.804   3.204   3.669
 3681SOL     OW11941   0.279   0.417   5.847
 3681SOL    HW111942   0.284   0.433   5.946
 3681SOL    HW211943   0.217   0.483   5.805
 3682SOL     OW11944   6.355   2.440   6.192
 3682SOL    HW111945   6.298   2.365   6.224
 3682SOL    HW211946   6.423   2.405   6.127
 3683SOL     OW11947   0.084   0.321   4.619
 3683SOL    HW111948   0.043   0.399   4.571
 3683SOL    HW211949   0.085   0.242   4.558
 3684SOL     OW11950   1.446   3.524   0.493
 3684SOL    HW111951   1.533   3.550   0.535
 3684SOL    HW211952   1.455   3.433   0.453
 3685SOL     OW11953   6.520   6.151   6.141
 3685SOL    HW111954   6.423   6.173   6.133
 3685SOL    HW211955   6.574   6.231   6.115
 3686SOL     OW11956   6.166   5.202   3.263
 3686SOL    HW111957   6.086   5.205   3.322
 3686SOL    HW211958   6.184   5.293   3.225
 3687SOL     OW11959   2.987   6.069   5.429
 3687SOL    HW111960   3.010   6.077   5.526
 3687SOL    HW211961   3.058   6.113   5.374
 3688SOL     OW11962   1.351   3.891   6.633
 3688SOL    HW111963   1.432   3.875   6.577
 3688SOL    HW211964   1.329   3.808   6.684
 3689SOL     OW11965   1.290   0.841   5.653
 3689SOL    HW111966   1.350   0.910   5.694
 3689SOL    HW211967   1.218   0.818   5.719
 3690SOL     OW11968   3.962   0.079   6.069
 3690SOL    HW111969   3.915   0.048   5.986
 3690SOL    HW211970   3.913   0.046   6.149
 3691SOL     OW11971   2.222   2.839   0.323
 3691SOL    HW111972   2.243   2.869   0.416
 3691SOL    HW211973   2.146   2.893   0.287
 3692SOL     OW11974   0.793   5.917   5.063
 3692SOL    HW111975   0.703   5.873   5.068
 3692SOL    HW211976   0.819   5.930   4.968
 3693SOL     OW11977   1.697   3.232   2.507
 3693SOL    HW111978   1.715   3.271   2.417
 3693SOL    HW211979   1.779   3.184   2.539
 3694SOL     OW11980   0.988   5.125   2.431
 3694SOL    HW111981   0.895   5.097   2.409
 3694SOL    HW211982   0.996   5.224   2.424
 3695SOL     OW11983   0.307   2.592   2.709
 3695SOL    HW111984   0.324   2.601   2.807
 3695SOL    HW211985   0.384   2.633   2.659
 3696SOL     OW11986   4.114   5.548   5.044
 3696SOL    HW111987   4.078   5.606   5.117
 3696SOL    HW211988   4.109   5.452   5.072
 3697SOL     OW11989   6.986   5.366   3.710
 3697SOL    HW111990   6.898   5.346   3.753
 3697SOL    HW211991   0.035   5.375   3.780
 3698SOL     OW11992   3.259   6.490   4.725
 3698SOL    HW111993   3.282   6.550   4.649
 3698SOL    HW211994   3.284   6.396   4.702
 3699SOL     OW11995   6.279   3.952   2.731
 3699SOL    HW111996   6.187   3.989   2.743
 3699SOL    HW211997   6.310   3.971   2.638
 3700SOL     OW11998   6.209   0.512   4.000
 3700SOL    HW111999   6.227   0.454   4.080
 3700SOL    HW212000   6.265   0.595   4.007
 3701SOL     OW12001   0.708   1.112   3.276
 3701SOL    HW112002   0.674   1.173   3.205
 3701SOL    HW212003   0.707   1.159   3.364
 3702SOL     OW12004   4.245   0.433   2.451
 3702SOL    HW112005   4.187   0.513   2.466
 3702SOL    HW212006   4.193   0.364   2.401
 3703SOL     OW12007   4.437   3.364   6.409
 3703SOL    HW112008   4.430   3.360   6.309
 3703SOL    HW212009   4.382   3.291   6.449
 3704SOL     OW12010   2.847   0.636   1.500
 3704SOL    HW112011   2.895   0.554   1.469
 3704SOL    HW212012   2.848   0.640   1.599
 3705SOL     OW12013   5.122   6.324   4.314
 3705SOL    HW112014   5.047   6.267   4.347
 3705SOL    HW212015   5.105   6.419   4.341
 3706SOL     OW12016   0.877   3.060   4.449
 3706SOL    HW112017   0.823   3.021   4.375
 3706SOL    HW212018   0.950   3.116   4.411
 3707SOL     OW12019   5.323   3.948   5.314
 3707SOL    HW112020   5.363   4.040   5.316
 3707SOL    HW212021   5.396   3.880   5.316
 3708SOL     OW12022   6.072   0.860   6.458
 3708SOL    HW112023   6.156   0.873   6.510
 3708SOL    HW212024   6.047   0.946   6.413
 3709SOL     OW12025   3.811   0.660   0.196
 3709SOL    HW112026   3.724   0.675   0.148
 3709SOL    HW212027   3.808   0.705   0.285
 3710SOL     OW12028   6.706   5.745   0.376
 3710SOL    HW112029   6.736   5.651   0.391
 3710SOL    HW212030   6.756   5.807   0.436
 3711SOL     OW12031   6.969   5.780   2.259
 3711SOL    HW112032   6.976   5.836   2.176
 3711SOL    HW212033   0.008   5.817   2.329
 3712SOL     OW12034   6.804   5.923   6.710
 3712SOL    HW112035   6.706   5.941   6.702
 3712SOL    HW212036   6.825   5.891   6.802
 3713SOL     OW12037   1.529   6.364   4.498
 3713SOL    HW112038   1.522   6.383   4.596
 3713SOL    HW212039   1.496   6.272   4.479
 3714SOL     OW12040   4.869   5.984   4.649
 3714SOL    HW112041   4.957   5.958   4.690
 3714SOL    HW212042   4.859   6.083   4.652
 3715SOL     OW12043   5.871   3.634   4.501
 3715SOL    HW112044   5.793   3.618   4.441
 3715SOL    HW212045   5.949   3.664   4.446
 3716SOL     OW12046   6.476   0.101   4.974
 3716SOL    HW112047   6.424   0.103   5.059
 3716SOL    HW212048   6.566   0.143   4.989
 3717SOL     OW12049   6.372   5.569   6.844
 3717SOL    HW112050   6.338   5.478   6.819
 3717SOL    HW212051   6.442   5.560   6.915
 3718SOL     OW12052   2.366   6.803   5.804
 3718SOL    HW112053   2.305   6.876   5.835
 3718SOL    HW212054   2.331   6.765   5.718
 3719SOL     OW12055   4.875   4.653   0.739
 3719SOL    HW112056   4.814   4.604   0.677
 3719SOL    HW212057   4.885   4.748   0.708
 3720SOL     OW12058   5.485   2.185   6.089
 3720SOL    HW112059   5.395   2.186   6.132
 3720SOL    HW212060   5.542   2.116   6.133
 3721SOL     OW12061   5.177   4.943   0.651
 3721SOL    HW112062   5.124   5.025   0.674
 3721SOL    HW212063   5.230   4.914   0.731
 3722SOL     OW12064   0.298   0.152   2.468
 3722SOL    HW112065   0.317   0.250   2.477
 3722SOL    HW212066   0.275   0.132   2.373
 3723SOL     OW12067   6.537   6.297   1.778
 3723SOL    HW112068   6.461   6.302   1.843
 3723SOL    HW212069   6.622   6.280   1.828
 3724SOL     OW12070   2.308   5.302   0.099
 3724SOL    HW112071   2.313   5.396   0.134
 3724SOL    HW212072   2.364   5.295   0.016
 3725SOL     OW12073   4.912   6.306   0.096
 3725SOL    HW112074   4.816   6.312   0.121
 3725SOL    HW212075   4.968   6.302   0.179
 3726SOL     OW12076   6.477   4.932   1.616
 3726SOL    HW112077   6.386   4.897   1.638
 3726SOL    HW212078   6.507   4.897   1.528
 3727SOL     OW12079   0.053   3.015   6.039
 3727SOL    HW112080   0.137   3.025   6.091
 3727SOL    HW212081   6.998   3.050   6.093
 3728SOL     OW12082   1.523   3.851   0.055
 3728SOL    HW112083   1.514   3.929   0.116
 3728SOL    HW212084   1.531   3.883   6.982
 3729SOL     OW12085   1.031   2.210   3.797
 3729SOL    HW112086   1.024   2.275   3.873
 3729SOL    HW212087   1.011   2.257   3.711
 3730SOL     OW12088   2.705   5.779   6.757
 3730SOL    HW112089   2.729   5.708   6.823
 3730SOL    HW212090   2.786   5.834   6.736
 3731SOL     OW12091   4.252   0.251   0.402
 3731SOL    HW112092   4.239   0.156   0.432
 3731SOL    HW212093   4.349   0.275   0.409
 3732SOL     OW12094   1.612   2.924   6.609
 3732SOL    HW112095   1.540   2.855   6.598
 3732SOL    HW212096   1.662   2.906   6.694
 3733SOL     OW12097   1.850   3.691   1.372
 3733SOL    HW112098   1.854   3.592   1.359
 3733SOL    HW212099   1.819   3.734   1.287
 3734SOL     OW12100   4.224   1.796   1.648
 3734SOL    HW112101   4.282   1.831   1.722
 3734SOL    HW212102   4.154   1.737   1.686
 3735SOL     OW12103   1.862   1.854   3.271
 3735SOL    HW112104   1.932   1.787   3.247
 3735SOL    HW212105   1.772   1.810   3.271
 3736SOL     OW12106   0.256   3.123   0.473
 3736SOL    HW112107   0.163   3.088   0.466
 3736SOL    HW212108   0.307   3.068   0.540
 3737SOL     OW12109   5.159   0.414   3.106
 3737SOL    HW112110   5.079   0.357   3.087
 3737SOL    HW212111   5.134   0.511   3.100
 3738SOL     OW12112   6.823   6.472   3.414
 3738SOL    HW112113   6.773   6.410   3.353
 3738SOL    HW212114   6.758   6.528   3.465
 3739SOL     OW12115   1.741   4.385   2.220
 3739SOL    HW112116   1.686   4.343   2.292
 3739SOL    HW212117   1.699   4.366   2.131
 3740SOL     OW12118   4.615   0.145   6.906
 3740SOL    HW112119   4.695   0.196   6.874
 3740SOL    HW212120   4.532   0.190   6.873
 3741SOL     OW12121   4.619   3.448   1.570
 3741SOL    HW112122   4.588   3.362   1.528
 3741SOL    HW212123   4.581   3.525   1.520
 3742SOL     OW12124   2.900   2.012   5.556
 3742SOL    HW112125   2.992   2.010   5.596
 3742SOL    HW212126   2.905   2.039   5.460
 3743SOL     OW12127   5.666   4.608   0.869
 3743SOL    HW112128   5.679   4.526   0.925
 3743SOL    HW212129   5.672   4.689   0.927
 3744SOL     OW12130   0.989   5.554   3.108
 3744SOL    HW112131   1.040   5.514   3.184
 3744SOL    HW212132   0.891   5.541   3.123
 3745SOL     OW12133   3.218   5.530   2.401
 3745SOL    HW112134   3.268   5.613   2.426
 3745SOL    HW212135   3.172   5.494   2.482
 3746SOL     OW12136   4.386   1.501   2.144
 3746SOL    HW112137   4.378   1.440   2.065
 3746SOL    HW212138   4.325   1.579   2.131
 3747SOL     OW12139   3.419   6.933   5.981
 3747SOL    HW112140   3.394   7.015   6.032
 3747SOL    HW212141   3.349   6.911   5.914
 3748SOL     OW12142   5.639   0.346   1.656
 3748SOL    HW112143   5.624   0.440   1.625
 3748SOL    HW212144   5.564   0.319   1.717
 3749SOL     OW12145   1.431   6.558   3.856
 3749SOL    HW112146   1.481   6.526   3.936
 3749SOL    HW212147   1.459   6.507   3.775
 3750SOL     OW12148   1.855   4.076   0.251
 3750SOL    HW112149   1.897   3.987   0.267
 3750SOL    HW212150   1.927   4.145   0.239
 3751SOL     OW12151   6.902   3.798   2.470
 3751SOL    HW112152   6.880   3.700   2.472
 3751SOL    HW212153   6.910   3.828   2.376
 3752SOL     OW12154   4.788   0.830   5.229
 3752SOL    HW112155   4.782   0.785   5.140
 3752SOL    HW212156   4.713   0.798   5.288
 3753SOL     OW12157   5.979   0.432   4.782
 3753SOL    HW112158   5.944   0.340   4.764
 3753SOL    HW212159   6.007   0.474   4.696
 3754SOL     OW12160   2.324   1.176   1.994
 3754SOL    HW112161   2.256   1.211   1.929
 3754SOL    HW212162   2.402   1.141   1.943
 3755SOL     OW12163   3.275   5.635   4.665
 3755SOL    HW112164   3.214   5.558   4.646
 3755SOL    HW212165   3.318   5.624   4.755
 3756SOL     OW12166   3.080   5.519   6.524
 3756SOL    HW112167   2.998   5.541   6.577
 3756SOL    HW212168   3.090   5.420   6.519
 3757SOL     OW12169   0.078   5.067   1.872
 3757SOL    HW112170   0.130   4.983   1.859
 3757SOL    HW212171   7.012   5.045   1.915
 3758SOL     OW12172   2.119   1.518   4.607
 3758SOL    HW112173   2.112   1.424   4.573
 3758SOL    HW212174   2.182   1.521   4.685
 3759SOL     OW12175   4.391   0.637   5.125
 3759SOL    HW112176   4.388   0.702   5.201
 3759SOL    HW212177   4.393   0.687   5.038
 3760SOL     OW12178   0.010   6.942   3.479
 3760SOL    HW112179   0.017   6.982   3.570
 3760SOL    HW212180   0.043   7.008   3.411
 3761SOL     OW12181   6.435   1.086   4.417
 3761SOL    HW112182   6.435   1.156   4.489
 3761SOL    HW212183   6.518   1.094   4.362
 3762SOL     OW12184   1.252   4.059   2.134
 3762SOL    HW112185   1.255   4.015   2.223
 3762SOL    HW212186   1.201   4.145   2.141
 3763SOL     OW12187   6.176   3.780   0.505
 3763SOL    HW112188   6.171   3.880   0.506
 3763SOL    HW212189   6.205   3.749   0.415
 3764SOL     OW12190   1.979   0.577   3.048
 3764SOL    HW112191   1.956   0.592   3.144
 3764SOL    HW212192   2.062   0.520   3.043
 3765SOL     OW12193   6.016   1.840   1.568
 3765SOL    HW112194   6.049   1.852   1.661
 3765SOL    HW212195   6.075   1.891   1.505
 3766SOL     OW12196   2.166   2.523   4.007
 3766SOL    HW112197   2.227   2.588   4.053
 3766SOL    HW212198   2.099   2.573   3.953
 3767SOL     OW12199   3.701   4.297   6.065
 3767SOL    HW112200   3.796   4.313   6.091
 3767SOL    HW212201   3.677   4.201   6.079
 3768SOL     OW12202   1.085   0.623   4.458
 3768SOL    HW112203   1.046   0.707   4.496
 3768SOL    HW212204   1.176   0.641   4.422
 3769SOL     OW12205   5.614   5.350   5.123
 3769SOL    HW112206   5.645   5.415   5.192
 3769SOL    HW212207   5.517   5.329   5.137
 3770SOL     OW12208   1.159   1.434   6.850
 3770SOL    HW112209   1.175   1.533   6.855
 3770SOL    HW212210   1.219   1.388   6.916
 3771SOL     OW12211   6.011   5.089   0.391
 3771SOL    HW112212   5.960   5.172   0.415
 3771SOL    HW212213   5.954   5.009   0.409
 3772SOL     OW12214   1.402   6.565   0.270
 3772SOL    HW112215   1.328   6.631   0.259
 3772SOL    HW212216   1.477   6.589   0.208
 3773SOL     OW12217   5.312   3.983   5.710
 3773SOL    HW112218   5.234   4.045   5.721
 3773SOL    HW212219   5.395   4.027   5.746
 3774SOL     OW12220   5.895   4.846   1.701
 3774SOL    HW112221   5.841   4.830   1.618
 3774SOL    HW212222   5.834   4.848   1.780
 3775SOL     OW12223   4.055   4.806   3.837
 3775SOL    HW112224   4.103   4.864   3.772
 3775SOL    HW212225   4.112   4.727   3.860
 3776SOL     OW12226   3.540   2.798   6.176
 3776SOL    HW112227   3.614   2.856   6.208
 3776SOL    HW212228   3.452   2.835   6.208
 3777SOL     OW12229   2.533   6.036   3.193
 3777SOL    HW112230   2.487   6.094   3.260
 3777SOL    HW212231   2.467   5.971   3.154
 3778SOL     OW12232   1.766   6.426   4.344
 3778SOL    HW112233   1.678   6.418   4.390
 3778SOL    HW212234   1.823   6.347   4.367
 3779SOL     OW12235   0.294   5.170   0.605
 3779SOL    HW112236   0.389   5.149   0.581
 3779SOL    HW212237   0.289   5.259   0.650
 3780SOL     OW12238   0.379   2.784   3.011
 3780SOL    HW112239   0.376   2.860   2.946
 3780SOL    HW212240   0.471   2.778   3.050
 3781SOL     OW12241   0.647   6.709   4.860
 3781SOL    HW112242   0.584   6.666   4.795
 3781SOL    HW212243   0.618   6.688   4.953
 3782SOL     OW12244   3.722   6.460   2.389
 3782SOL    HW112245   3.726   6.551   2.349
 3782SOL    HW212246   3.629   6.425   2.384
 3783SOL     OW12247   5.536   4.974   4.996
 3783SOL    HW112248   5.483   4.905   5.046
 3783SOL    HW212249   5.549   4.944   4.901
 3784SOL     OW12250   5.417   2.631   2.205
 3784SOL    HW112251   5.483   2.556   2.208
 3784SOL    HW212252   5.325   2.595   2.219
 3785SOL     OW12253   0.760   3.233   5.116
 3785SOL    HW112254   0.719   3.306   5.061
 3785SOL    HW212255   0.844   3.202   5.072
 3786SOL     OW12256   2.025   2.626   3.104
 3786SOL    HW112257   1.965   2.705   3.097
 3786SOL    HW212258   2.071   2.610   3.017
 3787SOL     OW12259   4.883   0.396   3.155
 3787SOL    HW112260   4.928   0.429   3.238
 3787SOL    HW212261   4.784   0.406   3.164
 3788SOL     OW12262   6.442   4.516   5.079
 3788SOL    HW112263   6.378   4.444   5.050
 3788SOL    HW212264   6.536   4.479   5.075
 3789SOL     OW12265   0.255   3.258   2.854
 3789SOL    HW112266   0.211   3.203   2.925
 3789SOL    HW212267   0.214   3.236   2.765
 3790SOL     OW12268   1.165   5.656   6.702
 3790SOL    HW112269   1.086   5.717   6.695
 3790SOL    HW212270   1.235   5.684   6.637
 3791SOL     OW12271   5.343   1.813   6.653
 3791SOL    HW112272   5.368   1.786   6.746
 3791SOL    HW212273   5.252   1.778   6.631
 3792SOL     OW12274   1.262   1.355   4.425
 3792SOL    HW112275   1.322   1.360   4.345
 3792SOL    HW212276   1.195   1.429   4.420
 3793SOL     OW12277   5.358   6.424   1.239
 3793SOL    HW112278   5.433   6.422   1.172
 3793SOL    HW212279   5.384   6.484   1.315
 3794SOL     OW12280   2.279   2.850   1.489
 3794SOL    HW112281   2.256   2.845   1.586
 3794SOL    HW212282   2.293   2.757   1.454
 3795SOL     OW12283   3.336   5.584   0.898
 3795SOL    HW112284   3.255   5.533   0.927
 3795SOL    HW212285   3.364   5.554   0.807
 3796SOL     OW12286   4.316   1.977   1.100
 3796SOL    HW112287   4.367   2.056   1.066
 3796SOL    HW212288   4.366   1.893   1.077
 3797SOL     OW12289   1.098   3.601   3.099
 3797SOL    HW112290   1.039   3.631   3.024
 3797SOL    HW212291   1.072   3.649   3.183
 3798SOL     OW12292   2.718   6.530   2.281
 3798SOL    HW112293   2.755   6.439   2.302
 3798SOL    HW212294   2.619   6.523   2.267
 3799SOL     OW12295   6.999   2.594   3.634
 3799SOL    HW112296   7.008   2.563   3.539
 3799SOL    HW212297   6.944   2.528   3.685
 3800SOL     OW12298   4.905   1.857   3.521
 3800SOL    HW112299   4.989   1.908   3.501
 3800SOL    HW212300   4.839   1.871   3.447
 3801SOL     OW12301   5.272   0.048   1.790
 3801SOL    HW112302   5.211   0.087   1.859
 3801SOL    HW212303   5.302   6.980   1.820
 3802SOL     OW12304   0.448   1.813   2.679
 3802SOL    HW112305   0.426   1.761   2.761
 3802SOL    HW212306   0.511   1.760   2.622
 3803SOL     OW12307   3.532   3.663   3.991
 3803SOL    HW112308   3.469   3.711   4.052
 3803SOL    HW212309   3.498   3.667   3.898
 3804SOL     OW12310   2.918   1.795   4.132
 3804SOL    HW112311   2.830   1.798   4.179
 3804SOL    HW212312   2.945   1.887   4.104
 3805SOL     OW12313   1.749   2.527   1.687
 3805SOL    HW112314   1.820   2.571   1.632
 3805SOL    HW212315   1.782   2.437   1.718
 3806SOL     OW12316   3.828   3.665   6.579
 3806SOL    HW112317   3.829   3.592   6.646
 3806SOL    HW212318   3.900   3.731   6.601
 3807SOL     OW12319   1.431   4.803   4.826
 3807SOL    HW112320   1.401   4.810   4.921
 3807SOL    HW212321   1.366   4.852   4.767
 3808SOL     OW12322   5.148   0.068   5.812
 3808SOL    HW112323   5.216   0.088   5.883
 3808SOL    HW212324   5.056   0.083   5.848
 3809SOL     OW12325   5.937   2.094   1.997
 3809SOL    HW112326   5.911   1.999   2.016
 3809SOL    HW212327   6.036   2.098   1.980
 3810SOL     OW12328   6.971   2.385   3.170
 3810SOL    HW112329   6.931   2.295   3.190
 3810SOL    HW212330   7.002   2.427   3.255
 3811SOL     OW12331   0.202   6.012   4.426
 3811SOL    HW112332   0.199   5.915   4.453
 3811SOL    HW212333   0.111   6.041   4.396
 3812SOL     OW12334   2.997   5.348   6.139
 3812SOL    HW112335   2.926   5.386   6.198
 3812SOL    HW212336   3.033   5.421   6.080
 3813SOL     OW12337   5.847   3.991   1.012
 3813SOL    HW112338   5.889   3.966   0.924
 3813SOL    HW212339   5.889   3.938   1.085
 3814SOL     OW12340   0.133   6.941   4.007
 3814SOL    HW112341   0.106   6.979   3.919
 3814SOL    HW212342   0.127   6.841   4.004
 3815SOL     OW12343   4.914   2.488   1.220
 3815SOL    HW112344   4.995   2.546   1.206
 3815SOL    HW212345   4.850   2.502   1.144
 3816SOL     OW12346   0.937   5.369   4.732
 3816SOL    HW112347   0.874   5.412   4.668
 3816SOL    HW212348   0.887   5.305   4.790
 3817SOL     OW12349   4.918   3.618   2.440
 3817SOL    HW112350   4.934   3.540   2.501
 3817SOL    HW212351   4.898   3.699   2.495
 3818SOL     OW12352   0.232   0.750   1.085
 3818SOL    HW112353   0.163   0.767   1.156
 3818SOL    HW212354   0.295   0.678   1.116
 3819SOL     OW12355   6.257   4.425   2.567
 3819SOL    HW112356   6.316   4.388   2.639
 3819SOL    HW212357   6.176   4.367   2.557
 3820SOL     OW12358   5.622   6.294   3.742
 3820SOL    HW112359   5.588   6.264   3.831
 3820SOL    HW212360   5.548   6.290   3.675
 3821SOL     OW12361   1.186   0.518   1.111
 3821SOL    HW112362   1.221   0.444   1.169
 3821SOL    HW212363   1.239   0.521   1.026
 3822SOL     OW12364   2.715   0.308   6.433
 3822SOL    HW112365   2.695   0.214   6.463
 3822SOL    HW212366   2.780   0.305   6.357
 3823SOL     OW12367   4.626   4.294   6.463
 3823SOL    HW112368   4.701   4.358   6.478
 3823SOL    HW212369   4.595   4.299   6.368
 3824SOL     OW12370   0.768   2.456   0.844
 3824SOL    HW112371   0.799   2.536   0.895
 3824SOL    HW212372   0.847   2.407   0.807
 3825SOL     OW12373   0.903   4.074   0.882
 3825SOL    HW112374   0.943   4.081   0.973
 3825SOL    HW212375   0.844   3.994   0.878
 3826SOL     OW12376   6.847   3.673   1.740
 3826SOL    HW112377   6.943   3.647   1.730
 3826SOL    HW212378   6.841   3.762   1.784
 3827SOL     OW12379   0.644   0.531   1.191
 3827SOL    HW112380   0.659   0.494   1.282
 3827SOL    HW212381   0.723   0.512   1.133
 3828SOL     OW12382   3.402   3.892   4.775
 3828SOL    HW112383   3.490   3.933   4.753
 3828SOL    HW212384   3.368   3.931   4.860
 3829SOL     OW12385   0.259   5.025   2.127
 3829SOL    HW112386   0.337   5.080   2.096
 3829SOL    HW212387   0.252   4.943   2.071
 3830SOL     OW12388   0.338   1.175   5.556
 3830SOL    HW112389   0.260   1.213   5.605
 3830SOL    HW212390   0.347   1.219   5.467
 3831SOL     OW12391   4.080   2.222   2.937
 3831SOL    HW112392   4.132   2.136   2.941
 3831SOL    HW212393   4.141   2.297   2.912
 3832SOL     OW12394   6.759   0.544   2.877
 3832SOL    HW112395   6.779   0.447   2.896
 3832SOL    HW212396   6.720   0.553   2.786
 3833SOL     OW12397   1.043   6.790   6.405
 3833SOL    HW112398   1.119   6.783   6.470
 3833SOL    HW212399   1.013   6.885   6.399
 3834SOL     OW12400   4.133   4.210   0.931
 3834SOL    HW112401   4.088   4.125   0.904
 3834SOL    HW212402   4.086   4.288   0.889
 3835SOL     OW12403   3.933   5.840   5.168
 3835SOL    HW112404   3.944   5.760   5.227
 3835SOL    HW212405   3.842   5.840   5.127
 3836SOL     OW12406   0.574   4.964   5.725
 3836SOL    HW112407   0.512   4.909   5.781
 3836SOL    HW212408   0.523   5.039   5.684
 3837SOL     OW12409   4.159   5.290   5.150
 3837SOL    HW112410   4.153   5.314   5.246
 3837SOL    HW212411   4.213   5.206   5.140
 3838SOL     OW12412   1.659   2.282   3.187
 3838SOL    HW112413   1.686   2.207   3.248
 3838SOL    HW212414   1.632   2.361   3.242
 3839SOL     OW12415   4.445   1.324   2.857
 3839SOL    HW112416   4.425   1.408   2.908
 3839SOL    HW212417   4.369   1.260   2.868
 3840SOL     OW12418   3.284   1.940   6.523
 3840SOL    HW112419   3.206   1.976   6.573
 3840SOL    HW212420   3.322   2.012   6.464
 3841SOL     OW12421   0.994   3.870   4.823
 3841SOL    HW112422   0.994   3.918   4.735
 3841SOL    HW212423   0.995   3.937   4.898
 3842SOL     OW12424   2.389   2.620   3.766
 3842SOL    HW112425   2.302   2.588   3.729
 3842SOL    HW212426   2.379   2.644   3.862
 3843SOL     OW12427   5.383   3.121   1.317
 3843SOL    HW112428   5.289   3.152   1.316
 3843SOL    HW212429   5.403   3.077   1.404
 3844SOL     OW12430   1.555   3.730   6.493
 3844SOL    HW112431   1.649   3.737   6.459
 3844SOL    HW212432   1.502   3.672   6.431
 3845SOL     OW12433   2.852   5.647   6.051
 3845SOL    HW112434   2.926   5.600   6.002
 3845SOL    HW212435   2.891   5.720   6.108
 3846SOL     OW12436   1.051   3.952   3.953
 3846SOL    HW112437   1.136   3.901   3.944
 3846SOL    HW212438   1.066   4.047   3.923
 3847SOL     OW12439   5.119   2.684   4.746
 3847SOL    HW112440   5.042   2.737   4.782
 3847SOL    HW212441   5.131   2.705   4.649
 3848SOL     OW12442   4.786   4.062   2.291
 3848SOL    HW112443   4.781   4.020   2.201
 3848SOL    HW212444   4.803   3.992   2.361
 3849SOL     OW12445   0.907   1.055   6.003
 3849SOL    HW112446   0.874   0.992   5.932
 3849SOL    HW212447   0.924   1.144   5.962
 3850SOL     OW12448   2.966   3.281   1.951
 3850SOL    HW112449   2.927   3.371   1.932
 3850SOL    HW212450   3.001   3.241   1.867
 3851SOL     OW12451   6.731   4.670   3.317
 3851SOL    HW112452   6.805   4.710   3.263
 3851SOL    HW212453   6.643   4.685   3.270
 3852SOL     OW12454   3.295   5.814   3.706
 3852SOL    HW112455   3.386   5.856   3.707
 3852SOL    HW212456   3.230   5.873   3.754
 3853SOL     OW12457   1.195   3.194   3.486
 3853SOL    HW112458   1.257   3.157   3.418
 3853SOL    HW212459   1.191   3.294   3.477
 3854SOL     OW12460   0.963   2.449   2.664
 3854SOL    HW112461   1.036   2.491   2.718
 3854SOL    HW212462   0.886   2.427   2.724
 3855SOL     OW12463   4.576   6.118   6.615
 3855SOL    HW112464   4.612   6.027   6.592
 3855SOL    HW212465   4.521   6.151   6.538
 3856SOL     OW12466   0.477   1.443   6.183
 3856SOL    HW112467   0.511   1.349   6.177
 3856SOL    HW212468   0.547   1.501   6.224
 3857SOL     OW12469   1.037   6.418   6.976
 3857SOL    HW112470   1.003   6.502   6.933
 3857SOL    HW212471   0.966   6.348   6.972
 3858SOL     OW12472   3.672   1.282   5.902
 3858SOL    HW112473   3.619   1.342   5.961
 3858SOL    HW212474   3.741   1.233   5.956
 3859SOL     OW12475   6.369   1.064   1.861
 3859SOL    HW112476   6.330   0.974   1.840
 3859SOL    HW212477   6.365   1.080   1.959
 3860SOL     OW12478   1.888   1.231   4.164
 3860SOL    HW112479   1.808   1.271   4.119
 3860SOL    HW212480   1.862   1.196   4.254
 3861SOL     OW12481   4.610   5.539   3.422
 3861SOL    HW112482   4.547   5.590   3.481
 3861SOL    HW212483   4.704   5.559   3.449
 3862SOL     OW12484   0.110   0.726   4.428
 3862SOL    HW112485   0.131   0.743   4.524
 3862SOL    HW212486   0.094   0.628   4.414
 3863SOL     OW12487   6.033   2.052   0.047
 3863SOL    HW112488   6.064   2.121   0.113
 3863SOL    HW212489   5.968   1.990   0.092
 3864SOL     OW12490   2.440   0.475   5.207
 3864SOL    HW112491   2.364   0.486   5.143
 3864SOL    HW212492   2.438   0.383   5.246
 3865SOL     OW12493   4.037   1.171   0.982
 3865SOL    HW112494   4.015   1.088   1.033
 3865SOL    HW212495   3.955   1.229   0.975
 3866SOL     OW12496   3.894   0.394   0.171
 3866SOL    HW112497   3.887   0.346   0.258
 3866SOL    HW212498   3.864   0.489   0.182
 3867SOL     OW12499   0.869   4.491   3.377
 3867SOL    HW112500   0.948   4.540   3.412
 3867SOL    HW212501   0.791   4.554   3.371
 3868SOL     OW12502   3.559   0.259   0.374
 3868SOL    HW112503   3.627   0.206   0.424
 3868SOL    HW212504   3.567   0.239   0.276
 3869SOL     OW12505   6.543   2.769   4.125
 3869SOL    HW112506   6.621   2.826   4.152
 3869SOL    HW212507   6.511   2.717   4.203
 3870SOL     OW12508   0.119   6.361   0.943
 3870SOL    HW112509   0.120   6.350   0.844
 3870SOL    HW212510   0.106   6.458   0.965
 3871SOL     OW12511   3.490   0.813   3.289
 3871SOL    HW112512   3.483   0.908   3.257
 3871SOL    HW212513   3.408   0.763   3.265
 3872SOL     OW12514   3.303   3.084   4.576
 3872SOL    HW112515   3.324   3.032   4.659
 3872SOL    HW212516   3.210   3.119   4.580
 3873SOL     OW12517   5.761   3.848   1.395
 3873SOL    HW112518   5.849   3.895   1.392
 3873SOL    HW212519   5.688   3.913   1.418
 3874SOL     OW12520   4.364   6.993   0.231
 3874SOL    HW112521   4.353   7.003   0.132
 3874SOL    HW212522   4.441   6.933   0.250
 3875SOL     OW12523   2.129   3.357   3.371
 3875SOL    HW112524   2.168   3.287   3.310
 3875SOL    HW212525   2.103   3.437   3.317
 3876SOL     OW12526   3.931   5.269   1.152
 3876SOL    HW112527   3.980   5.204   1.209
 3876SOL    HW212528   3.901   5.346   1.208
 3877SOL     OW12529   5.976   2.468   1.573
 3877SOL    HW112530   5.987   2.372   1.547
 3877SOL    HW212531   5.880   2.487   1.592
 3878SOL     OW12532   4.310   6.449   4.731
 3878SOL    HW112533   4.352   6.413   4.647
 3878SOL    HW212534   4.364   6.524   4.767
 3879SOL     OW12535   6.232   5.397   1.095
 3879SOL    HW112536   6.311   5.439   1.141
 3879SOL    HW212537   6.168   5.362   1.163
 3880SOL     OW12538   5.134   4.233   4.660
 3880SOL    HW112539   5.063   4.264   4.597
 3880SOL    HW212540   5.167   4.310   4.714
 3881SOL     OW12541   1.073   3.454   1.466
 3881SOL    HW112542   1.069   3.480   1.563
 3881SOL    HW212543   1.050   3.358   1.456
 3882SOL     OW12544   0.808   1.467   5.762
 3882SOL    HW112545   0.764   1.555   5.740
 3882SOL    HW212546   0.788   1.443   5.857
 3883SOL     OW12547   4.004   1.259   2.175
 3883SOL    HW112548   4.023   1.273   2.078
 3883SOL    HW212549   3.926   1.196   2.184
 3884SOL     OW12550   0.894   6.198   2.352
 3884SOL    HW112551   0.802   6.161   2.361
 3884SOL    HW212552   0.961   6.126   2.369
 3885SOL     OW12553   6.297   5.483   2.725
 3885SOL    HW112554   6.269   5.447   2.815
 3885SOL    HW212555   6.394   5.506   2.727
 3886SOL     OW12556   5.052   5.764   5.030
 3886SOL    HW112557   4.966   5.767   4.979
 3886SOL    HW212558   5.127   5.743   4.968
 3887SOL     OW12559   1.432   0.459   6.856
 3887SOL    HW112560   1.441   0.470   6.955
 3887SOL    HW212561   1.352   0.510   6.824
 3888SOL     OW12562   6.865   0.330   5.383
 3888SOL    HW112563   6.809   0.306   5.462
 3888SOL    HW212564   6.832   0.416   5.344
 3889SOL     OW12565   6.772   4.049   0.272
 3889SOL    HW112566   6.679   4.071   0.300
 3889SOL    HW212567   6.769   3.997   0.187
 3890SOL     OW12568   6.408   4.541   2.949
 3890SOL    HW112569   6.411   4.484   3.031
 3890SOL    HW212570   6.345   4.617   2.963
 3891SOL     OW12571   5.343   3.627   4.197
 3891SOL    HW112572   5.322   3.580   4.282
 3891SOL    HW212573   5.284   3.708   4.188
 3892SOL     OW12574   6.922   1.587   1.348
 3892SOL    HW112575   6.963   1.598   1.439
 3892SOL    HW212576   6.993   1.569   1.281
 3893SOL     OW12577   4.318   4.223   0.155
 3893SOL    HW112578   4.384   4.170   0.103
 3893SOL    HW212579   4.302   4.178   0.243
 3894SOL     OW12580   4.080   0.893   0.518
 3894SOL    HW112581   4.114   0.921   0.428
 3894SOL    HW212582   4.129   0.943   0.589
 3895SOL     OW12583   1.794   0.528   5.715
 3895SOL    HW112584   1.834   0.619   5.716
 3895SOL    HW212585   1.695   0.534   5.713
 3896SOL     OW12586   0.066   1.023   5.087
 3896SOL    HW112587   7.012   1.012   5.023
 3896SOL    HW212588   0.128   0.945   5.079
 3897SOL     OW12589   3.641   6.227   2.741
 3897SOL    HW112590   3.562   6.206   2.684
 3897SOL    HW212591   3.647   6.326   2.756
 3898SOL     OW12592   2.569   3.053   6.013
 3898SOL    HW112593   2.625   2.994   5.955
 3898SOL    HW212594   2.616   3.141   6.026
 3899SOL     OW12595   4.538   6.636   5.245
 3899SOL    HW112596   4.460   6.687   5.209
 3899SOL    HW212597   4.621   6.692   5.239
 3900SOL     OW12598   4.752   2.879   3.666
 3900SOL    HW112599   4.724   2.820   3.590
 3900SOL    HW212600   4.732   2.833   3.753
 3901SOL     OW12601   2.783   0.641   5.394
 3901SOL    HW112602   2.726   0.678   5.320
 3901SOL    HW212603   2.768   0.694   5.477
 3902SOL     OW12604   5.898   3.119   1.583
 3902SOL    HW112605   5.822   3.058   1.605
 3902SOL    HW212606   5.906   3.128   1.484
 3903SOL     OW12607   3.957   5.928   6.206
 3903SOL    HW112608   3.866   5.920   6.246
 3903SOL    HW212609   4.019   5.972   6.272
 3904SOL     OW12610   2.912   1.439   5.329
 3904SOL    HW112611   2.931   1.486   5.243
 3904SOL    HW212612   2.977   1.364   5.342
 3905SOL     OW12613   0.652   0.264   6.870
 3905SOL    HW112614   0.616   0.238   6.960
 3905SOL    HW212615   0.691   0.184   6.825
 3906SOL     OW12616   5.690   6.202   5.413
 3906SOL    HW112617   5.664   6.251   5.496
 3906SOL    HW212618   5.762   6.137   5.434
 3907SOL     OW12619   5.507   0.851   3.649
 3907SOL    HW112620   5.541   0.803   3.568
 3907SOL    HW212621   5.563   0.828   3.728
 3908SOL     OW12622   1.394   2.240   0.415
 3908SOL    HW112623   1.401   2.259   0.317
 3908SOL    HW212624   1.313   2.285   0.452
 3909SOL     OW12625   6.831   5.936   5.472
 3909SOL    HW112626   6.734   5.923   5.495
 3909SOL    HW212627   6.888   5.888   5.539
 3910SOL     OW12628   3.598   3.167   2.658
 3910SOL    HW112629   3.529   3.137   2.592
 3910SOL    HW212630   3.575   3.133   2.749
 3911SOL     OW12631   4.512   1.746   6.320
 3911SOL    HW112632   4.561   1.833   6.311
 3911SOL    HW212633   4.562   1.685   6.381
 3912SOL     OW12634   4.566   0.458   5.276
 3912SOL    HW112635   4.558   0.470   5.375
 3912SOL    HW212636   4.517   0.533   5.230
 3913SOL     OW12637   1.904   6.814   6.386
 3913SOL    HW112638   1.872   6.906   6.410
 3913SOL    HW212639   1.884   6.751   6.460
 3914SOL     OW12640   3.098   0.840   0.810
 3914SOL    HW112641   2.999   0.840   0.801
 3914SOL    HW212642   3.139   0.884   0.730
 3915SOL     OW12643   4.210   5.156   2.016
 3915SOL    HW112644   4.150   5.235   2.008
 3915SOL    HW212645   4.245   5.150   2.110
 3916SOL     OW12646   1.539   6.902   4.123
 3916SOL    HW112647   1.572   6.962   4.196
 3916SOL    HW212648   1.498   6.820   4.163
 3917SOL     OW12649   6.415   5.859   0.297
 3917SOL    HW112650   6.347   5.912   0.347
 3917SOL    HW212651   6.506   5.878   0.334
 3918SOL     OW12652   4.907   6.425   1.585
 3918SOL    HW112653   4.916   6.513   1.632
 3918SOL    HW212654   4.811   6.400   1.579
 3919SOL     OW12655   2.365   6.432   6.425
 3919SOL    HW112656   2.448   6.480   6.398
 3919SOL    HW212657   2.335   6.372   6.351
 3920SOL     OW12658   3.668   2.747   0.748
 3920SOL    HW112659   3.634   2.698   0.668
 3920SOL    HW212660   3.608   2.728   0.826
 3921SOL     OW12661   0.447   3.167   1.150
 3921SOL    HW112662   0.435   3.169   1.249
 3921SOL    HW212663   0.506   3.089   1.126
 3922SOL     OW12664   6.169   3.742   1.818
 3922SOL    HW112665   6.090   3.742   1.757
 3922SOL    HW212666   6.205   3.835   1.826
 3923SOL     OW12667   6.250   1.854   6.719
 3923SOL    HW112668   6.321   1.853   6.648
 3923SOL    HW212669   6.243   1.945   6.758
 3924SOL     OW12670   0.275   4.775   3.577
 3924SOL    HW112671   0.335   4.840   3.531
 3924SOL    HW212672   0.237   4.818   3.659
 3925SOL     OW12673   3.228   5.137   1.021
 3925SOL    HW112674   3.142   5.103   0.983
 3925SOL    HW212675   3.221   5.139   1.121
 3926SOL     OW12676   0.038   5.847   3.527
 3926SOL    HW112677   0.123   5.872   3.574
 3926SOL    HW212678   0.059   5.797   3.444
 3927SOL     OW12679   6.663   2.817   3.609
 3927SOL    HW112680   6.696   2.887   3.547
 3927SOL    HW212681   6.738   2.755   3.633
 3928SOL     OW12682   3.511   6.291   5.435
 3928SOL    HW112683   3.535   6.220   5.368
 3928SOL    HW212684   3.412   6.287   5.453
 3929SOL     OW12685   6.915   1.106   5.560
 3929SOL    HW112686   6.901   1.023   5.615
 3929SOL    HW212687   6.960   1.082   5.474
 3930SOL     OW12688   2.436   1.744   3.413
 3930SOL    HW112689   2.442   1.686   3.495
 3930SOL    HW212690   2.476   1.833   3.433
 3931SOL     OW12691   1.852   1.302   1.711
 3931SOL    HW112692   1.860   1.397   1.739
 3931SOL    HW212693   1.876   1.293   1.614
 3932SOL     OW12694   1.697   4.335   3.275
 3932SOL    HW112695   1.788   4.363   3.247
 3932SOL    HW212696   1.637   4.332   3.194
 3933SOL     OW12697   1.997   6.344   6.927
 3933SOL    HW112698   2.061   6.281   6.972
 3933SOL    HW212699   1.930   6.292   6.875
 3934SOL     OW12700   6.708   1.473   0.412
 3934SOL    HW112701   6.768   1.551   0.432
 3934SOL    HW212702   6.763   1.395   0.384
 3935SOL     OW12703   2.778   6.887   6.860
 3935SOL    HW112704   2.744   6.818   6.796
 3935SOL    HW212705   2.841   6.845   6.924
 3936SOL     OW12706   0.369   4.945   5.347
 3936SOL    HW112707   0.373   4.848   5.325
 3936SOL    HW212708   0.456   4.974   5.386
 3937SOL     OW12709   6.633   1.134   3.107
 3937SOL    HW112710   6.674   1.086   3.030
 3937SOL    HW212711   6.705   1.166   3.168
 3938SOL     OW12712   0.446   1.374   3.781
 3938SOL    HW112713   0.480   1.441   3.847
 3938SOL    HW212714   0.440   1.417   3.691
 3939SOL     OW12715   2.400   1.839   2.511
 3939SOL    HW112716   2.458   1.896   2.453
 3939SOL    HW212717   2.304   1.852   2.487
 3940SOL     OW12718   4.694   5.552   1.562
 3940SOL    HW112719   4.744   5.544   1.649
 3940SOL    HW212720   4.659   5.645   1.552
 3941SOL     OW12721   4.372   2.890   6.436
 3941SOL    HW112722   4.467   2.888   6.407
 3941SOL    HW212723   4.331   2.799   6.426
 3942SOL     OW12724   0.044   0.139   0.129
 3942SOL    HW112725   0.083   0.190   0.053
 3942SOL    HW212726   6.969   0.161   0.140
 3943SOL     OW12727   6.919   3.727   3.027
 3943SOL    HW112728   7.000   3.759   3.075
 3943SOL    HW212729   6.902   3.784   2.947
 3944SOL     OW12730   5.184   2.985   5.181
 3944SOL    HW112731   5.128   3.065   5.203
 3944SOL    HW212732   5.215   2.942   5.266
 3945SOL     OW12733   0.199   1.715   1.453
 3945SOL    HW112734   0.297   1.693   1.448
 3945SOL    HW212735   0.146   1.632   1.436
 3946SOL     OW12736   5.821   6.148   5.798
 3946SOL    HW112737   5.745   6.095   5.761
 3946SOL    HW212738   5.786   6.211   5.868
 3947SOL     OW12739   5.926   5.721   0.818
 3947SOL    HW112740   5.865   5.677   0.752
 3947SOL    HW212741   5.910   5.681   0.909
 3948SOL     OW12742   1.421   5.954   1.734
 3948SOL    HW112743   1.477   5.893   1.677
 3948SOL    HW212744   1.325   5.940   1.711
 3949SOL     OW12745   5.042   0.179   3.342
 3949SOL    HW112746   4.951   0.217   3.357
 3949SOL    HW212747   5.102   0.206   3.417
 3950SOL     OW12748   1.653   4.110   1.379
 3950SOL    HW112749   1.575   4.115   1.318
 3950SOL    HW212750   1.724   4.173   1.347
 3951SOL     OW12751   6.033   6.238   0.616
 3951SOL    HW112752   5.956   6.280   0.568
 3951SOL    HW212753   6.019   6.245   0.715
 3952SOL     OW12754   6.218   3.549   2.929
 3952SOL    HW112755   6.263   3.563   2.841
 3952SOL    HW212756   6.287   3.542   3.001
 3953SOL     OW12757   4.098   4.602   1.650
 3953SOL    HW112758   4.139   4.512   1.660
 3953SOL    HW212759   4.124   4.641   1.561
 3954SOL     OW12760   4.669   4.860   5.085
 3954SOL    HW112761   4.693   4.813   5.000
 3954SOL    HW212762   4.570   4.866   5.093
 3955SOL     OW12763   3.195   5.757   6.229
 3955SOL    HW112764   3.230   5.673   6.271
 3955SOL    HW212765   3.265   5.795   6.169
 3956SOL     OW12766   6.913   0.678   3.735
 3956SOL    HW112767   7.002   0.635   3.718
 3956SOL    HW212768   6.844   0.634   3.678
 3957SOL     OW12769   4.463   6.315   3.796
 3957SOL    HW112770   4.433   6.227   3.760
 3957SOL    HW212771   4.547   6.302   3.849
 3958SOL     OW12772   5.745   0.562   4.811
 3958SOL    HW112773   5.710   0.566   4.717
 3958SOL    HW212774   5.828   0.506   4.814
 3959SOL     OW12775   4.309   6.087   0.730
 3959SOL    HW112776   4.255   6.105   0.812
 3959SOL    HW212777   4.276   6.144   0.655
 3960SOL     OW12778   4.526   1.462   6.663
 3960SOL    HW112779   4.454   1.530   6.681
 3960SOL    HW212780   4.565   1.432   6.750
 3961SOL     OW12781   5.185   2.152   2.820
 3961SOL    HW112782   5.157   2.239   2.860
 3961SOL    HW212783   5.258   2.112   2.876
 3962SOL     OW12784   2.370   4.388   0.422
 3962SOL    HW112785   2.442   4.442   0.381
 3962SOL    HW212786   2.284   4.402   0.372
 3963SOL     OW12787   4.518   4.946   4.010
 3963SOL    HW112788   4.574   4.870   4.043
 3963SOL    HW212789   4.426   4.941   4.049
 3964SOL     OW12790   4.667   4.683   3.495
 3964SOL    HW112791   4.648   4.617   3.422
 3964SOL    HW212792   4.726   4.756   3.459
 3965SOL     OW12793   4.801   2.983   5.929
 3965SOL    HW112794   4.709   3.000   5.966
 3965SOL    HW212795   4.848   3.071   5.917
 3966SOL     OW12796   5.130   5.760   0.176
 3966SOL    HW112797   5.093   5.809   0.097
 3966SOL    HW212798   5.163   5.670   0.146
 3967SOL     OW12799   1.838   3.691   2.066
 3967SOL    HW112800   1.915   3.749   2.090
 3967SOL    HW212801   1.755   3.747   2.059
 3968SOL     OW12802   4.885   0.671   1.534
 3968SOL    HW112803   4.937   0.586   1.536
 3968SOL    HW212804   4.902   0.723   1.618
 3969SOL     OW12805   1.660   4.331   1.962
 3969SOL    HW112806   1.696   4.241   1.986
 3969SOL    HW212807   1.660   4.341   1.863
 3970SOL     OW12808   6.597   5.929   3.521
 3970SOL    HW112809   6.649   6.014   3.527
 3970SOL    HW212810   6.557   5.907   3.610
 3971SOL     OW12811   2.644   4.665   2.408
 3971SOL    HW112812   2.731   4.682   2.362
 3971SOL    HW212813   2.603   4.581   2.373
 3972SOL     OW12814   1.242   4.668   0.733
 3972SOL    HW112815   1.273   4.761   0.714
 3972SOL    HW212816   1.249   4.613   0.650
 3973SOL     OW12817   1.850   5.134   6.837
 3973SOL    HW112818   1.882   5.114   6.929
 3973SOL    HW212819   1.901   5.078   6.771
 3974SOL     OW12820   2.235   0.827   4.402
 3974SOL    HW112821   2.281   0.761   4.343
 3974SOL    HW212822   2.235   0.917   4.358
 3975SOL     OW12823   5.630   1.089   5.178
 3975SOL    HW112824   5.589   1.171   5.217
 3975SOL    HW212825   5.730   1.099   5.178
 3976SOL     OW12826   1.729   6.593   1.666
 3976SOL    HW112827   1.718   6.501   1.627
 3976SOL    HW212828   1.668   6.657   1.618
 3977SOL     OW12829   2.522   3.751   5.669
 3977SOL    HW112830   2.494   3.823   5.734
 3977SOL    HW212831   2.582   3.686   5.715
 3978SOL     OW12832   5.534   4.961   4.717
 3978SOL    HW112833   5.476   5.043   4.713
 3978SOL    HW212834   5.626   4.984   4.687
 3979SOL     OW12835   2.834   6.509   1.009
 3979SOL    HW112836   2.892   6.457   1.071
 3979SOL    HW212837   2.768   6.562   1.062
 3980SOL     OW12838   6.369   5.570   0.520
 3980SOL    HW112839   6.316   5.581   0.436
 3980SOL    HW212840   6.466   5.583   0.501
 3981SOL     OW12841   2.746   0.751   0.157
 3981SOL    HW112842   2.843   0.743   0.136
 3981SOL    HW212843   2.712   0.840   0.125
 3982SOL     OW12844   2.285   0.005   3.703
 3982SOL    HW112845   2.322   0.032   3.614
 3982SOL    HW212846   2.357   0.013   3.772
 3983SOL     OW12847   5.332   4.907   3.758
 3983SOL    HW112848   5.332   4.819   3.805
 3983SOL    HW212849   5.426   4.937   3.744
 3984SOL     OW12850   6.434   1.379   3.403
 3984SOL    HW112851   6.389   1.326   3.332
 3984SOL    HW212852   6.429   1.330   3.490
 3985SOL     OW12853   3.198   4.477   6.493
 3985SOL    HW112854   3.243   4.479   6.403
 3985SOL    HW212855   3.153   4.389   6.506
 3986SOL     OW12856   6.029   2.810   3.109
 3986SOL    HW112857   6.049   2.717   3.077
 3986SOL    HW212858   6.086   2.875   3.060
 3987SOL     OW12859   3.405   5.373   3.981
 3987SOL    HW112860   3.346   5.413   3.911
 3987SOL    HW212861   3.485   5.332   3.937
 3988SOL     OW12862   3.677   4.187   0.112
 3988SOL    HW112863   3.613   4.145   0.175
 3988SOL    HW212864   3.702   4.121   0.041
 3989SOL     OW12865   6.442   2.563   0.092
 3989SOL    HW112866   6.370   2.623   0.058
 3989SOL    HW212867   6.512   2.552   0.021
 3990SOL     OW12868   5.006   1.986   2.650
 3990SOL    HW112869   5.058   1.920   2.596
 3990SOL    HW212870   5.069   2.041   2.705
 3991SOL     OW12871   5.984   1.178   2.684
 3991SOL    HW112872   6.026   1.190   2.594
 3991SOL    HW212873   5.885   1.192   2.676
 3992SOL     OW12874   3.999   2.409   0.249
 3992SOL    HW112875   3.938   2.484   0.274
 3992SOL    HW212876   4.079   2.445   0.202
 3993SOL     OW12877   1.530   2.149   2.677
 3993SOL    HW112878   1.564   2.178   2.767
 3993SOL    HW212879   1.471   2.069   2.688
 3994SOL     OW12880   1.639   0.621   5.417
 3994SOL    HW112881   1.621   0.546   5.354
 3994SOL    HW212882   1.652   0.584   5.509
 3995SOL     OW12883   2.146   3.742   5.808
 3995SOL    HW112884   2.078   3.688   5.858
 3995SOL    HW212885   2.160   3.701   5.718
 3996SOL     OW12886   1.366   0.139   4.436
 3996SOL    HW112887   1.364   0.081   4.517
 3996SOL    HW212888   1.455   0.186   4.431
 3997SOL     OW12889   5.341   1.475   4.369
 3997SOL    HW112890   5.434   1.488   4.334
 3997SOL    HW212891   5.344   1.429   4.457
 3998SOL     OW12892   4.165   1.189   4.251
 3998SOL    HW112893   4.254   1.144   4.244
 3998SOL    HW212894   4.108   1.139   4.316
 3999SOL     OW12895   5.952   3.374   4.106
 3999SOL    HW112896   6.031   3.434   4.095
 3999SOL    HW212897   5.975   3.281   4.075
 4000SOL     OW12898   2.931   6.155   3.261
 4000SOL    HW112899   2.862   6.226   3.250
 4000SOL    HW212900   2.897   6.068   3.224
 4001SOL     OW12901   2.598   1.994   3.437
 4001SOL    HW112902   2.541   2.056   3.384
 4001SOL    HW212903   2.654   1.939   3.374
 4002SOL     OW12904   3.064   3.764   0.417
 4002SOL    HW112905   3.067   3.674   0.374
 4002SOL    HW212906   3.040   3.754   0.514
 4003SOL     OW12907   3.111   6.752   3.683
 4003SOL    HW112908   3.060   6.711   3.607
 4003SOL    HW212909   3.180   6.814   3.647
 4004SOL     OW12910   4.942   1.725   4.787
 4004SOL    HW112911   4.853   1.756   4.754
 4004SOL    HW212912   4.936   1.629   4.815
 4005SOL     OW12913   4.967   5.048   0.152
 4005SOL    HW112914   5.018   5.027   0.236
 4005SOL    HW212915   5.021   5.018   0.072
 4006SOL     OW12916   4.194   5.199   2.306
 4006SOL    HW112917   4.227   5.290   2.331
 4006SOL    HW212918   4.246   5.129   2.355
 4007SOL     OW12919   0.303   2.043   0.751
 4007SOL    HW112920   0.301   2.141   0.768
 4007SOL    HW212921   0.397   2.011   0.751
 4008SOL     OW12922   3.121   2.022   3.885
 4008SOL    HW112923   3.099   1.928   3.863
 4008SOL    HW212924   3.166   2.065   3.807
 4009SOL     OW12925   4.452   3.493   1.167
 4009SOL    HW112926   4.438   3.403   1.127
 4009SOL    HW212927   4.440   3.563   1.096
 4010SOL     OW12928   2.677   3.291   1.289
 4010SOL    HW112929   2.657   3.201   1.252
 4010SOL    HW212930   2.773   3.314   1.272
 4011SOL     OW12931   0.605   0.767   1.953
 4011SOL    HW112932   0.567   0.708   2.025
 4011SOL    HW212933   0.691   0.728   1.920
 4012SOL     OW12934   5.435   5.066   1.658
 4012SOL    HW112935   5.338   5.086   1.667
 4012SOL    HW212936   5.469   5.029   1.745
 4013SOL     OW12937   2.680   1.309   5.126
 4013SOL    HW112938   2.777   1.308   5.105
 4013SOL    HW212939   2.662   1.250   5.205
 4014SOL     OW12940   5.046   6.738   2.313
 4014SOL    HW112941   5.006   6.647   2.318
 4014SOL    HW212942   5.090   6.750   2.224
 4015SOL     OW12943   5.345   4.860   5.915
 4015SOL    HW112944   5.258   4.887   5.956
 4015SOL    HW212945   5.401   4.813   5.984
 4016SOL     OW12946   2.486   6.133   6.537
 4016SOL    HW112947   2.544   6.214   6.531
 4016SOL    HW212948   2.493   6.093   6.628
 4017SOL     OW12949   0.577   5.736   0.496
 4017SOL    HW112950   0.552   5.824   0.457
 4017SOL    HW212951   0.644   5.691   0.436
 4018SOL     OW12952   4.315   6.263   3.034
 4018SOL    HW112953   4.390   6.322   3.063
 4018SOL    HW212954   4.256   6.313   2.970
 4019SOL     OW12955   5.672   3.464   2.785
 4019SOL    HW112956   5.725   3.428   2.862
 4019SOL    HW212957   5.644   3.557   2.805
 4020SOL     OW12958   4.901   1.856   5.773
 4020SOL    HW112959   4.965   1.781   5.787
 4020SOL    HW212960   4.951   1.943   5.775
 4021SOL     OW12961   3.938   4.857   6.211
 4021SOL    HW112962   3.927   4.834   6.307
 4021SOL    HW212963   3.851   4.848   6.163
 4022SOL     OW12964   4.704   0.699   6.882
 4022SOL    HW112965   4.630   0.765   6.891
 4022SOL    HW212966   4.688   0.640   6.803
 4023SOL     OW12967   6.024   1.713   4.423
 4023SOL    HW112968   5.994   1.803   4.392
 4023SOL    HW212969   5.969   1.643   4.377
 4024SOL     OW12970   3.641   6.490   3.667
 4024SOL    HW112971   3.679   6.533   3.585
 4024SOL    HW212972   3.654   6.391   3.661
 4025SOL     OW12973   0.826   5.801   3.743
 4025SOL    HW112974   0.832   5.812   3.643
 4025SOL    HW212975   0.819   5.704   3.765
 4026SOL     OW12976   5.564   5.631   4.377
 4026SOL    HW112977   5.641   5.600   4.432
 4026SOL    HW212978   5.553   5.730   4.390
 4027SOL     OW12979   3.815   4.513   1.669
 4027SOL    HW112980   3.740   4.567   1.706
 4027SOL    HW212981   3.902   4.553   1.697
 4028SOL     OW12982   1.654   2.540   4.055
 4028SOL    HW112983   1.751   2.517   4.051
 4028SOL    HW212984   1.644   2.638   4.072
 4029SOL     OW12985   2.763   3.949   5.715
 4029SOL    HW112986   2.702   3.875   5.689
 4029SOL    HW212987   2.735   4.033   5.670
 4030SOL     OW12988   1.193   1.961   5.807
 4030SOL    HW112989   1.183   1.994   5.713
 4030SOL    HW212990   1.138   2.017   5.868
 4031SOL     OW12991   4.921   5.494   3.773
 4031SOL    HW112992   4.887   5.503   3.867
 4031SOL    HW212993   4.955   5.583   3.741
 4032SOL     OW12994   6.531   6.633   3.856
 4032SOL    HW112995   6.500   6.721   3.822
 4032SOL    HW212996   6.484   6.611   3.941
 4033SOL     OW12997   3.383   3.215   3.338
 4033SOL    HW112998   3.304   3.181   3.388
 4033SOL    HW212999   3.411   3.147   3.269
 4034SOL     OW13000   5.787   1.544   5.059
 4034SOL    HW113001   5.846   1.466   5.037
 4034SOL    HW213002   5.743   1.576   4.975
 4035SOL     OW13003   0.256   3.385   0.486
 4035SOL    HW113004   0.302   3.417   0.404
 4035SOL    HW213005   0.235   3.287   0.476
 4036SOL     OW13006   6.130   6.547   2.476
 4036SOL    HW113007   6.170   6.537   2.567
 4036SOL    HW213008   6.060   6.618   2.478
 4037SOL     OW13009   1.742   2.833   6.826
 4037SOL    HW113010   1.748   2.735   6.844
 4037SOL    HW213011   1.784   2.884   6.901
 4038SOL     OW13012   5.030   4.806   2.055
 4038SOL    HW113013   4.933   4.785   2.045
 4038SOL    HW213014   5.067   4.755   2.134
 4039SOL     OW13015   5.059   5.527   0.443
 4039SOL    HW113016   5.104   5.607   0.404
 4039SOL    HW213017   5.101   5.505   0.531
 4040SOL     OW13018   3.125   6.687   0.613
 4040SOL    HW113019   3.049   6.701   0.550
 4040SOL    HW213020   3.187   6.766   0.608
 4041SOL     OW13021   1.331   5.998   2.378
 4041SOL    HW113022   1.239   5.987   2.416
 4041SOL    HW213023   1.340   6.089   2.337
 4042SOL     OW13024   6.223   5.517   2.271
 4042SOL    HW113025   6.281   5.596   2.253
 4042SOL    HW213026   6.256   5.468   2.351
 4043SOL     OW13027   5.444   1.968   3.420
 4043SOL    HW113028   5.458   2.014   3.332
 4043SOL    HW213029   5.498   2.013   3.490
 4044SOL     OW13030   6.148   0.113   3.820
 4044SOL    HW113031   6.153   0.202   3.774
 4044SOL    HW213032   6.104   0.047   3.759
 4045SOL     OW13033   2.750   4.119   6.140
 4045SOL    HW113034   2.847   4.140   6.152
 4045SOL    HW213035   2.719   4.155   6.052
 4046SOL     OW13036   1.082   1.996   2.141
 4046SOL    HW113037   1.079   2.018   2.239
 4046SOL    HW213038   0.992   2.009   2.101
 4047SOL     OW13039   3.024   4.078   0.922
 4047SOL    HW113040   3.074   4.027   0.992
 4047SOL    HW213041   2.982   4.160   0.964
 4048SOL     OW13042   5.587   0.583   1.500
 4048SOL    HW113043   5.676   0.556   1.464
 4048SOL    HW213044   5.526   0.609   1.425
 4049SOL     OW13045   6.607   6.465   6.457
 4049SOL    HW113046   6.631   6.444   6.362
 4049SOL    HW213047   6.551   6.391   6.494
 4050SOL     OW13048   1.823   6.438   0.103
 4050SOL    HW113049   1.889   6.426   0.029
 4050SOL    HW213050   1.872   6.445   0.190
 4051SOL     OW13051   2.965   4.099   0.584
 4051SOL    HW113052   3.058   4.103   0.619
 4051SOL    HW213053   2.903   4.143   0.648
 4052SOL     OW13054   0.922   0.418   0.801
 4052SOL    HW113055   0.913   0.438   0.899
 4052SOL    HW213056   0.851   0.466   0.750
 4053SOL     OW13057   2.955   4.925   3.987
 4053SOL    HW113058   3.034   4.924   4.048
 4053SOL    HW213059   2.908   4.837   3.992
 4054SOL     OW13060   2.837   2.640   0.451
 4054SOL    HW113061   2.887   2.589   0.380
 4054SOL    HW213062   2.859   2.602   0.541
 4055SOL     OW13063   2.371   2.871   6.099
 4055SOL    HW113064   2.420   2.794   6.057
 4055SOL    HW213065   2.435   2.946   6.115
 4056SOL     OW13066   4.035   3.224   6.897
 4056SOL    HW113067   3.940   3.238   6.923
 4056SOL    HW213068   4.092   3.293   6.941
 4057SOL     OW13069   5.221   3.243   0.405
 4057SOL    HW113070   5.306   3.223   0.454
 4057SOL    HW213071   5.231   3.330   0.356
 4058SOL     OW13072   2.528   1.601   4.348
 4058SOL    HW113073   2.555   1.545   4.270
 4058SOL    HW213074   2.569   1.565   4.431
 4059SOL     OW13075   2.046   2.170   3.752
 4059SOL    HW113076   1.988   2.250   3.740
 4059SOL    HW213077   2.102   2.181   3.835
 4060SOL     OW13078   3.815   5.709   4.377
 4060SOL    HW113079   3.880   5.647   4.420
 4060SOL    HW213080   3.734   5.658   4.347
 4061SOL     OW13081   3.473   4.588   1.601
 4061SOL    HW113082   3.496   4.491   1.592
 4061SOL    HW213083   3.522   4.628   1.678
 4062SOL     OW13084   3.691   1.289   2.606
 4062SOL    HW113085   3.779   1.295   2.559
 4062SOL    HW213086   3.636   1.369   2.585
 4063SOL     OW13087   3.709   6.650   5.533
 4063SOL    HW113088   3.702   6.577   5.465
 4063SOL    HW213089   3.722   6.611   5.624
 4064SOL     OW13090   1.716   0.884   2.649
 4064SOL    HW113091   1.669   0.891   2.737
 4064SOL    HW213092   1.815   0.879   2.665
 4065SOL     OW13093   0.029   6.906   1.018
 4065SOL    HW113094   0.037   6.900   1.118
 4065SOL    HW213095   0.107   6.958   0.982
 4066SOL     OW13096   5.650   4.404   1.370
 4066SOL    HW113097   5.722   4.336   1.372
 4066SOL    HW213098   5.686   4.493   1.398
 4067SOL     OW13099   5.167   1.772   3.161
 4067SOL    HW113100   5.141   1.676   3.171
 4067SOL    HW213101   5.264   1.778   3.135
 4068SOL     OW13102   4.759   0.697   5.004
 4068SOL    HW113103   4.749   0.628   5.076
 4068SOL    HW213104   4.823   0.663   4.935
 4069SOL     OW13105   5.209   4.640   1.090
 4069SOL    HW113106   5.300   4.673   1.066
 4069SOL    HW213107   5.153   4.717   1.121
 4070SOL     OW13108   1.849   3.801   2.622
 4070SOL    HW113109   1.931   3.745   2.625
 4070SOL    HW213110   1.845   3.850   2.534
 4071SOL     OW13111   1.294   0.836   4.961
 4071SOL    HW113112   1.386   0.831   5.000
 4071SOL    HW213113   1.277   0.755   4.904
 4072SOL     OW13114   1.890   6.655   4.278
 4072SOL    HW113115   1.859   6.561   4.296
 4072SOL    HW213116   1.816   6.719   4.299
 4073SOL     OW13117   2.232   6.081   6.178
 4073SOL    HW113118   2.150   6.126   6.213
 4073SOL    HW213119   2.228   5.984   6.200
 4074SOL     OW13120   0.528   1.887   1.762
 4074SOL    HW113121   0.614   1.898   1.712
 4074SOL    HW213122   0.472   1.818   1.715
 4075SOL     OW13123   4.337   1.845   2.649
 4075SOL    HW113124   4.427   1.857   2.691
 4075SOL    HW213125   4.341   1.773   2.580
 4076SOL     OW13126   2.141   3.795   4.933
 4076SOL    HW113127   2.166   3.741   5.013
 4076SOL    HW213128   2.154   3.892   4.953
 4077SOL     OW13129   3.089   0.034   0.782
 4077SOL    HW113130   3.155   0.003   0.714
 4077SOL    HW213131   3.069   6.981   0.846
 4078SOL     OW13132   6.403   4.416   1.764
 4078SOL    HW113133   6.402   4.348   1.691
 4078SOL    HW213134   6.461   4.493   1.737
 4079SOL     OW13135   0.844   1.503   3.369
 4079SOL    HW113136   0.764   1.491   3.311
 4079SOL    HW213137   0.920   1.540   3.316
 4080SOL     OW13138   3.170   3.769   0.719
 4080SOL    HW113139   3.073   3.792   0.712
 4080SOL    HW213140   3.212   3.823   0.792
 4081SOL     OW13141   2.533   1.370   4.871
 4081SOL    HW113142   2.581   1.292   4.831
 4081SOL    HW213143   2.524   1.357   4.970
 4082SOL     OW13144   1.108   2.396   5.988
 4082SOL    HW113145   1.133   2.299   5.986
 4082SOL    HW213146   1.018   2.408   5.945
 4083SOL     OW13147   5.844   4.635   3.388
 4083SOL    HW113148   5.914   4.574   3.352
 4083SOL    HW213149   5.754   4.608   3.353
 4084SOL     OW13150   4.719   2.413   2.906
 4084SOL    HW113151   4.716   2.403   2.806
 4084SOL    HW213152   4.664   2.491   2.933
 4085SOL     OW13153   2.983   5.656   1.535
 4085SOL    HW113154   2.977   5.726   1.607
 4085SOL    HW213155   3.056   5.591   1.559
 4086SOL     OW13156   6.865   5.532   6.708
 4086SOL    HW113157   6.948   5.550   6.760
 4086SOL    HW213158   6.794   5.597   6.734
 4087SOL     OW13159   2.625   0.290   2.552
 4087SOL    HW113160   2.571   0.313   2.472
 4087SOL    HW213161   2.722   0.284   2.527
 4088SOL     OW13162   6.728   0.898   5.411
 4088SOL    HW113163   6.741   0.961   5.487
 4088SOL    HW213164   6.657   0.933   5.350
 4089SOL     OW13165   6.870   5.954   4.450
 4089SOL    HW113166   6.847   5.862   4.482
 4089SOL    HW213167   6.847   6.021   4.520
 4090SOL     OW13168   2.564   6.549   4.771
 4090SOL    HW113169   2.573   6.609   4.692
 4090SOL    HW213170   2.646   6.557   4.828
 4091SOL     OW13171   1.021   5.129   0.964
 4091SOL    HW113172   1.090   5.079   1.015
 4091SOL    HW213173   0.964   5.183   1.027
 4092SOL     OW13174   4.869   3.177   4.974
 4092SOL    HW113175   4.930   3.164   4.896
 4092SOL    HW213176   4.796   3.109   4.971
 4093SOL     OW13177   5.982   5.404   2.274
 4093SOL    HW113178   5.973   5.324   2.215
 4093SOL    HW213179   6.067   5.452   2.251
 4094SOL     OW13180   0.104   4.844   6.717
 4094SOL    HW113181   0.179   4.882   6.770
 4094SOL    HW213182   0.114   4.744   6.711
 4095SOL     OW13183   0.431   4.198   0.172
 4095SOL    HW113184   0.518   4.213   0.219
 4095SOL    HW213185   0.422   4.101   0.148
 4096SOL     OW13186   1.762   1.568   6.363
 4096SOL    HW113187   1.818   1.531   6.437
 4096SOL    HW213188   1.687   1.621   6.401
 4097SOL     OW13189   7.011   3.827   5.011
 4097SOL    HW113190   0.023   3.757   4.948
 4097SOL    HW213191   7.005   3.914   4.963
 4098SOL     OW13192   2.050   4.206   2.415
 4098SOL    HW113193   2.016   4.258   2.337
 4098SOL    HW213194   2.149   4.217   2.423
 4099SOL     OW13195   4.407   4.659   6.738
 4099SOL    HW113196   4.335   4.591   6.753
 4099SOL    HW213197   4.478   4.648   6.807
 4100SOL     OW13198   1.127   1.503   3.656
 4100SOL    HW113199   1.165   1.571   3.594
 4100SOL    HW213200   1.197   1.476   3.723
 4101SOL     OW13201   6.458   0.732   6.624
 4101SOL    HW113202   6.421   0.685   6.545
 4101SOL    HW213203   6.395   0.805   6.652
 4102SOL     OW13204   1.831   0.665   0.236
 4102SOL    HW113205   1.791   0.628   0.320
 4102SOL    HW213206   1.773   0.640   0.158
 4103SOL     OW13207   0.553   6.623   2.214
 4103SOL    HW113208   0.525   6.590   2.305
 4103SOL    HW213209   0.616   6.558   2.173
 4104SOL     OW13210   0.469   5.981   3.015
 4104SOL    HW113211   0.475   6.068   2.966
 4104SOL    HW213212   0.383   5.978   3.066
 4105SOL     OW13213   4.499   1.100   1.504
 4105SOL    HW113214   4.475   1.194   1.527
 4105SOL    HW213215   4.589   1.079   1.540
 4106SOL     OW13216   0.327   1.851   4.013
 4106SOL    HW113217   0.418   1.881   4.041
 4106SOL    HW213218   0.277   1.929   3.975
 4107SOL     OW13219   0.775   5.815   6.214
 4107SOL    HW113220   0.815   5.901   6.248
 4107SOL    HW213221   0.845   5.745   6.210
 4108SOL     OW13222   0.272   4.765   4.296
 4108SOL    HW113223   0.228   4.687   4.253
 4108SOL    HW213224   0.304   4.828   4.225
 4109SOL     OW13225   6.289   5.652   2.982
 4109SOL    HW113226   6.289   5.632   3.080
 4109SOL    HW213227   6.383   5.670   2.953
 4110SOL     OW13228   4.468   2.929   0.157
 4110SOL    HW113229   4.427   2.863   0.220
 4110SOL    HW213230   4.562   2.903   0.137
 4111SOL     OW13231   6.629   4.787   6.160
 4111SOL    HW113232   6.620   4.767   6.258
 4111SOL    HW213233   6.676   4.711   6.115
 4112SOL     OW13234   4.702   6.779   4.912
 4112SOL    HW113235   4.770   6.727   4.862
 4112SOL    HW213236   4.740   6.808   5.000
 4113SOL     OW13237   4.294   4.687   4.701
 4113SOL    HW113238   4.275   4.647   4.791
 4113SOL    HW213239   4.245   4.773   4.691
 4114SOL     OW13240   6.068   1.618   3.525
 4114SOL    HW113241   6.057   1.601   3.427
 4114SOL    HW213242   6.156   1.580   3.555
 4115SOL     OW13243   2.739   5.346   2.996
 4115SOL    HW113244   2.671   5.283   3.035
 4115SOL    HW213245   2.830   5.318   3.025
 4116SOL     OW13246   5.572   2.704   3.621
 4116SOL    HW113247   5.493   2.718   3.561
 4116SOL    HW213248   5.636   2.780   3.610
 4117SOL     OW13249   1.502   2.331   2.440
 4117SOL    HW113250   1.409   2.353   2.471
 4117SOL    HW213251   1.544   2.267   2.504
 4118SOL     OW13252   6.442   6.283   6.582
 4118SOL    HW113253   6.517   6.225   6.551
 4118SOL    HW213254   6.466   6.324   6.670
 4119SOL     OW13255   2.519   0.800   3.219
 4119SOL    HW113256   2.444   0.814   3.283
 4119SOL    HW213257   2.504   0.716   3.168
 4120SOL     OW13258   2.862   1.563   6.276
 4120SOL    HW113259   2.943   1.556   6.217
 4120SOL    HW213260   2.883   1.617   6.357
 4121SOL     OW13261   0.117   6.870   2.741
 4121SOL    HW113262   0.169   6.906   2.819
 4121SOL    HW213263   0.060   6.944   2.704
 4122SOL     OW13264   0.166   5.715   4.441
 4122SOL    HW113265   0.135   5.700   4.347
 4122SOL    HW213266   0.100   5.677   4.505
 4123SOL     OW13267   3.915   5.058   3.339
 4123SOL    HW113268   3.925   5.068   3.240
 4123SOL    HW213269   3.924   5.147   3.383
 4124SOL     OW13270   6.487   6.012   0.780
 4124SOL    HW113271   6.404   6.044   0.734
 4124SOL    HW213272   6.562   6.076   0.760
 4125SOL     OW13273   5.296   2.231   2.569
 4125SOL    HW113274   5.260   2.324   2.559
 4125SOL    HW213275   5.264   2.193   2.656
 4126SOL     OW13276   1.381   2.996   1.934
 4126SOL    HW113277   1.342   2.904   1.942
 4126SOL    HW213278   1.359   3.048   2.017
 4127SOL     OW13279   3.919   2.204   3.926
 4127SOL    HW113280   3.940   2.151   4.008
 4127SOL    HW213281   3.892   2.296   3.952
 4128SOL     OW13282   0.761   3.177   1.398
 4128SOL    HW113283   0.861   3.175   1.405
 4128SOL    HW213284   0.726   3.261   1.440
 4129SOL     OW13285   3.595   2.529   0.564
 4129SOL    HW113286   3.555   2.450   0.519
 4129SOL    HW213287   3.692   2.514   0.578
 4130SOL     OW13288   6.120   2.666   1.444
 4130SOL    HW113289   6.196   2.677   1.509
 4130SOL    HW213290   6.054   2.601   1.481
 4131SOL     OW13291   5.561   0.747   2.461
 4131SOL    HW113292   5.614   0.747   2.376
 4131SOL    HW213293   5.532   0.654   2.483
 4132SOL     OW13294   6.519   4.102   4.384
 4132SOL    HW113295   6.580   4.157   4.329
 4132SOL    HW213296   6.498   4.016   4.337
 4133SOL     OW13297   5.426   6.402   1.585
 4133SOL    HW113298   5.517   6.379   1.550
 4133SOL    HW213299   5.359   6.396   1.511
 4134SOL     OW13300   2.634   3.622   1.153
 4134SOL    HW113301   2.598   3.557   1.219
 4134SOL    HW213302   2.559   3.674   1.113
 4135SOL     OW13303   0.349   2.380   2.520
 4135SOL    HW113304   0.345   2.441   2.441
 4135SOL    HW213305   0.375   2.432   2.601
 4136SOL     OW13306   0.352   4.145   0.985
 4136SOL    HW113307   0.376   4.167   0.891
 4136SOL    HW213308   0.414   4.075   1.020
 4137SOL     OW13309   1.860   2.660   0.542
 4137SOL    HW113310   1.840   2.753   0.574
 4137SOL    HW213311   1.891   2.663   0.447
 4138SOL     OW13312   4.174   5.838   0.645
 4138SOL    HW113313   4.214   5.929   0.662
 4138SOL    HW213314   4.150   5.796   0.733
 4139SOL     OW13315   1.785   2.108   2.589
 4139SOL    HW113316   1.828   2.192   2.623
 4139SOL    HW213317   1.688   2.109   2.611
 4140SOL     OW13318   2.907   2.313   4.221
 4140SOL    HW113319   3.006   2.313   4.235
 4140SOL    HW213320   2.885   2.354   4.133
 4141SOL     OW13321   4.121   6.828   6.462
 4141SOL    HW113322   4.117   6.729   6.473
 4141SOL    HW213323   4.143   6.850   6.367
 4142SOL     OW13324   6.444   3.817   2.126
 4142SOL    HW113325   6.385   3.881   2.174
 4142SOL    HW213326   6.495   3.865   2.054
 4143SOL     OW13327   5.841   3.321   1.092
 4143SOL    HW113328   5.820   3.412   1.057
 4143SOL    HW213329   5.800   3.252   1.031
 4144SOL     OW13330   5.313   1.754   1.094
 4144SOL    HW113331   5.268   1.715   1.174
 4144SOL    HW213332   5.397   1.703   1.075
 4145SOL     OW13333   1.026   6.471   0.793
 4145SOL    HW113334   1.081   6.406   0.846
 4145SOL    HW213335   0.930   6.465   0.823
 4146SOL     OW13336   5.700   6.556   3.502
 4146SOL    HW113337   5.677   6.470   3.548
 4146SOL    HW213338   5.625   6.582   3.440
 4147SOL     OW13339   5.162   4.416   5.766
 4147SOL    HW113340   5.226   4.375   5.830
 4147SOL    HW213341   5.202   4.499   5.728
 4148SOL     OW13342   2.916   0.175   5.374
 4148SOL    HW113343   2.923   0.270   5.344
 4148SOL    HW213344   2.887   0.173   5.470
 4149SOL     OW13345   1.739   2.810   1.022
 4149SOL    HW113346   1.835   2.785   1.039
 4149SOL    HW213347   1.707   2.872   1.094
 4150SOL     OW13348   6.444   3.079   6.393
 4150SOL    HW113349   6.485   3.137   6.464
 4150SOL    HW213350   6.381   3.015   6.437
 4151SOL     OW13351   2.484   0.018   4.629
 4151SOL    HW113352   2.513   0.059   4.716
 4151SOL    HW213353   2.508   0.079   4.554
 4152SOL     OW13354   3.566   5.311   1.705
 4152SOL    HW113355   3.562   5.226   1.757
 4152SOL    HW213356   3.502   5.377   1.745
 4153SOL     OW13357   6.888   4.892   1.335
 4153SOL    HW113358   6.866   4.961   1.266
 4153SOL    HW213359   6.987   4.874   1.333
 4154SOL     OW13360   6.978   5.550   3.530
 4154SOL    HW113361   6.902   5.615   3.540
 4154SOL    HW213362   6.971   5.480   3.600
 4155SOL     OW13363   0.055   2.195   1.589
 4155SOL    HW113364   0.009   2.108   1.574
 4155SOL    HW213365   0.146   2.179   1.628
 4156SOL     OW13366   6.996   4.713   4.849
 4156SOL    HW113367   0.042   4.769   4.897
 4156SOL    HW213368   6.911   4.765   4.838
 4157SOL     OW13369   6.701   0.010   2.246
 4157SOL    HW113370   6.779   0.049   2.294
 4157SOL    HW213371   6.659   0.080   2.188
 4158SOL     OW13372   1.964   1.910   1.630
 4158SOL    HW113373   1.888   1.944   1.686
 4158SOL    HW213374   1.949   1.936   1.535
 4159SOL     OW13375   2.841   2.106   2.842
 4159SOL    HW113376   2.938   2.084   2.854
 4159SOL    HW213377   2.823   2.199   2.875
 4160SOL     OW13378   6.596   0.089   7.011
 4160SOL    HW113379   6.668   0.021   6.996
 4160SOL    HW213380   6.606   0.164   6.946
 4161SOL     OW13381   1.690   2.005   1.017
 4161SOL    HW113382   1.660   2.075   1.081
 4161SOL    HW213383   1.785   1.980   1.036
 4162SOL     OW13384   6.694   5.823   0.669
 4162SOL    HW113385   6.660   5.733   0.640
 4162SOL    HW213386   6.622   5.870   0.720
 4163SOL     OW13387   5.009   0.485   2.105
 4163SOL    HW113388   5.063   0.500   2.023
 4163SOL    HW213389   4.917   0.453   2.079
 4164SOL     OW13390   0.087   6.973   5.533
 4164SOL    HW113391   0.183   6.951   5.547
 4164SOL    HW213392   0.055   0.011   5.607
 4165SOL     OW13393   4.264   0.247   5.829
 4165SOL    HW113394   4.239   0.342   5.847
 4165SOL    HW213395   4.363   0.237   5.842
 4166SOL     OW13396   5.909   1.070   2.307
 4166SOL    HW113397   5.947   1.132   2.239
 4166SOL    HW213398   5.958   0.983   2.304
 4167SOL     OW13399   2.300   4.744   6.032
 4167SOL    HW113400   2.387   4.734   5.983
 4167SOL    HW213401   2.225   4.712   5.974
 4168SOL     OW13402   6.768   4.614   0.374
 4168SOL    HW113403   6.708   4.675   0.425
 4168SOL    HW213404   6.841   4.581   0.434
 4169SOL     OW13405   5.865   4.031   5.331
 4169SOL    HW113406   5.942   4.050   5.270
 4169SOL    HW213407   5.787   4.088   5.305
 4170SOL     OW13408   5.009   3.142   4.741
 4170SOL    HW113409   5.010   3.226   4.686
 4170SOL    HW213410   5.101   3.123   4.774
 4171SOL     OW13411   1.075   4.326   1.369
 4171SOL    HW113412   1.046   4.370   1.284
 4171SOL    HW213413   1.001   4.268   1.404
 4172SOL     OW13414   2.938   3.071   0.522
 4172SOL    HW113415   2.993   3.047   0.602
 4172SOL    HW213416   2.905   3.165   0.532
 4173SOL     OW13417   4.269   2.681   5.662
 4173SOL    HW113418   4.218   2.608   5.708
 4173SOL    HW213419   4.279   2.759   5.723
 4174SOL     OW13420   4.203   0.435   3.492
 4174SOL    HW113421   4.145   0.517   3.486
 4174SOL    HW213422   4.226   0.417   3.587
 4175SOL     OW13423   2.016   4.825   6.024
 4175SOL    HW113424   2.017   4.732   6.060
 4175SOL    HW213425   2.077   4.883   6.078
 4176SOL     OW13426   4.859   6.162   0.590
 4176SOL    HW113427   4.847   6.251   0.634
 4176SOL    HW213428   4.826   6.166   0.496
 4177SOL     OW13429   5.037   4.830   4.517
 4177SOL    HW113430   5.004   4.902   4.578
 4177SOL    HW213431   5.136   4.822   4.525
 4178SOL     OW13432   4.491   6.455   2.821
 4178SOL    HW113433   4.485   6.409   2.910
 4178SOL    HW213434   4.579   6.503   2.815
 4179SOL     OW13435   5.266   3.772   3.637
 4179SOL    HW113436   5.349   3.822   3.613
 4179SOL    HW213437   5.264   3.755   3.736
 4180SOL     OW13438   5.485   3.138   0.616
 4180SOL    HW113439   5.478   3.121   0.518
 4180SOL    HW213440   5.578   3.169   0.638
 4181SOL     OW13441   5.523   0.511   6.091
 4181SOL    HW113442   5.603   0.538   6.038
 4181SOL    HW213443   5.548   0.437   6.154
 4182SOL     OW13444   0.270   5.215   3.645
 4182SOL    HW113445   0.253   5.286   3.576
 4182SOL    HW213446   0.188   5.159   3.655
 4183SOL     OW13447   2.312   0.948   0.628
 4183SOL    HW113448   2.270   0.881   0.690
 4183SOL    HW213449   2.403   0.916   0.602
 4184SOL     OW13450   3.995   0.201   2.006
 4184SOL    HW113451   3.971   0.277   1.946
 4184SOL    HW213452   4.062   0.231   2.074
 4185SOL     OW13453   0.457   3.839   3.118
 4185SOL    HW113454   0.436   3.864   3.024
 4185SOL    HW213455   0.514   3.909   3.160
 4186SOL     OW13456   2.461   5.893   6.703
 4186SOL    HW113457   2.545   5.839   6.706
 4186SOL    HW213458   2.382   5.832   6.706
 4187SOL     OW13459   2.548   3.541   0.054
 4187SOL    HW113460   2.644   3.566   0.035
 4187SOL    HW213461   2.526   3.457   0.005
 4188SOL     OW13462   5.339   0.441   5.099
 4188SOL    HW113463   5.266   0.431   5.032
 4188SOL    HW213464   5.427   0.444   5.052
 4189SOL     OW13465   3.588   5.142   3.382
 4189SOL    HW113466   3.567   5.239   3.369
 4189SOL    HW213467   3.687   5.130   3.391
 4190SOL     OW13468   0.440   6.485   0.941
 4190SOL    HW113469   0.418   6.547   0.866
 4190SOL    HW213470   0.395   6.517   1.025
 4191SOL     OW13471   5.360   4.344   5.941
 4191SOL    HW113472   5.385   4.433   5.979
 4191SOL    HW213473   5.325   4.285   6.013
 4192SOL     OW13474   0.917   1.355   2.308
 4192SOL    HW113475   0.828   1.388   2.341
 4192SOL    HW213476   0.938   1.398   2.220
 4193SOL     OW13477   5.327   0.612   0.369
 4193SOL    HW113478   5.312   0.614   0.271
 4193SOL    HW213479   5.407   0.554   0.390
 4194SOL     OW13480   4.588   6.965   4.576
 4194SOL    HW113481   4.598   6.867   4.556
 4194SOL    HW213482   4.504   6.999   4.534
 4195SOL     OW13483   4.358   6.238   1.170
 4195SOL    HW113484   4.367   6.326   1.124
 4195SOL    HW213485   4.405   6.168   1.117
 4196SOL     OW13486   0.044   2.522   3.380
 4196SOL    HW113487   0.084   2.432   3.399
 4196SOL    HW213488   0.109   2.576   3.327
 4197SOL     OW13489   4.191   5.861   5.326
 4197SOL    HW113490   4.156   5.881   5.418
 4197SOL    HW213491   4.119   5.875   5.259
 4198SOL     OW13492   6.795   0.995   2.577
 4198SOL    HW113493   6.767   0.987   2.673
 4198SOL    HW213494   6.881   0.946   2.564
 4199SOL     OW13495   1.163   2.839   5.960
 4199SOL    HW113496   1.168   2.764   6.026
 4199SOL    HW213497   1.074   2.836   5.914
 4200SOL     OW13498   3.191   0.249   5.654
 4200SOL    HW113499   3.239   0.271   5.738
 4200SOL    HW213500   3.252   0.200   5.592
 4201SOL     OW13501   6.196   6.901   2.585
 4201SOL    HW113502   6.171   6.863   2.674
 4201SOL    HW213503   6.115   6.905   2.526
 4202SOL     OW13504   3.499   5.772   6.393
 4202SOL    HW113505   3.476   5.760   6.297
 4202SOL    HW213506   3.466   5.693   6.445
 4203SOL     OW13507   5.140   4.436   0.540
 4203SOL    HW113508   5.133   4.408   0.636
 4203SOL    HW213509   5.154   4.535   0.536
 4204SOL     OW13510   3.936   3.332   5.493
 4204SOL    HW113511   3.928   3.431   5.498
 4204SOL    HW213512   3.894   3.291   5.574
 4205SOL     OW13513   3.641   5.208   4.766
 4205SOL    HW113514   3.564   5.213   4.702
 4205SOL    HW213515   3.699   5.130   4.742
 4206SOL     OW13516   6.797   1.634   4.968
 4206SOL    HW113517   6.851   1.616   4.886
 4206SOL    HW213518   6.763   1.547   5.006
 4207SOL     OW13519   2.271   2.589   1.368
 4207SOL    HW113520   2.354   2.544   1.401
 4207SOL    HW213521   2.264   2.575   1.269
 4208SOL     OW13522   0.989   3.573   6.306
 4208SOL    HW113523   0.958   3.663   6.337
 4208SOL    HW213524   1.006   3.575   6.208
 4209SOL     OW13525   6.810   6.053   2.898
 4209SOL    HW113526   6.851   6.112   2.829
 4209SOL    HW213527   6.710   6.057   2.889
 4210SOL     OW13528   4.134   3.702   3.318
 4210SOL    HW113529   4.095   3.730   3.231
 4210SOL    HW213530   4.217   3.755   3.336
 4211SOL     OW13531   3.652   1.537   5.229
 4211SOL    HW113532   3.607   1.449   5.214
 4211SOL    HW213533   3.650   1.590   5.144
 4212SOL     OW13534   6.109   1.926   3.870
 4212SOL    HW113535   6.176   1.988   3.829
 4212SOL    HW213536   6.045   1.977   3.927
 4213SOL     OW13537   2.470   0.272   3.169
 4213SOL    HW113538   2.387   0.258   3.222
 4213SOL    HW213539   2.454   0.247   3.073
 4214SOL     OW13540   0.363   5.720   4.857
 4214SOL    HW113541   0.382   5.702   4.760
 4214SOL    HW213542   0.272   5.760   4.867
 4215SOL     OW13543   5.601   7.015   5.421
 4215SOL    HW113544   5.547   6.964   5.488
 4215SOL    HW213545   5.555   0.079   5.398
 4216SOL     OW13546   1.491   0.832   2.110
 4216SOL    HW113547   1.556   0.866   2.177
 4216SOL    HW213548   1.421   0.902   2.093
 4217SOL     OW13549   1.128   0.777   1.914
 4217SOL    HW113550   1.195   0.825   1.858
 4217SOL    HW213551   1.158   0.682   1.928
 4218SOL     OW13552   3.272   0.545   1.383
 4218SOL    HW113553   3.177   0.511   1.384
 4218SOL    HW213554   3.318   0.513   1.301
 4219SOL     OW13555   4.658   6.478   4.479
 4219SOL    HW113556   4.618   6.388   4.462
 4219SOL    HW213557   4.587   6.542   4.508
 4220SOL     OW13558   5.830   3.337   2.320
 4220SOL    HW113559   5.746   3.324   2.374
 4220SOL    HW213560   5.909   3.335   2.381
 4221SOL     OW13561   6.142   4.614   6.108
 4221SOL    HW113562   6.081   4.664   6.046
 4221SOL    HW213563   6.105   4.522   6.123
 4222SOL     OW13564   6.682   1.113   3.706
 4222SOL    HW113565   6.597   1.161   3.681
 4222SOL    HW213566   6.681   1.094   3.804
 4223SOL     OW13567   3.849   3.479   1.137
 4223SOL    HW113568   3.860   3.391   1.091
 4223SOL    HW213569   3.920   3.542   1.106
 4224SOL     OW13570   5.050   4.648   4.810
 4224SOL    HW113571   5.024   4.636   4.906
 4224SOL    HW213572   5.083   4.561   4.774
 4225SOL     OW13573   1.749   2.175   5.251
 4225SOL    HW113574   1.740   2.265   5.208
 4225SOL    HW213575   1.773   2.187   5.348
 4226SOL     OW13576   1.331   5.456   3.567
 4226SOL    HW113577   1.332   5.414   3.477
 4226SOL    HW213578   1.423   5.455   3.606
 4227SOL     OW13579   4.989   6.227   1.737
 4227SOL    HW113580   5.010   6.291   1.663
 4227SOL    HW213581   5.073   6.179   1.763
 4228SOL     OW13582   0.101   6.679   5.598
 4228SOL    HW113583   0.184   6.679   5.654
 4228SOL    HW213584   0.082   6.772   5.566
 4229SOL     OW13585   4.556   5.547   5.289
 4229SOL    HW113586   4.634   5.579   5.236
 4229SOL    HW213587   4.473   5.557   5.235
 4230SOL     OW13588   1.034   6.479   3.362
 4230SOL    HW113589   0.956   6.502   3.419
 4230SOL    HW213590   1.004   6.423   3.285
 4231SOL     OW13591   5.031   0.426   5.564
 4231SOL    HW113592   5.071   0.444   5.474
 4231SOL    HW213593   5.104   0.422   5.632
 4232SOL     OW13594   1.562   4.641   3.871
 4232SOL    HW113595   1.599   4.554   3.904
 4232SOL    HW213596   1.585   4.652   3.774
 4233SOL     OW13597   6.875   0.816   4.761
 4233SOL    HW113598   6.968   0.793   4.732
 4233SOL    HW213599   6.813   0.742   4.734
 4234SOL     OW13600   2.165   5.313   4.972
 4234SOL    HW113601   2.135   5.217   4.974
 4234SOL    HW213602   2.263   5.318   4.989
 4235SOL     OW13603   6.795   5.105   6.052
 4235SOL    HW113604   6.735   5.117   5.972
 4235SOL    HW213605   6.868   5.041   6.029
 4236SOL     OW13606   6.912   4.510   1.723
 4236SOL    HW113607   6.903   4.422   1.676
 4236SOL    HW213608   6.897   4.497   1.821
 4237SOL     OW13609   0.108   3.948   4.040
 4237SOL    HW113610   0.056   3.986   4.116
 4237SOL    HW213611   0.047   3.898   3.979
 4238SOL     OW13612   1.224   0.394   3.172
 4238SOL    HW113613   1.226   0.486   3.210
 4238SOL    HW213614   1.307   0.379   3.117
 4239SOL     OW13615   4.223   1.428   2.616
 4239SOL    HW113616   4.303   1.408   2.673
 4239SOL    HW213617   4.241   1.397   2.522
 4240SOL     OW13618   2.582   5.216   0.375
 4240SOL    HW113619   2.667   5.167   0.394
 4240SOL    HW213620   2.526   5.162   0.312
 4241SOL     OW13621   5.245   0.643   0.683
 4241SOL    HW113622   5.251   0.556   0.633
 4241SOL    HW213623   5.174   0.700   0.641
 4242SOL     OW13624   2.928   2.068   4.066
 4242SOL    HW113625   2.887   2.159   4.058
 4242SOL    HW213626   3.009   2.063   4.007
 4243SOL     OW13627   5.222   1.513   2.922
 4243SOL    HW113628   5.206   1.527   3.019
 4243SOL    HW213629   5.224   1.601   2.875
 4244SOL     OW13630   3.872   4.469   1.398
 4244SOL    HW113631   3.852   4.372   1.386
 4244SOL    HW213632   3.840   4.499   1.487
 4245SOL     OW13633   6.309   2.319   6.614
 4245SOL    HW113634   6.317   2.232   6.565
 4245SOL    HW213635   6.400   2.359   6.627
 4246SOL     OW13636   6.309   4.028   3.581
 4246SOL    HW113637   6.228   3.977   3.551
 4246SOL    HW213638   6.391   3.984   3.545
 4247SOL     OW13639   1.773   6.602   3.643
 4247SOL    HW113640   1.727   6.573   3.559
 4247SOL    HW213641   1.868   6.624   3.623
 4248SOL     OW13642   2.720   1.969   4.557
 4248SOL    HW113643   2.780   2.048   4.568
 4248SOL    HW213644   2.764   1.889   4.597
 4249SOL     OW13645   6.530   2.938   5.166
 4249SOL    HW113646   6.521   2.982   5.077
 4249SOL    HW213647   6.519   2.839   5.155
 4250SOL     OW13648   0.078   4.647   3.427
 4250SOL    HW113649   0.135   4.703   3.486
 4250SOL    HW213650   0.087   4.551   3.453
 4251SOL     OW13651   5.826   5.035   0.678
 4251SOL    HW113652   5.733   5.000   0.695
 4251SOL    HW213653   5.820   5.129   0.646
 4252SOL     OW13654   6.220   6.755   5.645
 4252SOL    HW113655   6.184   6.677   5.696
 4252SOL    HW213656   6.308   6.782   5.684
 4253SOL     OW13657   2.562   0.275   1.745
 4253SOL    HW113658   2.595   0.347   1.683
 4253SOL    HW213659   2.463   0.263   1.733
 4254SOL     OW13660   0.744   2.723   1.880
 4254SOL    HW113661   0.839   2.749   1.862
 4254SOL    HW213662   0.683   2.782   1.827
 4255SOL     OW13663   5.900   2.834   3.565
 4255SOL    HW113664   5.986   2.870   3.603
 4255SOL    HW213665   5.823   2.874   3.615
 4256SOL     OW13666   1.324   6.611   0.746
 4256SOL    HW113667   1.272   6.529   0.770
 4256SOL    HW213668   1.385   6.590   0.669
 4257SOL     OW13669   3.506   0.416   4.660
 4257SOL    HW113670   3.573   0.469   4.711
 4257SOL    HW213671   3.482   0.333   4.712
 4258SOL     OW13672   5.963   6.269   1.561
 4258SOL    HW113673   5.912   6.304   1.483
 4258SOL    HW213674   6.061   6.270   1.540
 4259SOL     OW13675   3.051   0.378   6.640
 4259SOL    HW113676   3.135   0.334   6.671
 4259SOL    HW213677   2.973   0.321   6.664
 4260SOL     OW13678   5.340   6.595   5.226
 4260SOL    HW113679   5.398   6.675   5.242
 4260SOL    HW213680   5.284   6.577   5.307
 4261SOL     OW13681   1.753   0.747   1.802
 4261SOL    HW113682   1.726   0.652   1.818
 4261SOL    HW213683   1.729   0.803   1.881
 4262SOL     OW13684   0.975   4.613   5.792
 4262SOL    HW113685   1.032   4.531   5.802
 4262SOL    HW213686   1.003   4.663   5.710
 4263SOL     OW13687   2.875   6.307   3.540
 4263SOL    HW113688   2.788   6.306   3.590
 4263SOL    HW213689   2.858   6.284   3.444
 4264SOL     OW13690   6.678   1.796   2.688
 4264SOL    HW113691   6.778   1.803   2.694
 4264SOL    HW213692   6.647   1.723   2.749
 4265SOL     OW13693   5.285   1.429   0.421
 4265SOL    HW113694   5.318   1.514   0.381
 4265SOL    HW213695   5.251   1.447   0.514
 4266SOL     OW13696   2.000   5.609   0.758
 4266SOL    HW113697   2.053   5.638   0.678
 4266SOL    HW213698   1.975   5.513   0.749
 4267SOL     OW13699   1.835   3.648   5.159
 4267SOL    HW113700   1.840   3.743   5.190
 4267SOL    HW213701   1.751   3.634   5.106
 4268SOL     OW13702   1.439   6.946   6.634
 4268SOL    HW113703   1.519   6.893   6.603
 4268SOL    HW213704   1.466   7.006   6.709
 4269SOL     OW13705   2.440   1.603   0.237
 4269SOL    HW113706   2.376   1.586   0.312
 4269SOL    HW213707   2.481   1.694   0.248
 4270SOL     OW13708   3.427   3.028   4.024
 4270SOL    HW113709   3.400   3.005   4.118
 4270SOL    HW213710   3.519   3.067   4.024
 4271SOL     OW13711   0.363   1.346   6.397
 4271SOL    HW113712   0.401   1.384   6.312
 4271SOL    HW213713   0.274   1.305   6.378
 4272SOL     OW13714   0.701   4.504   4.967
 4272SOL    HW113715   0.607   4.530   4.948
 4272SOL    HW213716   0.718   4.411   4.934
 4273SOL     OW13717   4.962   6.132   4.943
 4273SOL    HW113718   4.949   6.039   4.910
 4273SOL    HW213719   4.986   6.192   4.866
 4274SOL     OW13720   1.376   0.290   2.945
 4274SOL    HW113721   1.476   0.283   2.956
 4274SOL    HW213722   1.337   0.199   2.938
 4275SOL     OW13723   6.991   1.784   5.090
 4275SOL    HW113724   6.965   1.878   5.111
 4275SOL    HW213725   6.910   1.733   5.059
 4276SOL     OW13726   1.115   4.211   3.892
 4276SOL    HW113727   1.117   4.254   3.802
 4276SOL    HW213728   1.073   4.274   3.958
 4277SOL     OW13729   6.216   4.494   4.321
 4277SOL    HW113730   6.182   4.579   4.360
 4277SOL    HW213731   6.157   4.418   4.351
 4278SOL     OW13732   7.001   0.963   4.324
 4278SOL    HW113733   6.920   0.973   4.383
 4278SOL    HW213734   0.026   0.878   4.347
 4279SOL     OW13735   3.264   6.649   5.493
 4279SOL    HW113736   3.346   6.705   5.497
 4279SOL    HW213737   3.248   6.619   5.399
 4280SOL     OW13738   5.045   1.135   5.532
 4280SOL    HW113739   5.014   1.229   5.515
 4280SOL    HW213740   4.985   1.071   5.483
 4281SOL     OW13741   2.552   4.737   4.490
 4281SOL    HW113742   2.620   4.747   4.418
 4281SOL    HW213743   2.598   4.714   4.576
 4282SOL     OW13744   3.145   2.537   0.574
 4282SOL    HW113745   3.134   2.437   0.574
 4282SOL    HW213746   3.141   2.570   0.668
 4283SOL     OW13747   1.831   0.804   3.798
 4283SOL    HW113748   1.810   0.745   3.876
 4283SOL    HW213749   1.787   0.893   3.811
 4284SOL     OW13750   5.050   6.000   2.007
 4284SOL    HW113751   4.996   5.927   2.050
 4284SOL    HW213752   5.104   6.048   2.076
 4285SOL     OW13753   0.577   0.649   6.185
 4285SOL    HW113754   0.664   0.696   6.201
 4285SOL    HW213755   0.566   0.576   6.252
 4286SOL     OW13756   4.920   5.627   6.523
 4286SOL    HW113757   4.989   5.586   6.583
 4286SOL    HW213758   4.830   5.593   6.548
 4287SOL     OW13759   5.826   1.125   6.438
 4287SOL    HW113760   5.762   1.049   6.450
 4287SOL    HW213761   5.909   1.092   6.393
 4288SOL     OW13762   1.131   5.449   2.873
 4288SOL    HW113763   1.080   5.504   2.939
 4288SOL    HW213764   1.108   5.353   2.885
 4289SOL     OW13765   6.251   3.207   0.914
 4289SOL    HW113766   6.202   3.263   0.980
 4289SOL    HW213767   6.334   3.255   0.884
 4290SOL     OW13768   2.814   6.630   2.049
 4290SOL    HW113769   2.911   6.653   2.039
 4290SOL    HW213770   2.792   6.622   2.146
 4291SOL     OW13771   4.707   3.885   1.789
 4291SOL    HW113772   4.733   3.965   1.735
 4291SOL    HW213773   4.622   3.847   1.753
 4292SOL     OW13774   6.638   4.527   6.133
 4292SOL    HW113775   6.595   4.522   6.223
 4292SOL    HW213776   6.645   4.435   6.095
 4293SOL     OW13777   6.903   3.043   0.305
 4293SOL    HW113778   6.941   3.054   0.397
 4293SOL    HW213779   6.931   2.954   0.268
 4294SOL     OW13780   3.962   2.864   0.259
 4294SOL    HW113781   3.938   2.896   0.167
 4294SOL    HW213782   4.060   2.846   0.264
 4295SOL     OW13783   3.546   5.938   4.623
 4295SOL    HW113784   3.635   5.970   4.590
 4295SOL    HW213785   3.549   5.931   4.723
 4296SOL     OW13786   3.442   1.361   6.928
 4296SOL    HW113787   3.348   1.374   6.957
 4296SOL    HW213788   3.449   1.372   6.828
 4297SOL     OW13789   5.340   0.841   6.212
 4297SOL    HW113790   5.258   0.850   6.268
 4297SOL    HW213791   5.319   0.789   6.130
 4298SOL     OW13792   2.533   5.278   6.244
 4298SOL    HW113793   2.626   5.266   6.278
 4298SOL    HW213794   2.468   5.271   6.319
 4299SOL     OW13795   0.594   3.074   0.072
 4299SOL    HW113796   0.555   2.987   0.101
 4299SOL    HW213797   0.537   3.115   0.001
 4300SOL     OW13798   3.947   1.003   6.583
 4300SOL    HW113799   4.001   0.932   6.538
 4300SOL    HW213800   3.965   1.091   6.540
 4301SOL     OW13801   2.859   1.605   0.571
 4301SOL    HW113802   2.954   1.580   0.592
 4301SOL    HW213803   2.840   1.582   0.475
 4302SOL     OW13804   0.778   6.432   5.616
 4302SOL    HW113805   0.801   6.481   5.700
 4302SOL    HW213806   0.685   6.457   5.588
 4303SOL     OW13807   5.658   5.008   3.973
 4303SOL    HW113808   5.653   4.930   4.035
 4303SOL    HW213809   5.574   5.061   3.978
 4304SOL     OW13810   2.998   3.741   4.380
 4304SOL    HW113811   2.931   3.803   4.339
 4304SOL    HW213812   2.961   3.705   4.466
 4305SOL     OW13813   5.912   0.786   4.183
 4305SOL    HW113814   5.827   0.742   4.154
 4305SOL    HW213815   5.969   0.806   4.104
 4306SOL     OW13816   6.351   3.817   6.520
 4306SOL    HW113817   6.318   3.906   6.551
 4306SOL    HW213818   6.297   3.744   6.562
 4307SOL     OW13819   5.276   4.178   6.488
 4307SOL    HW113820   5.236   4.186   6.397
 4307SOL    HW213821   5.376   4.184   6.482
 4308SOL     OW13822   5.642   5.273   6.311
 4308SOL    HW113823   5.671   5.357   6.357
 4308SOL    HW213824   5.721   5.216   6.293
 4309SOL     OW13825   1.279   0.181   0.530
 4309SOL    HW113826   1.225   0.237   0.593
 4309SOL    HW213827   1.359   0.233   0.499
 4310SOL     OW13828   2.061   2.177   3.024
 4310SOL    HW113829   1.996   2.252   3.009
 4310SOL    HW213830   2.154   2.214   3.031
 4311SOL     OW13831   1.371   5.721   2.918
 4311SOL    HW113832   1.307   5.650   2.888
 4311SOL    HW213833   1.390   5.784   2.843
 4312SOL     OW13834   1.646   5.317   0.772
 4312SOL    HW113835   1.736   5.348   0.739
 4312SOL    HW213836   1.653   5.291   0.868
 4313SOL     OW13837   4.875   1.503   1.915
 4313SOL    HW113838   4.850   1.553   1.833
 4313SOL    HW213839   4.864   1.405   1.900
 4314SOL     OW13840   5.809   1.926   4.014
 4314SOL    HW113841   5.725   1.920   4.069
 4314SOL    HW213842   5.843   2.020   4.015
 4315SOL     OW13843   2.314   0.844   2.387
 4315SOL    HW113844   2.335   0.786   2.466
 4315SOL    HW213845   2.221   0.881   2.397
 4316SOL     OW13846   5.146   6.893   0.820
 4316SOL    HW113847   5.185   6.801   0.818
 4316SOL    HW213848   5.057   6.892   0.774
 4317SOL     OW13849   3.604   1.191   4.519
 4317SOL    HW113850   3.682   1.186   4.582
 4317SOL    HW213851   3.637   1.193   4.425
 4318SOL     OW13852   1.602   3.303   3.518
 4318SOL    HW113853   1.553   3.388   3.501
 4318SOL    HW213854   1.663   3.283   3.440
 4319SOL     OW13855   2.566   2.621   0.492
 4319SOL    HW113856   2.665   2.629   0.497
 4319SOL    HW213857   2.535   2.641   0.399
 4320SOL     OW13858   0.753   5.762   1.834
 4320SOL    HW113859   0.655   5.746   1.823
 4320SOL    HW213860   0.787   5.711   1.913
 4321SOL     OW13861   6.788   6.975   4.335
 4321SOL    HW113862   6.868   6.943   4.386
 4321SOL    HW213863   6.726   0.002   4.397
 4322SOL     OW13864   6.030   1.814   6.465
 4322SOL    HW113865   6.004   1.806   6.561
 4322SOL    HW213866   6.062   1.907   6.447
 4323SOL     OW13867   5.207   4.428   1.432
 4323SOL    HW113868   5.288   4.372   1.413
 4323SOL    HW213869   5.175   4.410   1.525
 4324SOL     OW13870   5.523   4.641   6.931
 4324SOL    HW113871   5.590   4.707   6.896
 4324SOL    HW213872   5.557   4.601   7.016
 4325SOL     OW13873   1.498   0.471   0.096
 4325SOL    HW113874   1.563   0.396   0.082
 4325SOL    HW213875   1.548   0.558   0.103
 4326SOL     OW13876   6.067   2.787   4.781
 4326SOL    HW113877   6.087   2.706   4.836
 4326SOL    HW213878   5.997   2.765   4.713
 4327SOL     OW13879   6.004   5.166   2.137
 4327SOL    HW113880   6.035   5.118   2.218
 4327SOL    HW213881   5.908   5.145   2.119
 4328SOL     OW13882   4.426   3.963   5.816
 4328SOL    HW113883   4.478   4.041   5.783
 4328SOL    HW213884   4.488   3.896   5.856
 4329SOL     OW13885   3.735   1.639   5.928
 4329SOL    HW113886   3.806   1.709   5.940
 4329SOL    HW213887   3.657   1.679   5.880
 4330SOL     OW13888   2.893   0.511   5.036
 4330SOL    HW113889   2.851   0.489   4.949
 4330SOL    HW213890   2.894   0.610   5.049
 4331SOL     OW13891   4.746   3.045   0.758
 4331SOL    HW113892   4.723   3.092   0.844
 4331SOL    HW213893   4.723   3.104   0.681
 4332SOL     OW13894   5.454   4.853   2.337
 4332SOL    HW113895   5.466   4.763   2.295
 4332SOL    HW213896   5.357   4.877   2.338
 4333SOL     OW13897   4.380   0.680   5.557
 4333SOL    HW113898   4.396   0.581   5.565
 4333SOL    HW213899   4.402   0.724   5.644
 4334SOL     OW13900   2.040   2.344   2.250
 4334SOL    HW113901   1.948   2.320   2.280
 4334SOL    HW213902   2.095   2.261   2.240
 4335SOL     OW13903   3.090   3.971   3.437
 4335SOL    HW113904   3.053   3.879   3.424
 4335SOL    HW213905   3.084   3.996   3.534
 4336SOL     OW13906   0.793   6.397   5.297
 4336SOL    HW113907   0.759   6.449   5.376
 4336SOL    HW213908   0.739   6.313   5.287
 4337SOL     OW13909   1.103   4.783   0.389
 4337SOL    HW113910   1.020   4.728   0.382
 4337SOL    HW213911   1.176   4.741   0.335
 4338SOL     OW13912   5.172   5.857   4.282
 4338SOL    HW113913   5.190   5.760   4.302
 4338SOL    HW213914   5.135   5.865   4.189
 4339SOL     OW13915   5.765   3.763   5.431
 4339SOL    HW113916   5.812   3.851   5.415
 4339SOL    HW213917   5.685   3.757   5.372
 4340SOL     OW13918   6.023   4.197   2.262
 4340SOL    HW113919   6.039   4.198   2.361
 4340SOL    HW213920   5.965   4.275   2.237
 4341SOL     OW13921   1.082   5.823   2.020
 4341SOL    HW113922   1.001   5.833   2.078
 4341SOL    HW213923   1.158   5.789   2.074
 4342SOL     OW13924   6.715   3.505   3.863
 4342SOL    HW113925   6.686   3.430   3.923
 4342SOL    HW213926   6.703   3.478   3.768
 4343SOL     OW13927   2.333   6.479   6.056
 4343SOL    HW113928   2.256   6.433   6.011
 4343SOL    HW213929   2.389   6.411   6.103
 4344SOL     OW13930   1.723   5.054   2.838
 4344SOL    HW113931   1.793   5.039   2.908
 4344SOL    HW213932   1.752   5.127   2.777
 4345SOL     OW13933   1.946   2.679   5.819
 4345SOL    HW113934   2.015   2.716   5.882
 4345SOL    HW213935   1.930   2.744   5.745
 4346SOL     OW13936   2.059   2.855   1.310
 4346SOL    HW113937   2.002   2.783   1.272
 4346SOL    HW213938   2.087   2.830   1.402
 4347SOL     OW13939   6.077   0.689   2.583
 4347SOL    HW113940   6.037   0.597   2.589
 4347SOL    HW213941   6.130   0.708   2.666
 4348SOL     OW13942   0.373   3.190   2.173
 4348SOL    HW113943   0.429   3.124   2.123
 4348SOL    HW213944   0.389   3.180   2.272
 4349SOL     OW13945   6.398   1.775   3.126
 4349SOL    HW113946   6.493   1.771   3.094
 4349SOL    HW213947   6.336   1.768   3.048
 4350SOL     OW13948   5.106   2.423   4.830
 4350SOL    HW113949   5.128   2.415   4.928
 4350SOL    HW213950   5.103   2.519   4.805
 4351SOL     OW13951   1.925   6.323   1.003
 4351SOL    HW113952   1.834   6.331   0.962
 4351SOL    HW213953   1.964   6.414   1.016
 4352SOL     OW13954   0.859   2.327   2.183
 4352SOL    HW113955   0.881   2.411   2.134
 4352SOL    HW213956   0.909   2.325   2.269
 4353SOL     OW13957   3.340   4.318   0.438
 4353SOL    HW113958   3.290   4.259   0.502
 4353SOL    HW213959   3.430   4.339   0.476
 4354SOL     OW13960   1.778   6.368   5.394
 4354SOL    HW113961   1.828   6.306   5.333
 4354SOL    HW213962   1.841   6.405   5.462
 4355SOL     OW13963   3.250   0.329   2.317
 4355SOL    HW113964   3.289   0.373   2.236
 4355SOL    HW213965   3.261   0.388   2.396
 4356SOL     OW13966   4.506   4.454   1.718
 4356SOL    HW113967   4.502   4.392   1.796
 4356SOL    HW213968   4.413   4.480   1.692
 4357SOL     OW13969   6.178   0.142   6.862
 4357SOL    HW113970   6.202   0.169   6.956
 4357SOL    HW213971   6.215   0.052   6.843
 4358SOL     OW13972   6.853   5.969   0.452
 4358SOL    HW113973   6.927   5.980   0.385
 4358SOL    HW213974   6.892   5.966   0.544
 4359SOL     OW13975   1.408   1.884   5.503
 4359SOL    HW113976   1.482   1.876   5.570
 4359SOL    HW213977   1.358   1.797   5.498
 4360SOL     OW13978   1.353   3.204   2.877
 4360SOL    HW113979   1.257   3.193   2.902
 4360SOL    HW213980   1.410   3.197   2.958
 4361SOL     OW13981   2.947   2.627   1.734
 4361SOL    HW113982   2.925   2.723   1.750
 4361SOL    HW213983   2.923   2.573   1.814
 4362SOL     OW13984   6.132   4.096   4.093
 4362SOL    HW113985   6.055   4.141   4.049
 4362SOL    HW213986   6.181   4.040   4.026
 4363SOL     OW13987   5.477   2.367   6.875
 4363SOL    HW113988   5.449   2.460   6.900
 4363SOL    HW213989   5.571   2.351   6.905
 4364SOL     OW13990   3.156   3.835   5.185
 4364SOL    HW113991   3.059   3.837   5.209
 4364SOL    HW213992   3.166   3.813   5.088
 4365SOL     OW13993   2.346   2.265   1.745
 4365SOL    HW113994   2.273   2.298   1.686
 4365SOL    HW213995   2.432   2.261   1.694
 4366SOL     OW13996   5.400   6.784   0.348
 4366SOL    HW113997   5.479   6.803   0.289
 4366SOL    HW213998   5.355   6.700   0.317
 4367SOL     OW13999   1.969   4.949   5.159
 4367SOL    HW114000   1.958   5.008   5.239
 4367SOL    HW214001   1.909   4.869   5.168
 4368SOL     OW14002   4.144   5.553   1.222
 4368SOL    HW114003   4.239   5.581   1.229
 4368SOL    HW214004   4.128   5.472   1.278
 4369SOL     OW14005   4.238   5.486   3.092
 4369SOL    HW114006   4.190   5.574   3.092
 4369SOL    HW214007   4.216   5.436   3.175
 4370SOL     OW14008   4.638   4.372   2.964
 4370SOL    HW114009   4.562   4.423   2.923
 4370SOL    HW214010   4.661   4.294   2.906
 4371SOL     OW14011   6.661   0.780   1.434
 4371SOL    HW114012   6.672   0.730   1.520
 4371SOL    HW214013   6.565   0.784   1.409
 4372SOL     OW14014   4.375   1.119   3.040
 4372SOL    HW114015   4.373   1.034   2.988
 4372SOL    HW214016   4.404   1.100   3.134
 4373SOL     OW14017   6.948   2.521   6.811
 4373SOL    HW114018   6.942   2.550   6.906
 4373SOL    HW214019   0.003   2.566   6.766
 4374SOL     OW14020   1.068   1.843   1.792
 4374SOL    HW114021   0.997   1.890   1.739
 4374SOL    HW214022   1.132   1.910   1.828
 4375SOL     OW14023   3.323   0.715   3.989
 4375SOL    HW114024   3.235   0.717   3.942
 4375SOL    HW214025   3.390   0.667   3.931
 4376SOL     OW14026   6.852   6.766   3.111
 4376SOL    HW114027   6.931   6.715   3.078
 4376SOL    HW214028   6.832   6.739   3.205
 4377SOL     OW14029   6.115   4.087   0.517
 4377SOL    HW114030   6.175   4.129   0.585
 4377SOL    HW214031   6.110   4.146   0.436
 4378SOL     OW14032   1.858   1.459   2.576
 4378SOL    HW114033   1.901   1.520   2.643
 4378SOL    HW214034   1.848   1.368   2.616
 4379SOL     OW14035   2.403   1.053   3.666
 4379SOL    HW114036   2.453   1.126   3.713
 4379SOL    HW214037   2.305   1.067   3.677
 4380SOL     OW14038   1.346   0.004   1.149
 4380SOL    HW114039   1.260   6.978   1.164
 4380SOL    HW214040   1.327   0.093   1.107
 4381SOL     OW14041   1.027   6.032   4.341
 4381SOL    HW114042   1.099   5.966   4.365
 4381SOL    HW214043   1.007   6.089   4.421
 4382SOL     OW14044   0.049   3.907   5.838
 4382SOL    HW114045   0.139   3.868   5.855
 4382SOL    HW214046   0.056   4.006   5.833
 4383SOL     OW14047   0.046   3.875   6.182
 4383SOL    HW114048   0.001   3.874   6.093
 4383SOL    HW214049   0.135   3.828   6.174
 4384SOL     OW14050   6.182   0.412   3.718
 4384SOL    HW114051   6.208   0.420   3.814
 4384SOL    HW214052   6.258   0.440   3.661
 4385SOL     OW14053   4.473   2.544   5.293
 4385SOL    HW114054   4.488   2.604   5.371
 4385SOL    HW214055   4.506   2.587   5.210
 4386SOL     OW14056   1.291   4.072   4.940
 4386SOL    HW114057   1.284   4.031   4.849
 4386SOL    HW214058   1.351   4.015   4.997
 4387SOL     OW14059   0.122   2.289   2.186
 4387SOL    HW114060   0.124   2.372   2.242
 4387SOL    HW214061   0.131   2.314   2.090
 4388SOL     OW14062   3.708   2.273   6.176
 4388SOL    HW114063   3.627   2.218   6.195
 4388SOL    HW214064   3.786   2.213   6.160
 4389SOL     OW14065   6.836   3.817   0.676
 4389SOL    HW114066   6.875   3.827   0.768
 4389SOL    HW214067   6.813   3.908   0.640
 4390SOL     OW14068   4.470   7.017   1.556
 4390SOL    HW114069   4.567   6.992   1.554
 4390SOL    HW214070   4.435   0.004   1.463
 4391SOL     OW14071   3.015   4.649   0.055
 4391SOL    HW114072   3.058   4.613   0.138
 4391SOL    HW214073   2.970   4.574   0.006
 4392SOL     OW14074   0.953   2.322   4.658
 4392SOL    HW114075   0.909   2.408   4.630
 4392SOL    HW214076   1.013   2.340   4.735
 4393SOL     OW14077   6.370   0.558   1.895
 4393SOL    HW114078   6.458   0.586   1.934
 4393SOL    HW214079   6.385   0.519   1.804
 4394SOL     OW14080   0.466   6.131   2.105
 4394SOL    HW114081   0.426   6.100   2.018
 4394SOL    HW214082   0.468   6.231   2.106
 4395SOL     OW14083   2.128   0.364   1.544
 4395SOL    HW114084   2.164   0.416   1.467
 4395SOL    HW214085   2.048   0.411   1.582
 4396SOL     OW14086   1.653   1.365   3.739
 4396SOL    HW114087   1.720   1.412   3.681
 4396SOL    HW214088   1.598   1.303   3.684
 4397SOL     OW14089   1.905   3.016   4.697
 4397SOL    HW114090   1.891   2.974   4.786
 4397SOL    HW214091   1.939   2.947   4.632
 4398SOL     OW14092   1.662   3.401   6.047
 4398SOL    HW114093   1.573   3.356   6.053
 4398SOL    HW214094   1.690   3.406   5.951
 4399SOL     OW14095   2.990   6.299   1.962
 4399SOL    HW114096   3.065   6.359   1.988
 4399SOL    HW214097   2.944   6.335   1.881
 4400SOL     OW14098   2.222   6.626   3.736
 4400SOL    HW114099   2.210   6.570   3.655
 4400SOL    HW214100   2.214   6.569   3.818
 4401SOL     OW14101   3.889   6.374   5.156
 4401SOL    HW114102   3.856   6.445   5.218
 4401SOL    HW214103   3.816   6.307   5.140
 4402SOL     OW14104   0.958   0.256   2.993
 4402SOL    HW114105   1.024   0.191   3.028
 4402SOL    HW214106   0.869   0.211   2.981
 4403SOL     OW14107   1.364   6.460   0.522
 4403SOL    HW114108   1.266   6.473   0.534
 4403SOL    HW214109   1.394   6.510   0.440
 4404SOL     OW14110   0.602   6.571   5.408
 4404SOL    HW114111   0.637   6.646   5.464
 4404SOL    HW214112   0.503   6.583   5.394
 4405SOL     OW14113   2.082   4.782   2.342
 4405SOL    HW114114   2.000   4.734   2.310
 4405SOL    HW214115   2.121   4.833   2.265
 4406SOL     OW14116   6.747   2.722   0.723
 4406SOL    HW114117   6.654   2.743   0.695
 4406SOL    HW214118   6.791   2.804   0.759
 4407SOL     OW14119   0.211   5.258   1.762
 4407SOL    HW114120   0.160   5.189   1.814
 4407SOL    HW214121   0.150   5.300   1.695
 4408SOL     OW14122   2.191   6.571   6.859
 4408SOL    HW114123   2.189   6.567   6.759
 4408SOL    HW214124   2.134   6.497   6.896
 4409SOL     OW14125   4.409   1.077   1.265
 4409SOL    HW114126   4.311   1.092   1.276
 4409SOL    HW214127   4.450   1.061   1.355
 4410SOL     OW14128   6.709   5.687   0.102
 4410SOL    HW114129   6.694   5.728   0.192
 4410SOL    HW214130   6.639   5.618   0.085
 4411SOL     OW14131   3.333   4.633   5.357
 4411SOL    HW114132   3.273   4.686   5.297
 4411SOL    HW214133   3.285   4.610   5.442
 4412SOL     OW14134   4.787   6.458   4.187
 4412SOL    HW114135   4.865   6.514   4.158
 4412SOL    HW214136   4.714   6.518   4.220
 4413SOL     OW14137   5.514   5.829   3.636
 4413SOL    HW114138   5.541   5.874   3.721
 4413SOL    HW214139   5.544   5.734   3.638
 4414SOL     OW14140   4.097   5.781   1.083
 4414SOL    HW114141   4.124   5.693   1.122
 4414SOL    HW214142   4.070   5.767   0.988
 4415SOL     OW14143   3.845   3.312   0.651
 4415SOL    HW114144   3.915   3.247   0.681
 4415SOL    HW214145   3.801   3.276   0.569
 4416SOL     OW14146   4.077   1.433   3.678
 4416SOL    HW114147   4.119   1.452   3.589
 4416SOL    HW214148   4.060   1.520   3.726
 4417SOL     OW14149   5.498   3.061   3.973
 4417SOL    HW114150   5.435   3.013   3.911
 4417SOL    HW214151   5.549   3.130   3.922
 4418SOL     OW14152   6.266   1.987   2.377
 4418SOL    HW114153   6.260   2.084   2.400
 4418SOL    HW214154   6.345   1.947   2.423
 4419SOL     OW14155   6.668   0.390   5.961
 4419SOL    HW114156   6.628   0.302   5.934
 4419SOL    HW214157   6.603   0.463   5.944
 4420SOL     OW14158   3.379   1.322   0.849
 4420SOL    HW114159   3.352   1.291   0.941
 4420SOL    HW214160   3.324   1.402   0.823
 4421SOL     OW14161   2.118   1.968   5.400
 4421SOL    HW114162   2.156   2.042   5.344
 4421SOL    HW214163   2.049   1.919   5.347
 4422SOL     OW14164   1.047   4.454   6.665
 4422SOL    HW114165   1.089   4.517   6.731
 4422SOL    HW214166   1.019   4.505   6.584
 4423SOL     OW14167   0.112   4.431   5.757
 4423SOL    HW114168   0.174   4.436   5.835
 4423SOL    HW214169   0.041   4.501   5.766
 4424SOL     OW14170   5.346   6.188   5.008
 4424SOL    HW114171   5.423   6.137   5.048
 4424SOL    HW214172   5.268   6.184   5.071
 4425SOL     OW14173   1.518   5.127   0.989
 4425SOL    HW114174   1.495   5.201   1.052
 4425SOL    HW214175   1.582   5.065   1.033
 4426SOL     OW14176   0.625   1.564   3.617
 4426SOL    HW114177   0.674   1.582   3.702
 4426SOL    HW214178   0.667   1.487   3.569
 4427SOL     OW14179   4.270   6.022   2.576
 4427SOL    HW114180   4.314   6.093   2.630
 4427SOL    HW214181   4.337   5.980   2.515
 4428SOL     OW14182   4.420   0.787   4.240
 4428SOL    HW114183   4.509   0.745   4.223
 4428SOL    HW214184   4.434   0.877   4.282
 4429SOL     OW14185   2.644   6.525   2.639
 4429SOL    HW114186   2.655   6.623   2.654
 4429SOL    HW214187   2.670   6.503   2.545
 4430SOL     OW14188   5.252   4.454   4.773
 4430SOL    HW114189   5.286   4.535   4.725
 4430SOL    HW214190   5.319   4.426   4.842
 4431SOL     OW14191   2.591   1.156   3.095
 4431SOL    HW114192   2.501   1.115   3.079
 4431SOL    HW214193   2.630   1.119   3.179
 4432SOL     OW14194   2.274   3.495   6.721
 4432SOL    HW114195   2.294   3.442   6.803
 4432SOL    HW214196   2.198   3.557   6.738
 4433SOL     OW14197   6.924   2.602   4.717
 4433SOL    HW114198   7.003   2.597   4.657
 4433SOL    HW214199   6.945   2.559   4.805
 4434SOL     OW14200   5.450   1.792   3.125
 4434SOL    HW114201   5.509   1.795   3.206
 4434SOL    HW214202   5.484   1.856   3.056
 4435SOL     OW14203   4.071   4.101   1.202
 4435SOL    HW114204   4.090   4.092   1.299
 4435SOL    HW214205   4.150   4.143   1.156
 4436SOL     OW14206   3.713   1.381   1.309
 4436SOL    HW114207   3.793   1.320   1.307
 4436SOL    HW214208   3.682   1.399   1.216
 4437SOL     OW14209   0.697   3.409   2.547
 4437SOL    HW114210   0.608   3.416   2.502
 4437SOL    HW214211   0.745   3.329   2.512
 4438SOL     OW14212   5.312   6.782   5.837
 4438SOL    HW114213   5.311   6.690   5.877
 4438SOL    HW214214   5.369   6.842   5.893
 4439SOL     OW14215   0.528   4.949   2.380
 4439SOL    HW114216   0.527   4.906   2.470
 4439SOL    HW214217   0.513   4.879   2.310
 4440SOL     OW14218   2.453   5.150   0.594
 4440SOL    HW114219   2.516   5.154   0.671
 4440SOL    HW214220   2.501   5.173   0.510
 4441SOL     OW14221   6.894   1.094   0.772
 4441SOL    HW114222   6.915   1.055   0.861
 4441SOL    HW214223   6.813   1.152   0.780
 4442SOL     OW14224   1.352   5.437   5.126
 4442SOL    HW114225   1.336   5.520   5.178
 4442SOL    HW214226   1.419   5.454   5.054
 4443SOL     OW14227   0.950   4.035   5.866
 4443SOL    HW114228   0.904   4.030   5.778
 4443SOL    HW214229   1.047   4.057   5.853
 4444SOL     OW14230   4.447   3.642   0.415
 4444SOL    HW114231   4.528   3.698   0.393
 4444SOL    HW214232   4.366   3.700   0.416
 4445SOL     OW14233   1.553   6.076   0.362
 4445SOL    HW114234   1.526   6.008   0.294
 4445SOL    HW214235   1.593   6.156   0.315
 4446SOL     OW14236   5.553   1.578   0.137
 4446SOL    HW114237   5.460   1.616   0.131
 4446SOL    HW214238   5.601   1.621   0.213
 4447SOL     OW14239   5.717   3.932   4.488
 4447SOL    HW114240   5.768   3.863   4.436
 4447SOL    HW214241   5.619   3.922   4.469
 4448SOL     OW14242   3.185   6.735   1.406
 4448SOL    HW114243   3.093   6.710   1.437
 4448SOL    HW214244   3.253   6.690   1.464
 4449SOL     OW14245   4.726   1.167   6.034
 4449SOL    HW114246   4.759   1.255   6.000
 4449SOL    HW214247   4.767   1.148   6.124
 4450SOL     OW14248   3.133   1.338   6.929
 4450SOL    HW114249   3.120   1.268   7.000
 4450SOL    HW214250   3.139   1.294   6.840
 4451SOL     OW14251   4.722   5.393   4.559
 4451SOL    HW114252   4.659   5.446   4.502
 4451SOL    HW214253   4.746   5.308   4.511
 4452SOL     OW14254   6.478   5.013   4.706
 4452SOL    HW114255   6.426   4.928   4.715
 4452SOL    HW214256   6.417   5.091   4.717
 4453SOL     OW14257   1.159   2.567   1.688
 4453SOL    HW114258   1.104   2.533   1.764
 4453SOL    HW214259   1.244   2.515   1.682
 4454SOL     OW14260   1.061   2.015   6.957
 4454SOL    HW114261   1.138   2.074   6.982
 4454SOL    HW214262   1.003   2.000   0.015
 4455SOL     OW14263   5.266   5.874   5.562
 4455SOL    HW114264   5.171   5.860   5.534
 4455SOL    HW214265   5.314   5.786   5.564
 4456SOL     OW14266   2.391   5.544   3.245
 4456SOL    HW114267   2.296   5.572   3.236
 4456SOL    HW214268   2.415   5.536   3.342
 4457SOL     OW14269   2.276   1.732   4.085
 4457SOL    HW114270   2.299   1.821   4.124
 4457SOL    HW214271   2.203   1.689   4.138
 4458SOL     OW14272   2.910   3.813   1.710
 4458SOL    HW114273   2.822   3.852   1.682
 4458SOL    HW214274   2.918   3.719   1.677
 4459SOL     OW14275   3.117   1.535   4.189
 4459SOL    HW114276   3.055   1.611   4.167
 4459SOL    HW214277   3.207   1.572   4.214
 4460SOL     OW14278   1.193   2.639   6.530
 4460SOL    HW114279   1.101   2.663   6.561
 4460SOL    HW214280   1.219   2.698   6.453
 4461SOL     OW14281   1.961   1.020   0.674
 4461SOL    HW114282   2.001   0.938   0.714
 4461SOL    HW214283   1.925   1.079   0.747
 4462SOL     OW14284   6.273   4.382   2.217
 4462SOL    HW114285   6.237   4.411   2.128
 4462SOL    HW214286   6.268   4.458   2.282
 4463SOL     OW14287   4.964   1.308   1.634
 4463SOL    HW114288   5.041   1.259   1.674
 4463SOL    HW214289   4.969   1.405   1.658
 4464SOL     OW14290   0.672   6.073   0.041
 4464SOL    HW114291   0.643   6.031   0.127
 4464SOL    HW214292   0.616   6.037   6.988
 4465SOL     OW14293   2.774   5.035   0.109
 4465SOL    HW114294   2.860   5.055   0.155
 4465SOL    HW214295   2.760   4.936   0.105
 4466SOL     OW14296   1.176   2.096   2.390
 4466SOL    HW114297   1.240   2.128   2.319
 4466SOL    HW214298   1.123   2.173   2.424
 4467SOL     OW14299   2.542   5.209   3.574
 4467SOL    HW114300   2.603   5.134   3.549
 4467SOL    HW214301   2.498   5.187   3.662
 4468SOL     OW14302   1.058   4.422   1.110
 4468SOL    HW114303   0.995   4.499   1.108
 4468SOL    HW214304   1.137   4.441   1.051
 4469SOL     OW14305   2.801   0.973   1.639
 4469SOL    HW114306   2.753   0.886   1.654
 4469SOL    HW214307   2.895   0.954   1.610
 4470SOL     OW14308   0.657   1.576   2.187
 4470SOL    HW114309   0.739   1.602   2.239
 4470SOL    HW214310   0.623   1.655   2.137
 4471SOL     OW14311   1.780   2.587   6.904
 4471SOL    HW114312   1.839   2.530   6.846
 4471SOL    HW214313   1.795   2.562   7.000
 4472SOL     OW14314   0.525   1.693   0.540
 4472SOL    HW114315   0.471   1.623   0.587
 4472SOL    HW214316   0.464   1.765   0.506
 4473SOL     OW14317   5.082   2.653   4.001
 4473SOL    HW114318   5.142   2.604   4.065
 4473SOL    HW214319   5.091   2.751   4.016
 4474SOL     OW14320   2.803   6.783   2.386
 4474SOL    HW114321   2.747   6.803   2.467
 4474SOL    HW214322   2.773   6.697   2.345
 4475SOL     OW14323   1.298   3.616   1.398
 4475SOL    HW114324   1.210   3.579   1.430
 4475SOL    HW214325   1.354   3.542   1.362
 4476SOL     OW14326   6.274   0.715   4.500
 4476SOL    HW114327   6.369   0.712   4.531
 4476SOL    HW214328   6.223   0.777   4.560
 4477SOL     OW14329   1.807   0.349   4.913
 4477SOL    HW114330   1.824   0.348   5.012
 4477SOL    HW214331   1.720   0.394   4.895
 4478SOL     OW14332   1.168   0.517   1.889
 4478SOL    HW114333   1.237   0.448   1.908
 4478SOL    HW214334   1.077   0.474   1.889
 4479SOL     OW14335   1.487   1.823   1.056
 4479SOL    HW114336   1.419   1.850   1.124
 4479SOL    HW214337   1.550   1.899   1.039
 4480SOL     OW14338   0.623   4.497   5.246
 4480SOL    HW114339   0.673   4.501   5.159
 4480SOL    HW214340   0.688   4.506   5.322
 4481SOL     OW14341   2.420   5.334   5.069
 4481SOL    HW114342   2.493   5.383   5.023
 4481SOL    HW214343   2.459   5.268   5.134
 4482SOL     OW14344   2.186   2.832   5.619
 4482SOL    HW114345   2.284   2.850   5.627
 4482SOL    HW214346   2.170   2.771   5.542
 4483SOL     OW14347   0.450   2.501   2.260
 4483SOL    HW114348   0.472   2.420   2.206
 4483SOL    HW214349   0.517   2.573   2.239
 4484SOL     OW14350   2.362   2.965   0.018
 4484SOL    HW114351   2.382   3.031   6.967
 4484SOL    HW214352   2.410   2.992   0.102
 4485SOL     OW14353   4.756   2.927   5.256
 4485SOL    HW114354   4.748   2.937   5.157
 4485SOL    HW214355   4.728   3.013   5.300
 4486SOL     OW14356   5.813   5.000   4.985
 4486SOL    HW114357   5.717   5.013   5.010
 4486SOL    HW214358   5.866   4.979   5.067
 4487SOL     OW14359   2.717   3.172   0.275
 4487SOL    HW114360   2.772   3.090   0.292
 4487SOL    HW214361   2.719   3.230   0.356
 4488SOL     OW14362   0.745   3.672   4.687
 4488SOL    HW114363   0.799   3.687   4.770
 4488SOL    HW214364   0.734   3.573   4.672
 4489SOL     OW14365   4.704   5.455   5.057
 4489SOL    HW114366   4.761   5.518   5.111
 4489SOL    HW214367   4.706   5.483   4.961
 4490SOL     OW14368   4.889   1.965   1.710
 4490SOL    HW114369   4.950   1.938   1.785
 4490SOL    HW214370   4.809   2.011   1.748
 4491SOL     OW14371   0.777   3.144   3.385
 4491SOL    HW114372   0.768   3.241   3.404
 4491SOL    HW214373   0.873   3.122   3.364
 4492SOL     OW14374   5.746   2.782   1.891
 4492SOL    HW114375   5.725   2.869   1.936
 4492SOL    HW214376   5.841   2.757   1.909
 4493SOL     OW14377   5.592   6.745   4.753
 4493SOL    HW114378   5.516   6.681   4.748
 4493SOL    HW214379   5.619   6.759   4.848
 4494SOL     OW14380   1.240   0.569   5.920
 4494SOL    HW114381   1.153   0.609   5.948
 4494SOL    HW214382   1.304   0.643   5.898
 4495SOL     OW14383   4.064   0.320   3.075
 4495SOL    HW114384   4.032   0.383   3.004
 4495SOL    HW214385   3.998   0.318   3.150
 4496SOL     OW14386   5.617   6.002   0.579
 4496SOL    HW114387   5.643   6.082   0.633
 4496SOL    HW214388   5.531   6.021   0.531
 4497SOL     OW14389   3.941   2.642   6.595
 4497SOL    HW114390   3.998   2.709   6.548
 4497SOL    HW214391   3.845   2.657   6.570
 4498SOL     OW14392   6.617   4.693   6.419
 4498SOL    HW114393   6.548   4.645   6.473
 4498SOL    HW214394   6.637   4.782   6.460
 4499SOL     OW14395   6.181   2.213   3.573
 4499SOL    HW114396   6.091   2.252   3.592
 4499SOL    HW214397   6.228   2.194   3.658
 4500SOL     OW14398   3.782   4.555   6.486
 4500SOL    HW114399   3.794   4.652   6.503
 4500SOL    HW214400   3.858   4.504   6.527
 4501SOL     OW14401   6.201   2.997   2.950
 4501SOL    HW114402   6.128   3.046   2.997
 4501SOL    HW214403   6.287   3.048   2.959
 4502SOL     OW14404   1.231   4.009   6.846
 4502SOL    HW114405   1.289   3.968   6.775
 4502SOL    HW214406   1.285   4.072   6.901
 4503SOL     OW14407   2.989   0.007   2.223
 4503SOL    HW114408   2.996   7.017   2.124
 4503SOL    HW214409   2.906   6.982   2.256
 4504SOL     OW14410   6.197   2.305   4.284
 4504SOL    HW114411   6.132   2.252   4.339
 4504SOL    HW214412   6.186   2.402   4.303
 4505SOL     OW14413   6.594   4.604   1.625
 4505SOL    HW114414   6.636   4.530   1.573
 4505SOL    HW214415   6.626   4.692   1.589
 4506SOL     OW14416   5.255   2.390   3.499
 4506SOL    HW114417   5.330   2.432   3.446
 4506SOL    HW214418   5.277   2.395   3.596
 4507SOL     OW14419   0.586   3.131   3.708
 4507SOL    HW114420   0.517   3.157   3.775
 4507SOL    HW214421   0.579   3.033   3.689
 4508SOL     OW14422   1.350   4.862   6.995
 4508SOL    HW114423   1.430   4.911   6.960
 4508SOL    HW214424   1.362   4.763   6.980
 4509SOL     OW14425   4.660   2.221   3.112
 4509SOL    HW114426   4.670   2.271   3.198
 4509SOL    HW214427   4.684   2.281   3.036
 4510SOL     OW14428   4.429   1.064   4.256
 4510SOL    HW114429   4.431   1.138   4.323
 4510SOL    HW214430   4.520   1.052   4.217
 4511SOL     OW14431   5.971   3.423   0.255
 4511SOL    HW114432   6.030   3.369   0.316
 4511SOL    HW214433   5.904   3.363   0.212
 4512SOL     OW14434   3.541   1.768   5.756
 4512SOL    HW114435   3.443   1.766   5.776
 4512SOL    HW214436   3.562   1.848   5.701
 4513SOL     OW14437   1.071   6.263   6.494
 4513SOL    HW114438   1.073   6.201   6.572
 4513SOL    HW214439   0.981   6.305   6.486
 4514SOL     OW14440   3.643   2.526   6.557
 4514SOL    HW114441   3.694   2.442   6.579
 4514SOL    HW214442   3.645   2.542   6.459
 4515SOL     OW14443   5.539   1.791   4.672
 4515SOL    HW114444   5.612   1.730   4.703
 4515SOL    HW214445   5.453   1.741   4.667
 4516SOL     OW14446   2.542   0.366   5.558
 4516SOL    HW114447   2.563   0.415   5.474
 4516SOL    HW214448   2.545   0.429   5.635
 4517SOL     OW14449   4.390   6.685   6.566
 4517SOL    HW114450   4.474   6.671   6.618
 4517SOL    HW214451   4.316   6.711   6.627
 4518SOL     OW14452   0.634   6.902   1.491
 4518SOL    HW114453   0.625   6.977   1.425
 4518SOL    HW214454   0.724   6.859   1.481
 4519SOL     OW14455   4.941   6.511   6.949
 4519SOL    HW114456   4.956   6.436   7.013
 4519SOL    HW214457   4.843   6.525   6.936
 4520SOL     OW14458   4.506   5.746   5.490
 4520SOL    HW114459   4.437   5.720   5.557
 4520SOL    HW214460   4.508   5.678   5.417
 4521SOL     OW14461   4.913   2.342   5.111
 4521SOL    HW114462   4.874   2.434   5.102
 4521SOL    HW214463   5.002   2.347   5.157
 4522SOL     OW14464   6.005   4.051   2.803
 4522SOL    HW114465   5.948   4.126   2.837
 4522SOL    HW214466   5.981   3.967   2.853
 4523SOL     OW14467   1.584   3.893   6.832
 4523SOL    HW114468   1.563   3.797   6.814
 4523SOL    HW214469   1.596   3.942   6.746
 4524SOL     OW14470   6.522   3.445   2.413
 4524SOL    HW114471   6.534   3.378   2.339
 4524SOL    HW214472   6.429   3.482   2.410
 4525SOL     OW14473   3.148   2.018   5.638
 4525SOL    HW114474   3.201   1.938   5.610
 4525SOL    HW214475   3.173   2.043   5.732
 4526SOL     OW14476   0.012   1.065   6.944
 4526SOL    HW114477   7.005   1.018   6.861
 4526SOL    HW214478   0.105   1.037   6.967
 4527SOL     OW14479   6.554   0.054   3.024
 4527SOL    HW114480   6.566   0.141   2.975
 4527SOL    HW214481   6.521   7.007   2.960
 4528SOL     OW14482   4.482   0.790   6.234
 4528SOL    HW114483   4.484   0.701   6.279
 4528SOL    HW214484   4.397   0.798   6.180
 4529SOL     OW14485   2.953   1.421   5.852
 4529SOL    HW114486   3.033   1.462   5.896
 4529SOL    HW214487   2.871   1.473   5.878
 4530SOL     OW14488   2.427   5.152   3.848
 4530SOL    HW114489   2.448   5.192   3.937
 4530SOL    HW214490   2.329   5.158   3.830
 4531SOL     OW14491   1.426   3.870   6.188
 4531SOL    HW114492   1.399   3.774   6.193
 4531SOL    HW214493   1.369   3.924   6.249
 4532SOL     OW14494   5.281   0.670   3.302
 4532SOL    HW114495   5.358   0.730   3.279
 4532SOL    HW214496   5.315   0.591   3.352
 4533SOL     OW14497   1.484   1.593   3.011
 4533SOL    HW114498   1.545   1.658   3.058
 4533SOL    HW214499   1.508   1.500   3.039
 4534SOL     OW14500   4.364   2.247   5.332
 4534SOL    HW114501   4.415   2.216   5.252
 4534SOL    HW214502   4.409   2.215   5.415
 4535SOL     OW14503   3.441   1.006   1.254
 4535SOL    HW114504   3.495   0.922   1.254
 4535SOL    HW214505   3.424   1.035   1.348
 4536SOL     OW14506   3.292   1.569   5.150
 4536SOL    HW114507   3.234   1.648   5.130
 4536SOL    HW214508   3.268   1.532   5.240
 4537SOL     OW14509   4.121   3.665   2.511
 4537SOL    HW114510   4.044   3.603   2.497
 4537SOL    HW214511   4.200   3.613   2.543
 4538SOL     OW14512   2.320   1.593   2.324
 4538SOL    HW114513   2.332   1.672   2.263
 4538SOL    HW214514   2.320   1.623   2.419
 4539SOL     OW14515   2.358   5.430   4.274
 4539SOL    HW114516   2.320   5.379   4.352
 4539SOL    HW214517   2.426   5.495   4.308
 4540SOL     OW14518   1.709   1.368   0.622
 4540SOL    HW114519   1.801   1.357   0.659
 4540SOL    HW214520   1.711   1.430   0.544
 4541SOL     OW14521   4.605   1.196   0.097
 4541SOL    HW114522   4.621   1.098   0.088
 4541SOL    HW214523   4.507   1.213   0.105
 4542SOL     OW14524   7.021   1.922   1.453
 4542SOL    HW114525   6.987   1.967   1.370
 4542SOL    HW214526   0.063   1.850   1.429
 4543SOL     OW14527   4.521   1.949   0.754
 4543SOL    HW114528   4.576   1.920   0.676
 4543SOL    HW214529   4.578   1.952   0.836
 4544SOL     OW14530   4.191   4.691   0.977
 4544SOL    HW114531   4.277   4.648   0.948
 4544SOL    HW214532   4.132   4.623   1.020
 4545SOL     OW14533   0.235   3.563   5.579
 4545SOL    HW114534   0.209   3.655   5.606
 4545SOL    HW214535   0.229   3.502   5.658
 4546SOL     OW14536   2.808   6.981   5.142
 4546SOL    HW114537   2.774   0.040   5.190
 4546SOL    HW214538   2.885   6.942   5.192
 4547SOL     OW14539   6.396   0.733   0.024
 4547SOL    HW114540   6.443   0.780   6.972
 4547SOL    HW214541   6.308   0.698   7.012
 4548SOL     OW14542   2.378   2.115   3.360
 4548SOL    HW114543   2.363   2.104   3.459
 4548SOL    HW214544   2.305   2.170   3.321
 4549SOL     OW14545   5.051   4.237   1.960
 4549SOL    HW114546   4.959   4.232   1.919
 4549SOL    HW214547   5.094   4.146   1.956
 4550SOL     OW14548   1.140   4.383   3.663
 4550SOL    HW114549   1.191   4.375   3.577
 4550SOL    HW214550   1.051   4.338   3.653
 4551SOL     OW14551   0.495   3.651   5.477
 4551SOL    HW114552   0.488   3.690   5.385
 4551SOL    HW214553   0.404   3.628   5.511
 4552SOL     OW14554   6.007   2.178   1.566
 4552SOL    HW114555   5.998   2.165   1.467
 4552SOL    HW214556   6.092   2.136   1.598
 4553SOL     OW14557   5.060   4.336   6.607
 4553SOL    HW114558   4.977   4.360   6.556
 4553SOL    HW214559   5.112   4.268   6.557
 4554SOL     OW14560   0.128   0.179   1.271
 4554SOL    HW114561   0.176   0.092   1.271
 4554SOL    HW214562   0.160   0.235   1.347
 4555SOL     OW14563   1.520   1.443   6.675
 4555SOL    HW114564   1.486   1.367   6.730
 4555SOL    HW214565   1.597   1.487   6.721
 4556SOL     OW14566   5.999   3.235   5.440
 4556SOL    HW114567   5.961   3.238   5.348
 4556SOL    HW214568   5.981   3.322   5.486
 4557SOL     OW14569   6.049   4.909   4.738
 4557SOL    HW114570   5.981   4.839   4.760
 4557SOL    HW214571   6.022   4.996   4.778
 4558SOL     OW14572   6.687   3.347   5.159
 4558SOL    HW114573   6.747   3.271   5.182
 4558SOL    HW214574   6.666   3.400   5.241
 4559SOL     OW14575   0.401   3.487   2.649
 4559SOL    HW114576   0.304   3.511   2.647
 4559SOL    HW214577   0.428   3.450   2.561
 4560SOL     OW14578   6.269   4.627   2.386
 4560SOL    HW114579   6.335   4.702   2.381
 4560SOL    HW214580   6.288   4.571   2.467
 4561SOL     OW14581   3.725   1.648   3.618
 4561SOL    HW114582   3.631   1.670   3.593
 4561SOL    HW214583   3.787   1.689   3.551
 4562SOL     OW14584   1.749   6.638   0.394
 4562SOL    HW114585   1.784   6.545   0.402
 4562SOL    HW214586   1.810   6.692   0.336
 4563SOL     OW14587   6.548   3.390   1.151
 4563SOL    HW114588   6.587   3.393   1.242
 4563SOL    HW214589   6.525   3.295   1.128
 4564SOL     OW14590   0.043   4.707   2.235
 4564SOL    HW114591   0.125   4.661   2.199
 4564SOL    HW214592   0.000   4.648   2.304
 4565SOL     OW14593   1.672   1.452   4.423
 4565SOL    HW114594   1.747   1.469   4.487
 4565SOL    HW214595   1.670   1.525   4.355
 4566SOL     OW14596   0.387   3.272   0.884
 4566SOL    HW114597   0.403   3.246   0.979
 4566SOL    HW214598   0.475   3.279   0.837
 4567SOL     OW14599   0.056   0.629   6.917
 4567SOL    HW114600   6.982   0.657   6.932
 4567SOL    HW214601   0.060   0.569   6.838
 4568SOL     OW14602   1.277   4.482   5.199
 4568SOL    HW114603   1.320   4.405   5.152
 4568SOL    HW214604   1.346   4.553   5.218
 4569SOL     OW14605   2.954   0.539   2.756
 4569SOL    HW114606   3.017   0.489   2.815
 4569SOL    HW214607   2.910   0.475   2.693
 4570SOL     OW14608   6.574   6.612   2.173
 4570SOL    HW114609   6.489   6.572   2.208
 4570SOL    HW214610   6.651   6.577   2.225
 4571SOL     OW14611   4.101   3.321   6.594
 4571SOL    HW114612   4.103   3.401   6.654
 4571SOL    HW214613   4.184   3.267   6.608
 4572SOL     OW14614   1.760   1.798   6.204
 4572SOL    HW114615   1.738   1.708   6.242
 4572SOL    HW214616   1.684   1.861   6.220
 4573SOL     OW14617   0.724   6.905   0.323
 4573SOL    HW114618   0.808   6.911   0.268
 4573SOL    HW214619   0.701   6.809   0.339
 4574SOL     OW14620   6.013   4.395   6.926
 4574SOL    HW114621   5.993   4.411   0.001
 4574SOL    HW214622   6.030   4.482   6.880
 4575SOL     OW14623   5.900   0.817   4.472
 4575SOL    HW114624   5.916   0.811   4.374
 4575SOL    HW214625   5.823   0.759   4.498
 4576SOL     OW14626   2.696   4.586   5.653
 4576SOL    HW114627   2.659   4.494   5.640
 4576SOL    HW214628   2.786   4.579   5.695
 4577SOL     OW14629   1.372   2.738   3.143
 4577SOL    HW114630   1.464   2.753   3.180
 4577SOL    HW214631   1.319   2.682   3.206
 4578SOL     OW14632   0.918   1.140   4.216
 4578SOL    HW114633   0.880   1.177   4.301
 4578SOL    HW214634   0.939   1.215   4.154
 4579SOL     OW14635   4.790   1.236   1.979
 4579SOL    HW114636   4.823   1.220   2.072
 4579SOL    HW214637   4.774   1.148   1.934
 4580SOL     OW14638   5.657   4.156   1.158
 4580SOL    HW114639   5.698   4.102   1.085
 4580SOL    HW214640   5.569   4.117   1.183
 4581SOL     OW14641   2.478   6.172   2.129
 4581SOL    HW114642   2.485   6.220   2.216
 4581SOL    HW214643   2.564   6.181   2.079
 4582SOL     OW14644   4.586   1.049   3.316
 4582SOL    HW114645   4.578   1.126   3.380
 4582SOL    HW214646   4.513   0.983   3.334
 4583SOL     OW14647   2.686   1.387   6.238
 4583SOL    HW114648   2.739   1.302   6.233
 4583SOL    HW214649   2.748   1.465   6.249
 4584SOL     OW14650   1.884   6.205   5.629
 4584SOL    HW114651   1.821   6.155   5.570
 4584SOL    HW214652   1.974   6.162   5.626
 4585SOL     OW14653   1.653   3.926   3.657
 4585SOL    HW114654   1.558   3.949   3.636
 4585SOL    HW214655   1.714   3.980   3.597
 4586SOL     OW14656   5.348   3.831   0.477
 4586SOL    HW114657   5.382   3.878   0.559
 4586SOL    HW214658   5.423   3.780   0.434
 4587SOL     OW14659   3.787   3.429   4.349
 4587SOL    HW114660   3.809   3.442   4.252
 4587SOL    HW214661   3.851   3.364   4.390
 4588SOL     OW14662   3.325   3.316   5.883
 4588SOL    HW114663   3.410   3.273   5.854
 4588SOL    HW214664   3.286   3.264   5.959
 4589SOL     OW14665   5.519   6.512   2.015
 4589SOL    HW114666   5.596   6.537   2.074
 4589SOL    HW214667   5.453   6.459   2.068
 4590SOL     OW14668   3.751   6.056   1.818
 4590SOL    HW114669   3.850   6.059   1.804
 4590SOL    HW214670   3.707   6.022   1.734
 4591SOL     OW14671   1.701   0.939   4.533
 4591SOL    HW114672   1.667   0.899   4.618
 4591SOL    HW214673   1.717   0.866   4.466
 4592SOL     OW14674   2.870   2.013   3.692
 4592SOL    HW114675   2.885   2.104   3.730
 4592SOL    HW214676   2.788   1.973   3.732
 4593SOL     OW14677   6.159   5.889   2.434
 4593SOL    HW114678   6.237   5.836   2.469
 4593SOL    HW214679   6.082   5.827   2.420
 4594SOL     OW14680   3.354   0.464   3.190
 4594SOL    HW114681   3.317   0.372   3.177
 4594SOL    HW214682   3.290   0.518   3.245
 4595SOL     OW14683   4.448   2.742   5.942
 4595SOL    HW114684   4.491   2.824   5.980
 4595SOL    HW214685   4.441   2.672   6.013
 4596SOL     OW14686   6.590   0.596   2.301
 4596SOL    HW114687   6.510   0.651   2.328
 4596SOL    HW214688   6.627   0.552   2.383
 4597SOL     OW14689   2.724   5.604   6.560
 4597SOL    HW114690   2.707   5.685   6.616
 4597SOL    HW214691   2.686   5.524   6.605
 4598SOL     OW14692   2.067   5.536   1.205
 4598SOL    HW114693   2.088   5.629   1.174
 4598SOL    HW214694   2.101   5.470   1.138
 4599SOL     OW14695   1.785   4.115   2.047
 4599SOL    HW114696   1.873   4.086   2.008
 4599SOL    HW214697   1.756   4.049   2.116
 4600SOL     OW14698   0.588   0.290   5.661
 4600SOL    HW114699   0.664   0.269   5.599
 4600SOL    HW214700   0.600   0.382   5.698
 4601SOL     OW14701   0.926   1.590   5.330
 4601SOL    HW114702   0.835   1.629   5.348
 4601SOL    HW214703   0.916   1.498   5.293
 4602SOL     OW14704   3.193   6.893   6.210
 4602SOL    HW114705   3.107   6.944   6.211
 4602SOL    HW214706   3.270   6.957   6.213
 4603SOL     OW14707   3.476   5.833   0.703
 4603SOL    HW114708   3.440   5.744   0.674
 4603SOL    HW214709   3.425   5.906   0.656
 4604SOL     OW14710   5.295   0.186   6.032
 4604SOL    HW114711   5.215   0.172   6.090
 4604SOL    HW214712   5.377   0.188   6.089
 4605SOL     OW14713   2.180   0.404   1.905
 4605SOL    HW114714   2.189   0.305   1.897
 4605SOL    HW214715   2.133   0.440   1.824
 4606SOL     OW14716   6.285   0.162   2.554
 4606SOL    HW114717   6.356   0.181   2.486
 4606SOL    HW214718   6.249   0.070   2.540
 4607SOL     OW14719   2.047   3.658   3.380
 4607SOL    HW114720   2.069   3.756   3.381
 4607SOL    HW214721   2.019   3.632   3.287
 4608SOL     OW14722   0.447   3.652   3.518
 4608SOL    HW114723   0.451   3.650   3.418
 4608SOL    HW214724   0.479   3.565   3.554
 4609SOL     OW14725   4.884   5.193   6.771
 4609SOL    HW114726   4.930   5.242   6.844
 4609SOL    HW214727   4.854   5.257   6.700
 4610SOL     OW14728   4.902   2.039   6.793
 4610SOL    HW114729   4.965   2.052   6.717
 4610SOL    HW214730   4.808   2.041   6.759
 4611SOL     OW14731   0.577   0.973   6.012
 4611SOL    HW114732   0.605   0.879   6.028
 4611SOL    HW214733   0.620   1.007   5.928
 4612SOL     OW14734   2.648   6.944   1.988
 4612SOL    HW114735   2.683   6.851   1.989
 4612SOL    HW214736   2.669   6.988   2.076
 4613SOL     OW14737   1.379   5.830   2.656
 4613SOL    HW114738   1.378   5.737   2.618
 4613SOL    HW214739   1.386   5.896   2.581
 4614SOL     OW14740   6.137   3.347   3.764
 4614SOL    HW114741   6.170   3.441   3.762
 4614SOL    HW214742   6.210   3.286   3.734
 4615SOL     OW14743   1.252   0.898   1.472
 4615SOL    HW114744   1.213   0.815   1.433
 4615SOL    HW214745   1.243   0.896   1.572
 4616SOL     OW14746   6.037   2.895   3.917
 4616SOL    HW114747   6.099   2.876   3.993
 4616SOL    HW214748   5.956   2.838   3.925
 4617SOL     OW14749   1.816   2.241   2.353
 4617SOL    HW114750   1.882   2.305   2.394
 4617SOL    HW214751   1.802   2.164   2.415
 4618SOL     OW14752   2.489   3.179   5.681
 4618SOL    HW114753   2.438   3.256   5.642
 4618SOL    HW214754   2.575   3.213   5.719
 4619SOL     OW14755   3.543   6.610   3.887
 4619SOL    HW114756   3.445   6.600   3.900
 4619SOL    HW214757   3.569   6.573   3.798
 4620SOL     OW14758   0.541   4.933   1.238
 4620SOL    HW114759   0.457   4.980   1.212
 4620SOL    HW214760   0.601   4.925   1.158
 4621SOL     OW14761   5.274   0.724   2.668
 4621SOL    HW114762   5.294   0.821   2.658
 4621SOL    HW214763   5.196   0.712   2.729
 4622SOL     OW14764   4.193   5.089   1.358
 4622SOL    HW114765   4.181   5.012   1.295
 4622SOL    HW214766   4.290   5.105   1.372
 4623SOL     OW14767   3.479   5.571   0.651
 4623SOL    HW114768   3.427   5.528   0.577
 4623SOL    HW214769   3.565   5.608   0.614
 4624SOL     OW14770   3.413   1.366   3.103
 4624SOL    HW114771   3.431   1.393   3.197
 4624SOL    HW214772   3.323   1.322   3.097
 4625SOL     OW14773   1.998   5.868   1.859
 4625SOL    HW114774   1.978   5.801   1.931
 4625SOL    HW214775   2.075   5.925   1.887
 4626SOL     OW14776   4.642   4.298   1.044
 4626SOL    HW114777   4.543   4.296   1.029
 4626SOL    HW214778   4.685   4.223   0.993
 4627SOL     OW14779   0.544   5.805   5.031
 4627SOL    HW114780   0.486   5.777   4.955
 4627SOL    HW214781   0.536   5.738   5.105
 4628SOL     OW14782   5.035   4.279   4.198
 4628SOL    HW114783   5.052   4.376   4.179
 4628SOL    HW214784   5.111   4.224   4.162
 4629SOL     OW14785   2.584   4.890   6.623
 4629SOL    HW114786   2.555   4.808   6.573
 4629SOL    HW214787   2.507   4.954   6.627
 4630SOL     OW14788   2.353   5.190   2.363
 4630SOL    HW114789   2.444   5.228   2.347
 4630SOL    HW214790   2.326   5.208   2.458
 4631SOL     OW14791   0.801   6.970   3.786
 4631SOL    HW114792   0.823   6.889   3.840
 4631SOL    HW214793   0.860   6.973   3.705
 4632SOL     OW14794   2.236   5.267   2.888
 4632SOL    HW114795   2.299   5.341   2.909
 4632SOL    HW214796   2.158   5.270   2.951
 4633SOL     OW14797   4.668   1.070   4.957
 4633SOL    HW114798   4.606   1.007   4.911
 4633SOL    HW214799   4.745   1.091   4.896
 4634SOL     OW14800   2.973   3.792   4.937
 4634SOL    HW114801   2.915   3.824   5.013
 4634SOL    HW214802   3.006   3.700   4.957
 4635SOL     OW14803   4.264   4.231   1.368
 4635SOL    HW114804   4.363   4.224   1.360
 4635SOL    HW214805   4.232   4.314   1.322
 4636SOL     OW14806   1.882   4.913   0.800
 4636SOL    HW114807   1.855   4.819   0.778
 4636SOL    HW214808   1.809   4.975   0.771
 4637SOL     OW14809   0.994   6.538   0.295
 4637SOL    HW114810   0.930   6.574   0.227
 4637SOL    HW214811   1.078   6.593   0.293
 4638SOL     OW14812   3.626   5.358   6.866
 4638SOL    HW114813   3.565   5.317   6.798
 4638SOL    HW214814   3.670   5.439   6.827
 4639SOL     OW14815   2.607   2.603   6.227
 4639SOL    HW114816   2.543   2.535   6.264
 4639SOL    HW214817   2.626   2.582   6.131
 4640SOL     OW14818   6.405   3.019   4.051
 4640SOL    HW114819   6.465   2.972   4.116
 4640SOL    HW214820   6.383   2.956   3.976
 4641SOL     OW14821   1.937   7.017   3.671
 4641SOL    HW114822   1.862   6.975   3.619
 4641SOL    HW214823   1.900   0.039   3.753
 4642SOL     OW14824   1.763   0.251   3.436
 4642SOL    HW114825   1.697   0.207   3.375
 4642SOL    HW214826   1.716   0.281   3.520
 4643SOL     OW14827   6.561   2.617   1.203
 4643SOL    HW114828   6.644   2.627   1.258
 4643SOL    HW214829   6.579   2.646   1.110
 4644SOL     OW14830   6.894   0.876   5.727
 4644SOL    HW114831   6.943   0.927   5.797
 4644SOL    HW214832   6.863   0.788   5.764
 4645SOL     OW14833   1.331   0.691   4.336
 4645SOL    HW114834   1.316   0.790   4.328
 4645SOL    HW214835   1.306   0.647   4.250
 4646SOL     OW14836   3.068   4.932   4.359
 4646SOL    HW114837   3.054   4.896   4.451
 4646SOL    HW214838   2.979   4.948   4.315
 4647SOL     OW14839   1.105   0.723   3.522
 4647SOL    HW114840   1.078   0.634   3.485
 4647SOL    HW214841   1.052   0.795   3.479
 4648SOL     OW14842   2.646   0.778   4.442
 4648SOL    HW114843   2.560   0.761   4.490
 4648SOL    HW214844   2.721   0.734   4.491
 4649SOL     OW14845   5.603   0.703   1.098
 4649SOL    HW114846   5.678   0.721   1.034
 4649SOL    HW214847   5.535   0.776   1.091
 4650SOL     OW14848   4.332   5.867   1.846
 4650SOL    HW114849   4.415   5.923   1.844
 4650SOL    HW214850   4.286   5.879   1.935
 4651SOL     OW14851   5.958   3.580   6.974
 4651SOL    HW114852   5.879   3.598   6.915
 4651SOL    HW214853   5.943   3.622   0.042
 4652SOL     OW14854   5.989   6.564   4.992
 4652SOL    HW114855   5.982   6.627   5.069
 4652SOL    HW214856   5.912   6.580   4.930
 4653SOL     OW14857   4.787   5.453   0.428
 4653SOL    HW114858   4.764   5.361   0.461
 4653SOL    HW214859   4.886   5.467   0.436
 4654SOL     OW14860   0.313   6.378   6.048
 4654SOL    HW114861   0.396   6.375   5.993
 4654SOL    HW214862   0.275   6.286   6.057
 4655SOL     OW14863   4.849   3.915   2.042
 4655SOL    HW114864   4.795   3.898   1.960
 4655SOL    HW214865   4.929   3.854   2.042
 4656SOL     OW14866   0.818   0.632   1.865
 4656SOL    HW114867   0.836   0.675   1.777
 4656SOL    HW214868   0.799   0.535   1.851
 4657SOL     OW14869   5.397   5.973   2.029
 4657SOL    HW114870   5.488   6.004   2.055
 4657SOL    HW214871   5.329   6.014   2.090
 4658SOL     OW14872   2.656   2.785   5.474
 4658SOL    HW114873   2.725   2.810   5.405
 4658SOL    HW214874   2.700   2.733   5.547
 4659SOL     OW14875   3.298   4.536   1.030
 4659SOL    HW114876   3.238   4.514   1.107
 4659SOL    HW214877   3.295   4.635   1.012
 4660SOL     OW14878   1.134   6.523   3.901
 4660SOL    HW114879   1.112   6.565   3.988
 4660SOL    HW214880   1.218   6.563   3.865
 4661SOL     OW14881   2.538   4.605   5.923
 4661SOL    HW114882   2.621   4.642   5.882
 4661SOL    HW214883   2.517   4.516   5.883
 4662SOL     OW14884   2.958   0.444   5.294
 4662SOL    HW114885   2.964   0.447   5.195
 4662SOL    HW214886   2.899   0.518   5.327
 4663SOL     OW14887   0.264   7.007   0.510
 4663SOL    HW114888   0.360   6.979   0.517
 4663SOL    HW214889   0.249   0.067   0.565
 4664SOL     OW14890   0.027   0.466   0.462
 4664SOL    HW114891   0.075   0.485   0.376
 4664SOL    HW214892   6.966   0.413   0.442
 4665SOL     OW14893   2.377   0.344   6.024
 4665SOL    HW114894   2.370   0.365   6.122
 4665SOL    HW214895   2.442   0.269   6.011
 4666SOL     OW14896   2.049   2.647   6.693
 4666SOL    HW114897   2.139   2.623   6.658
 4666SOL    HW214898   2.025   2.739   6.662
 4667SOL     OW14899   0.037   4.243   1.829
 4667SOL    HW114900   0.042   4.157   1.879
 4667SOL    HW214901   6.969   4.252   1.785
 4668SOL     OW14902   4.427   1.625   5.011
 4668SOL    HW114903   4.337   1.661   4.987
 4668SOL    HW214904   4.488   1.701   5.037
 4669SOL     OW14905   5.650   0.152   6.653
 4669SOL    HW114906   5.724   0.180   6.714
 4669SOL    HW214907   5.589   0.088   6.700
 4670SOL     OW14908   1.263   3.151   6.966
 4670SOL    HW114909   1.315   3.180   6.886
 4670SOL    HW214910   1.223   3.061   6.950
 4671SOL     OW14911   0.879   3.417   0.587
 4671SOL    HW114912   0.838   3.496   0.543
 4671SOL    HW214913   0.934   3.446   0.665
 4672SOL     OW14914   3.961   4.386   5.835
 4672SOL    HW114915   3.880   4.442   5.850
 4672SOL    HW214916   3.935   4.290   5.830
 4673SOL     OW14917   5.243   0.137   0.180
 4673SOL    HW114918   5.238   0.236   0.173
 4673SOL    HW214919   5.223   0.109   0.274
 4674SOL     OW14920   5.653   1.762   0.321
 4674SOL    HW114921   5.590   1.829   0.282
 4674SOL    HW214922   5.695   1.799   0.404
 4675SOL     OW14923   3.748   0.081   6.843
 4675SOL    HW114924   3.786   0.174   6.838
 4675SOL    HW214925   3.700   0.061   6.758
 4676SOL     OW14926   0.258   6.443   4.621
 4676SOL    HW114927   0.312   6.527   4.623
 4676SOL    HW214928   0.210   6.431   4.708
 4677SOL     OW14929   3.089   0.359   7.021
 4677SOL    HW114930   3.010   0.411   6.987
 4677SOL    HW214931   3.096   0.371   0.098
 4678SOL     OW14932   2.238   5.425   1.997
 4678SOL    HW114933   2.222   5.328   2.017
 4678SOL    HW214934   2.276   5.434   1.906
 4679SOL     OW14935   3.779   1.321   6.350
 4679SOL    HW114936   3.786   1.234   6.301
 4679SOL    HW214937   3.699   1.371   6.317
 4680SOL     OW14938   2.429   6.441   1.723
 4680SOL    HW114939   2.342   6.482   1.695
 4680SOL    HW214940   2.434   6.440   1.823
 4681SOL     OW14941   6.419   5.926   4.498
 4681SOL    HW114942   6.421   6.022   4.472
 4681SOL    HW214943   6.443   5.917   4.594
 4682SOL     OW14944   4.533   5.477   6.846
 4682SOL    HW114945   4.459   5.412   6.861
 4682SOL    HW214946   4.603   5.465   6.916
 4683SOL     OW14947   5.098   4.375   2.201
 4683SOL    HW114948   5.087   4.339   2.108
 4683SOL    HW214949   5.095   4.300   2.266
 4684SOL     OW14950   0.198   2.579   4.675
 4684SOL    HW114951   0.228   2.592   4.769
 4684SOL    HW214952   0.249   2.504   4.633
 4685SOL     OW14953   6.685   5.308   4.286
 4685SOL    HW114954   6.607   5.249   4.265
 4685SOL    HW214955   6.711   5.359   4.204
 4686SOL     OW14956   5.085   5.926   0.402
 4686SOL    HW114957   5.162   5.930   0.465
 4686SOL    HW214958   5.110   5.874   0.321
 4687SOL     OW14959   6.431   4.071   5.016
 4687SOL    HW114960   6.420   3.984   5.063
 4687SOL    HW214961   6.508   4.121   5.055
 4688SOL     OW14962   6.993   2.991   6.453
 4688SOL    HW114963   6.940   2.984   6.538
 4688SOL    HW214964   7.011   2.900   6.417
 4689SOL     OW14965   5.523   0.680   6.306
 4689SOL    HW114966   5.457   0.749   6.275
 4689SOL    HW214967   5.539   0.614   6.233
 4690SOL     OW14968   1.201   0.883   6.812
 4690SOL    HW114969   1.196   0.908   6.909
 4690SOL    HW214970   1.155   0.953   6.757
 4691SOL     OW14971   2.966   4.051   1.819
 4691SOL    HW114972   2.951   3.965   1.771
 4691SOL    HW214973   2.922   4.126   1.770
 4692SOL     OW14974   6.659   4.997   2.700
 4692SOL    HW114975   6.717   4.916   2.704
 4692SOL    HW214976   6.603   5.002   2.783
 4693SOL     OW14977   0.827   0.885   4.292
 4693SOL    HW114978   0.825   0.822   4.214
 4693SOL    HW214979   0.857   0.975   4.262
 4694SOL     OW14980   2.997   0.765   0.020
 4694SOL    HW114981   3.022   0.861   0.012
 4694SOL    HW214982   3.080   0.710   0.037
 4695SOL     OW14983   3.197   3.240   1.736
 4695SOL    HW114984   3.179   3.158   1.682
 4695SOL    HW214985   3.292   3.237   1.770
 4696SOL     OW14986   0.984   5.058   6.159
 4696SOL    HW114987   0.930   5.018   6.085
 4696SOL    HW214988   1.073   5.013   6.165
 4697SOL     OW14989   1.703   3.593   0.806
 4697SOL    HW114990   1.633   3.526   0.830
 4697SOL    HW214991   1.778   3.547   0.758
 4698SOL     OW14992   4.686   4.805   2.359
 4698SOL    HW114993   4.691   4.774   2.264
 4698SOL    HW214994   4.777   4.833   2.390
 4699SOL     OW14995   0.750   0.065   2.674
 4699SOL    HW114996   0.692   0.015   2.610
 4699SOL    HW214997   0.809   0.127   2.623
 4700SOL     OW14998   5.470   1.684   1.865
 4700SOL    HW114999   5.522   1.641   1.792
 4700SOL    HW215000   5.527   1.750   1.913
 4701SOL     OW15001   1.236   1.906   0.256
 4701SOL    HW115002   1.177   1.837   0.298
 4701SOL    HW215003   1.267   1.873   0.166
 4702SOL     OW15004   4.697   4.734   6.542
 4702SOL    HW115005   4.760   4.740   6.619
 4702SOL    HW215006   4.606   4.710   6.575
 4703SOL     OW15007   0.657   2.311   2.448
 4703SOL    HW115008   0.727   2.242   2.465
 4703SOL    HW215009   0.662   2.343   2.354
 4704SOL     OW15010   6.958   6.274   1.132
 4704SOL    HW115011   6.896   6.234   1.065
 4704SOL    HW215012   0.008   6.325   1.085
 4705SOL     OW15013   3.125   3.241   3.095
 4705SOL    HW115014   3.041   3.294   3.084
 4705SOL    HW215015   3.141   3.186   3.012
 4706SOL     OW15016   4.036   6.281   6.344
 4706SOL    HW115017   3.936   6.288   6.336
 4706SOL    HW215018   4.077   6.369   6.321
 4707SOL     OW15019   2.235   5.999   0.964
 4707SOL    HW115020   2.272   5.916   0.922
 4707SOL    HW215021   2.310   6.064   0.982
 4708SOL     OW15022   2.360   2.991   0.503
 4708SOL    HW115023   2.299   3.064   0.536
 4708SOL    HW215024   2.360   2.916   0.570
 4709SOL     OW15025   4.031   5.620   5.312
 4709SOL    HW115026   4.041   5.685   5.387
 4709SOL    HW215027   4.000   5.532   5.349
 4710SOL     OW15028   4.213   1.254   6.138
 4710SOL    HW115029   4.133   1.297   6.096
 4710SOL    HW215030   4.296   1.292   6.098
 4711SOL     OW15031   4.549   0.690   2.599
 4711SOL    HW115032   4.583   0.663   2.508
 4711SOL    HW215033   4.617   0.749   2.643
 4712SOL     OW15034   2.319   4.711   0.426
 4712SOL    HW115035   2.418   4.717   0.439
 4712SOL    HW215036   2.273   4.772   0.490
 4713SOL     OW15037   2.781   4.240   0.716
 4713SOL    HW115038   2.685   4.213   0.723
 4713SOL    HW215039   2.798   4.320   0.773
 4714SOL     OW15040   2.552   2.081   6.957
 4714SOL    HW115041   2.489   2.033   6.896
 4714SOL    HW215042   2.615   2.015   6.998
 4715SOL     OW15043   6.271   3.588   2.150
 4715SOL    HW115044   6.264   3.582   2.250
 4715SOL    HW215045   6.340   3.657   2.126
 4716SOL     OW15046   3.640   5.277   6.146
 4716SOL    HW115047   3.673   5.260   6.238
 4716SOL    HW215048   3.578   5.203   6.118
 4717SOL     OW15049   1.474   6.282   2.674
 4717SOL    HW115050   1.478   6.360   2.736
 4717SOL    HW215051   1.397   6.294   2.611
 4718SOL     OW15052   5.639   1.462   6.928
 4718SOL    HW115053   5.612   1.503   7.015
 4718SOL    HW215054   5.604   1.517   6.852
 4719SOL     OW15055   4.826   3.077   2.693
 4719SOL    HW115056   4.789   3.167   2.716
 4719SOL    HW215057   4.906   3.058   2.751
 4720SOL     OW15058   2.658   6.610   5.714
 4720SOL    HW115059   2.605   6.696   5.709
 4720SOL    HW215060   2.748   6.625   5.673
 4721SOL     OW15061   6.827   2.350   1.865
 4721SOL    HW115062   6.914   2.385   1.900
 4721SOL    HW215063   6.843   2.271   1.807
 4722SOL     OW15064   1.497   5.565   6.839
 4722SOL    HW115065   1.593   5.586   6.861
 4722SOL    HW215066   1.461   5.637   6.779
 4723SOL     OW15067   1.407   5.666   5.894
 4723SOL    HW115068   1.454   5.620   5.969
 4723SOL    HW215069   1.389   5.601   5.821
 4724SOL     OW15070   4.343   6.291   2.637
 4724SOL    HW115071   4.418   6.332   2.690
 4724SOL    HW215072   4.370   6.284   2.541
 4725SOL     OW15073   5.370   6.292   3.063
 4725SOL    HW115074   5.369   6.327   3.157
 4725SOL    HW215075   5.435   6.345   3.009
 4726SOL     OW15076   1.374   3.227   6.700
 4726SOL    HW115077   1.416   3.216   6.610
 4726SOL    HW215078   1.442   3.258   6.766
 4727SOL     OW15079   0.029   6.060   6.635
 4727SOL    HW115080   6.958   6.042   6.670
 4727SOL    HW215081   0.025   6.078   6.537
 4728SOL     OW15082   4.813   1.533   1.132
 4728SOL    HW115083   4.821   1.578   1.043
 4728SOL    HW215084   4.833   1.599   1.204
 4729SOL     OW15085   2.382   1.079   2.798
 4729SOL    HW115086   2.468   1.034   2.774
 4729SOL    HW215087   2.403   1.168   2.840
 4730SOL     OW15088   2.336   6.018   5.519
 4730SOL    HW115089   2.258   5.956   5.530
 4730SOL    HW215090   2.315   6.106   5.563
 4731SOL     OW15091   5.685   0.465   5.866
 4731SOL    HW115092   5.629   0.475   5.784
 4731SOL    HW215093   5.767   0.521   5.858
 4732SOL     OW15094   6.679   2.981   6.500
 4732SOL    HW115095   6.715   2.899   6.456
 4732SOL    HW215096   6.580   2.975   6.507
 4733SOL     OW15097   1.223   3.966   3.469
 4733SOL    HW115098   1.144   3.982   3.410
 4733SOL    HW215099   1.226   3.869   3.496
 4734SOL     OW15100   5.148   3.213   6.979
 4734SOL    HW115101   5.102   3.301   6.992
 4734SOL    HW215102   5.190   3.209   6.889
 4735SOL     OW15103   0.910   5.016   3.496
 4735SOL    HW115104   0.912   5.115   3.480
 4735SOL    HW215105   0.844   4.994   3.568
 4736SOL     OW15106   0.453   1.852   6.542
 4736SOL    HW115107   0.426   1.783   6.475
 4736SOL    HW215108   0.516   1.811   6.609
 4737SOL     OW15109   2.036   4.929   2.558
 4737SOL    HW115110   1.992   4.873   2.628
 4737SOL    HW215111   2.044   4.876   2.473
 4738SOL     OW15112   0.525   6.054   2.669
 4738SOL    HW115113   0.508   5.962   2.633
 4738SOL    HW215114   0.619   6.060   2.700
 4739SOL     OW15115   4.148   0.166   2.261
 4739SOL    HW115116   4.209   0.161   2.182
 4739SOL    HW215117   4.094   0.082   2.266
 4740SOL     OW15118   0.415   1.417   2.343
 4740SOL    HW115119   0.413   1.457   2.252
 4740SOL    HW215120   0.510   1.401   2.370
 4741SOL     OW15121   3.458   2.320   1.675
 4741SOL    HW115122   3.521   2.331   1.752
 4741SOL    HW215123   3.510   2.308   1.591
 4742SOL     OW15124   1.908   6.709   6.694
 4742SOL    HW115125   2.006   6.690   6.686
 4742SOL    HW215126   1.892   6.772   6.770
 4743SOL     OW15127   2.126   3.371   3.033
 4743SOL    HW115128   2.078   3.448   3.074
 4743SOL    HW215129   2.128   3.381   2.933
 4744SOL     OW15130   1.905   5.391   0.676
 4744SOL    HW115131   1.935   5.298   0.696
 4744SOL    HW215132   1.949   5.423   0.593
 4745SOL     OW15133   2.849   4.191   6.853
 4745SOL    HW115134   2.756   4.156   6.850
 4745SOL    HW215135   2.908   4.132   6.798
 4746SOL     OW15136   4.003   6.101   3.761
 4746SOL    HW115137   4.029   6.004   3.755
 4746SOL    HW215138   3.917   6.109   3.811
 4747SOL     OW15139   1.143   3.440   0.754
 4747SOL    HW115140   1.170   3.497   0.832
 4747SOL    HW215141   1.213   3.370   0.738
 4748SOL     OW15142   1.546   6.941   1.601
 4748SOL    HW115143   1.572   0.012   1.628
 4748SOL    HW215144   1.583   6.921   1.510
 4749SOL     OW15145   2.170   6.829   6.506
 4749SOL    HW115146   2.132   6.921   6.508
 4749SOL    HW215147   2.097   6.763   6.491
 4750SOL     OW15148   6.581   4.080   5.275
 4750SOL    HW115149   6.484   4.056   5.279
 4750SOL    HW215150   6.613   4.106   5.367
 4751SOL     OW15151   4.811   2.028   3.033
 4751SOL    HW115152   4.749   2.079   3.092
 4751SOL    HW215153   4.904   2.035   3.069
 4752SOL     OW15154   4.428   0.933   0.672
 4752SOL    HW115155   4.385   1.018   0.704
 4752SOL    HW215156   4.429   0.866   0.746
 4753SOL     OW15157   1.186   6.615   4.809
 4753SOL    HW115158   1.152   6.694   4.859
 4753SOL    HW215159   1.284   6.606   4.821
 4754SOL     OW15160   4.588   3.824   5.985
 4754SOL    HW115161   4.528   3.790   6.057
 4754SOL    HW215162   4.677   3.778   5.992
 4755SOL     OW15163   2.014   1.139   0.935
 4755SOL    HW115164   2.107   1.109   0.958
 4755SOL    HW215165   1.951   1.063   0.945
 4756SOL     OW15166   6.970   4.108   6.277
 4756SOL    HW115167   0.034   4.160   6.279
 4756SOL    HW215168   6.989   4.013   6.255
 4757SOL     OW15169   1.545   2.786   1.376
 4757SOL    HW115170   1.456   2.791   1.331
 4757SOL    HW215171   1.593   2.703   1.348
 4758SOL     OW15172   1.265   0.025   3.610
 4758SOL    HW115173   1.266   6.991   3.693
 4758SOL    HW215174   1.276   0.121   3.634
 4759SOL     OW15175   0.502   5.790   0.090
 4759SOL    HW115176   0.510   5.857   0.016
 4759SOL    HW215177   0.543   5.827   0.174
 4760SOL     OW15178   1.284   6.837   0.523
 4760SOL    HW115179   1.221   6.762   0.544
 4760SOL    HW215180   1.378   6.806   0.534
 4761SOL     OW15181   0.309   0.439   0.578
 4761SOL    HW115182   0.215   0.451   0.546
 4761SOL    HW215183   0.360   0.385   0.511
 4762SOL     OW15184   1.577   5.746   1.936
 4762SOL    HW115185   1.642   5.787   1.872
 4762SOL    HW215186   1.530   5.818   1.986
 4763SOL     OW15187   4.713   6.295   2.527
 4763SOL    HW115188   4.732   6.205   2.488
 4763SOL    HW215189   4.648   6.344   2.468
 4764SOL     OW15190   4.821   3.371   5.330
 4764SOL    HW115191   4.788   3.431   5.257
 4764SOL    HW215192   4.822   3.422   5.416
 4765SOL     OW15193   3.555   0.540   5.701
 4765SOL    HW115194   3.530   0.554   5.605
 4765SOL    HW215195   3.626   0.605   5.726
 4766SOL     OW15196   6.435   6.972   4.342
 4766SOL    HW115197   6.472   6.966   4.250
 4766SOL    HW215198   6.411   6.880   4.374
 4767SOL     OW15199   2.275   5.539   5.202
 4767SOL    HW115200   2.296   5.629   5.162
 4767SOL    HW215201   2.300   5.467   5.137
 4768SOL     OW15202   4.606   3.312   6.628
 4768SOL    HW115203   4.549   3.334   6.549
 4768SOL    HW215204   4.571   3.361   6.709
 4769SOL     OW15205   2.765   6.026   0.959
 4769SOL    HW115206   2.724   6.043   1.049
 4769SOL    HW215207   2.855   5.983   0.972
 4770SOL     OW15208   6.946   2.262   5.408
 4770SOL    HW115209   7.001   2.308   5.478
 4770SOL    HW215210   6.940   2.320   5.327
 4771SOL     OW15211   2.337   6.831   4.966
 4771SOL    HW115212   2.303   6.755   4.910
 4771SOL    HW215213   2.329   6.807   5.063
 4772SOL     OW15214   3.217   5.111   0.375
 4772SOL    HW115215   3.311   5.103   0.340
 4772SOL    HW215216   3.153   5.086   0.303
 4773SOL     OW15217   1.265   5.867   4.322
 4773SOL    HW115218   1.295   5.799   4.256
 4773SOL    HW215219   1.344   5.900   4.374
 4774SOL     OW15220   1.578   4.395   0.425
 4774SOL    HW115221   1.658   4.337   0.411
 4774SOL    HW215222   1.595   4.487   0.388
 4775SOL     OW15223   5.184   6.658   4.807
 4775SOL    HW115224   5.217   6.571   4.843
 4775SOL    HW215225   5.084   6.658   4.803
 4776SOL     OW15226   1.560   0.850   5.054
 4776SOL    HW115227   1.570   0.930   5.113
 4776SOL    HW215228   1.630   0.782   5.077
 4777SOL     OW15229   1.621   5.723   0.573
 4777SOL    HW115230   1.546   5.662   0.596
 4777SOL    HW215231   1.632   5.791   0.646
 4778SOL     OW15232   0.862   2.624   4.565
 4778SOL    HW115233   0.934   2.679   4.607
 4778SOL    HW215234   0.839   2.662   4.475
 4779SOL     OW15235   6.183   6.939   4.053
 4779SOL    HW115236   6.214   6.977   3.966
 4779SOL    HW215237   6.187   7.010   4.124
 4780SOL     OW15238   5.746   2.769   5.802
 4780SOL    HW115239   5.731   2.671   5.791
 4780SOL    HW215240   5.841   2.791   5.780
 4781SOL     OW15241   2.419   5.881   2.219
 4781SOL    HW115242   2.459   5.972   2.223
 4781SOL    HW215243   2.382   5.856   2.309
 4782SOL     OW15244   6.154   5.450   5.624
 4782SOL    HW115245   6.225   5.380   5.617
 4782SOL    HW215246   6.089   5.424   5.695
 4783SOL     OW15247   5.939   3.695   0.198
 4783SOL    HW115248   6.022   3.641   0.207
 4783SOL    HW215249   5.947   3.779   0.253
 4784SOL     OW15250   6.256   1.931   5.870
 4784SOL    HW115251   6.344   1.886   5.886
 4784SOL    HW215252   6.244   1.948   5.773
 4785SOL     OW15253   0.157   6.505   2.824
 4785SOL    HW115254   0.206   6.469   2.903
 4785SOL    HW215255   0.198   6.591   2.795
 4786SOL     OW15256   2.895   0.229   0.755
 4786SOL    HW115257   2.816   0.236   0.816
 4786SOL    HW215258   2.953   0.153   0.784
 4787SOL     OW15259   4.537   2.152   4.427
 4787SOL    HW115260   4.592   2.182   4.348
 4787SOL    HW215261   4.466   2.219   4.446
 4788SOL     OW15262   5.859   5.649   0.289
 4788SOL    HW115263   5.904   5.631   0.201
 4788SOL    HW215264   5.893   5.584   0.357
 4789SOL     OW15265   5.018   1.718   2.285
 4789SOL    HW115266   5.038   1.640   2.226
 4789SOL    HW215267   4.936   1.766   2.252
 4790SOL     OW15268   5.332   1.560   5.782
 4790SOL    HW115269   5.332   1.464   5.810
 4790SOL    HW215270   5.353   1.618   5.861
 4791SOL     OW15271   0.291   2.762   0.980
 4791SOL    HW115272   0.341   2.684   0.943
 4791SOL    HW215273   0.194   2.752   0.961
 4792SOL     OW15274   1.871   5.142   4.518
 4792SOL    HW115275   1.880   5.052   4.477
 4792SOL    HW215276   1.896   5.213   4.452
 4793SOL     OW15277   0.962   3.687   6.063
 4793SOL    HW115278   0.914   3.771   6.089
 4793SOL    HW215279   1.005   3.699   5.973
 4794SOL     OW15280   4.727   0.314   4.061
 4794SOL    HW115281   4.663   0.355   4.126
 4794SOL    HW215282   4.690   0.320   3.969
 4795SOL     OW15283   0.010   1.643   4.393
 4795SOL    HW115284   0.089   1.583   4.379
 4795SOL    HW215285   6.949   1.588   4.403
 4796SOL     OW15286   3.723   0.748   5.768
 4796SOL    HW115287   3.790   0.725   5.697
 4796SOL    HW215288   3.770   0.758   5.856
 4797SOL     OW15289   0.138   5.388   4.188
 4797SOL    HW115290   0.124   5.477   4.231
 4797SOL    HW215291   0.236   5.367   4.188
 4798SOL     OW15292   5.792   5.115   5.994
 4798SOL    HW115293   5.852   5.122   5.915
 4798SOL    HW215294   5.835   5.159   6.073
 4799SOL     OW15295   3.448   1.881   6.957
 4799SOL    HW115296   3.416   1.976   6.960
 4799SOL    HW215297   3.389   1.828   6.896
 4800SOL     OW15298   1.664   4.461   6.942
 4800SOL    HW115299   1.697   4.371   6.969
 4800SOL    HW215300   1.667   4.523   7.020
 4801SOL     OW15301   4.259   2.783   0.661
 4801SOL    HW115302   4.310   2.864   0.634
 4801SOL    HW215303   4.228   2.734   0.580
 4802SOL     OW15304   6.888   6.484   1.836
 4802SOL    HW115305   6.835   6.554   1.788
 4802SOL    HW215306   6.952   6.527   1.899
 4803SOL     OW15307   5.558   4.968   0.676
 4803SOL    HW115308   5.494   4.920   0.735
 4803SOL    HW215309   5.515   5.051   0.639
 4804SOL     OW15310   5.216   1.493   0.678
 4804SOL    HW115311   5.162   1.523   0.757
 4804SOL    HW215312   5.313   1.504   0.698
 4805SOL     OW15313   6.532   1.422   2.286
 4805SOL    HW115314   6.596   1.346   2.300
 4805SOL    HW215315   6.560   1.500   2.343
 4806SOL     OW15316   1.472   3.751   3.162
 4806SOL    HW115317   1.437   3.838   3.127
 4806SOL    HW215318   1.396   3.690   3.181
 4807SOL     OW15319   1.597   3.310   6.388
 4807SOL    HW115320   1.673   3.273   6.334
 4807SOL    HW215321   1.633   3.354   6.470
 4808SOL     OW15322   3.866   6.091   0.865
 4808SOL    HW115323   3.853   6.056   0.773
 4808SOL    HW215324   3.790   6.152   0.889
 4809SOL     OW15325   3.646   4.866   1.545
 4809SOL    HW115326   3.571   4.909   1.494
 4809SOL    HW215327   3.703   4.814   1.482
 4810SOL     OW15328   1.042   4.014   4.573
 4810SOL    HW115329   1.106   4.078   4.617
 4810SOL    HW215330   0.993   4.061   4.500
 4811SOL     OW15331   3.825   4.092   4.591
 4811SOL    HW115332   3.891   4.144   4.645
 4811SOL    HW215333   3.734   4.134   4.600
 4812SOL     OW15334   0.811   0.143   1.812
 4812SOL    HW115335   0.876   0.132   1.736
 4812SOL    HW215336   0.846   0.211   1.876
 4813SOL     OW15337   5.658   1.712   6.701
 4813SOL    HW115338   5.574   1.702   6.754
 4813SOL    HW215339   5.724   1.766   6.753
 4814SOL     OW15340   0.100   3.951   2.567
 4814SOL    HW115341   0.105   3.978   2.664
 4814SOL    HW215342   0.020   3.894   2.553
 4815SOL     OW15343   4.983   5.204   2.708
 4815SOL    HW115344   5.056   5.179   2.645
 4815SOL    HW215345   4.992   5.300   2.734
 4816SOL     OW15346   1.818   0.292   1.419
 4816SOL    HW115347   1.849   0.387   1.413
 4816SOL    HW215348   1.739   0.287   1.481
 4817SOL     OW15349   3.795   1.107   1.562
 4817SOL    HW115350   3.878   1.098   1.617
 4817SOL    HW215351   3.750   1.018   1.554
 4818SOL     OW15352   2.058   0.354   3.980
 4818SOL    HW115353   2.039   0.269   4.030
 4818SOL    HW215354   2.050   0.337   3.882
 4819SOL     OW15355   3.136   2.133   1.259
 4819SOL    HW115356   3.228   2.132   1.220
 4819SOL    HW215357   3.107   2.039   1.278
 4820SOL     OW15358   6.615   3.145   1.032
 4820SOL    HW115359   6.682   3.102   1.093
 4820SOL    HW215360   6.615   3.098   0.944
 4821SOL     OW15361   6.556   5.405   1.457
 4821SOL    HW115362   6.470   5.361   1.434
 4821SOL    HW215363   6.617   5.404   1.377
 4822SOL     OW15364   1.853   3.235   3.757
 4822SOL    HW115365   1.859   3.328   3.795
 4822SOL    HW215366   1.945   3.205   3.728
 4823SOL     OW15367   0.127   0.056   3.728
 4823SOL    HW115368   0.081   0.141   3.703
 4823SOL    HW215369   0.225   0.065   3.713
 4824SOL     OW15370   5.535   2.316   3.669
 4824SOL    HW115371   5.576   2.228   3.647
 4824SOL    HW215372   5.583   2.389   3.620
 4825SOL     OW15373   1.704   2.973   4.464
 4825SOL    HW115374   1.666   3.031   4.537
 4825SOL    HW215375   1.796   3.004   4.442
 4826SOL     OW15376   0.073   6.625   1.041
 4826SOL    HW115377   0.044   6.716   1.012
 4826SOL    HW215378   0.163   6.631   1.085
 4827SOL     OW15379   5.205   0.972   1.940
 4827SOL    HW115380   5.131   0.960   2.007
 4827SOL    HW215381   5.174   0.941   1.851
 4828SOL     OW15382   5.924   4.079   1.684
 4828SOL    HW115383   5.886   4.141   1.615
 4828SOL    HW215384   6.022   4.069   1.669
 4829SOL     OW15385   3.860   6.792   5.993
 4829SOL    HW115386   3.804   6.839   6.061
 4829SOL    HW215387   3.862   6.847   5.908
 4830SOL     OW15388   5.216   5.342   3.802
 4830SOL    HW115389   5.190   5.415   3.865
 4830SOL    HW215390   5.134   5.305   3.759
 4831SOL     OW15391   6.934   4.997   5.425
 4831SOL    HW115392   6.864   4.945   5.475
 4831SOL    HW215393   6.904   5.011   5.330
 4832SOL     OW15394   2.924   2.425   6.106
 4832SOL    HW115395   2.927   2.451   6.203
 4832SOL    HW215396   2.835   2.450   6.068
 4833SOL     OW15397   4.533   1.725   3.182
 4833SOL    HW115398   4.472   1.793   3.141
 4833SOL    HW215399   4.555   1.655   3.114
 4834SOL     OW15400   3.817   6.976   0.742
 4834SOL    HW115401   3.869   0.039   0.757
 4834SOL    HW215402   3.790   6.939   0.831
 4835SOL     OW15403   1.618   6.754   6.582
 4835SOL    HW115404   1.590   6.680   6.520
 4835SOL    HW215405   1.714   6.743   6.606
 4836SOL     OW15406   4.467   2.311   3.731
 4836SOL    HW115407   4.387   2.336   3.677
 4836SOL    HW215408   4.514   2.234   3.688
 4837SOL     OW15409   3.411   2.713   1.790
 4837SOL    HW115410   3.492   2.660   1.764
 4837SOL    HW215411   3.341   2.703   1.719
 4838SOL     OW15412   2.630   4.950   2.474
 4838SOL    HW115413   2.726   4.924   2.479
 4838SOL    HW215414   2.574   4.869   2.457
 4839SOL     OW15415   0.791   4.042   5.627
 4839SOL    HW115416   0.790   3.945   5.607
 4839SOL    HW215417   0.706   4.084   5.595
 4840SOL     OW15418   6.844   0.207   6.490
 4840SOL    HW115419   6.770   0.274   6.504
 4840SOL    HW215420   6.919   0.228   6.553
 4841SOL     OW15421   3.193   5.563   1.916
 4841SOL    HW115422   3.172   5.484   1.974
 4841SOL    HW215423   3.171   5.541   1.821
 4842SOL     OW15424   3.395   5.066   1.711
 4842SOL    HW115425   3.321   5.132   1.725
 4842SOL    HW215426   3.357   4.978   1.682
 4843SOL     OW15427   5.961   3.898   0.794
 4843SOL    HW115428   5.988   3.939   0.707
 4843SOL    HW215429   6.043   3.866   0.843
 4844SOL     OW15430   6.910   3.581   6.563
 4844SOL    HW115431   6.825   3.570   6.616
 4844SOL    HW215432   6.932   3.679   6.557
 4845SOL     OW15433   6.890   5.368   4.474
 4845SOL    HW115434   6.859   5.278   4.503
 4845SOL    HW215435   6.812   5.423   4.446
 4846SOL     OW15436   0.052   3.675   1.115
 4846SOL    HW115437   7.016   3.602   1.153
 4846SOL    HW215438   0.096   3.642   1.032
 4847SOL     OW15439   3.574   1.456   5.585
 4847SOL    HW115440   3.639   1.389   5.550
 4847SOL    HW215441   3.577   1.539   5.528
 4848SOL     OW15442   1.768   1.162   4.397
 4848SOL    HW115443   1.748   1.080   4.450
 4848SOL    HW215444   1.716   1.239   4.433
 4849SOL     OW15445   1.912   6.976   0.424
 4849SOL    HW115446   1.937   6.905   0.359
 4849SOL    HW215447   1.907   0.042   0.377
 4850SOL     OW15448   4.025   0.997   1.898
 4850SOL    HW115449   4.064   0.914   1.939
 4850SOL    HW215450   3.930   1.008   1.929
 4851SOL     OW15451   3.652   5.859   5.174
 4851SOL    HW115452   3.590   5.933   5.198
 4851SOL    HW215453   3.614   5.806   5.099
 4852SOL     OW15454   1.285   0.165   6.302
 4852SOL    HW115455   1.257   0.145   6.396
 4852SOL    HW215456   1.384   0.184   6.300
 4853SOL     OW15457   3.522   1.508   2.514
 4853SOL    HW115458   3.587   1.584   2.512
 4853SOL    HW215459   3.429   1.543   2.502
 4854SOL     OW15460   4.767   6.215   2.790
 4854SOL    HW115461   4.741   6.252   2.701
 4854SOL    HW215462   4.720   6.128   2.806
 4855SOL     OW15463   5.872   2.652   2.375
 4855SOL    HW115464   5.955   2.647   2.321
 4855SOL    HW215465   5.831   2.743   2.365
 4856SOL     OW15466   1.785   4.030   2.806
 4856SOL    HW115467   1.831   3.960   2.752
 4856SOL    HW215468   1.707   4.067   2.755
 4857SOL     OW15469   1.655   2.015   5.743
 4857SOL    HW115470   1.729   2.082   5.749
 4857SOL    HW215471   1.655   1.958   5.825
 4858SOL     OW15472   2.008   0.867   4.043
 4858SOL    HW115473   2.053   0.929   3.979
 4858SOL    HW215474   2.053   0.777   4.040
 4859SOL     OW15475   0.692   6.589   4.474
 4859SOL    HW115476   0.683   6.539   4.388
 4859SOL    HW215477   0.763   6.546   4.530
 4860SOL     OW15478   3.669   5.168   2.497
 4860SOL    HW115479   3.688   5.088   2.555
 4860SOL    HW215480   3.598   5.224   2.540
 4861SOL     OW15481   4.977   5.221   0.371
 4861SOL    HW115482   5.000   5.238   0.275
 4861SOL    HW215483   4.887   5.177   0.377
 4862SOL     OW15484   2.216   4.626   4.011
 4862SOL    HW115485   2.243   4.657   3.919
 4862SOL    HW215486   2.299   4.608   4.064
 4863SOL     OW15487   5.269   5.000   0.397
 4863SOL    HW115488   5.259   4.943   0.478
 4863SOL    HW215489   5.243   5.094   0.418
 4864SOL     OW15490   3.194   1.146   4.470
 4864SOL    HW115491   3.116   1.168   4.411
 4864SOL    HW215492   3.180   1.055   4.509
 4865SOL     OW15493   1.600   0.224   5.288
 4865SOL    HW115494   1.611   0.316   5.252
 4865SOL    HW215495   1.515   0.219   5.342
 4866SOL     OW15496   6.360   3.921   1.421
 4866SOL    HW115497   6.309   3.847   1.378
 4866SOL    HW215498   6.448   3.933   1.375
 4867SOL     OW15499   4.427   5.631   2.300
 4867SOL    HW115500   4.376   5.582   2.229
 4867SOL    HW215501   4.415   5.729   2.287
 4868SOL     OW15502   6.611   4.746   2.147
 4868SOL    HW115503   6.551   4.721   2.071
 4868SOL    HW215504   6.703   4.711   2.131
 4869SOL     OW15505   1.960   1.584   0.641
 4869SOL    HW115506   1.986   1.644   0.717
 4869SOL    HW215507   1.983   1.489   0.663
 4870SOL     OW15508   0.408   5.948   1.602
 4870SOL    HW115509   0.439   6.041   1.620
 4870SOL    HW215510   0.312   5.950   1.574
 4871SOL     OW15511   1.219   0.175   4.011
 4871SOL    HW115512   1.169   0.176   4.097
 4871SOL    HW215513   1.212   0.264   3.967
 4872SOL     OW15514   6.360   6.823   3.069
 4872SOL    HW115515   6.366   6.919   3.097
 4872SOL    HW215516   6.450   6.779   3.081
 4873SOL     OW15517   6.819   5.679   4.535
 4873SOL    HW115518   6.773   5.681   4.623
 4873SOL    HW215519   6.908   5.634   4.545
 4874SOL     OW15520   5.128   3.045   2.776
 4874SOL    HW115521   5.183   3.098   2.710
 4874SOL    HW215522   5.152   3.072   2.869
 4875SOL     OW15523   5.591   0.473   0.440
 4875SOL    HW115524   5.633   0.391   0.480
 4875SOL    HW215525   5.600   0.470   0.341
 4876SOL     OW15526   6.730   1.060   3.998
 4876SOL    HW115527   6.782   0.979   3.971
 4876SOL    HW215528   6.793   1.131   4.029
 4877SOL     OW15529   0.469   2.070   5.545
 4877SOL    HW115530   0.561   2.033   5.553
 4877SOL    HW215531   0.403   1.995   5.537
 4878SOL     OW15532   6.612   1.795   1.784
 4878SOL    HW115533   6.555   1.713   1.785
 4878SOL    HW215534   6.702   1.772   1.748
 4879SOL     OW15535   4.203   2.199   1.788
 4879SOL    HW115536   4.110   2.164   1.772
 4879SOL    HW215537   4.268   2.123   1.784
 4880SOL     OW15538   6.263   3.646   0.290
 4880SOL    HW115539   6.272   3.634   0.191
 4880SOL    HW215540   6.252   3.556   0.333
 4881SOL     OW15541   1.730   1.224   6.921
 4881SOL    HW115542   1.797   1.224   6.846
 4881SOL    HW215543   1.771   1.262   7.003
 4882SOL     OW15544   4.044   1.771   5.531
 4882SOL    HW115545   3.972   1.789   5.464
 4882SOL    HW215546   4.131   1.807   5.497
 4883SOL     OW15547   5.372   4.038   0.707
 4883SOL    HW115548   5.292   4.075   0.754
 4883SOL    HW215549   5.410   3.963   0.761
 4884SOL     OW15550   3.534   5.408   1.127
 4884SOL    HW115551   3.560   5.474   1.056
 4884SOL    HW215552   3.544   5.449   1.217
 4885SOL     OW15553   2.420   4.660   1.130
 4885SOL    HW115554   2.450   4.727   1.197
 4885SOL    HW215555   2.415   4.570   1.173
 4886SOL     OW15556   2.989   6.890   1.543
 4886SOL    HW115557   3.059   6.872   1.613
 4886SOL    HW215558   3.033   6.901   1.454
 4887SOL     OW15559   0.474   6.209   1.677
 4887SOL    HW115560   0.561   6.175   1.714
 4887SOL    HW215561   0.493   6.270   1.600
 4888SOL     OW15562   2.680   6.929   2.894
 4888SOL    HW115563   2.731   6.847   2.923
 4888SOL    HW215564   2.739   7.009   2.902
 4889SOL     OW15565   6.729   1.912   5.297
 4889SOL    HW115566   6.764   1.977   5.364
 4889SOL    HW215567   6.680   1.963   5.225
 4890SOL     OW15568   0.437   1.775   5.397
 4890SOL    HW115569   0.406   1.712   5.325
 4890SOL    HW215570   0.368   1.845   5.411
 4891SOL     OW15571   2.844   5.337   0.255
 4891SOL    HW115572   2.912   5.352   0.183
 4891SOL    HW215573   2.761   5.390   0.234
 4892SOL     OW15574   5.424   5.960   2.327
 4892SOL    HW115575   5.502   5.923   2.277
 4892SOL    HW215576   5.426   5.926   2.421
 4893SOL     OW15577   6.453   3.173   1.744
 4893SOL    HW115578   6.379   3.171   1.676
 4893SOL    HW215579   6.420   3.138   1.831
 4894SOL     OW15580   3.513   0.327   2.684
 4894SOL    HW115581   3.457   0.258   2.730
 4894SOL    HW215582   3.554   0.388   2.752
 4895SOL     OW15583   0.694   5.013   3.671
 4895SOL    HW115584   0.640   4.929   3.670
 4895SOL    HW215585   0.653   5.077   3.736
 4896SOL     OW15586   2.421   4.401   2.562
 4896SOL    HW115587   2.362   4.476   2.530
 4896SOL    HW215588   2.482   4.435   2.633
 4897SOL     OW15589   1.995   5.780   5.160
 4897SOL    HW115590   1.961   5.859   5.109
 4897SOL    HW215591   2.043   5.811   5.242
 4898SOL     OW15592   3.817   1.000   5.110
 4898SOL    HW115593   3.731   0.999   5.160
 4898SOL    HW215594   3.845   1.094   5.093
 4899SOL     OW15595   6.196   5.016   2.938
 4899SOL    HW115596   6.209   5.108   2.900
 4899SOL    HW215597   6.099   4.991   2.931
 4900SOL     OW15598   4.109   6.207   5.984
 4900SOL    HW115599   4.022   6.185   6.027
 4900SOL    HW215600   4.101   6.292   5.932
 4901SOL     OW15601   1.938   1.506   5.342
 4901SOL    HW115602   1.843   1.515   5.372
 4901SOL    HW215603   1.940   1.491   5.243
 4902SOL     OW15604   0.886   1.332   5.231
 4902SOL    HW115605   0.930   1.245   5.251
 4902SOL    HW215606   0.865   1.338   5.134
 4903SOL     OW15607   4.552   5.488   0.591
 4903SOL    HW115608   4.638   5.490   0.540
 4903SOL    HW215609   4.480   5.450   0.534
 4904SOL     OW15610   1.968   0.344   5.562
 4904SOL    HW115611   1.968   0.444   5.558
 4904SOL    HW215612   2.006   0.314   5.649
 4905SOL     OW15613   2.312   0.857   3.405
 4905SOL    HW115614   2.230   0.860   3.462
 4905SOL    HW215615   2.393   0.862   3.464
 4906SOL     OW15616   4.647   2.939   6.327
 4906SOL    HW115617   4.660   2.842   6.311
 4906SOL    HW215618   4.669   2.960   6.423
 4907SOL     OW15619   4.763   0.411   1.337
 4907SOL    HW115620   4.778   0.352   1.417
 4907SOL    HW215621   4.829   0.388   1.266
 4908SOL     OW15622   4.985   6.767   0.298
 4908SOL    HW115623   4.928   6.835   0.252
 4908SOL    HW215624   5.073   6.761   0.252
 4909SOL     OW15625   6.986   5.290   3.330
 4909SOL    HW115626   6.978   5.372   3.387
 4909SOL    HW215627   0.045   5.297   3.272
 4910SOL     OW15628   5.610   0.596   4.224
 4910SOL    HW115629   5.596   0.500   4.249
 4910SOL    HW215630   5.545   0.653   4.274
 4911SOL     OW15631   1.739   3.708   3.238
 4911SOL    HW115632   1.645   3.729   3.211
 4911SOL    HW215633   1.776   3.783   3.293
 4912SOL     OW15634   5.364   1.772   5.976
 4912SOL    HW115635   5.339   1.827   5.896
 4912SOL    HW215636   5.306   1.798   6.053
 4913SOL     OW15637   4.635   3.728   5.662
 4913SOL    HW115638   4.584   3.668   5.723
 4913SOL    HW215639   4.611   3.708   5.567
 4914SOL     OW15640   4.314   6.808   5.208
 4914SOL    HW115641   4.268   6.858   5.135
 4914SOL    HW215642   4.317   6.864   5.291
 4915SOL     OW15643   2.979   6.704   5.297
 4915SOL    HW115644   3.020   6.796   5.302
 4915SOL    HW215645   2.925   6.696   5.214
 4916SOL     OW15646   0.571   0.920   3.982
 4916SOL    HW115647   0.573   0.998   3.920
 4916SOL    HW215648   0.479   0.912   4.022
 4917SOL     OW15649   3.805   5.819   0.664
 4917SOL    HW115650   3.903   5.834   0.676
 4917SOL    HW215651   3.777   5.736   0.712
 4918SOL     OW15652   5.862   5.896   1.988
 4918SOL    HW115653   5.846   5.984   1.944
 4918SOL    HW215654   5.949   5.900   2.038
 4919SOL     OW15655   3.292   3.016   2.450
 4919SOL    HW115656   3.251   2.986   2.535
 4919SOL    HW215657   3.329   3.109   2.461
 4920SOL     OW15658   5.560   0.423   4.937
 4920SOL    HW115659   5.603   0.336   4.963
 4920SOL    HW215660   5.623   0.475   4.879
 4921SOL     OW15661   1.569   5.049   0.184
 4921SOL    HW115662   1.496   5.020   0.247
 4921SOL    HW215663   1.540   5.131   0.136
 4922SOL     OW15664   3.121   2.187   4.678
 4922SOL    HW115665   3.114   2.279   4.716
 4922SOL    HW215666   3.075   2.183   4.590
 4923SOL     OW15667   2.711   1.295   2.282
 4923SOL    HW115668   2.631   1.341   2.242
 4923SOL    HW215669   2.762   1.359   2.339
 4924SOL     OW15670   2.754   1.760   4.732
 4924SOL    HW115671   2.685   1.693   4.705
 4924SOL    HW215672   2.734   1.792   4.825
 4925SOL     OW15673   5.059   0.388   2.577
 4925SOL    HW115674   4.997   0.404   2.653
 4925SOL    HW215675   5.011   0.409   2.491
 4926SOL     OW15676   5.646   1.885   1.915
 4926SOL    HW115677   5.686   1.886   1.823
 4926SOL    HW215678   5.557   1.929   1.913
 4927SOL     OW15679   2.869   3.067   5.559
 4927SOL    HW115680   2.931   3.070   5.637
 4927SOL    HW215681   2.833   3.159   5.541
 4928SOL     OW15682   1.345   0.697   6.541
 4928SOL    HW115683   1.292   0.646   6.609
 4928SOL    HW215684   1.321   0.665   6.449
 4929SOL     OW15685   6.906   6.805   3.739
 4929SOL    HW115686   6.865   6.761   3.819
 4929SOL    HW215687   6.880   6.901   3.737
 4930SOL     OW15688   6.064   0.025   2.961
 4930SOL    HW115689   6.028   0.056   2.873
 4930SOL    HW215690   6.109   0.101   3.008
 4931SOL     OW15691   6.527   6.492   1.309
 4931SOL    HW115692   6.569   6.578   1.282
 4931SOL    HW215693   6.457   6.466   1.242
 4932SOL     OW15694   3.859   3.667   3.448
 4932SOL    HW115695   3.956   3.679   3.427
 4932SOL    HW215696   3.805   3.719   3.381
 4933SOL     OW15697   2.295   6.543   2.605
 4933SOL    HW115698   2.340   6.466   2.650
 4933SOL    HW215699   2.203   6.554   2.641
 4934SOL     OW15700   3.744   6.466   2.859
 4934SOL    HW115701   3.692   6.549   2.838
 4934SOL    HW215702   3.842   6.488   2.857
 4935SOL     OW15703   1.572   1.983   6.245
 4935SOL    HW115704   1.625   2.061   6.278
 4935SOL    HW215705   1.487   1.976   6.297
 4936SOL     OW15706   2.613   5.189   0.825
 4936SOL    HW115707   2.622   5.255   0.900
 4936SOL    HW215708   2.648   5.100   0.854
 4937SOL     OW15709   5.179   2.862   5.633
 4937SOL    HW115710   5.084   2.883   5.656
 4937SOL    HW215711   5.201   2.904   5.545
 4938SOL     OW15712   2.715   5.429   5.899
 4938SOL    HW115713   2.764   5.491   5.961
 4938SOL    HW215714   2.625   5.409   5.937
 4939SOL     OW15715   5.461   2.432   4.810
 4939SOL    HW115716   5.531   2.431   4.881
 4939SOL    HW215717   5.407   2.347   4.816
 4940SOL     OW15718   1.310   0.830   4.603
 4940SOL    HW115719   1.282   0.926   4.597
 4940SOL    HW215720   1.323   0.793   4.511
 4941SOL     OW15721   3.799   1.952   6.420
 4941SOL    HW115722   3.748   1.909   6.495
 4941SOL    HW215723   3.775   2.049   6.416
 4942SOL     OW15724   4.853   3.547   5.553
 4942SOL    HW115725   4.803   3.632   5.536
 4942SOL    HW215726   4.948   3.569   5.578
 4943SOL     OW15727   3.923   2.520   0.629
 4943SOL    HW115728   3.975   2.435   0.634
 4943SOL    HW215729   3.971   2.585   0.571
 4944SOL     OW15730   2.001   3.803   2.924
 4944SOL    HW115731   2.043   3.761   2.843
 4944SOL    HW215732   2.026   3.900   2.928
 4945SOL     OW15733   1.217   1.107   3.914
 4945SOL    HW115734   1.127   1.138   3.947
 4945SOL    HW215735   1.244   1.161   3.834
 4946SOL     OW15736   0.676   2.964   1.278
 4946SOL    HW115737   0.706   3.051   1.317
 4946SOL    HW215738   0.745   2.894   1.295
 4947SOL     OW15739   1.508   6.730   0.908
 4947SOL    HW115740   1.561   6.799   0.859
 4947SOL    HW215741   1.438   6.692   0.848
 4948SOL     OW15742   2.460   0.596   2.448
 4948SOL    HW115743   2.380   0.536   2.442
 4948SOL    HW215744   2.477   0.639   2.359
 4949SOL     OW15745   4.555   0.366   5.789
 4949SOL    HW115746   4.580   0.278   5.829
 4949SOL    HW215747   4.614   0.438   5.827
 4950SOL     OW15748   3.090   5.510   3.571
 4950SOL    HW115749   3.108   5.604   3.541
 4950SOL    HW215750   3.000   5.481   3.536
 4951SOL     OW15751   4.884   1.393   4.894
 4951SOL    HW115752   4.977   1.417   4.921
 4951SOL    HW215753   4.822   1.408   4.971
 4952SOL     OW15754   0.345   0.395   5.101
 4952SOL    HW115755   0.356   0.440   5.013
 4952SOL    HW215756   0.408   0.435   5.167
 4953SOL     OW15757   2.372   5.728   1.793
 4953SOL    HW115758   2.453   5.782   1.769
 4953SOL    HW215759   2.305   5.788   1.838
 4954SOL     OW15760   4.517   4.371   6.734
 4954SOL    HW115761   4.526   4.378   6.634
 4954SOL    HW215762   4.563   4.289   6.766
 4955SOL     OW15763   1.690   5.759   6.896
 4955SOL    HW115764   1.752   5.739   6.972
 4955SOL    HW215765   1.740   5.754   6.810
 4956SOL     OW15766   4.026   0.118   4.819
 4956SOL    HW115767   4.044   0.202   4.871
 4956SOL    HW215768   3.927   0.104   4.811
 4957SOL     OW15769   0.139   1.129   3.660
 4957SOL    HW115770   0.234   1.149   3.683
 4957SOL    HW215771   0.130   1.033   3.635
 4958SOL     OW15772   0.594   6.433   6.208
 4958SOL    HW115773   0.602   6.364   6.137
 4958SOL    HW215774   0.506   6.424   6.254
 4959SOL     OW15775   0.477   1.131   0.117
 4959SOL    HW115776   0.386   1.141   0.156
 4959SOL    HW215777   0.515   1.043   0.144
 4960SOL     OW15778   3.124   6.227   4.124
 4960SOL    HW115779   3.117   6.224   4.224
 4960SOL    HW215780   3.191   6.159   4.094
 4961SOL     OW15781   5.254   1.385   5.366
 4961SOL    HW115782   5.316   1.449   5.411
 4961SOL    HW215783   5.169   1.377   5.418
 4962SOL     OW15784   5.566   3.101   1.833
 4962SOL    HW115785   5.588   3.042   1.911
 4962SOL    HW215786   5.470   3.088   1.808
 4963SOL     OW15787   6.308   5.960   1.667
 4963SOL    HW115788   6.350   6.040   1.624
 4963SOL    HW215789   6.342   5.950   1.761
 4964SOL     OW15790   3.388   6.281   3.031
 4964SOL    HW115791   3.479   6.258   3.065
 4964SOL    HW215792   3.395   6.360   2.970
 4965SOL     OW15793   0.580   6.987   5.077
 4965SOL    HW115794   0.531   6.965   4.992
 4965SOL    HW215795   0.583   0.065   5.088
 4966SOL     OW15796   2.337   6.103   4.204
 4966SOL    HW115797   2.299   6.148   4.285
 4966SOL    HW215798   2.432   6.077   4.221
 4967SOL     OW15799   3.818   3.254   6.611
 4967SOL    HW115800   3.913   3.253   6.579
 4967SOL    HW215801   3.806   3.330   6.675
 4968SOL     OW15802   5.313   2.941   3.361
 4968SOL    HW115803   5.230   2.981   3.321
 4968SOL    HW215804   5.393   2.978   3.314
 4969SOL     OW15805   2.021   1.158   2.805
 4969SOL    HW115806   2.062   1.105   2.730
 4969SOL    HW215807   1.924   1.174   2.786
 4970SOL     OW15808   1.373   2.512   4.672
 4970SOL    HW115809   1.393   2.557   4.759
 4970SOL    HW215810   1.365   2.414   4.686
 4971SOL     OW15811   6.257   5.479   3.624
 4971SOL    HW115812   6.240   5.574   3.600
 4971SOL    HW215813   6.339   5.447   3.577
 4972SOL     OW15814   2.540   3.221   0.619
 4972SOL    HW115815   2.446   3.253   0.634
 4972SOL    HW215816   2.541   3.155   0.544
 4973SOL     OW15817   6.689   6.931   1.873
 4973SOL    HW115818   6.640   6.851   1.909
 4973SOL    HW215819   6.787   6.913   1.873
 4974SOL     OW15820   6.486   4.860   1.026
 4974SOL    HW115821   6.533   4.809   1.098
 4974SOL    HW215822   6.545   4.868   0.946
 4975SOL     OW15823   6.206   5.941   0.990
 4975SOL    HW115824   6.146   5.952   0.910
 4975SOL    HW215825   6.160   5.884   1.058
 4976SOL     OW15826   3.103   0.490   4.125
 4976SOL    HW115827   3.152   0.457   4.206
 4976SOL    HW215828   3.148   0.455   4.042
 4977SOL     OW15829   4.944   3.595   1.004
 4977SOL    HW115830   5.032   3.559   0.973
 4977SOL    HW215831   4.891   3.522   1.048
 4978SOL     OW15832   6.697   3.489   5.426
 4978SOL    HW115833   6.627   3.455   5.489
 4978SOL    HW215834   6.694   3.589   5.424
 4979SOL     OW15835   6.666   2.331   5.039
 4979SOL    HW115836   6.715   2.403   5.087
 4979SOL    HW215837   6.589   2.300   5.096
 4980SOL     OW15838   3.987   6.833   3.330
 4980SOL    HW115839   4.020   6.819   3.237
 4980SOL    HW215840   3.952   6.747   3.367
 4981SOL     OW15841   4.701   6.156   5.751
 4981SOL    HW115842   4.797   6.137   5.734
 4981SOL    HW215843   4.688   6.254   5.768
 4982SOL     OW15844   2.319   1.422   6.547
 4982SOL    HW115845   2.414   1.408   6.519
 4982SOL    HW215846   2.261   1.351   6.507
 4983SOL     OW15847   5.037   3.390   4.595
 4983SOL    HW115848   5.064   3.437   4.679
 4983SOL    HW215849   5.041   3.454   4.519
 4984SOL     OW15850   5.452   3.431   4.632
 4984SOL    HW115851   5.389   3.385   4.695
 4984SOL    HW215852   5.400   3.463   4.552
 4985SOL     OW15853   6.265   5.955   4.099
 4985SOL    HW115854   6.346   5.956   4.157
 4985SOL    HW215855   6.276   6.022   4.025
 4986SOL     OW15856   5.870   4.617   2.693
 4986SOL    HW115857   5.813   4.537   2.713
 4986SOL    HW215858   5.958   4.608   2.739
 4987SOL     OW15859   0.774   2.018   1.188
 4987SOL    HW115860   0.744   1.977   1.102
 4987SOL    HW215861   0.695   2.054   1.237
 4988SOL     OW15862   0.124   1.352   4.002
 4988SOL    HW115863   0.161   1.445   4.012
 4988SOL    HW215864   0.112   1.332   3.905
 4989SOL     OW15865   5.206   1.263   1.805
 4989SOL    HW115866   5.234   1.335   1.869
 4989SOL    HW215867   5.218   1.174   1.849
 4990SOL     OW15868   1.043   2.045   6.399
 4990SOL    HW115869   1.115   2.103   6.362
 4990SOL    HW215870   1.037   2.058   6.498
 4991SOL     OW15871   0.718   3.317   4.199
 4991SOL    HW115872   0.802   3.272   4.172
 4991SOL    HW215873   0.738   3.410   4.230
 4992SOL     OW15874   4.032   0.648   4.377
 4992SOL    HW115875   3.935   0.634   4.396
 4992SOL    HW215876   4.045   0.736   4.330
 4993SOL     OW15877   2.757   4.720   4.022
 4993SOL    HW115878   2.681   4.784   4.009
 4993SOL    HW215879   2.759   4.656   3.945
 4994SOL     OW15880   1.340   0.171   2.338
 4994SOL    HW115881   1.274   0.108   2.297
 4994SOL    HW215882   1.393   0.123   2.408
 4995SOL     OW15883   6.883   3.113   6.229
 4995SOL    HW115884   6.802   3.165   6.255
 4995SOL    HW215885   6.921   3.067   6.309
 4996SOL     OW15886   0.790   0.432   2.252
 4996SOL    HW115887   0.745   0.460   2.337
 4996SOL    HW215888   0.834   0.512   2.211
 4997SOL     OW15889   6.812   2.418   2.963
 4997SOL    HW115890   6.865   2.426   3.047
 4997SOL    HW215891   6.874   2.415   2.884
 4998SOL     OW15892   2.068   4.581   5.216
 4998SOL    HW115893   2.110   4.634   5.143
 4998SOL    HW215894   2.109   4.605   5.304
 4999SOL     OW15895   5.060   5.886   1.719
 4999SOL    HW115896   5.083   5.931   1.805
 4999SOL    HW215897   4.986   5.820   1.735
 5000SOL     OW15898   0.828   0.759   4.044
 5000SOL    HW115899   0.739   0.800   4.023
 5000SOL    HW215900   0.891   0.774   3.967
 5001SOL     OW15901   1.876   3.942   6.117
 5001SOL    HW115902   1.936   4.019   6.138
 5001SOL    HW215903   1.923   3.856   6.138
 5002SOL     OW15904   1.019   2.679   3.076
 5002SOL    HW115905   1.048   2.615   3.147
 5002SOL    HW215906   0.947   2.636   3.021
 5003SOL     OW15907   0.553   6.733   3.468
 5003SOL    HW115908   0.538   6.812   3.527
 5003SOL    HW215909   0.650   6.708   3.469
 5004SOL     OW15910   2.656   5.718   5.582
 5004SOL    HW115911   2.659   5.780   5.504
 5004SOL    HW215912   2.688   5.766   5.664
 5005SOL     OW15913   3.805   2.162   0.236
 5005SOL    HW115914   3.750   2.241   0.262
 5005SOL    HW215915   3.744   2.083   0.221
 5006SOL     OW15916   5.884   0.001   6.156
 5006SOL    HW115917   5.915   6.937   6.115
 5006SOL    HW215918   5.962   0.061   6.173
 5007SOL     OW15919   2.807   0.258   5.935
 5007SOL    HW115920   2.822   0.265   5.836
 5007SOL    HW215921   2.752   0.336   5.966
 5008SOL     OW15922   6.078   0.725   3.498
 5008SOL    HW115923   6.086   0.650   3.432
 5008SOL    HW215924   6.075   0.812   3.450
 5009SOL     OW15925   1.790   6.279   1.757
 5009SOL    HW115926   1.787   6.290   1.658
 5009SOL    HW215927   1.851   6.347   1.797
 5010SOL     OW15928   3.050   3.589   3.909
 5010SOL    HW115929   3.055   3.683   3.874
 5010SOL    HW215930   2.994   3.588   3.992
 5011SOL     OW15931   2.103   3.247   1.979
 5011SOL    HW115932   2.079   3.170   2.039
 5011SOL    HW215933   2.125   3.326   2.035
 5012SOL     OW15934   6.228   2.841   5.939
 5012SOL    HW115935   6.216   2.938   5.960
 5012SOL    HW215936   6.229   2.788   6.024
 5013SOL     OW15937   4.820   0.618   6.638
 5013SOL    HW115938   4.728   0.593   6.605
 5013SOL    HW215939   4.882   0.626   6.560
 5014SOL     OW15940   6.404   5.755   0.873
 5014SOL    HW115941   6.311   5.719   0.881
 5014SOL    HW215942   6.399   5.853   0.854
 5015SOL     OW15943   4.281   1.420   4.111
 5015SOL    HW115944   4.213   1.351   4.133
 5015SOL    HW215945   4.257   1.506   4.158
 5016SOL     OW15946   2.324   1.191   2.455
 5016SOL    HW115947   2.399   1.133   2.486
 5016SOL    HW215948   2.349   1.287   2.465
 5017SOL     OW15949   2.417   2.536   0.724
 5017SOL    HW115950   2.349   2.466   0.706
 5017SOL    HW215951   2.428   2.594   0.643
 5018SOL     OW15952   0.537   4.068   2.003
 5018SOL    HW115953   0.543   4.057   1.904
 5018SOL    HW215954   0.597   4.001   2.047
 5019SOL     OW15955   2.004   4.314   0.242
 5019SOL    HW115956   2.022   4.308   0.144
 5019SOL    HW215957   2.064   4.382   0.283
 5020SOL     OW15958   6.174   6.183   5.609
 5020SOL    HW115959   6.121   6.164   5.692
 5020SOL    HW215960   6.120   6.158   5.528
 5021SOL     OW15961   0.942   4.591   6.429
 5021SOL    HW115962   0.852   4.576   6.471
 5021SOL    HW215963   0.930   4.636   6.340
 5022SOL     OW15964   1.645   0.008   0.473
 5022SOL    HW115965   1.603   0.076   0.412
 5022SOL    HW215966   1.731   6.998   0.433
 5023SOL     OW15967   6.275   2.721   0.958
 5023SOL    HW115968   6.325   2.804   0.983
 5023SOL    HW215969   6.201   2.706   1.024
 5024SOL     OW15970   6.897   4.168   2.793
 5024SOL    HW115971   6.889   4.070   2.776
 5024SOL    HW215972   6.821   4.216   2.749
 5025SOL     OW15973   4.660   1.833   2.298
 5025SOL    HW115974   4.674   1.932   2.293
 5025SOL    HW215975   4.702   1.790   2.218
 5026SOL     OW15976   6.078   5.987   6.025
 5026SOL    HW115977   6.052   5.960   5.932
 5026SOL    HW215978   6.003   5.967   6.088
 5027SOL     OW15979   1.164   0.137   3.107
 5027SOL    HW115980   1.146   0.100   3.198
 5027SOL    HW215981   1.174   0.237   3.113
 5028SOL     OW15982   0.521   5.624   2.053
 5028SOL    HW115983   0.544   5.683   1.976
 5028SOL    HW215984   0.523   5.677   2.138
 5029SOL     OW15985   0.126   2.888   2.749
 5029SOL    HW115986   0.036   2.931   2.756
 5029SOL    HW215987   0.128   2.806   2.806
 5030SOL     OW15988   0.237   0.328   0.246
 5030SOL    HW115989   0.285   0.288   0.324
 5030SOL    HW215990   0.165   0.267   0.216
 5031SOL     OW15991   6.172   1.158   4.691
 5031SOL    HW115992   6.093   1.203   4.650
 5031SOL    HW215993   6.169   1.061   4.671
 5032SOL     OW15994   0.971   4.744   0.787
 5032SOL    HW115995   1.065   4.720   0.765
 5032SOL    HW215996   0.953   4.839   0.762
 5033SOL     OW15997   2.779   5.082   5.465
 5033SOL    HW115998   2.762   5.065   5.367
 5033SOL    HW215999   2.691   5.084   5.513
 5034SOL     OW16000   6.703   3.239   1.788
 5034SOL    HW116001   6.608   3.208   1.777
 5034SOL    HW216002   6.705   3.331   1.827
 5035SOL     OW16003   5.491   5.170   0.942
 5035SOL    HW116004   5.459   5.076   0.930
 5035SOL    HW216005   5.511   5.187   1.038
 5036SOL     OW16006   1.180   6.090   6.289
 5036SOL    HW116007   1.110   6.128   6.349
 5036SOL    HW216008   1.204   6.157   6.218
 5037SOL     OW16009   4.235   1.909   3.362
 5037SOL    HW116010   4.305   1.970   3.325
 5037SOL    HW216011   4.274   1.851   3.433
 5038SOL     OW16012   1.711   6.034   5.489
 5038SOL    HW116013   1.653   5.974   5.544
 5038SOL    HW216014   1.658   6.113   5.458
 5039SOL     OW16015   2.149   3.166   5.091
 5039SOL    HW116016   2.179   3.261   5.102
 5039SOL    HW216017   2.228   3.109   5.070
 5040SOL     OW16018   2.783   3.546   6.735
 5040SOL    HW116019   2.834   3.466   6.703
 5040SOL    HW216020   2.807   3.564   6.830
 5041SOL     OW16021   0.652   3.632   1.066
 5041SOL    HW116022   0.718   3.692   1.110
 5041SOL    HW216023   0.599   3.584   1.136
 5042SOL     OW16024   6.648   2.531   6.928
 5042SOL    HW116025   6.694   2.553   6.842
 5042SOL    HW216026   6.702   2.464   6.979
 5043SOL     OW16027   3.749   1.316   5.444
 5043SOL    HW116028   3.820   1.386   5.455
 5043SOL    HW216029   3.748   1.284   5.350
 5044SOL     OW16030   6.286   6.077   3.827
 5044SOL    HW116031   6.372   6.031   3.803
 5044SOL    HW216032   6.297   6.176   3.818
 5045SOL     OW16033   5.176   3.507   0.589
 5045SOL    HW116034   5.079   3.502   0.562
 5045SOL    HW216035   5.187   3.475   0.683
 5046SOL     OW16036   3.395   2.888   5.065
 5046SOL    HW116037   3.492   2.870   5.045
 5046SOL    HW216038   3.357   2.811   5.116
 5047SOL     OW16039   6.076   1.459   2.755
 5047SOL    HW116040   6.092   1.365   2.723
 5047SOL    HW216041   6.164   1.504   2.773
 5048SOL     OW16042   6.750   2.618   2.201
 5048SOL    HW116043   6.718   2.697   2.149
 5048SOL    HW216044   6.684   2.543   2.193
 5049SOL     OW16045   6.803   1.374   3.083
 5049SOL    HW116046   6.883   1.369   3.022
 5049SOL    HW216047   6.817   1.314   3.161
 5050SOL     OW16048   0.092   1.470   1.786
 5050SOL    HW116049   0.180   1.461   1.833
 5050SOL    HW216050   0.020   1.428   1.841
 5051SOL     OW16051   3.095   4.175   1.260
 5051SOL    HW116052   3.077   4.153   1.356
 5051SOL    HW216053   3.190   4.152   1.238
 5052SOL     OW16054   3.631   4.353   0.502
 5052SOL    HW116055   3.704   4.348   0.433
 5052SOL    HW216056   3.656   4.296   0.581
 5053SOL     OW16057   1.851   4.005   2.391
 5053SOL    HW116058   1.887   4.085   2.438
 5053SOL    HW216059   1.753   3.998   2.406
 5054SOL     OW16060   3.673   5.913   5.478
 5054SOL    HW116061   3.772   5.910   5.491
 5054SOL    HW216062   3.651   5.901   5.382
 5055SOL     OW16063   0.487   1.755   5.001
 5055SOL    HW116064   0.550   1.832   5.015
 5055SOL    HW216065   0.394   1.790   4.991
 5056SOL     OW16066   0.087   4.053   6.571
 5056SOL    HW116067   0.061   4.107   6.491
 5056SOL    HW216068   0.178   4.014   6.556
 5057SOL     OW16069   0.512   5.403   3.123
 5057SOL    HW116070   0.494   5.405   3.025
 5057SOL    HW216071   0.447   5.463   3.170
 5058SOL     OW16072   3.726   4.061   6.747
 5058SOL    HW116073   3.633   4.098   6.758
 5058SOL    HW216074   3.758   4.080   6.654
 5059SOL     OW16075   4.607   2.607   4.760
 5059SOL    HW116076   4.695   2.562   4.744
 5059SOL    HW216077   4.551   2.550   4.820
 5060SOL     OW16078   6.772   2.940   5.300
 5060SOL    HW116079   6.781   2.898   5.390
 5060SOL    HW216080   6.678   2.930   5.267
 5061SOL     OW16081   3.138   3.500   4.267
 5061SOL    HW116082   3.115   3.596   4.281
 5061SOL    HW216083   3.141   3.480   4.170
 5062SOL     OW16084   4.928   1.562   2.866
 5062SOL    HW116085   4.920   1.662   2.864
 5062SOL    HW216086   5.021   1.536   2.890
 5063SOL     OW16087   1.118   6.740   1.629
 5063SOL    HW116088   1.089   6.645   1.619
 5063SOL    HW216089   1.217   6.744   1.642
 5064SOL     OW16090   4.781   5.181   1.106
 5064SOL    HW116091   4.837   5.168   1.024
 5064SOL    HW216092   4.698   5.126   1.099
 5065SOL     OW16093   1.497   0.413   3.397
 5065SOL    HW116094   1.528   0.390   3.305
 5065SOL    HW216095   1.423   0.480   3.392
 5066SOL     OW16096   2.293   4.067   1.901
 5066SOL    HW116097   2.369   4.093   1.842
 5066SOL    HW216098   2.283   3.968   1.902
 5067SOL     OW16099   3.996   2.074   1.661
 5067SOL    HW116100   3.901   2.046   1.674
 5067SOL    HW216101   4.035   2.023   1.584
 5068SOL     OW16102   3.310   5.736   0.211
 5068SOL    HW116103   3.351   5.825   0.233
 5068SOL    HW216104   3.211   5.746   0.205
 5069SOL     OW16105   2.089   3.130   5.754
 5069SOL    HW116106   2.177   3.106   5.795
 5069SOL    HW216107   2.102   3.141   5.655
 5070SOL     OW16108   5.753   3.607   3.970
 5070SOL    HW116109   5.821   3.628   4.041
 5070SOL    HW216110   5.697   3.687   3.952
 5071SOL     OW16111   3.966   1.852   3.589
 5071SOL    HW116112   4.015   1.804   3.662
 5071SOL    HW216113   4.025   1.859   3.509
 5072SOL     OW16114   1.575   0.946   0.966
 5072SOL    HW116115   1.540   0.853   0.977
 5072SOL    HW216116   1.524   1.009   1.025
 5073SOL     OW16117   2.211   6.856   2.109
 5073SOL    HW116118   2.111   6.855   2.100
 5073SOL    HW216119   2.236   6.860   2.205
 5074SOL     OW16120   3.842   1.749   1.484
 5074SOL    HW116121   3.795   1.664   1.507
 5074SOL    HW216122   3.787   1.827   1.515
 5075SOL     OW16123   1.334   2.977   0.344
 5075SOL    HW116124   1.234   2.984   0.344
 5075SOL    HW216125   1.373   3.055   0.295
 5076SOL     OW16126   5.341   0.357   6.945
 5076SOL    HW116127   5.282   0.372   6.866
 5076SOL    HW216128   5.384   0.266   6.938
 5077SOL     OW16129   1.535   3.815   5.499
 5077SOL    HW116130   1.491   3.873   5.568
 5077SOL    HW216131   1.544   3.866   5.413
 5078SOL     OW16132   0.621   1.377   4.585
 5078SOL    HW116133   0.576   1.293   4.557
 5078SOL    HW216134   0.553   1.441   4.621
 5079SOL     OW16135   2.015   1.818   5.827
 5079SOL    HW116136   1.969   1.862   5.903
 5079SOL    HW216137   2.057   1.733   5.857
 5080SOL     OW16138   6.398   5.640   5.453
 5080SOL    HW116139   6.329   5.708   5.430
 5080SOL    HW216140   6.384   5.608   5.547
 5081SOL     OW16141   2.530   5.090   5.247
 5081SOL    HW116142   2.476   5.078   5.330
 5081SOL    HW216143   2.557   5.000   5.212
 5082SOL     OW16144   4.683   6.532   6.943
 5082SOL    HW116145   4.621   6.599   6.983
 5082SOL    HW216146   4.632   6.470   6.883
 5083SOL     OW16147   2.894   0.655   1.763
 5083SOL    HW116148   2.958   0.721   1.801
 5083SOL    HW216149   2.817   0.643   1.826
 5084SOL     OW16150   0.867   4.717   5.004
 5084SOL    HW116151   0.792   4.655   5.027
 5084SOL    HW216152   0.922   4.677   4.930
 5085SOL     OW16153   1.098   2.112   6.065
 5085SOL    HW116154   1.138   2.021   6.074
 5085SOL    HW216155   1.125   2.168   6.144
 5086SOL     OW16156   0.680   4.465   1.992
 5086SOL    HW116157   0.737   4.386   2.014
 5086SOL    HW216158   0.704   4.541   2.052
 5087SOL     OW16159   6.904   5.426   2.460
 5087SOL    HW116160   6.871   5.332   2.463
 5087SOL    HW216161   6.826   5.488   2.449
 5088SOL     OW16162   4.279   5.864   2.890
 5088SOL    HW116163   4.352   5.809   2.851
 5088SOL    HW216164   4.199   5.862   2.829
 5089SOL     OW16165   5.817   4.437   4.154
 5089SOL    HW116166   5.829   4.416   4.251
 5089SOL    HW216167   5.880   4.509   4.126
 5090SOL     OW16168   2.232   0.331   3.328
 5090SOL    HW116169   2.220   0.383   3.412
 5090SOL    HW216170   2.143   0.313   3.286
 5091SOL     OW16171   6.794   0.333   0.763
 5091SOL    HW116172   6.874   0.276   0.744
 5091SOL    HW216173   6.824   0.422   0.797
 5092SOL     OW16174   4.111   3.509   4.318
 5092SOL    HW116175   4.085   3.476   4.409
 5092SOL    HW216176   4.090   3.438   4.250
 5093SOL     OW16177   2.344   1.515   1.723
 5093SOL    HW116178   2.409   1.491   1.795
 5093SOL    HW216179   2.293   1.597   1.750
 5094SOL     OW16180   1.992   6.202   6.522
 5094SOL    HW116181   1.983   6.287   6.470
 5094SOL    HW216182   2.076   6.206   6.576
 5095SOL     OW16183   0.074   1.982   3.424
 5095SOL    HW116184   0.122   1.906   3.466
 5095SOL    HW216185   7.019   2.010   3.482
 5096SOL     OW16186   5.899   4.707   6.385
 5096SOL    HW116187   5.905   4.607   6.389
 5096SOL    HW216188   5.954   4.741   6.308
 5097SOL     OW16189   6.397   0.179   0.479
 5097SOL    HW116190   6.441   0.151   0.393
 5097SOL    HW216191   6.463   0.231   0.534
 5098SOL     OW16192   3.925   2.341   1.337
 5098SOL    HW116193   3.979   2.406   1.390
 5098SOL    HW216194   3.866   2.289   1.399
 5099SOL     OW16195   0.195   6.348   1.477
 5099SOL    HW116196   0.181   6.287   1.556
 5099SOL    HW216197   0.230   6.436   1.509
 5100SOL     OW16198   4.134   5.344   2.862
 5100SOL    HW116199   4.167   5.250   2.860
 5100SOL    HW216200   4.181   5.395   2.934
 5101SOL     OW16201   4.039   0.503   4.642
 5101SOL    HW116202   4.053   0.537   4.549
 5101SOL    HW216203   3.972   0.560   4.689
 5102SOL     OW16204   5.243   5.590   4.289
 5102SOL    HW116205   5.304   5.511   4.300
 5102SOL    HW216206   5.168   5.583   4.355
 5103SOL     OW16207   0.568   0.973   4.294
 5103SOL    HW116208   0.495   0.912   4.324
 5103SOL    HW216209   0.652   0.921   4.283
 5104SOL     OW16210   3.130   6.061   2.033
 5104SOL    HW116211   3.064   5.987   2.043
 5104SOL    HW216212   3.083   6.143   1.999
 5105SOL     OW16213   3.330   3.223   6.961
 5105SOL    HW116214   3.375   3.254   6.877
 5105SOL    HW216215   3.276   3.141   6.941
 5106SOL     OW16216   3.668   1.446   1.046
 5106SOL    HW116217   3.734   1.474   0.976
 5106SOL    HW216218   3.581   1.493   1.030
 5107SOL     OW16219   5.533   2.640   1.326
 5107SOL    HW116220   5.436   2.661   1.336
 5107SOL    HW216221   5.562   2.577   1.398
 5108SOL     OW16222   4.214   3.899   5.674
 5108SOL    HW116223   4.290   3.922   5.734
 5108SOL    HW216224   4.239   3.819   5.618
 5109SOL     OW16225   1.154   2.502   0.708
 5109SOL    HW116226   1.234   2.559   0.726
 5109SOL    HW216227   1.110   2.478   0.794
 5110SOL     OW16228   0.146   0.327   6.455
 5110SOL    HW116229   0.141   0.233   6.421
 5110SOL    HW216230   0.081   0.384   6.403
 5111SOL     OW16231   1.193   6.685   4.536
 5111SOL    HW116232   1.181   6.593   4.499
 5111SOL    HW216233   1.189   6.682   4.636
 5112SOL     OW16234   0.283   0.698   2.699
 5112SOL    HW116235   0.227   0.616   2.690
 5112SOL    HW216236   0.276   0.734   2.792
 5113SOL     OW16237   1.525   5.613   1.298
 5113SOL    HW116238   1.594   5.543   1.315
 5113SOL    HW216239   1.569   5.696   1.263
 5114SOL     OW16240   3.899   6.657   0.406
 5114SOL    HW116241   3.898   6.756   0.421
 5114SOL    HW216242   3.908   6.638   0.309
 5115SOL     OW16243   1.933   3.750   1.795
 5115SOL    HW116244   1.960   3.659   1.764
 5115SOL    HW216245   1.868   3.742   1.871
 5116SOL     OW16246   2.247   6.231   6.928
 5116SOL    HW116247   2.297   6.300   6.980
 5116SOL    HW216248   2.264   6.245   6.830
 5117SOL     OW16249   1.001   3.422   4.038
 5117SOL    HW116250   1.075   3.457   3.981
 5117SOL    HW216251   1.025   3.433   4.135
 5118SOL     OW16252   6.096   6.789   0.356
 5118SOL    HW116253   6.164   6.745   0.414
 5118SOL    HW216254   6.087   6.738   0.270
 5119SOL     OW16255   4.623   1.358   1.033
 5119SOL    HW116256   4.700   1.400   1.081
 5119SOL    HW216257   4.540   1.369   1.087
 5120SOL     OW16258   4.788   6.903   5.161
 5120SOL    HW116259   4.868   6.881   5.217
 5120SOL    HW216260   4.728   6.966   5.211
 5121SOL     OW16261   3.321   3.701   0.066
 5121SOL    HW116262   3.329   3.800   0.055
 5121SOL    HW216263   3.412   3.659   0.058
 5122SOL     OW16264   3.779   5.987   3.277
 5122SOL    HW116265   3.864   5.979   3.224
 5122SOL    HW216266   3.763   6.083   3.300
 5123SOL     OW16267   5.672   2.508   3.254
 5123SOL    HW116268   5.698   2.596   3.293
 5123SOL    HW216269   5.629   2.521   3.165
 5124SOL     OW16270   1.966   6.519   3.159
 5124SOL    HW116271   2.006   6.611   3.164
 5124SOL    HW216272   2.039   6.451   3.160
 5125SOL     OW16273   0.169   2.194   2.770
 5125SOL    HW116274   0.139   2.258   2.840
 5125SOL    HW216275   0.232   2.240   2.708
 5126SOL     OW16276   1.205   6.206   6.991
 5126SOL    HW116277   1.139   6.280   6.980
 5126SOL    HW216278   1.260   6.223   0.051
 5127SOL     OW16279   1.124   5.603   6.969
 5127SOL    HW116280   1.147   5.626   6.875
 5127SOL    HW216281   1.209   5.594   0.001
 5128SOL     OW16282   6.767   6.185   0.943
 5128SOL    HW116283   6.688   6.185   1.005
 5128SOL    HW216284   6.735   6.198   0.849
 5129SOL     OW16285   5.263   6.534   2.171
 5129SOL    HW116286   5.272   6.633   2.167
 5129SOL    HW216287   5.180   6.510   2.221
 5130SOL     OW16288   6.995   4.744   3.183
 5130SOL    HW116289   0.038   4.714   3.253
 5130SOL    HW216290   6.993   4.843   3.179
 5131SOL     OW16291   1.504   3.294   4.346
 5131SOL    HW116292   1.574   3.357   4.380
 5131SOL    HW216293   1.541   3.239   4.272
 5132SOL     OW16294   4.188   3.023   6.309
 5132SOL    HW116295   4.250   2.965   6.362
 5132SOL    HW216296   4.226   3.038   6.218
 5133SOL     OW16297   3.621   4.660   0.506
 5133SOL    HW116298   3.628   4.564   0.535
 5133SOL    HW216299   3.635   4.720   0.584
 5134SOL     OW16300   0.467   2.871   1.418
 5134SOL    HW116301   0.562   2.890   1.396
 5134SOL    HW216302   0.418   2.844   1.334
 5135SOL     OW16303   6.506   2.471   5.287
 5135SOL    HW116304   6.487   2.467   5.385
 5135SOL    HW216305   6.467   2.391   5.242
 5136SOL     OW16306   5.568   0.196   5.640
 5136SOL    HW116307   5.526   0.141   5.568
 5136SOL    HW216308   5.583   0.289   5.606
 5137SOL     OW16309   5.758   3.187   6.661
 5137SOL    HW116310   5.759   3.274   6.612
 5137SOL    HW216311   5.754   3.112   6.596
 5138SOL     OW16312   3.440   3.003   5.715
 5138SOL    HW116313   3.372   3.026   5.645
 5138SOL    HW216314   3.532   3.015   5.677
 5139SOL     OW16315   0.795   6.662   3.589
 5139SOL    HW116316   0.850   6.612   3.656
 5139SOL    HW216317   0.816   6.760   3.595
 5140SOL     OW16318   3.079   1.512   0.131
 5140SOL    HW116319   3.132   1.596   0.142
 5140SOL    HW216320   3.067   1.493   0.034
 5141SOL     OW16321   6.396   3.522   0.610
 5141SOL    HW116322   6.401   3.610   0.657
 5141SOL    HW216323   6.308   3.479   0.629
 5142SOL     OW16324   6.120   1.666   4.048
 5142SOL    HW116325   6.118   1.745   3.987
 5142SOL    HW216326   6.041   1.608   4.030
 5143SOL     OW16327   0.640   4.125   3.870
 5143SOL    HW116328   0.550   4.089   3.847
 5143SOL    HW216329   0.662   4.104   3.965
 5144SOL     OW16330   1.244   6.763   6.578
 5144SOL    HW116331   1.303   6.686   6.551
 5144SOL    HW216332   1.301   6.839   6.610
 5145SOL     OW16333   2.795   5.502   6.291
 5145SOL    HW116334   2.775   5.572   6.223
 5145SOL    HW216335   2.771   5.536   6.382
 5146SOL     OW16336   4.421   3.557   6.603
 5146SOL    HW116337   4.401   3.501   6.522
 5146SOL    HW216338   4.520   3.562   6.616
 5147SOL     OW16339   0.101   3.977   1.761
 5147SOL    HW116340   0.118   3.879   1.749
 5147SOL    HW216341   0.097   4.021   1.672
 5148SOL     OW16342   0.323   6.212   1.261
 5148SOL    HW116343   0.311   6.239   1.166
 5148SOL    HW216344   0.277   6.278   1.321
 5149SOL     OW16345   5.919   6.565   4.164
 5149SOL    HW116346   5.928   6.532   4.070
 5149SOL    HW216347   5.840   6.626   4.170
 5150SOL     OW16348   2.315   5.157   3.455
 5150SOL    HW116349   2.398   5.188   3.503
 5150SOL    HW216350   2.324   5.176   3.358
 5151SOL     OW16351   5.090   0.956   0.514
 5151SOL    HW116352   5.187   0.968   0.492
 5151SOL    HW216353   5.057   0.869   0.477
 5152SOL     OW16354   2.065   4.747   6.371
 5152SOL    HW116355   1.967   4.733   6.358
 5152SOL    HW216356   2.090   4.839   6.339
 5153SOL     OW16357   2.473   1.092   6.550
 5153SOL    HW116358   2.491   1.190   6.536
 5153SOL    HW216359   2.398   1.064   6.491
 5154SOL     OW16360   1.738   3.069   6.199
 5154SOL    HW116361   1.666   3.131   6.168
 5154SOL    HW216362   1.783   3.027   6.120
 5155SOL     OW16363   4.324   6.489   2.121
 5155SOL    HW116364   4.230   6.468   2.095
 5155SOL    HW216365   4.331   6.586   2.146
 5156SOL     OW16366   0.045   2.716   6.080
 5156SOL    HW116367   6.967   2.711   6.077
 5156SOL    HW216368   0.076   2.806   6.048
 5157SOL     OW16369   4.847   2.449   3.732
 5157SOL    HW116370   4.821   2.382   3.662
 5157SOL    HW216371   4.943   2.474   3.720
 5158SOL     OW16372   3.510   1.780   1.341
 5158SOL    HW116373   3.469   1.867   1.371
 5158SOL    HW216374   3.546   1.790   1.248
 5159SOL     OW16375   0.655   3.393   4.930
 5159SOL    HW116376   0.605   3.375   4.845
 5159SOL    HW216377   0.592   3.431   4.998
 5160SOL     OW16378   0.874   3.759   4.224
 5160SOL    HW116379   0.836   3.718   4.141
 5160SOL    HW216380   0.974   3.764   4.216
 5161SOL     OW16381   1.022   4.081   5.024
 5161SOL    HW116382   1.113   4.078   4.983
 5161SOL    HW216383   0.985   4.174   5.018
 5162SOL     OW16384   0.570   5.219   4.220
 5162SOL    HW116385   0.472   5.233   4.206
 5162SOL    HW216386   0.597   5.128   4.188
 5163SOL     OW16387   3.963   4.968   1.469
 5163SOL    HW116388   3.981   4.906   1.546
 5163SOL    HW216389   4.050   5.001   1.433
 5164SOL     OW16390   5.991   2.440   5.828
 5164SOL    HW116391   6.064   2.407   5.769
 5164SOL    HW216392   5.968   2.369   5.895
 5165SOL     OW16393   5.783   4.395   4.909
 5165SOL    HW116394   5.699   4.344   4.927
 5165SOL    HW216395   5.785   4.423   4.813
 5166SOL     OW16396   1.504   5.239   1.642
 5166SOL    HW116397   1.415   5.196   1.630
 5166SOL    HW216398   1.524   5.249   1.739
 5167SOL     OW16399   6.209   0.325   5.748
 5167SOL    HW116400   6.164   0.328   5.658
 5167SOL    HW216401   6.145   0.358   5.817
 5168SOL     OW16402   4.943   2.421   3.386
 5168SOL    HW116403   5.023   2.406   3.444
 5168SOL    HW216404   4.964   2.392   3.293
 5169SOL     OW16405   3.195   2.926   5.934
 5169SOL    HW116406   3.179   2.976   5.849
 5169SOL    HW216407   3.238   2.838   5.914
 5170SOL     OW16408   6.834   4.122   6.025
 5170SOL    HW116409   6.806   4.027   6.010
 5170SOL    HW216410   6.905   4.126   6.095
 5171SOL     OW16411   2.214   5.033   4.656
 5171SOL    HW116412   2.270   4.951   4.674
 5171SOL    HW216413   2.172   5.064   4.741
 5172SOL     OW16414   0.998   2.957   1.630
 5172SOL    HW116415   0.899   2.967   1.637
 5172SOL    HW216416   1.037   3.039   1.589
 5173SOL     OW16417   5.875   4.437   6.362
 5173SOL    HW116418   5.889   4.387   6.447
 5173SOL    HW216419   5.784   4.417   6.326
 5174SOL     OW16420   1.777   4.915   4.392
 5174SOL    HW116421   1.806   4.824   4.364
 5174SOL    HW216422   1.712   4.909   4.467
 5175SOL     OW16423   2.254   4.319   6.235
 5175SOL    HW116424   2.209   4.346   6.320
 5175SOL    HW216425   2.345   4.282   6.255
 5176SOL     OW16426   3.937   2.817   0.707
 5176SOL    HW116427   3.862   2.761   0.742
 5176SOL    HW216428   3.937   2.813   0.607
 5177SOL     OW16429   5.293   0.418   5.926
 5177SOL    HW116430   5.278   0.325   5.960
 5177SOL    HW216431   5.382   0.451   5.958
 5178SOL     OW16432   2.661   2.415   0.656
 5178SOL    HW116433   2.689   2.418   0.752
 5178SOL    HW216434   2.589   2.481   0.640
 5179SOL     OW16435   4.858   5.625   5.203
 5179SOL    HW116436   4.933   5.661   5.148
 5179SOL    HW216437   4.814   5.700   5.253
 5180SOL     OW16438   3.063   2.467   6.383
 5180SOL    HW116439   3.095   2.555   6.349
 5180SOL    HW216440   2.971   2.477   6.419
 5181SOL     OW16441   4.099   1.124   3.134
 5181SOL    HW116442   4.198   1.134   3.134
 5181SOL    HW216443   4.059   1.189   3.070
 5182SOL     OW16444   5.415   4.942   1.389
 5182SOL    HW116445   5.318   4.957   1.375
 5182SOL    HW216446   5.441   4.973   1.480
 5183SOL     OW16447   4.531   6.620   1.977
 5183SOL    HW116448   4.505   6.716   1.992
 5183SOL    HW216449   4.471   6.561   2.031
 5184SOL     OW16450   0.730   1.601   3.911
 5184SOL    HW116451   0.708   1.659   3.990
 5184SOL    HW216452   0.829   1.606   3.893
 5185SOL     OW16453   4.498   0.263   3.211
 5185SOL    HW116454   4.498   0.251   3.112
 5185SOL    HW216455   4.518   0.359   3.233
 5186SOL     OW16456   6.226   3.882   0.877
 5186SOL    HW116457   6.265   3.877   0.786
 5186SOL    HW216458   6.299   3.880   0.945
 5187SOL     OW16459   6.472   0.965   3.876
 5187SOL    HW116460   6.549   1.006   3.925
 5187SOL    HW216461   6.503   0.881   3.830
 5188SOL     OW16462   0.333   5.366   0.837
 5188SOL    HW116463   0.343   5.268   0.851
 5188SOL    HW216464   0.422   5.407   0.817
 5189SOL     OW16465   4.536   5.116   0.339
 5189SOL    HW116466   4.608   5.173   0.380
 5189SOL    HW216467   4.450   5.132   0.386
 5190SOL     OW16468   1.298   2.118   4.456
 5190SOL    HW116469   1.248   2.031   4.452
 5190SOL    HW216470   1.236   2.193   4.433
 5191SOL     OW16471   3.602   0.903   1.645
 5191SOL    HW116472   3.582   0.815   1.601
 5191SOL    HW216473   3.568   0.902   1.739
 5192SOL     OW16474   4.829   5.790   2.505
 5192SOL    HW116475   4.795   5.716   2.562
 5192SOL    HW216476   4.923   5.813   2.531
 5193SOL     OW16477   4.714   4.220   3.565
 5193SOL    HW116478   4.722   4.251   3.659
 5193SOL    HW216479   4.804   4.225   3.521
 5194SOL     OW16480   5.035   0.365   6.212
 5194SOL    HW116481   5.112   0.348   6.273
 5194SOL    HW216482   5.012   0.281   6.163
 5195SOL     OW16483   6.337   6.406   4.662
 5195SOL    HW116484   6.300   6.400   4.570
 5195SOL    HW216485   6.402   6.331   4.677
 5196SOL     OW16486   0.814   3.792   1.195
 5196SOL    HW116487   0.884   3.849   1.152
 5196SOL    HW216488   0.847   3.759   1.283
 5197SOL     OW16489   1.874   6.343   4.074
 5197SOL    HW116490   1.849   6.320   4.168
 5197SOL    HW216491   1.972   6.330   4.061
 5198SOL     OW16492   2.868   0.164   4.477
 5198SOL    HW116493   2.908   0.095   4.537
 5198SOL    HW216494   2.796   0.121   4.421
 5199SOL     OW16495   2.538   5.513   1.197
 5199SOL    HW116496   2.526   5.512   1.296
 5199SOL    HW216497   2.462   5.562   1.154
 5200SOL     OW16498   1.136   2.345   4.855
 5200SOL    HW116499   1.215   2.284   4.865
 5200SOL    HW216500   1.096   2.365   4.944
 5201SOL     OW16501   5.429   5.667   4.672
 5201SOL    HW116502   5.421   5.738   4.602
 5201SOL    HW216503   5.412   5.578   4.631
 5202SOL     OW16504   5.344   3.315   6.798
 5202SOL    HW116505   5.338   3.392   6.734
 5202SOL    HW216506   5.405   3.339   6.873
 5203SOL     OW16507   1.644   0.377   5.952
 5203SOL    HW116508   1.687   0.306   6.008
 5203SOL    HW216509   1.593   0.334   5.878
 5204SOL     OW16510   2.904   6.680   0.003
 5204SOL    HW116511   2.959   6.754   0.043
 5204SOL    HW216512   2.954   6.639   6.948
 5205SOL     OW16513   6.947   5.578   0.061
 5205SOL    HW116514   6.959   5.600   6.986
 5205SOL    HW216515   6.876   5.636   0.100
 5206SOL     OW16516   0.766   4.783   5.586
 5206SOL    HW116517   0.702   4.832   5.645
 5206SOL    HW216518   0.821   4.849   5.535
 5207SOL     OW16519   0.006   0.069   4.201
 5207SOL    HW116520   0.041   0.011   4.127
 5207SOL    HW216521   6.937   0.037   4.229
 5208SOL     OW16522   4.556   2.651   6.964
 5208SOL    HW116523   4.617   2.572   6.962
 5208SOL    HW216524   4.602   2.726   7.011
 5209SOL     OW16525   5.120   0.081   2.887
 5209SOL    HW116526   5.055   0.150   2.920
 5209SOL    HW216527   5.156   0.109   2.798
 5210SOL     OW16528   5.405   4.064   1.188
 5210SOL    HW116529   5.387   4.114   1.103
 5210SOL    HW216530   5.346   3.983   1.191
 5211SOL     OW16531   5.120   2.225   4.602
 5211SOL    HW116532   5.163   2.140   4.630
 5211SOL    HW216533   5.108   2.284   4.682
 5212SOL     OW16534   1.103   2.135   0.764
 5212SOL    HW116535   1.090   2.057   0.826
 5212SOL    HW216536   1.020   2.148   0.710
 5213SOL     OW16537   3.979   3.435   1.907
 5213SOL    HW116538   4.058   3.379   1.884
 5213SOL    HW216539   3.999   3.531   1.886
 5214SOL     OW16540   5.033   4.553   6.295
 5214SOL    HW116541   5.053   4.567   6.198
 5214SOL    HW216542   5.074   4.628   6.348
 5215SOL     OW16543   6.807   3.109   4.079
 5215SOL    HW116544   6.904   3.127   4.065
 5215SOL    HW216545   6.753   3.175   4.028
 5216SOL     OW16546   5.161   5.390   1.173
 5216SOL    HW116547   5.115   5.464   1.124
 5216SOL    HW216548   5.094   5.338   1.226
 5217SOL     OW16549   3.800   5.549   3.760
 5217SOL    HW116550   3.820   5.451   3.751
 5217SOL    HW216551   3.712   5.569   3.716
 5218SOL     OW16552   0.508   1.543   0.985
 5218SOL    HW116553   0.486   1.455   1.028
 5218SOL    HW216554   0.469   1.547   0.893
 5219SOL     OW16555   3.583   1.627   4.773
 5219SOL    HW116556   3.503   1.571   4.794
 5219SOL    HW216557   3.564   1.685   4.694
 5220SOL     OW16558   1.457   5.016   2.945
 5220SOL    HW116559   1.550   5.024   2.910
 5220SOL    HW216560   1.399   4.971   2.878
 5221SOL     OW16561   0.125   0.307   1.506
 5221SOL    HW116562   0.030   0.278   1.522
 5221SOL    HW216563   0.163   0.344   1.591
 5222SOL     OW16564   3.782   5.468   1.862
 5222SOL    HW116565   3.762   5.440   1.769
 5222SOL    HW216566   3.764   5.392   1.925
 5223SOL     OW16567   0.125   2.265   1.081
 5223SOL    HW116568   0.111   2.204   1.003
 5223SOL    HW216569   0.044   2.261   1.140
 5224SOL     OW16570   1.095   1.947   4.434
 5224SOL    HW116571   1.103   1.849   4.451
 5224SOL    HW216572   1.014   1.965   4.379
 5225SOL     OW16573   6.601   1.640   4.394
 5225SOL    HW116574   6.581   1.677   4.304
 5225SOL    HW216575   6.516   1.620   4.442
 5226SOL     OW16576   0.207   5.437   3.471
 5226SOL    HW116577   0.125   5.476   3.514
 5226SOL    HW216578   0.191   5.426   3.373
 5227SOL     OW16579   0.526   3.863   5.971
 5227SOL    HW116580   0.509   3.926   5.895
 5227SOL    HW216581   0.623   3.864   5.993
 5228SOL     OW16582   0.928   2.588   6.966
 5228SOL    HW116583   0.991   2.602   6.890
 5228SOL    HW216584   0.869   2.510   6.947
 5229SOL     OW16585   3.704   5.934   6.296
 5229SOL    HW116586   3.646   6.015   6.304
 5229SOL    HW216587   3.654   5.853   6.326
 5230SOL     OW16588   6.988   0.592   2.497
 5230SOL    HW116589   0.022   0.533   2.556
 5230SOL    HW216590   6.901   0.547   2.478
 5231SOL     OW16591   5.305   1.574   3.587
 5231SOL    HW116592   5.383   1.566   3.524
 5231SOL    HW216593   5.221   1.590   3.534
 5232SOL     OW16594   1.706   3.856   5.923
 5232SOL    HW116595   1.751   3.868   6.011
 5232SOL    HW216596   1.729   3.933   5.863
 5233SOL     OW16597   3.255   0.751   2.333
 5233SOL    HW116598   3.159   0.768   2.352
 5233SOL    HW216599   3.311   0.808   2.394
 5234SOL     OW16600   2.812   3.568   7.018
 5234SOL    HW116601   2.809   3.469   0.011
 5234SOL    HW216602   2.902   3.603   0.022
 5235SOL     OW16603   2.201   2.394   0.625
 5235SOL    HW116604   2.102   2.392   0.642
 5235SOL    HW216605   2.217   2.414   0.528
 5236SOL     OW16606   2.800   5.020   2.118
 5236SOL    HW116607   2.832   5.100   2.170
 5236SOL    HW216608   2.711   5.041   2.077
 5237SOL     OW16609   2.321   1.751   4.426
 5237SOL    HW116610   2.233   1.703   4.422
 5237SOL    HW216611   2.390   1.699   4.376
 5238SOL     OW16612   1.030   4.547   2.051
 5238SOL    HW116613   1.067   4.527   1.960
 5238SOL    HW216614   1.055   4.640   2.078
 5239SOL     OW16615   3.612   3.896   1.068
 5239SOL    HW116616   3.597   3.800   1.046
 5239SOL    HW216617   3.703   3.908   1.108
 5240SOL     OW16618   2.773   2.398   5.354
 5240SOL    HW116619   2.803   2.305   5.377
 5240SOL    HW216620   2.849   2.461   5.368
 5241SOL     OW16621   1.235   6.216   2.209
 5241SOL    HW116622   1.214   6.177   2.119
 5241SOL    HW216623   1.237   6.316   2.201
 5242SOL     OW16624   5.068   0.377   1.551
 5242SOL    HW116625   5.054   0.414   1.459
 5242SOL    HW216626   5.153   0.325   1.554
 5243SOL     OW16627   2.067   6.154   1.646
 5243SOL    HW116628   2.080   6.246   1.607
 5243SOL    HW216629   1.992   6.156   1.712
 5244SOL     OW16630   4.685   3.298   0.370
 5244SOL    HW116631   4.745   3.353   0.312
 5244SOL    HW216632   4.740   3.231   0.421
 5245SOL     OW16633   3.967   4.017   0.285
 5245SOL    HW116634   3.916   4.024   0.370
 5245SOL    HW216635   3.957   3.925   0.247
 5246SOL     OW16636   6.191   2.452   2.480
 5246SOL    HW116637   6.185   2.413   2.388
 5246SOL    HW216638   6.162   2.548   2.477
 5247SOL     OW16639   3.932   1.016   5.544
 5247SOL    HW116640   3.918   0.917   5.543
 5247SOL    HW216641   3.846   1.062   5.565
 5248SOL     OW16642   0.041   1.985   2.884
 5248SOL    HW116643   0.102   2.058   2.853
 5248SOL    HW216644   0.049   1.975   2.983
 5249SOL     OW16645   1.378   5.199   6.448
 5249SOL    HW116646   1.293   5.154   6.474
 5249SOL    HW216647   1.435   5.212   6.530
 5250SOL     OW16648   1.795   5.727   0.366
 5250SOL    HW116649   1.854   5.800   0.400
 5250SOL    HW216650   1.731   5.699   0.437
 5251SOL     OW16651   0.872   4.629   1.054
 5251SOL    HW116652   0.773   4.645   1.045
 5251SOL    HW216653   0.914   4.631   0.964
 5252SOL     OW16654   2.667   0.035   2.258
 5252SOL    HW116655   2.632   0.129   2.265
 5252SOL    HW216656   2.597   6.993   2.290
 5253SOL     OW16657   5.695   4.634   5.058
 5253SOL    HW116658   5.742   4.558   5.013
 5253SOL    HW216659   5.714   4.632   5.156
 5254SOL     OW16660   5.624   0.680   3.480
 5254SOL    HW116661   5.647   0.609   3.547
 5254SOL    HW216662   5.558   0.644   3.415
 5255SOL     OW16663   5.490   2.220   4.410
 5255SOL    HW116664   5.437   2.175   4.482
 5255SOL    HW216665   5.429   2.277   4.355
 5256SOL     OW16666   5.055   1.588   3.471
 5256SOL    HW116667   5.004   1.674   3.462
 5256SOL    HW216668   5.030   1.544   3.557
 5257SOL     OW16669   4.633   0.023   0.537
 5257SOL    HW116670   4.599   0.107   0.494
 5257SOL    HW216671   4.572   7.017   0.610
 5258SOL     OW16672   5.565   1.969   2.933
 5258SOL    HW116673   5.631   2.043   2.933
 5258SOL    HW216674   5.508   1.974   2.851
 5259SOL     OW16675   4.861   5.338   2.452
 5259SOL    HW116676   4.862   5.402   2.375
 5259SOL    HW216677   4.807   5.376   2.527
 5260SOL     OW16678   3.483   5.322   0.069
 5260SOL    HW116679   3.532   5.336   7.005
 5260SOL    HW216680   3.501   5.398   0.131
 5261SOL     OW16681   0.324   4.537   0.422
 5261SOL    HW116682   0.306   4.460   0.484
 5261SOL    HW216683   0.308   4.507   0.327
 5262SOL     OW16684   2.688   1.036   3.330
 5262SOL    HW116685   2.717   1.016   3.424
 5262SOL    HW216686   2.643   0.955   3.292
 5263SOL     OW16687   2.122   1.390   2.905
 5263SOL    HW116688   2.112   1.474   2.852
 5263SOL    HW216689   2.087   1.312   2.852
 5264SOL     OW16690   6.738   2.123   2.188
 5264SOL    HW116691   6.773   2.109   2.096
 5264SOL    HW216692   6.748   2.039   2.241
 5265SOL     OW16693   6.166   3.212   4.522
 5265SOL    HW116694   6.151   3.233   4.619
 5265SOL    HW216695   6.121   3.281   4.466
 5266SOL     OW16696   2.179   6.839   1.429
 5266SOL    HW116697   2.207   6.779   1.353
 5266SOL    HW216698   2.147   6.926   1.392
 5267SOL     OW16699   4.815   2.436   4.707
 5267SOL    HW116700   4.776   2.344   4.712
 5267SOL    HW216701   4.912   2.433   4.731
 5268SOL     OW16702   5.007   0.551   6.825
 5268SOL    HW116703   4.935   0.588   6.767
 5268SOL    HW216704   5.080   0.619   6.834
 5269SOL     OW16705   0.658   6.412   2.389
 5269SOL    HW116706   0.581   6.376   2.443
 5269SOL    HW216707   0.700   6.337   2.337
 5270SOL     OW16708   5.190   1.677   1.388
 5270SOL    HW116709   5.141   1.762   1.372
 5270SOL    HW216710   5.286   1.697   1.407
 5271SOL     OW16711   6.393   4.654   5.473
 5271SOL    HW116712   6.453   4.663   5.393
 5271SOL    HW216713   6.359   4.560   5.479
 5272SOL     OW16714   3.508   5.953   0.957
 5272SOL    HW116715   3.499   5.911   0.867
 5272SOL    HW216716   3.548   5.886   1.021
 5273SOL     OW16717   0.904   3.609   2.502
 5273SOL    HW116718   0.981   3.619   2.566
 5273SOL    HW216719   0.842   3.538   2.535
 5274SOL     OW16720   5.245   6.577   2.737
 5274SOL    HW116721   5.221   6.674   2.742
 5274SOL    HW216722   5.345   6.568   2.732
 5275SOL     OW16723   3.049   1.240   1.067
 5275SOL    HW116724   3.005   1.152   1.046
 5275SOL    HW216725   3.146   1.225   1.087
 5276SOL     OW16726   2.346   0.641   1.929
 5276SOL    HW116727   2.271   0.691   1.887
 5276SOL    HW216728   2.326   0.543   1.926
 5277SOL     OW16729   2.876   1.097   2.396
 5277SOL    HW116730   2.874   1.068   2.491
 5277SOL    HW216731   2.795   1.152   2.376
 5278SOL     OW16732   4.992   4.694   3.467
 5278SOL    HW116733   4.949   4.628   3.406
 5278SOL    HW216734   4.939   4.779   3.467
 5279SOL     OW16735   2.365   5.513   0.984
 5279SOL    HW116736   2.304   5.434   0.998
 5279SOL    HW216737   2.411   5.504   0.895
 5280SOL     OW16738   2.884   5.924   4.750
 5280SOL    HW116739   2.849   5.835   4.779
 5280SOL    HW216740   2.809   5.981   4.717
 5281SOL     OW16741   6.709   1.924   2.394
 5281SOL    HW116742   6.681   1.851   2.458
 5281SOL    HW216743   6.777   1.982   2.438
 5282SOL     OW16744   2.463   1.330   3.358
 5282SOL    HW116745   2.560   1.346   3.372
 5282SOL    HW216746   2.422   1.408   3.311
 5283SOL     OW16747   5.161   6.416   1.458
 5283SOL    HW116748   5.065   6.420   1.486
 5283SOL    HW216749   5.175   6.474   1.377
 5284SOL     OW16750   5.485   4.507   2.545
 5284SOL    HW116751   5.403   4.501   2.603
 5284SOL    HW216752   5.457   4.506   2.449
 5285SOL     OW16753   3.220   5.013   3.958
 5285SOL    HW116754   3.267   5.032   4.044
 5285SOL    HW216755   3.189   5.099   3.916
 5286SOL     OW16756   2.461   4.052   1.083
 5286SOL    HW116757   2.373   4.088   1.113
 5286SOL    HW216758   2.529   4.068   1.154
 5287SOL     OW16759   2.630   1.731   0.752
 5287SOL    HW116760   2.709   1.670   0.753
 5287SOL    HW216761   2.558   1.692   0.695
 5288SOL     OW16762   4.105   0.373   1.298
 5288SOL    HW116763   4.131   0.465   1.327
 5288SOL    HW216764   4.064   0.324   1.374
 5289SOL     OW16765   0.967   5.173   0.254
 5289SOL    HW116766   1.024   5.172   0.172
 5289SOL    HW216767   1.024   5.153   0.334
 5290SOL     OW16768   3.093   6.002   6.804
 5290SOL    HW116769   3.049   5.934   6.745
 5290SOL    HW216770   3.188   5.975   6.820
 5291SOL     OW16771   2.428   5.444   6.047
 5291SOL    HW116772   2.460   5.393   6.127
 5291SOL    HW216773   2.467   5.536   6.049
 5292SOL     OW16774   5.724   3.576   6.844
 5292SOL    HW116775   5.656   3.645   6.868
 5292SOL    HW216776   5.689   3.485   6.868
 5293SOL     OW16777   1.005   0.758   4.776
 5293SOL    HW116778   1.002   0.779   4.679
 5293SOL    HW216779   0.926   0.799   4.822
 5294SOL     OW16780   5.509   3.072   6.793
 5294SOL    HW116781   5.440   3.135   6.829
 5294SOL    HW216782   5.588   3.125   6.762
 5295SOL     OW16783   5.162   1.171   3.102
 5295SOL    HW116784   5.219   1.247   3.133
 5295SOL    HW216785   5.082   1.206   3.053
 5296SOL     OW16786   1.767   4.645   0.144
 5296SOL    HW116787   1.839   4.644   0.214
 5296SOL    HW216788   1.678   4.641   0.189
 5297SOL     OW16789   2.349   1.945   0.731
 5297SOL    HW116790   2.429   2.003   0.739
 5297SOL    HW216791   2.367   1.857   0.776
 5298SOL     OW16792   6.582   4.980   1.890
 5298SOL    HW116793   6.525   4.908   1.850
 5298SOL    HW216794   6.573   5.063   1.836
 5299SOL     OW16795   3.028   0.836   1.503
 5299SOL    HW116796   2.959   0.768   1.525
 5299SOL    HW216797   3.051   0.831   1.406
 5300SOL     OW16798   0.110   5.582   3.029
 5300SOL    HW116799   0.158   5.563   2.943
 5300SOL    HW216800   0.012   5.589   3.011
 5301SOL     OW16801   4.308   1.775   6.978
 5301SOL    HW116802   4.279   1.834   0.032
 5301SOL    HW216803   4.369   1.703   7.012
 5302SOL     OW16804   6.705   4.313   2.671
 5302SOL    HW116805   6.683   4.362   2.756
 5302SOL    HW216806   6.735   4.379   2.602
 5303SOL     OW16807   6.336   4.693   3.976
 5303SOL    HW116808   6.342   4.616   3.913
 5303SOL    HW216809   6.423   4.702   4.025
 5304SOL     OW16810   5.060   2.093   6.213
 5304SOL    HW116811   5.120   2.168   6.187
 5304SOL    HW216812   5.114   2.009   6.222
 5305SOL     OW16813   2.118   0.621   4.026
 5305SOL    HW116814   2.154   0.635   3.933
 5305SOL    HW216815   2.095   0.525   4.039
 5306SOL     OW16816   2.360   6.462   5.694
 5306SOL    HW116817   2.416   6.523   5.750
 5306SOL    HW216818   2.285   6.425   5.749
 5307SOL     OW16819   4.466   6.824   6.315
 5307SOL    HW116820   4.445   6.781   6.402
 5307SOL    HW216821   4.514   6.910   6.330
 5308SOL     OW16822   6.979   0.259   3.984
 5308SOL    HW116823   6.967   0.355   4.010
 5308SOL    HW216824   7.002   0.206   4.065
 5309SOL     OW16825   3.637   3.542   3.575
 5309SOL    HW116826   3.634   3.456   3.523
 5309SOL    HW216827   3.710   3.599   3.538
 5310SOL     OW16828   5.091   2.436   1.530
 5310SOL    HW116829   5.060   2.372   1.460
 5310SOL    HW216830   5.077   2.395   1.620
 5311SOL     OW16831   2.387   5.566   0.156
 5311SOL    HW116832   2.339   5.638   0.207
 5311SOL    HW216833   2.393   5.592   0.059
 5312SOL     OW16834   1.291   4.639   2.466
 5312SOL    HW116835   1.348   4.647   2.384
 5312SOL    HW216836   1.210   4.696   2.457
 5313SOL     OW16837   1.034   6.048   6.642
 5313SOL    HW116838   0.987   6.035   6.730
 5313SOL    HW216839   1.029   5.964   6.588
 5314SOL     OW16840   4.695   5.456   0.045
 5314SOL    HW116841   4.730   5.517   0.117
 5314SOL    HW216842   4.708   5.361   0.072
 5315SOL     OW16843   5.265   4.058   1.938
 5315SOL    HW116844   5.291   4.123   1.866
 5315SOL    HW216845   5.264   3.965   1.901
 5316SOL     OW16846   6.966   5.102   4.622
 5316SOL    HW116847   7.010   5.025   4.577
 5316SOL    HW216848   0.013   5.170   4.648
 5317SOL     OW16849   5.761   0.661   2.866
 5317SOL    HW116850   5.766   0.739   2.928
 5317SOL    HW216851   5.676   0.667   2.812
 5318SOL     OW16852   6.923   2.847   4.579
 5318SOL    HW116853   6.914   2.770   4.642
 5318SOL    HW216854   6.966   2.815   4.494
 5319SOL     OW16855   5.731   0.149   0.054
 5319SOL    HW116856   5.736   0.117   6.981
 5319SOL    HW216857   5.635   0.161   0.080
 5320SOL     OW16858   5.499   3.753   6.915
 5320SOL    HW116859   5.549   3.824   6.964
 5320SOL    HW216860   5.491   3.779   6.818
 5321SOL     OW16861   1.915   5.530   5.518
 5321SOL    HW116862   1.904   5.431   5.531
 5321SOL    HW216863   1.825   5.571   5.504
 5322SOL     OW16864   4.366   5.952   6.343
 5322SOL    HW116865   4.404   5.978   6.255
 5322SOL    HW216866   4.402   5.862   6.369
 5323SOL     OW16867   4.086   2.150   0.160
 5323SOL    HW116868   4.104   2.246   0.178
 5323SOL    HW216869   3.993   2.127   0.190
 5324SOL     OW16870   3.777   3.193   1.457
 5324SOL    HW116871   3.859   3.245   1.436
 5324SOL    HW216872   3.696   3.242   1.424
 5325SOL     OW16873   4.964   6.205   2.246
 5325SOL    HW116874   4.957   6.237   2.152
 5325SOL    HW216875   4.894   6.136   2.263
 5326SOL     OW16876   6.951   5.642   1.815
 5326SOL    HW116877   6.876   5.616   1.755
 5326SOL    HW216878   6.990   5.560   1.857
 5327SOL     OW16879   6.658   6.723   4.609
 5327SOL    HW116880   6.637   6.821   4.608
 5327SOL    HW216881   6.585   6.674   4.657
 5328SOL     OW16882   4.013   3.857   6.684
 5328SOL    HW116883   3.978   3.931   6.743
 5328SOL    HW216884   4.073   3.896   6.615
 5329SOL     OW16885   0.717   4.717   0.616
 5329SOL    HW116886   0.813   4.735   0.636
 5329SOL    HW216887   0.701   4.618   0.615
 5330SOL     OW16888   3.483   3.716   0.829
 5330SOL    HW116889   3.450   3.775   0.902
 5330SOL    HW216890   3.412   3.651   0.804
 5331SOL     OW16891   4.318   1.833   0.410
 5331SOL    HW116892   4.261   1.772   0.464
 5331SOL    HW216893   4.406   1.790   0.392
 5332SOL     OW16894   6.353   5.271   0.858
 5332SOL    HW116895   6.276   5.307   0.911
 5332SOL    HW216896   6.436   5.321   0.881
 5333SOL     OW16897   1.897   0.993   3.489
 5333SOL    HW116898   1.912   1.091   3.480
 5333SOL    HW216899   1.923   0.948   3.403
 5334SOL     OW16900   4.579   4.487   3.319
 5334SOL    HW116901   4.553   4.420   3.389
 5334SOL    HW216902   4.496   4.519   3.272
 5335SOL     OW16903   0.180   4.880   1.596
 5335SOL    HW116904   0.154   4.793   1.636
 5335SOL    HW216905   0.277   4.877   1.571
 5336SOL     OW16906   1.998   1.982   3.998
 5336SOL    HW116907   2.093   2.011   4.014
 5336SOL    HW216908   1.988   1.955   3.902
 5337SOL     OW16909   6.697   4.391   1.414
 5337SOL    HW116910   6.659   4.403   1.322
 5337SOL    HW216911   6.793   4.418   1.414
 5338SOL     OW16912   6.184   2.859   0.113
 5338SOL    HW116913   6.223   2.803   0.186
 5338SOL    HW216914   6.176   2.953   0.143
 5339SOL     OW16915   6.229   2.283   2.688
 5339SOL    HW116916   6.215   2.341   2.607
 5339SOL    HW216917   6.142   2.245   2.717
 5340SOL     OW16918   5.665   2.882   2.322
 5340SOL    HW116919   5.631   2.796   2.285
 5340SOL    HW216920   5.601   2.918   2.389
 5341SOL     OW16921   4.853   4.540   3.292
 5341SOL    HW116922   4.826   4.548   3.196
 5341SOL    HW216923   4.784   4.487   3.342
 5342SOL     OW16924   6.207   0.007   5.489
 5342SOL    HW116925   6.140   0.080   5.476
 5342SOL    HW216926   6.166   6.940   5.465
 5343SOL     OW16927   3.910   3.595   5.500
 5343SOL    HW116928   3.845   3.662   5.537
 5343SOL    HW216929   3.949   3.631   5.415
 5344SOL     OW16930   0.481   1.562   0.086
 5344SOL    HW116931   0.456   1.512   0.168
 5344SOL    HW216932   0.575   1.539   0.060
 5345SOL     OW16933   5.399   1.264   6.963
 5345SOL    HW116934   5.475   1.309   6.916
 5345SOL    HW216935   5.421   1.254   0.039
 5346SOL     OW16936   2.800   4.922   3.442
 5346SOL    HW116937   2.773   4.931   3.538
 5346SOL    HW216938   2.780   5.007   3.394
 5347SOL     OW16939   6.405   2.462   3.965
 5347SOL    HW116940   6.327   2.400   3.978
 5347SOL    HW216941   6.377   2.538   3.907
 5348SOL     OW16942   5.214   2.016   4.124
 5348SOL    HW116943   5.131   2.067   4.147
 5348SOL    HW216944   5.192   1.944   4.057
 5349SOL     OW16945   1.121   2.757   1.486
 5349SOL    HW116946   1.155   2.684   1.545
 5349SOL    HW216947   1.124   2.844   1.536
 5350SOL     OW16948   1.768   6.640   5.660
 5350SOL    HW116949   1.683   6.690   5.681
 5350SOL    HW216950   1.844   6.705   5.653
 5351SOL     OW16951   0.501   5.412   1.864
 5351SOL    HW116952   0.502   5.478   1.939
 5351SOL    HW216953   0.555   5.332   1.889
 5352SOL     OW16954   1.571   3.729   3.813
 5352SOL    HW116955   1.610   3.793   3.745
 5352SOL    HW216956   1.591   3.635   3.785
 5353SOL     OW16957   4.576   5.269   3.397
 5353SOL    HW116958   4.511   5.231   3.331
 5353SOL    HW216959   4.588   5.367   3.378
 5354SOL     OW16960   3.877   5.537   0.515
 5354SOL    HW116961   3.878   5.539   0.615
 5354SOL    HW216962   3.924   5.618   0.480
 5355SOL     OW16963   5.135   5.177   5.293
 5355SOL    HW116964   5.140   5.227   5.206
 5355SOL    HW216965   5.044   5.187   5.332
 5356SOL     OW16966   0.361   4.388   1.516
 5356SOL    HW116967   0.279   4.404   1.461
 5356SOL    HW216968   0.339   4.328   1.593
 5357SOL     OW16969   4.266   5.104   1.656
 5357SOL    HW116970   4.207   5.085   1.734
 5357SOL    HW216971   4.254   5.200   1.628
 5358SOL     OW16972   4.339   1.210   0.168
 5358SOL    HW116973   4.314   1.185   0.261
 5358SOL    HW216974   4.289   1.152   0.103
 5359SOL     OW16975   1.807   1.862   0.322
 5359SOL    HW116976   1.751   1.902   0.394
 5359SOL    HW216977   1.822   1.765   0.342
 5360SOL     OW16978   5.705   4.736   4.118
 5360SOL    HW116979   5.792   4.687   4.114
 5360SOL    HW216980   5.640   4.695   4.054
 5361SOL     OW16981   3.384   6.465   2.654
 5361SOL    HW116982   3.440   6.423   2.582
 5361SOL    HW216983   3.311   6.518   2.612
 5362SOL     OW16984   4.917   0.119   2.173
 5362SOL    HW116985   4.914   0.024   2.142
 5362SOL    HW216986   4.902   0.122   2.272
 5363SOL     OW16987   6.083   5.736   4.775
 5363SOL    HW116988   6.042   5.822   4.745
 5363SOL    HW216989   6.179   5.733   4.747
 5364SOL     OW16990   4.828   0.689   2.748
 5364SOL    HW116991   4.805   0.761   2.814
 5364SOL    HW216992   4.924   0.665   2.758
 5365SOL     OW16993   3.204   3.394   4.002
 5365SOL    HW116994   3.196   3.302   3.962
 5365SOL    HW216995   3.152   3.459   3.947
 5366SOL     OW16996   6.411   0.164   1.619
 5366SOL    HW116997   6.380   0.198   1.530
 5366SOL    HW216998   6.448   0.072   1.608
 5367SOL     OW16999   6.921   6.499   0.758
 5367SOL    HW117000   6.975   6.422   0.726
 5367SOL    HW217001   6.850   6.521   0.691
 5368SOL     OW17002   6.295   5.522   3.238
 5368SOL    HW117003   6.366   5.462   3.200
 5368SOL    HW217004   6.337   5.590   3.297
 5369SOL     OW17005   2.596   5.369   1.923
 5369SOL    HW117006   2.529   5.416   1.865
 5369SOL    HW217007   2.687   5.374   1.881
 5370SOL     OW17008   3.341   4.114   1.141
 5370SOL    HW117009   3.372   4.205   1.168
 5370SOL    HW217010   3.352   4.051   1.218
 5371SOL     OW17011   6.808   5.513   5.479
 5371SOL    HW117012   6.851   5.424   5.498
 5371SOL    HW217013   6.862   5.585   5.522
 5372SOL     OW17014   1.128   0.461   2.805
 5372SOL    HW117015   1.222   0.427   2.798
 5372SOL    HW217016   1.079   0.409   2.876
 5373SOL     OW17017   4.216   6.861   5.768
 5373SOL    HW117018   4.195   6.928   5.697
 5373SOL    HW217019   4.293   6.805   5.739
 5374SOL     OW17020   2.836   5.232   1.063
 5374SOL    HW117021   2.871   5.211   0.972
 5374SOL    HW217022   2.894   5.301   1.106
 5375SOL     OW17023   1.037   5.600   4.884
 5375SOL    HW117024   1.132   5.625   4.864
 5375SOL    HW217025   1.019   5.508   4.851
 5376SOL     OW17026   1.338   1.525   0.558
 5376SOL    HW117027   1.432   1.546   0.584
 5376SOL    HW217028   1.275   1.562   0.627
 5377SOL     OW17029   2.294   0.715   2.835
 5377SOL    HW117030   2.198   0.736   2.814
 5377SOL    HW217031   2.318   0.754   2.923
 5378SOL     OW17032   5.766   0.793   1.301
 5378SOL    HW117033   5.713   0.766   1.221
 5378SOL    HW217034   5.725   0.874   1.343
 5379SOL     OW17035   0.725   2.985   5.995
 5379SOL    HW117036   0.812   2.974   5.947
 5379SOL    HW217037   0.742   2.992   6.093
 5380SOL     OW17038   4.719   6.892   1.623
 5380SOL    HW117039   4.786   6.827   1.660
 5380SOL    HW217040   4.685   6.951   1.696
 5381SOL     OW17041   5.138   6.525   3.180
 5381SOL    HW117042   5.218   6.482   3.223
 5381SOL    HW217043   5.134   6.501   3.084
 5382SOL     OW17044   4.019   1.608   2.794
 5382SOL    HW117045   4.050   1.548   2.721
 5382SOL    HW217046   4.036   1.703   2.769
 5383SOL     OW17047   1.651   3.154   4.145
 5383SOL    HW117048   1.624   3.123   4.054
 5383SOL    HW217049   1.750   3.149   4.155
 5384SOL     OW17050   4.750   5.693   5.614
 5384SOL    HW117051   4.735   5.758   5.689
 5384SOL    HW217052   4.685   5.712   5.540
 5385SOL     OW17053   6.139   2.626   5.620
 5385SOL    HW117054   6.088   2.702   5.659
 5385SOL    HW217055   6.076   2.565   5.572
 5386SOL     OW17056   6.305   4.041   3.889
 5386SOL    HW117057   6.258   4.012   3.805
 5386SOL    HW217058   6.285   4.137   3.906
 5387SOL     OW17059   2.162   1.150   2.241
 5387SOL    HW117060   2.195   1.161   2.334
 5387SOL    HW217061   2.239   1.155   2.177
 5388SOL     OW17062   0.836   6.761   2.763
 5388SOL    HW117063   0.852   6.666   2.735
 5388SOL    HW217064   0.756   6.796   2.714
 5389SOL     OW17065   4.659   1.858   4.428
 5389SOL    HW117066   4.741   1.849   4.484
 5389SOL    HW217067   4.600   1.929   4.466
 5390SOL     OW17068   6.430   3.432   3.781
 5390SOL    HW117069   6.505   3.430   3.715
 5390SOL    HW217070   6.369   3.509   3.759
 5391SOL     OW17071   2.216   2.404   0.022
 5391SOL    HW117072   2.169   2.491   0.007
 5391SOL    HW217073   2.202   2.374   0.116
 5392SOL     OW17074   4.993   1.800   3.770
 5392SOL    HW117075   4.932   1.740   3.821
 5392SOL    HW217076   4.947   1.832   3.687
 5393SOL     OW17077   4.154   0.969   5.672
 5393SOL    HW117078   4.079   0.996   5.611
 5393SOL    HW217079   4.234   1.025   5.653
 5394SOL     OW17080   2.294   0.526   0.480
 5394SOL    HW117081   2.374   0.576   0.513
 5394SOL    HW217082   2.263   0.566   0.394
 5395SOL     OW17083   4.665   2.176   1.460
 5395SOL    HW117084   4.651   2.081   1.487
 5395SOL    HW217085   4.622   2.236   1.528
 5396SOL     OW17086   5.954   5.692   2.419
 5396SOL    HW117087   5.857   5.706   2.439
 5396SOL    HW217088   5.971   5.595   2.404
 5397SOL     OW17089   6.243   1.451   3.165
 5397SOL    HW117090   6.260   1.512   3.088
 5397SOL    HW217091   6.328   1.440   3.218
 5398SOL     OW17092   4.688   2.392   3.441
 5398SOL    HW117093   4.680   2.298   3.474
 5398SOL    HW217094   4.785   2.415   3.431
 5399SOL     OW17095   1.797   6.916   5.357
 5399SOL    HW117096   1.778   6.969   5.439
 5399SOL    HW217097   1.813   6.978   5.280
 5400SOL     OW17098   3.516   3.386   1.556
 5400SOL    HW117099   3.533   3.339   1.643
 5400SOL    HW217100   3.603   3.415   1.517
 5401SOL     OW17101   5.846   4.418   2.248
 5401SOL    HW117102   5.890   4.488   2.304
 5401SOL    HW217103   5.801   4.461   2.170
 5402SOL     OW17104   2.040   0.324   0.902
 5402SOL    HW117105   2.080   0.394   0.842
 5402SOL    HW217106   2.051   0.352   0.997
 5403SOL     OW17107   4.844   3.465   0.224
 5403SOL    HW117108   4.909   3.395   0.195
 5403SOL    HW217109   4.893   3.542   0.264
 5404SOL     OW17110   6.483   0.923   0.830
 5404SOL    HW117111   6.459   0.977   0.911
 5404SOL    HW217112   6.501   0.985   0.753
 5405SOL     OW17113   5.263   5.587   0.029
 5405SOL    HW117114   5.275   5.534   0.113
 5405SOL    HW217115   5.300   5.535   6.973
 5406SOL     OW17116   2.621   0.287   4.303
 5406SOL    HW117117   2.685   0.364   4.300
 5406SOL    HW217118   2.530   0.319   4.278
 5407SOL     OW17119   2.430   0.790   1.389
 5407SOL    HW117120   2.358   0.859   1.391
 5407SOL    HW217121   2.501   0.816   1.324
 5408SOL     OW17122   2.598   2.508   4.610
 5408SOL    HW117123   2.555   2.528   4.698
 5408SOL    HW217124   2.532   2.520   4.536
 5409SOL     OW17125   0.834   2.528   1.260
 5409SOL    HW117126   0.918   2.490   1.222
 5409SOL    HW217127   0.757   2.468   1.238
 5410SOL     OW17128   0.763   1.974   0.904
 5410SOL    HW117129   0.755   1.942   0.809
 5410SOL    HW217130   0.859   1.972   0.932
 5411SOL     OW17131   4.199   5.496   6.974
 5411SOL    HW117132   4.215   5.506   6.875
 5411SOL    HW217133   4.253   5.420   7.009
 5412SOL     OW17134   0.291   2.118   6.280
 5412SOL    HW117135   0.324   2.054   6.210
 5412SOL    HW217136   0.191   2.123   6.275
 5413SOL     OW17137   6.724   6.851   4.976
 5413SOL    HW117138   6.674   6.936   4.992
 5413SOL    HW217139   6.669   6.790   4.920
 5414SOL     OW17140   6.612   4.295   5.988
 5414SOL    HW117141   6.542   4.257   6.048
 5414SOL    HW217142   6.679   4.224   5.965
 5415SOL     OW17143   3.386   0.245   0.713
 5415SOL    HW117144   3.445   0.189   0.770
 5415SOL    HW217145   3.369   0.198   0.626
 5416SOL     OW17146   3.311   4.852   5.592
 5416SOL    HW117147   3.260   4.767   5.601
 5416SOL    HW217148   3.309   4.883   5.497
 5417SOL     OW17149   5.016   6.017   3.743
 5417SOL    HW117150   4.932   5.990   3.697
 5417SOL    HW217151   5.095   5.999   3.683
 5418SOL     OW17152   5.853   4.400   4.419
 5418SOL    HW117153   5.828   4.333   4.488
 5418SOL    HW217154   5.877   4.486   4.463
 5419SOL     OW17155   3.663   0.045   6.565
 5419SOL    HW117156   3.620   6.983   6.531
 5419SOL    HW217157   3.696   0.098   6.487
 5420SOL     OW17158   1.493   1.454   1.012
 5420SOL    HW117159   1.487   1.506   0.927
 5420SOL    HW217160   1.558   1.498   1.074
 5421SOL     OW17161   3.658   4.913   2.286
 5421SOL    HW117162   3.649   4.984   2.356
 5421SOL    HW217163   3.574   4.907   2.233
 5422SOL     OW17164   2.153   5.955   3.737
 5422SOL    HW117165   2.227   5.915   3.683
 5422SOL    HW217166   2.147   6.053   3.718
 5423SOL     OW17167   6.622   6.252   2.642
 5423SOL    HW117168   6.540   6.286   2.597
 5423SOL    HW217169   6.675   6.329   2.679
 5424SOL     OW17170   4.595   4.265   5.206
 5424SOL    HW117171   4.604   4.188   5.268
 5424SOL    HW217172   4.648   4.248   5.123
 5425SOL     OW17173   0.373   3.707   6.345
 5425SOL    HW117174   0.383   3.767   6.266
 5425SOL    HW217175   0.289   3.653   6.336
 5426SOL     OW17176   5.726   5.202   2.119
 5426SOL    HW117177   5.748   5.202   2.022
 5426SOL    HW217178   5.663   5.127   2.139
 5427SOL     OW17179   4.931   2.357   6.821
 5427SOL    HW117180   4.914   2.302   6.902
 5427SOL    HW217181   5.024   2.393   6.823
 5428SOL     OW17182   6.669   5.073   3.145
 5428SOL    HW117183   6.621   4.986   3.148
 5428SOL    HW217184   6.758   5.062   3.100
 5429SOL     OW17185   2.545   0.443   3.928
 5429SOL    HW117186   2.619   0.434   3.862
 5429SOL    HW217187   2.492   0.358   3.932
 5430SOL     OW17188   2.736   3.650   6.477
 5430SOL    HW117189   2.764   3.746   6.474
 5430SOL    HW217190   2.733   3.619   6.572
 5431SOL     OW17191   2.904   5.055   6.149
 5431SOL    HW117192   2.850   5.102   6.219
 5431SOL    HW217193   2.972   5.118   6.112
 5432SOL     OW17194   5.692   5.769   1.513
 5432SOL    HW117195   5.611   5.828   1.503
 5432SOL    HW217196   5.768   5.822   1.548
 5433SOL     OW17197   1.660   0.246   0.679
 5433SOL    HW117198   1.657   0.165   0.620
 5433SOL    HW217199   1.571   0.290   0.679
 5434SOL     OW17200   4.747   1.090   5.758
 5434SOL    HW117201   4.806   1.013   5.734
 5434SOL    HW217202   4.734   1.093   5.857
 5435SOL     OW17203   6.080   3.870   1.143
 5435SOL    HW117204   6.153   3.831   1.198
 5435SOL    HW217205   6.105   3.866   1.046
 5436SOL     OW17206   1.618   5.016   2.319
 5436SOL    HW117207   1.533   5.053   2.355
 5436SOL    HW217208   1.641   5.061   2.233
 5437SOL     OW17209   3.684   5.694   0.375
 5437SOL    HW117210   3.686   5.788   0.410
 5437SOL    HW217211   3.732   5.633   0.438
 5438SOL     OW17212   4.498   4.626   2.850
 5438SOL    HW117213   4.491   4.721   2.819
 5438SOL    HW217214   4.529   4.568   2.775
 5439SOL     OW17215   0.941   4.420   0.822
 5439SOL    HW117216   0.998   4.381   0.894
 5439SOL    HW217217   0.969   4.514   0.804
 5440SOL     OW17218   5.576   6.000   3.453
 5440SOL    HW117219   5.564   5.941   3.533
 5440SOL    HW217220   5.668   6.039   3.455
 5441SOL     OW17221   4.508   2.535   3.886
 5441SOL    HW117222   4.444   2.502   3.956
 5441SOL    HW217223   4.494   2.485   3.801
 5442SOL     OW17224   5.202   6.912   4.664
 5442SOL    HW117225   5.129   6.918   4.596
 5442SOL    HW217226   5.205   6.819   4.701
 5443SOL     OW17227   4.894   6.679   4.765
 5443SOL    HW117228   4.903   6.767   4.718
 5443SOL    HW217229   4.886   6.606   4.697
 5444SOL     OW17230   0.173   0.753   3.873
 5444SOL    HW117231   0.095   0.761   3.935
 5444SOL    HW217232   0.253   0.795   3.915
 5445SOL     OW17233   5.501   5.773   5.857
 5445SOL    HW117234   5.435   5.834   5.899
 5445SOL    HW217235   5.459   5.726   5.780
 5446SOL     OW17236   0.549   4.248   5.864
 5446SOL    HW117237   0.629   4.261   5.923
 5446SOL    HW217238   0.565   4.291   5.776
 5447SOL     OW17239   1.348   1.380   0.325
 5447SOL    HW117240   1.331   1.427   0.412
 5447SOL    HW217241   1.445   1.354   0.321
 5448SOL     OW17242   4.067   5.840   3.784
 5448SOL    HW117243   4.012   5.807   3.861
 5448SOL    HW217244   4.125   5.765   3.751
 5449SOL     OW17245   3.382   1.715   1.915
 5449SOL    HW117246   3.439   1.785   1.871
 5449SOL    HW217247   3.293   1.755   1.938
 5450SOL     OW17248   4.025   5.771   1.946
 5450SOL    HW117249   3.929   5.772   1.974
 5450SOL    HW217250   4.031   5.774   1.846
 5451SOL     OW17251   1.351   0.673   3.323
 5451SOL    HW117252   1.430   0.733   3.328
 5451SOL    HW217253   1.267   0.728   3.327
 5452SOL     OW17254   2.006   4.361   2.119
 5452SOL    HW117255   2.004   4.385   2.021
 5452SOL    HW217256   1.917   4.324   2.145
 5453SOL     OW17257   5.641   4.323   3.219
 5453SOL    HW117258   5.702   4.253   3.257
 5453SOL    HW217259   5.551   4.283   3.203
 5454SOL     OW17260   5.943   5.253   3.399
 5454SOL    HW117261   5.895   5.319   3.456
 5454SOL    HW217262   5.883   5.223   3.325
 5455SOL     OW17263   0.415   2.000   2.414
 5455SOL    HW117264   0.428   1.956   2.504
 5455SOL    HW217265   0.340   2.066   2.419
 5456SOL     OW17266   5.096   0.974   6.614
 5456SOL    HW117267   5.184   1.016   6.635
 5456SOL    HW217268   5.022   1.033   6.646
 5457SOL     OW17269   6.112   2.172   0.759
 5457SOL    HW117270   6.122   2.076   0.734
 5457SOL    HW217271   6.015   2.195   0.767
 5458SOL     OW17272   5.958   4.495   1.165
 5458SOL    HW117273   5.980   4.578   1.218
 5458SOL    HW217274   6.042   4.450   1.136
 5459SOL     OW17275   2.190   4.603   5.808
 5459SOL    HW117276   2.247   4.523   5.827
 5459SOL    HW217277   2.100   4.573   5.776
 5460SOL     OW17278   1.679   0.499   0.459
 5460SOL    HW117279   1.630   0.412   0.452
 5460SOL    HW217280   1.621   0.573   0.424
 5461SOL     OW17281   6.923   1.587   6.636
 5461SOL    HW117282   6.921   1.529   6.718
 5461SOL    HW217283   6.932   1.530   6.555
 5462SOL     OW17284   4.871   6.293   6.704
 5462SOL    HW117285   4.775   6.303   6.730
 5462SOL    HW217286   4.928   6.296   6.786
 5463SOL     OW17287   0.080   2.674   7.003
 5463SOL    HW117288   0.034   2.709   0.062
 5463SOL    HW217289   0.072   2.740   6.928
 5464SOL     OW17290   6.362   6.468   5.624
 5464SOL    HW117291   6.380   6.397   5.692
 5464SOL    HW217292   6.328   6.426   5.540
 5465SOL     OW17293   0.176   6.167   3.567
 5465SOL    HW117294   0.223   6.247   3.530
 5465SOL    HW217295   0.092   6.150   3.516
 5466SOL     OW17296   5.855   2.725   5.426
 5466SOL    HW117297   5.847   2.823   5.445
 5466SOL    HW217298   5.875   2.711   5.329
 5467SOL     OW17299   5.697   3.864   3.502
 5467SOL    HW117300   5.744   3.797   3.560
 5467SOL    HW217301   5.645   3.927   3.561
 5468SOL     OW17302   6.461   1.948   2.603
 5468SOL    HW117303   6.529   1.889   2.648
 5468SOL    HW217304   6.504   2.036   2.582
 5469SOL     OW17305   1.958   0.967   5.521
 5469SOL    HW117306   1.875   1.015   5.496
 5469SOL    HW217307   1.957   0.946   5.619
 5470SOL     OW17308   4.059   5.546   4.382
 5470SOL    HW117309   4.064   5.510   4.475
 5470SOL    HW217310   4.133   5.507   4.327
 5471SOL     OW17311   5.151   0.057   2.430
 5471SOL    HW117312   5.136   6.996   2.374
 5471SOL    HW217313   5.067   0.078   2.480
 5472SOL     OW17314   3.571   1.472   6.114
 5472SOL    HW117315   3.512   1.535   6.165
 5472SOL    HW217316   3.640   1.525   6.065
 5473SOL     OW17317   2.073   4.619   1.393
 5473SOL    HW117318   2.155   4.603   1.449
 5473SOL    HW217319   2.099   4.629   1.297
 5474SOL     OW17320   0.733   5.532   3.435
 5474SOL    HW117321   0.686   5.614   3.470
 5474SOL    HW217322   0.753   5.544   3.338
 5475SOL     OW17323   0.757   1.922   6.890
 5475SOL    HW117324   0.805   1.959   6.969
 5475SOL    HW217325   0.713   1.996   6.839
 5476SOL     OW17326   2.602   6.329   5.851
 5476SOL    HW117327   2.598   6.385   5.769
 5476SOL    HW217328   2.613   6.388   5.931
 5477SOL     OW17329   2.146   5.150   4.141
 5477SOL    HW117330   2.106   5.091   4.211
 5477SOL    HW217331   2.122   5.245   4.161
 5478SOL     OW17332   6.161   4.827   6.283
 5478SOL    HW117333   6.162   4.757   6.211
 5478SOL    HW217334   6.182   4.916   6.244
 5479SOL     OW17335   4.210   1.802   4.893
 5479SOL    HW117336   4.145   1.848   4.953
 5479SOL    HW217337   4.214   1.849   4.805
 5480SOL     OW17338   6.443   4.350   5.396
 5480SOL    HW117339   6.514   4.396   5.343
 5480SOL    HW217340   6.448   4.251   5.380
 5481SOL     OW17341   4.046   1.073   6.269
 5481SOL    HW117342   4.106   1.002   6.306
 5481SOL    HW217343   4.101   1.153   6.243
 5482SOL     OW17344   3.734   3.817   1.826
 5482SOL    HW117345   3.826   3.824   1.864
 5482SOL    HW217346   3.736   3.848   1.731
 5483SOL     OW17347   6.165   3.113   5.970
 5483SOL    HW117348   6.178   3.116   6.069
 5483SOL    HW217349   6.123   3.198   5.939
 5484SOL     OW17350   0.000   6.336   4.122
 5484SOL    HW117351   0.052   6.322   4.037
 5484SOL    HW217352   0.011   6.256   4.181
 5485SOL     OW17353   3.334   0.164   4.454
 5485SOL    HW117354   3.358   0.092   4.390
 5485SOL    HW217355   3.385   0.151   4.540
 5486SOL     OW17356   1.626   0.458   3.744
 5486SOL    HW117357   1.614   0.436   3.841
 5486SOL    HW217358   1.611   0.556   3.731
 5487SOL     OW17359   6.272   4.244   0.685
 5487SOL    HW117360   6.245   4.282   0.773
 5487SOL    HW217361   6.328   4.311   0.635
 5488SOL     OW17362   4.763   2.142   0.191
 5488SOL    HW117363   4.830   2.143   0.117
 5488SOL    HW217364   4.671   2.137   0.153
 5489SOL     OW17365   1.512   4.284   2.328
 5489SOL    HW117366   1.447   4.307   2.255
 5489SOL    HW217367   1.518   4.185   2.337
 5490SOL     OW17368   3.526   6.981   0.871
 5490SOL    HW117369   3.560   0.053   0.869
 5490SOL    HW217370   3.575   6.927   0.801
 5491SOL     OW17371   1.495   4.537   0.152
 5491SOL    HW117372   1.472   4.440   0.157
 5491SOL    HW217373   1.459   4.575   0.067
 5492SOL     OW17374   1.342   1.771   6.346
 5492SOL    HW117375   1.326   1.722   6.432
 5492SOL    HW217376   1.312   1.866   6.356
 5493SOL     OW17377   3.706   2.803   5.632
 5493SOL    HW117378   3.753   2.837   5.551
 5493SOL    HW217379   3.738   2.852   5.713
 5494SOL     OW17380   6.867   3.338   0.641
 5494SOL    HW117381   6.808   3.394   0.699
 5494SOL    HW217382   6.820   3.316   0.556
 5495SOL     OW17383   3.768   3.881   1.567
 5495SOL    HW117384   3.820   3.799   1.544
 5495SOL    HW217385   3.755   3.937   1.485
 5496SOL     OW17386   3.501   6.219   1.778
 5496SOL    HW117387   3.417   6.171   1.803
 5496SOL    HW217388   3.577   6.154   1.776
 5497SOL     OW17389   0.500   2.077   3.049
 5497SOL    HW117390   0.580   2.019   3.063
 5497SOL    HW217391   0.484   2.087   2.951
 5498SOL     OW17392   4.605   1.396   6.179
 5498SOL    HW117393   4.529   1.391   6.114
 5498SOL    HW217394   4.665   1.472   6.154
 5499SOL     OW17395   0.357   0.578   3.563
 5499SOL    HW117396   0.300   0.605   3.485
 5499SOL    HW217397   0.453   0.572   3.533
 5500SOL     OW17398   2.164   5.270   6.797
 5500SOL    HW117399   2.127   5.207   6.865
 5500SOL    HW217400   2.262   5.283   6.815
 5501SOL     OW17401   2.515   0.326   2.269
 5501SOL    HW117402   2.449   0.351   2.197
 5501SOL    HW217403   2.598   0.379   2.258
 5502SOL     OW17404   5.998   4.027   5.577
 5502SOL    HW117405   5.941   4.013   5.495
 5502SOL    HW217406   5.958   4.098   5.634
 5503SOL     OW17407   1.103   4.688   3.244
 5503SOL    HW117408   1.172   4.641   3.188
 5503SOL    HW217409   1.136   4.780   3.266
 5504SOL     OW17410   3.234   0.773   4.871
 5504SOL    HW117411   3.213   0.855   4.923
 5504SOL    HW217412   3.322   0.783   4.825
 5505SOL     OW17413   1.850   6.008   5.006
 5505SOL    HW117414   1.896   6.095   4.986
 5505SOL    HW217415   1.883   5.937   4.944
 5506SOL     OW17416   6.725   0.612   4.560
 5506SOL    HW117417   6.671   0.682   4.513
 5506SOL    HW217418   6.666   0.564   4.625
 5507SOL     OW17419   2.443   6.437   3.027
 5507SOL    HW117420   2.525   6.487   3.058
 5507SOL    HW217421   2.467   6.382   2.947
 5508SOL     OW17422   2.413   0.599   6.556
 5508SOL    HW117423   2.362   0.680   6.525
 5508SOL    HW217424   2.469   0.624   6.635
 5509SOL     OW17425   6.157   6.047   0.314
 5509SOL    HW117426   6.098   5.971   0.340
 5509SOL    HW217427   6.103   6.131   0.306
 5510SOL     OW17428   4.196   6.878   6.721
 5510SOL    HW117429   4.278   6.933   6.707
 5510SOL    HW217430   4.140   6.880   6.639
 5511SOL     OW17431   1.086   0.737   2.705
 5511SOL    HW117432   1.123   0.790   2.781
 5511SOL    HW217433   1.063   0.645   2.736
 5512SOL     OW17434   6.663   2.073   0.671
 5512SOL    HW117435   6.684   2.084   0.574
 5512SOL    HW217436   6.699   1.985   0.703
 5513SOL     OW17437   4.664   4.492   4.885
 5513SOL    HW117438   4.705   4.583   4.878
 5513SOL    HW217439   4.566   4.497   4.871
 5514SOL     OW17440   5.803   4.878   2.701
 5514SOL    HW117441   5.844   4.786   2.696
 5514SOL    HW217442   5.776   4.907   2.609
 5515SOL     OW17443   6.690   2.720   1.606
 5515SOL    HW117444   6.628   2.779   1.657
 5515SOL    HW217445   6.638   2.644   1.566
 5516SOL     OW17446   1.770   3.102   0.325
 5516SOL    HW117447   1.847   3.094   0.261
 5516SOL    HW217448   1.692   3.145   0.278
 5517SOL     OW17449   3.245   2.138   1.723
 5517SOL    HW117450   3.310   2.213   1.710
 5517SOL    HW217451   3.211   2.140   1.817
 5518SOL     OW17452   5.904   5.184   6.232
 5518SOL    HW117453   5.992   5.149   6.200
 5518SOL    HW217454   5.893   5.162   6.329
 5519SOL     OW17455   5.230   3.769   2.950
 5519SOL    HW117456   5.151   3.794   2.895
 5519SOL    HW217457   5.210   3.685   3.000
 5520SOL     OW17458   1.365   4.021   3.200
 5520SOL    HW117459   1.326   4.004   3.291
 5520SOL    HW217460   1.446   4.080   3.209
 5521SOL     OW17461   4.922   6.302   1.993
 5521SOL    HW117462   5.011   6.345   2.007
 5521SOL    HW217463   4.923   6.251   1.907
 5522SOL     OW17464   2.331   3.740   1.217
 5522SOL    HW117465   2.264   3.733   1.143
 5522SOL    HW217466   2.355   3.836   1.233
 5523SOL     OW17467   3.456   6.906   3.165
 5523SOL    HW117468   3.517   6.950   3.231
 5523SOL    HW217469   3.473   6.808   3.164
 5524SOL     OW17470   0.061   5.723   4.999
 5524SOL    HW117471   0.051   5.677   5.087
 5524SOL    HW217472   0.081   5.820   5.015
 5525SOL     OW17473   6.757   4.633   0.093
 5525SOL    HW117474   6.787   4.648   0.187
 5525SOL    HW217475   6.779   4.539   0.065
 5526SOL     OW17476   5.967   3.738   4.092
 5526SOL    HW117477   6.022   3.667   4.135
 5526SOL    HW217478   5.956   3.815   4.155
 5527SOL     OW17479   0.515   2.948   2.112
 5527SOL    HW117480   0.441   2.880   2.112
 5527SOL    HW217481   0.572   2.935   2.031
 5528SOL     OW17482   0.253   2.297   5.700
 5528SOL    HW117483   0.349   2.269   5.699
 5528SOL    HW217484   0.223   2.309   5.794
 5529SOL     OW17485   2.027   0.036   4.914
 5529SOL    HW117486   2.021   6.965   4.951
 5529SOL    HW217487   2.001   0.101   4.986
 5530SOL     OW17488   0.102   2.370   1.911
 5530SOL    HW117489   0.122   2.420   1.827
 5530SOL    HW217490   0.158   2.287   1.914
 5531SOL     OW17491   4.079   3.428   4.681
 5531SOL    HW117492   4.079   3.383   4.770
 5531SOL    HW217493   4.051   3.523   4.691
 5532SOL     OW17494   1.710   0.897   0.626
 5532SOL    HW117495   1.795   0.946   0.647
 5532SOL    HW217496   1.633   0.961   0.633
 5533SOL     OW17497   2.790   1.292   2.670
 5533SOL    HW117498   2.809   1.252   2.760
 5533SOL    HW217499   2.727   1.232   2.620
 5534SOL     OW17500   0.971   3.142   6.851
 5534SOL    HW117501   1.002   3.237   6.857
 5534SOL    HW217502   0.879   3.139   6.812
 5535SOL     OW17503   0.114   3.568   2.646
 5535SOL    HW117504   0.143   3.575   2.742
 5535SOL    HW217505   0.015   3.574   2.641
 5536SOL     OW17506   2.537   0.950   4.249
 5536SOL    HW117507   2.589   0.897   4.316
 5536SOL    HW217508   2.461   0.996   4.295
 5537SOL     OW17509   3.773   0.687   4.493
 5537SOL    HW117510   3.715   0.765   4.469
 5537SOL    HW217511   3.825   0.708   4.576
 5538SOL     OW17512   4.417   0.090   5.186
 5538SOL    HW117513   4.483   0.081   5.112
 5538SOL    HW217514   4.328   0.054   5.157
 5539SOL     OW17515   0.532   2.125   1.314
 5539SOL    HW117516   0.511   2.193   1.384
 5539SOL    HW217517   0.448   2.097   1.267
 5540SOL     OW17518   5.234   2.657   1.448
 5540SOL    HW117519   5.228   2.745   1.494
 5540SOL    HW217520   5.184   2.588   1.501
 5541SOL     OW17521   5.182   3.168   6.040
 5541SOL    HW117522   5.095   3.199   6.002
 5541SOL    HW217523   5.212   3.085   5.993
 5542SOL     OW17524   5.965   5.742   5.570
 5542SOL    HW117525   5.948   5.681   5.648
 5542SOL    HW217526   5.969   5.688   5.486
 5543SOL     OW17527   2.454   5.635   6.936
 5543SOL    HW117528   2.548   5.621   6.905
 5543SOL    HW217529   2.442   5.730   6.966
 5544SOL     OW17530   5.521   5.388   5.477
 5544SOL    HW117531   5.602   5.427   5.433
 5544SOL    HW217532   5.459   5.354   5.406
 5545SOL     OW17533   4.438   0.994   2.601
 5545SOL    HW117534   4.431   0.896   2.583
 5545SOL    HW217535   4.434   1.010   2.699
 5546SOL     OW17536   0.564   6.319   4.322
 5546SOL    HW117537   0.595   6.226   4.305
 5546SOL    HW217538   0.487   6.340   4.262
 5547SOL     OW17539   3.938   0.742   5.265
 5547SOL    HW117540   4.030   0.715   5.291
 5547SOL    HW217541   3.942   0.828   5.213
 5548SOL     OW17542   6.389   3.903   5.877
 5548SOL    HW117543   6.376   3.982   5.937
 5548SOL    HW217544   6.346   3.921   5.788
 5549SOL     OW17545   4.315   3.632   1.352
 5549SOL    HW117546   4.315   3.558   1.419
 5549SOL    HW217547   4.355   3.601   1.266
 5550SOL     OW17548   2.254   4.322   2.910
 5550SOL    HW117549   2.345   4.351   2.940
 5550SOL    HW217550   2.263   4.255   2.837
 5551SOL     OW17551   1.495   6.604   2.608
 5551SOL    HW117552   1.471   6.570   2.699
 5551SOL    HW217553   1.466   6.537   2.539
 5552SOL     OW17554   5.865   0.688   6.519
 5552SOL    HW117555   5.952   0.727   6.489
 5552SOL    HW217556   5.790   0.726   6.465
 5553SOL     OW17557   4.112   6.703   5.952
 5553SOL    HW117558   4.017   6.714   5.981
 5553SOL    HW217559   4.137   6.776   5.888
 5554SOL     OW17560   4.905   3.210   1.588
 5554SOL    HW117561   4.847   3.134   1.618
 5554SOL    HW217562   4.968   3.234   1.660
 5555SOL     OW17563   1.085   3.643   2.074
 5555SOL    HW117564   1.027   3.562   2.079
 5555SOL    HW217565   1.155   3.629   2.004
 5556SOL     OW17566   6.302   0.878   4.064
 5556SOL    HW117567   6.210   0.857   4.032
 5556SOL    HW217568   6.352   0.929   3.994
 5557SOL     OW17569   3.462   5.547   1.858
 5557SOL    HW117570   3.472   5.611   1.783
 5557SOL    HW217571   3.378   5.567   1.908
 5558SOL     OW17572   3.202   2.952   6.430
 5558SOL    HW117573   3.273   3.021   6.418
 5558SOL    HW217574   3.187   2.903   6.344
 5559SOL     OW17575   1.223   0.718   2.238
 5559SOL    HW117576   1.202   0.625   2.266
 5559SOL    HW217577   1.317   0.722   2.203
 5560SOL     OW17578   0.289   5.515   1.480
 5560SOL    HW117579   0.287   5.513   1.580
 5560SOL    HW217580   0.379   5.545   1.449
 5561SOL     OW17581   2.413   0.751   4.596
 5561SOL    HW117582   2.381   0.778   4.687
 5561SOL    HW217583   2.339   0.760   4.530
 5562SOL     OW17584   4.436   3.227   0.230
 5562SOL    HW117585   4.464   3.136   0.199
 5562SOL    HW217586   4.518   3.283   0.244
 5563SOL     OW17587   3.080   5.411   2.907
 5563SOL    HW117588   3.069   5.320   2.946
 5563SOL    HW217589   3.025   5.476   2.959
 5564SOL     OW17590   4.433   7.012   6.633
 5564SOL    HW117591   4.409   0.013   6.539
 5564SOL    HW217592   4.521   6.964   6.635
 5565SOL     OW17593   3.650   2.574   6.280
 5565SOL    HW117594   3.632   2.492   6.226
 5565SOL    HW217595   3.610   2.653   6.234
 5566SOL     OW17596   2.078   4.298   6.990
 5566SOL    HW117597   2.174   4.322   6.974
 5566SOL    HW217598   2.021   4.380   6.977
 5567SOL     OW17599   0.115   4.054   1.480
 5567SOL    HW117600   0.060   4.137   1.469
 5567SOL    HW217601   0.087   3.986   1.412
 5568SOL     OW17602   5.066   1.472   3.722
 5568SOL    HW117603   5.022   1.481   3.811
 5568SOL    HW217604   5.162   1.499   3.729
 5569SOL     OW17605   1.697   2.118   2.118
 5569SOL    HW117606   1.750   2.153   2.196
 5569SOL    HW217607   1.603   2.103   2.146
 5570SOL     OW17608   5.559   3.807   3.877
 5570SOL    HW117609   5.559   3.854   3.789
 5570SOL    HW217610   5.548   3.873   3.951
 5571SOL     OW17611   6.529   5.689   1.971
 5571SOL    HW117612   6.555   5.593   1.968
 5571SOL    HW217613   6.589   5.738   2.033
 5572SOL     OW17614   1.365   4.525   4.839
 5572SOL    HW117615   1.334   4.466   4.764
 5572SOL    HW217616   1.375   4.619   4.807
 5573SOL     OW17617   1.292   5.691   4.910
 5573SOL    HW117618   1.254   5.709   5.001
 5573SOL    HW217619   1.380   5.643   4.920
 5574SOL     OW17620   0.261   2.645   1.391
 5574SOL    HW117621   0.249   2.581   1.315
 5574SOL    HW217622   0.183   2.637   1.454
 5575SOL     OW17623   6.507   1.104   0.603
 5575SOL    HW117624   6.552   1.041   0.540
 5575SOL    HW217625   6.429   1.147   0.557
 5576SOL     OW17626   1.486   4.613   2.275
 5576SOL    HW117627   1.497   4.518   2.246
 5576SOL    HW217628   1.558   4.636   2.340
 5577SOL     OW17629   2.293   2.616   6.623
 5577SOL    HW117630   2.355   2.662   6.688
 5577SOL    HW217631   2.312   2.649   6.531
 5578SOL     OW17632   3.836   3.984   2.142
 5578SOL    HW117633   3.864   4.079   2.153
 5578SOL    HW217634   3.907   3.924   2.178
 5579SOL     OW17635   0.505   3.864   0.191
 5579SOL    HW117636   0.514   3.771   0.229
 5579SOL    HW217637   0.547   3.867   0.100
 5580SOL     OW17638   4.990   2.135   5.646
 5580SOL    HW117639   4.991   2.103   5.551
 5580SOL    HW217640   5.055   2.211   5.655
 5581SOL     OW17641   1.353   0.348   2.030
 5581SOL    HW117642   1.322   0.266   2.078
 5581SOL    HW217643   1.424   0.394   2.083
 5582SOL     OW17644   3.359   4.093   6.384
 5582SOL    HW117645   3.435   4.030   6.365
 5582SOL    HW217646   3.396   4.185   6.400
 5583SOL     OW17647   4.418   0.882   2.893
 5583SOL    HW117648   4.514   0.856   2.902
 5583SOL    HW217649   4.361   0.800   2.893
 5584SOL     OW17650   6.948   3.865   4.482
 5584SOL    HW117651   6.945   3.771   4.446
 5584SOL    HW217652   6.858   3.889   4.519
 5585SOL     OW17653   5.690   5.520   3.362
 5585SOL    HW117654   5.674   5.501   3.459
 5585SOL    HW217655   5.631   5.462   3.306
 5586SOL     OW17656   0.626   3.574   6.200
 5586SOL    HW117657   0.597   3.541   6.109
 5586SOL    HW217658   0.545   3.591   6.256
 5587SOL     OW17659   4.295   6.604   0.368
 5587SOL    HW117660   4.251   6.666   0.303
 5587SOL    HW217661   4.227   6.541   0.405
 5588SOL     OW17662   2.426   5.499   2.894
 5588SOL    HW117663   2.484   5.521   2.973
 5588SOL    HW217664   2.359   5.572   2.880
 5589SOL     OW17665   6.328   3.624   5.907
 5589SOL    HW117666   6.302   3.565   5.831
 5589SOL    HW217667   6.357   3.713   5.872
 5590SOL     OW17668   0.269   5.933   3.627
 5590SOL    HW117669   0.352   5.942   3.683
 5590SOL    HW217670   0.226   6.023   3.617
 5591SOL     OW17671   6.269   2.145   1.735
 5591SOL    HW117672   6.330   2.077   1.693
 5591SOL    HW217673   6.253   2.120   1.830
 5592SOL     OW17674   2.130   5.854   3.405
 5592SOL    HW117675   2.031   5.852   3.421
 5592SOL    HW217676   2.149   5.882   3.311
 5593SOL     OW17677   0.768   3.256   0.021
 5593SOL    HW117678   0.801   3.238   6.950
 5593SOL    HW217679   0.706   3.183   0.049
 5594SOL     OW17680   5.144   0.783   5.705
 5594SOL    HW117681   5.167   0.877   5.679
 5594SOL    HW217682   5.222   0.723   5.688
 5595SOL     OW17683   0.518   1.590   4.766
 5595SOL    HW117684   0.560   1.655   4.830
 5595SOL    HW217685   0.464   1.524   4.817
 5596SOL     OW17686   4.805   0.422   2.713
 5596SOL    HW117687   4.736   0.409   2.642
 5596SOL    HW217688   4.812   0.519   2.737
 5597SOL     OW17689   4.897   2.881   4.787
 5597SOL    HW117690   4.919   2.970   4.747
 5597SOL    HW217691   4.852   2.824   4.718
 5598SOL     OW17692   4.950   3.823   4.184
 5598SOL    HW117693   4.909   3.747   4.132
 5598SOL    HW217694   4.950   3.800   4.282
 5599SOL     OW17695   1.403   2.006   3.815
 5599SOL    HW117696   1.492   2.018   3.771
 5599SOL    HW217697   1.405   2.044   3.907
 5600SOL     OW17698   1.461   1.183   2.018
 5600SOL    HW117699   1.373   1.138   2.035
 5600SOL    HW217700   1.454   1.239   1.935
 5601SOL     OW17701   2.385   0.825   5.610
 5601SOL    HW117702   2.294   0.848   5.576
 5601SOL    HW217703   2.424   0.903   5.658
 5602SOL     OW17704   5.893   1.482   1.359
 5602SOL    HW117705   5.990   1.475   1.337
 5602SOL    HW217706   5.881   1.503   1.456
 5603SOL     OW17707   5.743   2.156   6.361
 5603SOL    HW117708   5.805   2.225   6.398
 5603SOL    HW217709   5.792   2.097   6.297
 5604SOL     OW17710   5.988   1.966   4.829
 5604SOL    HW117711   6.052   1.890   4.817
 5604SOL    HW217712   5.909   1.953   4.769
 5605SOL     OW17713   7.011   1.336   5.176
 5605SOL    HW117714   0.074   1.388   5.186
 5605SOL    HW217715   6.960   1.336   5.262
 5606SOL     OW17716   4.868   6.519   0.293
 5606SOL    HW117717   4.907   6.608   0.317
 5606SOL    HW217718   4.821   6.526   0.205
 5607SOL     OW17719   5.722   1.164   3.076
 5607SOL    HW117720   5.707   1.196   2.982
 5607SOL    HW217721   5.817   1.184   3.102
 5608SOL     OW17722   5.032   0.153   4.329
 5608SOL    HW117723   5.055   0.148   4.426
 5608SOL    HW217724   5.109   0.122   4.274
 5609SOL     OW17725   2.951   6.575   1.441
 5609SOL    HW117726   3.004   6.543   1.519
 5609SOL    HW217727   2.982   6.528   1.358
 5610SOL     OW17728   3.999   6.356   0.786
 5610SOL    HW117729   4.018   6.309   0.872
 5610SOL    HW217730   3.927   6.424   0.800
 5611SOL     OW17731   1.324   5.564   2.568
 5611SOL    HW117732   1.345   5.476   2.611
 5611SOL    HW217733   1.370   5.569   2.480
 5612SOL     OW17734   3.730   2.344   6.991
 5612SOL    HW117735   3.806   2.364   0.032
 5612SOL    HW217736   3.686   2.259   7.020
 5613SOL     OW17737   5.495   4.296   3.868
 5613SOL    HW117738   5.549   4.342   3.799
 5613SOL    HW217739   5.496   4.349   3.953
 5614SOL     OW17740   4.660   2.269   4.211
 5614SOL    HW117741   4.706   2.348   4.252
 5614SOL    HW217742   4.678   2.267   4.112
 5615SOL     OW17743   0.186   1.592   4.696
 5615SOL    HW117744   0.217   1.528   4.626
 5615SOL    HW217745   0.237   1.678   4.688
 5616SOL     OW17746   2.581   2.001   4.971
 5616SOL    HW117747   2.594   2.060   4.891
 5616SOL    HW217748   2.669   1.966   5.001
 5617SOL     OW17749   3.101   0.332   5.953
 5617SOL    HW117750   3.012   0.332   5.906
 5617SOL    HW217751   3.123   0.238   5.981
 5618SOL     OW17752   6.980   4.373   4.137
 5618SOL    HW117753   6.947   4.333   4.051
 5618SOL    HW217754   0.021   4.309   4.182
 5619SOL     OW17755   2.710   3.591   5.775
 5619SOL    HW117756   2.793   3.637   5.741
 5619SOL    HW217757   2.723   3.565   5.870
 5620SOL     OW17758   3.850   3.215   1.021
 5620SOL    HW117759   3.893   3.162   1.094
 5620SOL    HW217760   3.840   3.158   0.939
 5621SOL     OW17761   1.866   1.872   6.749
 5621SOL    HW117762   1.880   1.922   6.664
 5621SOL    HW217763   1.946   1.816   6.769
 5622SOL     OW17764   5.023   0.494   5.915
 5622SOL    HW117765   5.014   0.482   6.014
 5622SOL    HW217766   5.119   0.500   5.891
 5623SOL     OW17767   2.797   6.113   5.032
 5623SOL    HW117768   2.704   6.133   5.002
 5623SOL    HW217769   2.798   6.026   5.082
 5624SOL     OW17770   0.848   4.224   3.364
 5624SOL    HW117771   0.853   4.324   3.359
 5624SOL    HW217772   0.757   4.193   3.336
 5625SOL     OW17773   6.435   1.344   4.906
 5625SOL    HW117774   6.407   1.399   4.826
 5625SOL    HW217775   6.427   1.400   4.989
 5626SOL     OW17776   2.392   6.180   3.883
 5626SOL    HW117777   2.420   6.217   3.971
 5626SOL    HW217778   2.332   6.101   3.897
 5627SOL     OW17779   0.539   5.581   6.511
 5627SOL    HW117780   0.515   5.509   6.447
 5627SOL    HW217781   0.628   5.560   6.553
 5628SOL     OW17782   0.960   2.417   0.201
 5628SOL    HW117783   0.894   2.401   0.275
 5628SOL    HW217784   0.920   2.481   0.135
 5629SOL     OW17785   3.794   4.053   2.443
 5629SOL    HW117786   3.866   4.013   2.499
 5629SOL    HW217787   3.713   4.069   2.499
 5630SOL     OW17788   1.981   4.788   0.292
 5630SOL    HW117789   2.049   4.803   0.221
 5630SOL    HW217790   1.965   4.874   0.342
 5631SOL     OW17791   4.518   1.620   0.334
 5631SOL    HW117792   4.548   1.693   0.273
 5631SOL    HW217793   4.460   1.556   0.284
 5632SOL     OW17794   3.418   2.390   5.793
 5632SOL    HW117795   3.494   2.429   5.844
 5632SOL    HW217796   3.350   2.354   5.857
 5633SOL     OW17797   6.767   3.645   4.100
 5633SOL    HW117798   6.738   3.589   4.022
 5633SOL    HW217799   6.790   3.737   4.068
 5634SOL     OW17800   2.534   5.202   4.588
 5634SOL    HW117801   2.517   5.131   4.657
 5634SOL    HW217802   2.501   5.290   4.622
 5635SOL     OW17803   2.033   3.961   5.699
 5635SOL    HW117804   2.040   3.942   5.601
 5635SOL    HW217805   2.057   3.879   5.751
 5636SOL     OW17806   4.158   6.754   4.051
 5636SOL    HW117807   4.129   6.680   4.113
 5636SOL    HW217808   4.168   6.718   3.959
 5637SOL     OW17809   4.927   6.618   3.524
 5637SOL    HW117810   4.832   6.605   3.495
 5637SOL    HW217811   4.970   6.688   3.467
 5638SOL     OW17812   6.103   3.610   1.482
 5638SOL    HW117813   6.084   3.676   1.554
 5638SOL    HW217814   6.028   3.544   1.476
 5639SOL     OW17815   1.036   0.585   0.483
 5639SOL    HW117816   1.089   0.663   0.516
 5639SOL    HW217817   0.943   0.591   0.518
 5640SOL     OW17818   3.112   0.620   3.823
 5640SOL    HW117819   3.124   0.521   3.828
 5640SOL    HW217820   3.025   0.645   3.866
 5641SOL     OW17821   0.610   5.358   5.258
 5641SOL    HW117822   0.640   5.411   5.178
 5641SOL    HW217823   0.625   5.261   5.242
 5642SOL     OW17824   1.986   6.820   5.657
 5642SOL    HW117825   1.978   6.896   5.592
 5642SOL    HW217826   1.983   6.855   5.750
 5643SOL     OW17827   4.734   1.793   5.362
 5643SOL    HW117828   4.690   1.710   5.329
 5643SOL    HW217829   4.696   1.873   5.315
 5644SOL     OW17830   3.292   0.282   4.863
 5644SOL    HW117831   3.246   0.369   4.883
 5644SOL    HW217832   3.259   0.246   4.776
 5645SOL     OW17833   6.326   4.311   3.531
 5645SOL    HW117834   6.320   4.211   3.537
 5645SOL    HW217835   6.409   4.336   3.482
 5646SOL     OW17836   1.420   5.262   3.075
 5646SOL    HW117837   1.508   5.303   3.052
 5646SOL    HW217838   1.416   5.169   3.039
 5647SOL     OW17839   5.008   6.680   1.022
 5647SOL    HW117840   5.066   6.696   1.102
 5647SOL    HW217841   5.065   6.657   0.943
 5648SOL     OW17842   1.973   5.446   2.623
 5648SOL    HW117843   2.063   5.406   2.641
 5648SOL    HW217844   1.936   5.408   2.539
 5649SOL     OW17845   0.830   6.751   3.940
 5649SOL    HW117846   0.799   6.656   3.943
 5649SOL    HW217847   0.832   6.788   4.032
 5650SOL     OW17848   1.225   4.409   1.565
 5650SOL    HW117849   1.154   4.394   1.496
 5650SOL    HW217850   1.314   4.418   1.520
 5651SOL     OW17851   2.062   1.451   0.231
 5651SOL    HW117852   2.119   1.433   0.311
 5651SOL    HW217853   2.120   1.464   0.150
 5652SOL     OW17854   6.568   6.126   1.157
 5652SOL    HW117855   6.561   6.177   1.242
 5652SOL    HW217856   6.539   6.032   1.172
 5653SOL     OW17857   6.756   6.241   6.865
 5653SOL    HW117858   6.793   6.215   6.776
 5653SOL    HW217859   6.709   6.329   6.857
 5654SOL     OW17860   1.021   5.678   4.316
 5654SOL    HW117861   1.007   5.702   4.412
 5654SOL    HW217862   1.115   5.700   4.289
 5655SOL     OW17863   7.000   2.984   3.631
 5655SOL    HW117864   7.004   3.083   3.641
 5655SOL    HW217865   6.931   2.960   3.562
 5656SOL     OW17866   6.939   3.845   6.483
 5656SOL    HW117867   7.003   3.916   6.514
 5656SOL    HW217868   6.845   3.879   6.493
 5657SOL     OW17869   5.180   3.631   5.402
 5657SOL    HW117870   5.198   3.537   5.372
 5657SOL    HW217871   5.223   3.646   5.491
 5658SOL     OW17872   2.660   3.338   6.023
 5658SOL    HW117873   2.574   3.361   5.978
 5658SOL    HW217874   2.713   3.421   6.037
 5659SOL     OW17875   3.869   3.609   6.248
 5659SOL    HW117876   3.839   3.622   6.343
 5659SOL    HW217877   3.955   3.657   6.234
 5660SOL     OW17878   4.415   6.684   5.677
 5660SOL    HW117879   4.438   6.622   5.602
 5660SOL    HW217880   4.432   6.638   5.764
 5661SOL     OW17881   1.819   5.995   4.136
 5661SOL    HW117882   1.793   6.053   4.213
 5661SOL    HW217883   1.769   6.022   4.054
 5662SOL     OW17884   2.719   0.173   2.778
 5662SOL    HW117885   2.632   0.142   2.815
 5662SOL    HW217886   2.703   0.244   2.709
 5663SOL     OW17887   2.660   2.082   0.798
 5663SOL    HW117888   2.736   2.072   0.861
 5663SOL    HW217889   2.640   2.179   0.785
 5664SOL     OW17890   6.603   3.271   3.952
 5664SOL    HW117891   6.595   3.174   3.929
 5664SOL    HW217892   6.514   3.315   3.938
 5665SOL     OW17893   1.116   6.603   0.542
 5665SOL    HW117894   1.046   6.587   0.473
 5665SOL    HW217895   1.083   6.572   0.631
 5666SOL     OW17896   6.696   0.239   3.721
 5666SOL    HW117897   6.721   0.179   3.797
 5666SOL    HW217898   6.626   0.304   3.750
 5667SOL     OW17899   1.221   5.310   4.681
 5667SOL    HW117900   1.224   5.311   4.781
 5667SOL    HW217901   1.170   5.389   4.648
 5668SOL     OW17902   6.465   3.056   3.361
 5668SOL    HW117903   6.482   2.978   3.301
 5668SOL    HW217904   6.523   3.132   3.334
 5669SOL     OW17905   6.634   4.869   0.813
 5669SOL    HW117906   6.729   4.894   0.829
 5669SOL    HW217907   6.587   4.944   0.766
 5670SOL     OW17908   1.617   3.144   3.878
 5670SOL    HW117909   1.523   3.126   3.849
 5670SOL    HW217910   1.674   3.162   3.798
 5671SOL     OW17911   6.301   5.876   5.854
 5671SOL    HW117912   6.235   5.916   5.918
 5671SOL    HW217913   6.277   5.781   5.836
 5672SOL     OW17914   5.106   4.163   5.749
 5672SOL    HW117915   5.056   4.121   5.825
 5672SOL    HW217916   5.111   4.262   5.763
 5673SOL     OW17917   1.192   6.443   1.134
 5673SOL    HW117918   1.094   6.453   1.149
 5673SOL    HW217919   1.216   6.346   1.128
 5674SOL     OW17920   2.066   4.686   4.926
 5674SOL    HW117921   2.074   4.586   4.933
 5674SOL    HW217922   2.151   4.723   4.889
 5675SOL     OW17923   4.702   2.567   0.329
 5675SOL    HW117924   4.770   2.495   0.342
 5675SOL    HW217925   4.679   2.607   0.418
 5676SOL     OW17926   2.800   1.849   2.354
 5676SOL    HW117927   2.840   1.843   2.263
 5676SOL    HW217928   2.872   1.861   2.422
 5677SOL     OW17929   0.799   0.629   0.608
 5677SOL    HW117930   0.718   0.639   0.549
 5677SOL    HW217931   0.775   0.654   0.702
 5678SOL     OW17932   4.512   1.251   2.531
 5678SOL    HW117933   4.601   1.258   2.576
 5678SOL    HW217934   4.473   1.160   2.549
 5679SOL     OW17935   5.419   1.301   4.896
 5679SOL    HW117936   5.349   1.298   4.968
 5679SOL    HW217937   5.487   1.230   4.912
 5680SOL     OW17938   1.970   5.459   6.812
 5680SOL    HW117939   2.016   5.540   6.849
 5680SOL    HW217940   2.036   5.386   6.796
 5681SOL     OW17941   0.404   3.793   2.349
 5681SOL    HW117942   0.387   3.879   2.397
 5681SOL    HW217943   0.336   3.725   2.376
 5682SOL     OW17944   2.402   5.507   3.962
 5682SOL    HW117945   2.418   5.598   4.000
 5682SOL    HW217946   2.437   5.438   4.026
 5683SOL     OW17947   3.636   2.438   5.977
 5683SOL    HW117948   3.662   2.368   6.044
 5683SOL    HW217949   3.561   2.493   6.014
 5684SOL     OW17950   2.072   3.750   6.230
 5684SOL    HW117951   2.101   3.701   6.312
 5684SOL    HW217952   2.053   3.683   6.157
 5685SOL     OW17953   2.330   2.274   3.068
 5685SOL    HW117954   2.409   2.285   3.129
 5685SOL    HW217955   2.355   2.214   2.992
 5686SOL     OW17956   2.925   1.513   4.822
 5686SOL    HW117957   3.012   1.473   4.794
 5686SOL    HW217958   2.904   1.591   4.762
 5687SOL     OW17959   1.011   6.126   5.930
 5687SOL    HW117960   1.105   6.118   5.965
 5687SOL    HW217961   0.971   6.212   5.961
 5688SOL     OW17962   1.623   2.908   2.923
 5688SOL    HW117963   1.524   2.896   2.937
 5688SOL    HW217964   1.638   2.984   2.859
 5689SOL     OW17965   2.613   0.807   1.765
 5689SOL    HW117966   2.635   0.730   1.825
 5689SOL    HW217967   2.544   0.778   1.699
 5690SOL     OW17968   1.778   5.443   6.610
 5690SOL    HW117969   1.785   5.542   6.614
 5690SOL    HW217970   1.841   5.402   6.677
 5691SOL     OW17971   3.721   0.604   2.104
 5691SOL    HW117972   3.688   0.519   2.063
 5691SOL    HW217973   3.668   0.681   2.068
 5692SOL     OW17974   5.077   4.904   1.088
 5692SOL    HW117975   4.994   4.882   1.035
 5692SOL    HW217976   5.116   4.989   1.053
 5693SOL     OW17977   4.418   0.280   1.551
 5693SOL    HW117978   4.464   0.302   1.465
 5693SOL    HW217979   4.385   0.186   1.547
 5694SOL     OW17980   0.325   0.435   2.460
 5694SOL    HW117981   0.424   0.447   2.467
 5694SOL    HW217982   0.291   0.486   2.380
 5695SOL     OW17983   1.335   1.420   2.699
 5695SOL    HW117984   1.395   1.346   2.666
 5695SOL    HW217985   1.296   1.468   2.621
 5696SOL     OW17986   1.407   6.646   4.191
 5696SOL    HW117987   1.440   6.575   4.128
 5696SOL    HW217988   1.309   6.657   4.180
 5697SOL     OW17989   5.875   2.181   2.344
 5697SOL    HW117990   5.900   2.260   2.288
 5697SOL    HW217991   5.802   2.207   2.408
 5698SOL     OW17992   1.558   4.628   4.464
 5698SOL    HW117993   1.612   4.686   4.525
 5698SOL    HW217994   1.472   4.674   4.442
 5699SOL     OW17995   1.913   2.764   2.826
 5699SOL    HW117996   1.904   2.799   2.733
 5699SOL    HW217997   1.832   2.789   2.879
 5700SOL     OW17998   6.802   6.806   3.421
 5700SOL    HW117999   6.769   6.732   3.480
 5700SOL    HW218000   6.884   6.847   3.462
 5701SOL     OW18001   6.956   0.626   1.248
 5701SOL    HW118002   6.870   0.595   1.288
 5701SOL    HW218003   6.953   0.614   1.148
 5702SOL     OW18004   1.544   6.456   4.085
 5702SOL    HW118005   1.637   6.475   4.055
 5702SOL    HW218006   1.535   6.358   4.103
 5703SOL     OW18007   6.745   4.266   6.330
 5703SOL    HW118008   6.818   4.197   6.328
 5703SOL    HW218009   6.670   4.236   6.271
 5704SOL     OW18010   4.941   3.945   2.499
 5704SOL    HW118011   5.034   3.909   2.505
 5704SOL    HW218012   4.941   4.042   2.523
 5705SOL     OW18013   5.042   6.055   0.008
 5705SOL    HW118014   5.026   6.151   7.007
 5705SOL    HW218015   5.141   6.037   0.008
 5706SOL     OW18016   5.258   2.494   1.893
 5706SOL    HW118017   5.312   2.561   1.843
 5706SOL    HW218018   5.187   2.542   1.945
 5707SOL     OW18019   6.205   0.696   0.587
 5707SOL    HW118020   6.125   0.753   0.569
 5707SOL    HW218021   6.251   0.727   0.670
 5708SOL     OW18022   5.254   6.391   2.505
 5708SOL    HW118023   5.341   6.343   2.520
 5708SOL    HW218024   5.236   6.454   2.580
 5709SOL     OW18025   0.425   0.989   3.007
 5709SOL    HW118026   0.413   1.088   3.000
 5709SOL    HW218027   0.462   0.954   2.921
 5710SOL     OW18028   3.023   2.297   0.171
 5710SOL    HW118029   3.061   2.206   0.156
 5710SOL    HW218030   2.935   2.305   0.124
 5711SOL     OW18031   5.191   0.796   1.720
 5711SOL    HW118032   5.192   0.760   1.627
 5711SOL    HW218033   5.284   0.805   1.754
 5712SOL     OW18034   6.523   6.771   0.198
 5712SOL    HW118035   6.482   6.713   0.128
 5712SOL    HW218036   6.478   6.861   0.198
 5713SOL     OW18037   3.131   4.786   1.413
 5713SOL    HW118038   3.161   4.692   1.428
 5713SOL    HW218039   3.143   4.839   1.497
 5714SOL     OW18040   6.958   5.854   0.734
 5714SOL    HW118041   6.866   5.838   0.698
 5714SOL    HW218042   6.952   5.891   0.827
 5715SOL     OW18043   0.106   0.228   2.829
 5715SOL    HW118044   0.027   0.213   2.888
 5715SOL    HW218045   0.185   0.254   2.884
 5716SOL     OW18046   0.994   5.840   5.959
 5716SOL    HW118047   0.953   5.931   5.958
 5716SOL    HW218048   1.053   5.830   6.039
 5717SOL     OW18049   2.081   5.148   1.630
 5717SOL    HW118050   2.102   5.099   1.715
 5717SOL    HW218051   1.996   5.111   1.591
 5718SOL     OW18052   1.243   3.509   0.057
 5718SOL    HW118053   1.247   3.609   0.054
 5718SOL    HW218054   1.335   3.472   0.046
 5719SOL     OW18055   2.751   3.569   0.501
 5719SOL    HW118056   2.664   3.614   0.523
 5719SOL    HW218057   2.827   3.631   0.524
 5720SOL     OW18058   1.845   6.713   4.799
 5720SOL    HW118059   1.866   6.761   4.884
 5720SOL    HW218060   1.752   6.737   4.770
 5721SOL     OW18061   5.907   4.236   0.835
 5721SOL    HW118062   5.910   4.317   0.777
 5721SOL    HW218063   5.844   4.252   0.911
 5722SOL     OW18064   6.885   2.506   5.132
 5722SOL    HW118065   6.895   2.598   5.093
 5722SOL    HW218066   6.957   2.447   5.096
 5723SOL     OW18067   4.401   3.908   0.147
 5723SOL    HW118068   4.329   3.901   0.215
 5723SOL    HW218069   4.361   3.910   0.055
 5724SOL     OW18070   6.037   2.989   4.411
 5724SOL    HW118071   5.995   2.933   4.482
 5724SOL    HW218072   6.078   3.070   4.452
 5725SOL     OW18073   6.666   4.870   4.550
 5725SOL    HW118074   6.712   4.822   4.625
 5725SOL    HW218075   6.608   4.942   4.588
 5726SOL     OW18076   6.143   5.096   4.516
 5726SOL    HW118077   6.203   5.160   4.563
 5726SOL    HW218078   6.093   5.042   4.583
 5727SOL     OW18079   6.683   2.539   4.634
 5727SOL    HW118080   6.668   2.534   4.536
 5727SOL    HW218081   6.781   2.547   4.653
 5728SOL     OW18082   5.292   6.229   5.358
 5728SOL    HW118083   5.268   6.253   5.264
 5728SOL    HW218084   5.215   6.183   5.402
 5729SOL     OW18085   1.880   2.041   6.510
 5729SOL    HW118086   1.962   2.012   6.461
 5729SOL    HW218087   1.855   2.134   6.483
 5730SOL     OW18088   6.455   4.124   6.637
 5730SOL    HW118089   6.504   4.075   6.710
 5730SOL    HW218090   6.375   4.169   6.676
 5731SOL     OW18091   6.794   0.369   2.217
 5731SOL    HW118092   6.771   0.411   2.305
 5731SOL    HW218093   6.723   0.303   2.192
 5732SOL     OW18094   0.750   6.469   3.948
 5732SOL    HW118095   0.659   6.440   3.918
 5732SOL    HW218096   0.816   6.453   3.875
 5733SOL     OW18097   4.234   6.347   5.164
 5733SOL    HW118098   4.316   6.373   5.113
 5733SOL    HW218099   4.251   6.264   5.215
 5734SOL     OW18100   0.942   0.143   5.405
 5734SOL    HW118101   0.921   0.046   5.390
 5734SOL    HW218102   1.005   0.175   5.335
 5735SOL     OW18103   3.194   1.540   0.822
 5735SOL    HW118104   3.193   1.606   0.747
 5735SOL    HW218105   3.104   1.536   0.865
 5736SOL     OW18106   0.163   3.991   0.020
 5736SOL    HW118107   0.132   3.905   7.001
 5736SOL    HW218108   0.141   4.067   6.980
 5737SOL     OW18109   5.376   6.076   0.465
 5737SOL    HW118110   5.390   6.083   0.366
 5737SOL    HW218111   5.354   6.167   0.502
 5738SOL     OW18112   1.730   3.516   6.588
 5738SOL    HW118113   1.743   3.575   6.508
 5738SOL    HW218114   1.685   3.568   6.661
 5739SOL     OW18115   1.692   1.329   6.249
 5739SOL    HW118116   1.693   1.403   6.317
 5739SOL    HW218117   1.702   1.369   6.158
 5740SOL     OW18118   4.224   5.649   0.268
 5740SOL    HW118119   4.199   5.689   0.180
 5740SOL    HW218120   4.284   5.713   0.317
 5741SOL     OW18121   0.057   5.655   4.194
 5741SOL    HW118122   0.101   5.731   4.147
 5741SOL    HW218123   6.980   5.657   4.174
 5742SOL     OW18124   5.061   6.469   2.336
 5742SOL    HW118125   5.143   6.449   2.390
 5742SOL    HW218126   5.010   6.384   2.320
 5743SOL     OW18127   2.998   6.977   4.611
 5743SOL    HW118128   3.038   6.915   4.678
 5743SOL    HW218129   2.941   6.925   4.547
 5744SOL     OW18130   4.523   0.316   0.454
 5744SOL    HW118131   4.535   0.376   0.533
 5744SOL    HW218132   4.610   0.310   0.404
 5745SOL     OW18133   3.096   1.457   4.470
 5745SOL    HW118134   3.193   1.450   4.446
 5745SOL    HW218135   3.042   1.464   4.386
 5746SOL     OW18136   4.989   0.722   0.413
 5746SOL    HW118137   5.020   0.668   0.334
 5746SOL    HW218138   4.934   0.664   0.473
 5747SOL     OW18139   0.219   5.585   2.555
 5747SOL    HW118140   0.195   5.531   2.636
 5747SOL    HW218141   0.269   5.528   2.490
 5748SOL     OW18142   1.975   4.869   1.402
 5748SOL    HW118143   1.987   4.904   1.309
 5748SOL    HW218144   2.018   4.779   1.410
 5749SOL     OW18145   2.449   1.255   4.034
 5749SOL    HW118146   2.355   1.252   4.067
 5749SOL    HW218147   2.473   1.168   3.991
 5750SOL     OW18148   5.973   5.168   4.830
 5750SOL    HW118149   5.908   5.140   4.899
 5750SOL    HW218150   5.981   5.268   4.829
 5751SOL     OW18151   2.221   2.273   4.916
 5751SOL    HW118152   2.124   2.299   4.920
 5751SOL    HW218153   2.269   2.312   4.994
 5752SOL     OW18154   6.362   1.037   6.089
 5752SOL    HW118155   6.395   1.066   6.000
 5752SOL    HW218156   6.282   1.092   6.115
 5753SOL     OW18157   3.379   3.145   6.353
 5753SOL    HW118158   3.335   3.188   6.274
 5753SOL    HW218159   3.470   3.184   6.366
 5754SOL     OW18160   5.884   5.525   1.678
 5754SOL    HW118161   5.794   5.568   1.682
 5754SOL    HW218162   5.953   5.595   1.659
 5755SOL     OW18163   2.924   3.494   6.369
 5755SOL    HW118164   2.852   3.557   6.396
 5755SOL    HW218165   3.010   3.544   6.360
 5756SOL     OW18166   6.443   4.598   3.366
 5756SOL    HW118167   6.381   4.637   3.434
 5756SOL    HW218168   6.518   4.552   3.413
 5757SOL     OW18169   6.486   6.178   1.547
 5757SOL    HW118170   6.520   6.207   1.636
 5757SOL    HW218171   6.560   6.184   1.479
 5758SOL     OW18172   2.821   2.359   4.656
 5758SOL    HW118173   2.755   2.428   4.628
 5758SOL    HW218174   2.812   2.341   4.754
 5759SOL     OW18175   5.121   2.328   6.429
 5759SOL    HW118176   5.157   2.395   6.494
 5759SOL    HW218177   5.090   2.375   6.347
 5760SOL     OW18178   1.541   6.118   2.171
 5760SOL    HW118179   1.487   6.055   2.115
 5760SOL    HW218180   1.485   6.197   2.196
 5761SOL     OW18181   5.982   0.109   5.152
 5761SOL    HW118182   5.967   0.054   5.234
 5761SOL    HW218183   6.064   0.165   5.165
 5762SOL     OW18184   5.580   0.061   0.455
 5762SOL    HW118185   5.553   0.061   0.359
 5762SOL    HW218186   5.667   0.110   0.465
 5763SOL     OW18187   0.657   6.679   0.789
 5763SOL    HW118188   0.691   6.674   0.883
 5763SOL    HW218189   0.603   6.598   0.769
 5764SOL     OW18190   5.965   4.606   5.528
 5764SOL    HW118191   5.995   4.512   5.547
 5764SOL    HW218192   5.984   4.664   5.607
 5765SOL     OW18193   6.237   4.256   6.775
 5765SOL    HW118194   6.157   4.296   6.819
 5765SOL    HW218195   6.313   4.253   6.841
 5766SOL     OW18196   3.371   1.429   1.940
 5766SOL    HW118197   3.319   1.472   1.865
 5766SOL    HW218198   3.442   1.492   1.972
 5767SOL     OW18199   1.366   6.180   1.066
 5767SOL    HW118200   1.443   6.127   1.104
 5767SOL    HW218201   1.280   6.136   1.091
 5768SOL     OW18202   0.096   0.620   3.392
 5768SOL    HW118203   0.028   0.691   3.407
 5768SOL    HW218204   0.127   0.624   3.297
 5769SOL     OW18205   2.881   6.783   3.233
 5769SOL    HW118206   2.970   6.755   3.270
 5769SOL    HW218207   2.868   6.881   3.248
 5770SOL     OW18208   6.602   6.720   1.194
 5770SOL    HW118209   6.674   6.677   1.141
 5770SOL    HW218210   6.615   6.819   1.195
 5771SOL     OW18211   1.294   0.244   1.007
 5771SOL    HW118212   1.280   0.192   0.923
 5771SOL    HW218213   1.347   0.327   0.986
 5772SOL     OW18214   5.885   2.313   0.778
 5772SOL    HW118215   5.856   2.358   0.862
 5772SOL    HW218216   5.906   2.381   0.709
 5773SOL     OW18217   5.611   6.368   4.164
 5773SOL    HW118218   5.623   6.317   4.250
 5773SOL    HW218219   5.576   6.460   4.185
 5774SOL     OW18220   2.510   4.478   3.020
 5774SOL    HW118221   2.452   4.505   3.097
 5774SOL    HW218222   2.601   4.519   3.031
 5775SOL     OW18223   0.420   0.212   0.444
 5775SOL    HW118224   0.503   0.241   0.491
 5775SOL    HW218225   0.444   0.151   0.369
 5776SOL     OW18226   5.711   0.891   6.319
 5776SOL    HW118227   5.704   0.929   6.227
 5776SOL    HW218228   5.644   0.817   6.330
 5777SOL     OW18229   5.716   0.559   3.960
 5777SOL    HW118230   5.682   0.563   4.054
 5777SOL    HW218231   5.801   0.507   3.957
 5778SOL     OW18232   2.193   0.445   2.461
 5778SOL    HW118233   2.102   0.482   2.478
 5778SOL    HW218234   2.202   0.422   2.365
 5779SOL     OW18235   3.587   0.937   0.931
 5779SOL    HW118236   3.491   0.913   0.915
 5779SOL    HW218237   3.645   0.884   0.869
 5780SOL     OW18238   6.468   4.703   1.883
 5780SOL    HW118239   6.375   4.667   1.890
 5780SOL    HW218240   6.494   4.709   1.787
 5781SOL     OW18241   1.799   4.070   5.002
 5781SOL    HW118242   1.784   4.169   5.002
 5781SOL    HW218243   1.743   4.029   4.930
 5782SOL     OW18244   1.867   0.960   1.491
 5782SOL    HW118245   1.964   0.972   1.513
 5782SOL    HW218246   1.837   0.871   1.523
 5783SOL     OW18247   1.673   0.909   0.361
 5783SOL    HW118248   1.618   0.834   0.325
 5783SOL    HW218249   1.694   0.891   0.458
 5784SOL     OW18250   0.672   6.379   0.145
 5784SOL    HW118251   0.740   6.449   0.123
 5784SOL    HW218252   0.699   6.292   0.104
 5785SOL     OW18253   1.275   0.796   0.849
 5785SOL    HW118254   1.233   0.866   0.907
 5785SOL    HW218255   1.340   0.743   0.902
 5786SOL     OW18256   1.670   3.522   1.592
 5786SOL    HW118257   1.637   3.579   1.517
 5786SOL    HW218258   1.769   3.509   1.583
 5787SOL     OW18259   6.079   2.822   4.205
 5787SOL    HW118260   6.109   2.731   4.233
 5787SOL    HW218261   6.087   2.885   4.282
 5788SOL     OW18262   3.172   0.574   2.022
 5788SOL    HW118263   3.263   0.581   2.064
 5788SOL    HW218264   3.122   0.659   2.037
 5789SOL     OW18265   3.551   3.400   0.462
 5789SOL    HW118266   3.495   3.429   0.385
 5789SOL    HW218267   3.509   3.430   0.548
 5790SOL     OW18268   5.947   5.434   4.925
 5790SOL    HW118269   5.941   5.523   4.969
 5790SOL    HW218270   5.856   5.394   4.917
 5791SOL     OW18271   3.223   1.497   2.695
 5791SOL    HW118272   3.206   1.581   2.745
 5791SOL    HW218273   3.234   1.517   2.598
 5792SOL     OW18274   4.880   3.261   3.021
 5792SOL    HW118275   4.857   3.308   2.935
 5792SOL    HW218276   4.891   3.329   3.094
 5793SOL     OW18277   6.066   2.602   5.027
 5793SOL    HW118278   6.154   2.561   5.005
 5793SOL    HW218279   6.012   2.538   5.081
 5794SOL     OW18280   2.816   6.720   6.027
 5794SOL    HW118281   2.773   6.789   6.085
 5794SOL    HW218282   2.915   6.731   6.028
 5795SOL     OW18283   0.990   5.351   1.705
 5795SOL    HW118284   0.971   5.287   1.631
 5795SOL    HW218285   1.076   5.398   1.688
 5796SOL     OW18286   4.262   1.739   6.186
 5796SOL    HW118287   4.340   1.738   6.248
 5796SOL    HW218288   4.291   1.772   6.096
 5797SOL     OW18289   5.116   1.782   0.031
 5797SOL    HW118290   5.034   1.778   0.087
 5797SOL    HW218291   5.097   1.744   6.962
 5798SOL     OW18292   0.920   3.686   5.173
 5798SOL    HW118293   0.871   3.613   5.220
 5798SOL    HW218294   0.855   3.750   5.133
 5799SOL     OW18295   1.471   6.344   3.613
 5799SOL    HW118296   1.460   6.265   3.673
 5799SOL    HW218297   1.400   6.343   3.543
 5800SOL     OW18298   0.247   0.037   0.953
 5800SOL    HW118299   0.231   0.082   0.865
 5800SOL    HW218300   0.269   0.106   1.022
 5801SOL     OW18301   2.174   2.944   2.044
 5801SOL    HW118302   2.199   2.985   1.956
 5801SOL    HW218303   2.233   2.865   2.062
 5802SOL     OW18304   6.641   1.837   2.994
 5802SOL    HW118305   6.726   1.808   2.948
 5802SOL    HW218306   6.627   1.935   2.980
 5803SOL     OW18307   1.629   5.403   4.729
 5803SOL    HW118308   1.729   5.397   4.733
 5803SOL    HW218309   1.604   5.471   4.661
 5804SOL     OW18310   6.020   6.234   3.586
 5804SOL    HW118311   5.942   6.220   3.647
 5804SOL    HW218312   6.053   6.328   3.594
 5805SOL     OW18313   2.134   3.323   1.375
 5805SOL    HW118314   2.197   3.301   1.449
 5805SOL    HW218315   2.176   3.296   1.287
 5806SOL     OW18316   0.675   2.918   3.512
 5806SOL    HW118317   0.742   2.982   3.475
 5806SOL    HW218318   0.719   2.831   3.534
 5807SOL     OW18319   1.674   6.109   0.604
 5807SOL    HW118320   1.633   6.075   0.519
 5807SOL    HW218321   1.648   6.050   0.680
 5808SOL     OW18322   6.285   0.124   4.200
 5808SOL    HW118323   6.350   0.073   4.257
 5808SOL    HW218324   6.248   0.201   4.253
 5809SOL     OW18325   0.327   2.630   6.020
 5809SOL    HW118326   0.233   2.643   6.053
 5809SOL    HW218327   0.338   2.677   5.932
 5810SOL     OW18328   4.030   6.681   4.647
 5810SOL    HW118329   4.064   6.774   4.644
 5810SOL    HW218330   4.102   6.617   4.621
 5811SOL     OW18331   2.943   3.115   5.984
 5811SOL    HW118332   3.009   3.083   5.916
 5811SOL    HW218333   2.858   3.140   5.939
 5812SOL     OW18334   5.805   2.802   0.811
 5812SOL    HW118335   5.772   2.870   0.746
 5812SOL    HW218336   5.889   2.761   0.776
 5813SOL     OW18337   4.584   6.086   0.797
 5813SOL    HW118338   4.487   6.094   0.772
 5813SOL    HW218339   4.614   6.170   0.841
 5814SOL     OW18340   6.004   2.024   2.498
 5814SOL    HW118341   6.077   1.981   2.444
 5814SOL    HW218342   5.946   2.079   2.437
 5815SOL     OW18343   6.518   0.683   4.203
 5815SOL    HW118344   6.442   0.747   4.195
 5815SOL    HW218345   6.594   0.727   4.251
 5816SOL     OW18346   0.646   4.581   2.680
 5816SOL    HW118347   0.681   4.542   2.765
 5816SOL    HW218348   0.687   4.534   2.602
 5817SOL     OW18349   5.276   4.174   4.386
 5817SOL    HW118350   5.229   4.248   4.338
 5817SOL    HW218351   5.231   4.157   4.473
 5818SOL     OW18352   1.587   6.845   4.784
 5818SOL    HW118353   1.565   6.909   4.710
 5818SOL    HW218354   1.585   6.893   4.872
 5819SOL     OW18355   4.082   4.709   6.932
 5819SOL    HW118356   4.145   4.778   6.969
 5819SOL    HW218357   3.993   4.717   6.977
 5820SOL     OW18358   5.507   5.042   2.147
 5820SOL    HW118359   5.481   4.979   2.220
 5820SOL    HW218360   5.482   5.002   2.058
 5821SOL     OW18361   6.412   1.038   1.113
 5821SOL    HW118362   6.381   0.962   1.170
 5821SOL    HW218363   6.496   1.077   1.152
 5822SOL     OW18364   1.264   2.425   2.541
 5822SOL    HW118365   1.169   2.397   2.555
 5822SOL    HW218366   1.266   2.507   2.484
 5823SOL     OW18367   2.187   6.410   3.509
 5823SOL    HW118368   2.256   6.457   3.454
 5823SOL    HW218369   2.139   6.344   3.452
 5824SOL     OW18370   0.884   7.007   2.320
 5824SOL    HW118371   0.904   6.968   2.230
 5824SOL    HW218372   0.797   6.969   2.353
 5825SOL     OW18373   6.267   0.382   4.312
 5825SOL    HW118374   6.346   0.409   4.366
 5825SOL    HW218375   6.208   0.462   4.297
 5826SOL     OW18376   0.159   0.271   5.405
 5826SOL    HW118377   0.207   0.234   5.484
 5826SOL    HW218378   0.062   0.247   5.410
 5827SOL     OW18379   1.629   4.521   5.492
 5827SOL    HW118380   1.598   4.471   5.411
 5827SOL    HW218381   1.603   4.472   5.575
 5828SOL     OW18382   4.935   6.675   4.044
 5828SOL    HW118383   4.959   6.763   4.085
 5828SOL    HW218384   4.945   6.680   3.945
 5829SOL     OW18385   2.447   0.705   3.861
 5829SOL    HW118386   2.349   0.711   3.839
 5829SOL    HW218387   2.472   0.609   3.876
 5830SOL     OW18388   3.469   5.054   5.389
 5830SOL    HW118389   3.465   5.085   5.294
 5830SOL    HW218390   3.549   4.995   5.402
 5831SOL     OW18391   1.589   1.142   5.188
 5831SOL    HW118392   1.678   1.184   5.203
 5831SOL    HW218393   1.542   1.131   5.275
 5832SOL     OW18394   3.620   4.791   1.165
 5832SOL    HW118395   3.640   4.876   1.115
 5832SOL    HW218396   3.694   4.774   1.230
 5833SOL     OW18397   4.239   3.675   5.542
 5833SOL    HW118398   4.290   3.589   5.551
 5833SOL    HW218399   4.175   3.667   5.465
 5834SOL     OW18400   6.673   4.370   6.717
 5834SOL    HW118401   6.766   4.361   6.681
 5834SOL    HW218402   6.607   4.345   6.647
 5835SOL     OW18403   5.958   0.475   2.804
 5835SOL    HW118404   5.925   0.440   2.717
 5835SOL    HW218405   5.903   0.555   2.831
 5836SOL     OW18406   4.676   6.566   1.758
 5836SOL    HW118407   4.620   6.594   1.836
 5836SOL    HW218408   4.749   6.633   1.744
 5837SOL     OW18409   3.608   3.755   0.371
 5837SOL    HW118410   3.561   3.843   0.361
 5837SOL    HW218411   3.544   3.681   0.348
 5838SOL     OW18412   3.095   1.861   1.294
 5838SOL    HW118413   3.113   1.826   1.202
 5838SOL    HW218414   3.100   1.785   1.359
 5839SOL     OW18415   1.340   2.697   1.930
 5839SOL    HW118416   1.388   2.728   2.012
 5839SOL    HW218417   1.269   2.631   1.956
 5840SOL     OW18418   0.744   3.617   2.264
 5840SOL    HW118419   0.757   3.717   2.267
 5840SOL    HW218420   0.761   3.579   2.354
 5841SOL     OW18421   4.443   0.768   0.931
 5841SOL    HW118422   4.542   0.752   0.923
 5841SOL    HW218423   4.425   0.865   0.941
 5842SOL     OW18424   3.115   1.520   0.461
 5842SOL    HW118425   3.196   1.465   0.442
 5842SOL    HW218426   3.035   1.478   0.418
 5843SOL     OW18427   1.947   3.020   0.955
 5843SOL    HW118428   1.966   2.940   1.012
 5843SOL    HW218429   1.850   3.045   0.964
 5844SOL     OW18430   0.786   0.321   4.938
 5844SOL    HW118431   0.808   0.419   4.948
 5844SOL    HW218432   0.868   0.271   4.911
 5845SOL     OW18433   0.649   6.412   1.809
 5845SOL    HW118434   0.556   6.384   1.835
 5845SOL    HW218435   0.691   6.458   1.887
 5846SOL     OW18436   6.670   3.791   5.731
 5846SOL    HW118437   6.702   3.736   5.809
 5846SOL    HW218438   6.587   3.840   5.756
 5847SOL     OW18439   2.727   3.258   0.839
 5847SOL    HW118440   2.737   3.348   0.881
 5847SOL    HW218441   2.652   3.259   0.774
 5848SOL     OW18442   2.127   6.343   3.964
 5848SOL    HW118443   2.218   6.374   3.991
 5848SOL    HW218444   2.132   6.299   3.875
 5849SOL     OW18445   2.006   6.198   5.277
 5849SOL    HW118446   1.971   6.141   5.203
 5849SOL    HW218447   2.106   6.198   5.274
 5850SOL     OW18448   1.184   2.503   2.069
 5850SOL    HW118449   1.246   2.451   2.128
 5850SOL    HW218450   1.138   2.441   2.005
 5851SOL     OW18451   5.689   3.545   4.706
 5851SOL    HW118452   5.602   3.508   4.675
 5851SOL    HW218453   5.738   3.585   4.629
 5852SOL     OW18454   5.108   5.046   3.798
 5852SOL    HW118455   5.201   5.022   3.768
 5852SOL    HW218456   5.100   5.029   3.896
 5853SOL     OW18457   3.676   5.015   5.846
 5853SOL    HW118458   3.772   5.037   5.861
 5853SOL    HW218459   3.634   5.085   5.788
 5854SOL     OW18460   2.901   4.492   5.989
 5854SOL    HW118461   2.927   4.475   6.084
 5854SOL    HW218462   2.874   4.587   5.978
 5855SOL     OW18463   2.144   2.596   3.692
 5855SOL    HW118464   2.141   2.691   3.661
 5855SOL    HW218465   2.058   2.551   3.669
 5856SOL     OW18466   1.599   6.935   2.966
 5856SOL    HW118467   1.597   6.854   2.907
 5856SOL    HW218468   1.506   6.972   2.974
 5857SOL     OW18469   0.679   3.285   6.191
 5857SOL    HW118470   0.692   3.379   6.159
 5857SOL    HW218471   0.604   3.242   6.140
 5858SOL     OW18472   2.310   1.712   2.969
 5858SOL    HW118473   2.225   1.697   3.019
 5858SOL    HW218474   2.295   1.696   2.872
 5859SOL     OW18475   6.033   0.200   2.694
 5859SOL    HW118476   6.116   0.204   2.639
 5859SOL    HW218477   6.039   0.267   2.768
 5860SOL     OW18478   0.239   3.324   3.386
 5860SOL    HW118479   0.209   3.234   3.357
 5860SOL    HW218480   0.336   3.322   3.408
 5861SOL     OW18481   5.966   0.918   4.902
 5861SOL    HW118482   5.936   0.855   4.974
 5861SOL    HW218483   6.052   0.961   4.930
 5862SOL     OW18484   6.822   5.370   2.839
 5862SOL    HW118485   6.888   5.395   2.768
 5862SOL    HW218486   6.836   5.274   2.865
 5863SOL     OW18487   3.426   0.869   4.679
 5863SOL    HW118488   3.492   0.919   4.736
 5863SOL    HW218489   3.456   0.872   4.584
 5864SOL     OW18490   3.629   3.887   3.125
 5864SOL    HW118491   3.562   3.831   3.173
 5864SOL    HW218492   3.650   3.968   3.180
 5865SOL     OW18493   6.051   1.195   5.616
 5865SOL    HW118494   6.079   1.283   5.655
 5865SOL    HW218495   6.002   1.142   5.685
 5866SOL     OW18496   4.171   3.692   1.621
 5866SOL    HW118497   4.240   3.620   1.624
 5866SOL    HW218498   4.208   3.776   1.663
 5867SOL     OW18499   2.558   2.160   1.213
 5867SOL    HW118500   2.654   2.159   1.242
 5867SOL    HW218501   2.536   2.249   1.173
 5868SOL     OW18502   0.449   1.931   6.151
 5868SOL    HW118503   0.416   1.841   6.125
 5868SOL    HW218504   0.515   1.923   6.225
 5869SOL     OW18505   0.638   4.696   4.289
 5869SOL    HW118506   0.699   4.703   4.211
 5869SOL    HW218507   0.586   4.611   4.284
 5870SOL     OW18508   4.171   4.712   5.198
 5870SOL    HW118509   4.116   4.648   5.252
 5870SOL    HW218510   4.241   4.662   5.147
 5871SOL     OW18511   3.337   2.904   3.280
 5871SOL    HW118512   3.306   2.809   3.279
 5871SOL    HW218513   3.259   2.965   3.292
 5872SOL     OW18514   4.064   6.140   2.468
 5872SOL    HW118515   3.977   6.130   2.516
 5872SOL    HW218516   4.131   6.077   2.507
 5873SOL     OW18517   3.587   4.856   2.859
 5873SOL    HW118518   3.629   4.879   2.946
 5873SOL    HW218519   3.493   4.825   2.873
 5874SOL     OW18520   2.204   4.240   5.452
 5874SOL    HW118521   2.187   4.197   5.364
 5874SOL    HW218522   2.206   4.339   5.442
 5875SOL     OW18523   3.371   2.306   0.200
 5875SOL    HW118524   3.338   2.246   0.127
 5875SOL    HW218525   3.299   2.315   0.269
 5876SOL     OW18526   3.844   3.343   2.170
 5876SOL    HW118527   3.918   3.279   2.190
 5876SOL    HW218528   3.859   3.385   2.081
 5877SOL     OW18529   6.037   6.265   0.892
 5877SOL    HW118530   6.136   6.251   0.897
 5877SOL    HW218531   5.997   6.244   0.981
 5878SOL     OW18532   1.350   5.344   2.718
 5878SOL    HW118533   1.446   5.329   2.742
 5878SOL    HW218534   1.301   5.379   2.799
 5879SOL     OW18535   6.284   3.903   0.051
 5879SOL    HW118536   6.241   3.967   7.009
 5879SOL    HW218537   6.239   3.814   0.046
 5880SOL     OW18538   2.706   6.276   1.171
 5880SOL    HW118539   2.728   6.306   1.079
 5880SOL    HW218540   2.721   6.351   1.235
 5881SOL     OW18541   0.495   4.319   3.556
 5881SOL    HW118542   0.447   4.253   3.614
 5881SOL    HW218543   0.499   4.284   3.463
 5882SOL     OW18544   5.245   0.480   0.919
 5882SOL    HW118545   5.244   0.554   0.852
 5882SOL    HW218546   5.182   0.503   0.994
 5883SOL     OW18547   0.064   2.744   6.367
 5883SOL    HW118548   0.082   2.743   6.268
 5883SOL    HW218549   0.121   2.675   6.411
 5884SOL     OW18550   1.249   1.283   3.305
 5884SOL    HW118551   1.224   1.348   3.234
 5884SOL    HW218552   1.317   1.324   3.366
 5885SOL     OW18553   6.330   6.897   1.102
 5885SOL    HW118554   6.374   6.972   1.052
 5885SOL    HW218555   6.300   6.929   1.192
 5886SOL     OW18556   0.620   2.512   5.313
 5886SOL    HW118557   0.560   2.458   5.371
 5886SOL    HW218558   0.629   2.604   5.350
 5887SOL     OW18559   3.798   0.848   4.162
 5887SOL    HW118560   3.796   0.749   4.156
 5887SOL    HW218561   3.705   0.884   4.154
 5888SOL     OW18562   2.228   6.232   2.580
 5888SOL    HW118563   2.225   6.140   2.620
 5888SOL    HW218564   2.159   6.240   2.509
 5889SOL     OW18565   2.286   0.460   1.332
 5889SOL    HW118566   2.333   0.525   1.272
 5889SOL    HW218567   2.354   0.399   1.373
 5890SOL     OW18568   0.911   6.897   5.359
 5890SOL    HW118569   0.839   6.876   5.425
 5890SOL    HW218570   0.975   6.820   5.355
 5891SOL     OW18571   3.760   3.469   6.776
 5891SOL    HW118572   3.664   3.491   6.797
 5891SOL    HW218573   3.817   3.491   6.855
 5892SOL     OW18574   1.101   6.151   1.144
 5892SOL    HW118575   1.034   6.213   1.184
 5892SOL    HW218576   1.059   6.099   1.069
 5893SOL     OW18577   1.358   3.095   3.300
 5893SOL    HW118578   1.425   3.135   3.238
 5893SOL    HW218579   1.402   3.068   3.385
 5894SOL     OW18580   1.507   4.319   3.495
 5894SOL    HW118581   1.482   4.416   3.499
 5894SOL    HW218582   1.545   4.298   3.405
 5895SOL     OW18583   5.438   2.426   5.178
 5895SOL    HW118584   5.502   2.353   5.202
 5895SOL    HW218585   5.476   2.514   5.206
 5896SOL     OW18586   3.899   2.032   6.699
 5896SOL    HW118587   3.822   1.983   6.738
 5896SOL    HW218588   3.984   1.986   6.725
 5897SOL     OW18589   4.103   0.123   1.219
 5897SOL    HW118590   4.101   0.217   1.253
 5897SOL    HW218591   4.010   0.087   1.216
 5898SOL     OW18592   0.975   0.013   1.576
 5898SOL    HW118593   0.925   0.012   1.490
 5898SOL    HW218594   1.014   6.944   1.593
 5899SOL     OW18595   6.422   0.102   5.295
 5899SOL    HW118596   6.372   0.188   5.289
 5899SOL    HW218597   6.371   0.038   5.353
 5900SOL     OW18598   4.522   4.902   2.808
 5900SOL    HW118599   4.609   4.927   2.765
 5900SOL    HW218600   4.512   4.950   2.895
 5901SOL     OW18601   1.928   6.954   6.808
 5901SOL    HW118602   1.973   7.001   6.732
 5901SOL    HW218603   1.966   6.987   6.895
 5902SOL     OW18604   6.902   2.001   0.967
 5902SOL    HW118605   6.872   2.049   1.050
 5902SOL    HW218606   6.848   1.918   0.956
 5903SOL     OW18607   5.921   4.498   0.728
 5903SOL    HW118608   5.885   4.517   0.819
 5903SOL    HW218609   5.846   4.500   0.662
 5904SOL     OW18610   0.471   3.461   2.391
 5904SOL    HW118611   0.508   3.488   2.302
 5904SOL    HW218612   0.373   3.484   2.395
 5905SOL     OW18613   6.613   6.673   3.064
 5905SOL    HW118614   6.621   6.623   2.977
 5905SOL    HW218615   6.702   6.713   3.087
 5906SOL     OW18616   5.685   0.484   3.679
 5906SOL    HW118617   5.694   0.546   3.758
 5906SOL    HW218618   5.773   0.439   3.662
 5907SOL     OW18619   1.061   6.186   1.542
 5907SOL    HW118620   1.106   6.125   1.477
 5907SOL    HW218621   0.968   6.152   1.559
 5908SOL     OW18622   0.756   1.952   5.531
 5908SOL    HW118623   0.789   1.985   5.442
 5908SOL    HW218624   0.708   1.865   5.517
 5909SOL     OW18625   1.104   5.958   0.194
 5909SOL    HW118626   1.029   5.922   0.249
 5909SOL    HW218627   1.098   5.921   0.102
 5910SOL     OW18628   1.199   2.584   3.299
 5910SOL    HW118629   1.188   2.487   3.279
 5910SOL    HW218630   1.254   2.595   3.383
 5911SOL     OW18631   6.891   5.848   6.456
 5911SOL    HW118632   6.865   5.872   6.550
 5911SOL    HW218633   6.866   5.923   6.394
 5912SOL     OW18634   6.247   1.587   5.411
 5912SOL    HW118635   6.342   1.608   5.434
 5912SOL    HW218636   6.199   1.671   5.388
 5913SOL     OW18637   5.347   2.738   0.285
 5913SOL    HW118638   5.269   2.771   0.233
 5913SOL    HW218639   5.315   2.689   0.366
 5914SOL     OW18640   0.823   0.075   6.752
 5914SOL    HW118641   0.902   0.091   6.810
 5914SOL    HW218642   0.822   7.001   6.723
 5915SOL     OW18643   2.964   6.483   6.839
 5915SOL    HW118644   3.050   6.459   6.884
 5915SOL    HW218645   2.972   6.467   6.740
 5916SOL     OW18646   0.341   6.719   1.851
 5916SOL    HW118647   0.338   6.736   1.949
 5916SOL    HW218648   0.408   6.780   1.808
 5917SOL     OW18649   3.058   3.828   6.153
 5917SOL    HW118650   3.128   3.822   6.082
 5917SOL    HW218651   2.969   3.847   6.111
 5918SOL     OW18652   2.438   5.891   5.872
 5918SOL    HW118653   2.461   5.861   5.780
 5918SOL    HW218654   2.492   5.971   5.896
 5919SOL     OW18655   3.031   3.481   3.324
 5919SOL    HW118656   3.130   3.481   3.327
 5919SOL    HW218657   2.996   3.399   3.371
 5920SOL     OW18658   5.369   1.380   6.122
 5920SOL    HW118659   5.444   1.344   6.067
 5920SOL    HW218660   5.379   1.348   6.216
 5921SOL     OW18661   4.013   4.674   6.652
 5921SOL    HW118662   4.026   4.682   6.751
 5921SOL    HW218663   4.096   4.706   6.605
 5922SOL     OW18664   6.039   3.771   3.826
 5922SOL    HW118665   5.961   3.735   3.774
 5922SOL    HW218666   6.017   3.771   3.924
 5923SOL     OW18667   6.485   1.152   1.624
 5923SOL    HW118668   6.444   1.118   1.709
 5923SOL    HW218669   6.570   1.103   1.606
 5924SOL     OW18670   5.778   6.694   2.949
 5924SOL    HW118671   5.689   6.729   2.920
 5924SOL    HW218672   5.804   6.735   3.036
 5925SOL     OW18673   4.032   6.041   1.770
 5925SOL    HW118674   4.061   5.954   1.729
 5925SOL    HW218675   4.096   6.113   1.744
 5926SOL     OW18676   4.199   4.798   3.223
 5926SOL    HW118677   4.112   4.792   3.174
 5926SOL    HW218678   4.185   4.774   3.319
 5927SOL     OW18679   1.437   4.027   1.892
 5927SOL    HW118680   1.404   4.086   1.819
 5927SOL    HW218681   1.387   4.046   1.976
 5928SOL     OW18682   4.131   0.086   0.913
 5928SOL    HW118683   4.127   0.102   1.012
 5928SOL    HW218684   4.127   0.174   0.865
 5929SOL     OW18685   6.561   0.639   5.457
 5929SOL    HW118686   6.549   0.735   5.483
 5929SOL    HW218687   6.596   0.587   5.535
 5930SOL     OW18688   1.427   2.924   1.594
 5930SOL    HW118689   1.490   2.906   1.519
 5930SOL    HW218690   1.438   2.853   1.664
 5931SOL     OW18691   6.400   6.345   2.527
 5931SOL    HW118692   6.397   6.400   2.443
 5931SOL    HW218693   6.312   6.301   2.541
 5932SOL     OW18694   3.373   0.076   6.487
 5932SOL    HW118695   3.449   0.073   6.551
 5932SOL    HW218696   3.287   0.058   6.535
 5933SOL     OW18697   0.138   5.384   3.893
 5933SOL    HW118698   0.147   5.386   3.993
 5933SOL    HW218699   0.221   5.420   3.851
 5934SOL     OW18700   3.618   3.585   5.781
 5934SOL    HW118701   3.668   3.557   5.863
 5934SOL    HW218702   3.681   3.633   5.719
 5935SOL     OW18703   0.354   5.945   5.347
 5935SOL    HW118704   0.267   5.915   5.309
 5935SOL    HW218705   0.384   6.029   5.301
 5936SOL     OW18706   2.964   3.212   2.494
 5936SOL    HW118707   2.937   3.217   2.398
 5936SOL    HW218708   3.037   3.144   2.505
 5937SOL     OW18709   6.863   2.641   1.779
 5937SOL    HW118710   6.842   2.543   1.788
 5937SOL    HW218711   6.801   2.682   1.712
 5938SOL     OW18712   5.962   5.681   5.022
 5938SOL    HW118713   5.864   5.693   5.038
 5938SOL    HW218714   5.983   5.703   4.926
 5939SOL     OW18715   3.261   6.011   4.060
 5939SOL    HW118716   3.253   5.929   4.116
 5939SOL    HW218717   3.347   6.009   4.009
 5940SOL     OW18718   4.399   4.943   3.094
 5940SOL    HW118719   4.342   4.877   3.143
 5940SOL    HW218720   4.494   4.933   3.124
 5941SOL     OW18721   6.046   2.587   2.935
 5941SOL    HW118722   5.987   2.518   2.894
 5941SOL    HW218723   6.135   2.546   2.955
 5942SOL     OW18724   5.835   2.927   6.166
 5942SOL    HW118725   5.746   2.952   6.127
 5942SOL    HW218726   5.898   2.903   6.092
 5943SOL     OW18727   4.169   3.720   0.441
 5943SOL    HW118728   4.177   3.677   0.351
 5943SOL    HW218729   4.135   3.653   0.507
 5944SOL     OW18730   0.566   2.659   0.266
 5944SOL    HW118731   0.622   2.684   0.187
 5944SOL    HW218732   0.516   2.740   0.298
 5945SOL     OW18733   0.281   6.291   5.139
 5945SOL    HW118734   0.301   6.350   5.061
 5945SOL    HW218735   0.336   6.318   5.218
 5946SOL     OW18736   3.400   4.682   6.902
 5946SOL    HW118737   3.371   4.696   6.996
 5946SOL    HW218738   3.493   4.719   6.890
 5947SOL     OW18739   3.019   3.156   4.587
 5947SOL    HW118740   2.972   3.244   4.581
 5947SOL    HW218741   3.042   3.125   4.495
 5948SOL     OW18742   4.821   4.507   2.241
 5948SOL    HW118743   4.882   4.434   2.211
 5948SOL    HW218744   4.726   4.483   2.219
 5949SOL     OW18745   6.057   5.548   1.312
 5949SOL    HW118746   6.035   5.451   1.319
 5949SOL    HW218747   6.139   5.567   1.367
 5950SOL     OW18748   5.213   2.276   5.368
 5950SOL    HW118749   5.304   2.259   5.329
 5950SOL    HW218750   5.199   2.374   5.380
 5951SOL     OW18751   0.884   5.529   5.171
 5951SOL    HW118752   0.895   5.617   5.215
 5951SOL    HW218753   0.953   5.518   5.100
 5952SOL     OW18754   4.074   5.334   3.241
 5952SOL    HW118755   4.027   5.413   3.281
 5952SOL    HW218756   4.032   5.311   3.154
 5953SOL     OW18757   6.407   3.349   4.590
 5953SOL    HW118758   6.373   3.255   4.581
 5953SOL    HW218759   6.412   3.391   4.499
 5954SOL     OW18760   0.393   5.274   5.650
 5954SOL    HW118761   0.483   5.274   5.692
 5954SOL    HW218762   0.361   5.180   5.639
 5955SOL     OW18763   4.451   5.501   1.451
 5955SOL    HW118764   4.419   5.589   1.416
 5955SOL    HW218765   4.551   5.500   1.452
 5956SOL     OW18766   5.458   2.138   4.063
 5956SOL    HW118767   5.523   2.107   4.132
 5956SOL    HW218768   5.370   2.093   4.078
 5957SOL     OW18769   1.637   1.115   3.310
 5957SOL    HW118770   1.723   1.065   3.302
 5957SOL    HW218771   1.649   1.192   3.373
 5958SOL     OW18772   3.895   0.652   3.128
 5958SOL    HW118773   3.938   0.562   3.136
 5958SOL    HW218774   3.814   0.656   3.187
 5959SOL     OW18775   4.467   2.802   5.462
 5959SOL    HW118776   4.397   2.775   5.529
 5959SOL    HW218777   4.452   2.898   5.436
 5960SOL     OW18778   2.825   6.521   4.577
 5960SOL    HW118779   2.796   6.616   4.564
 5960SOL    HW218780   2.922   6.513   4.557
 5961SOL     OW18781   3.683   1.713   2.537
 5961SOL    HW118782   3.752   1.684   2.603
 5961SOL    HW218783   3.727   1.747   2.455
 5962SOL     OW18784   5.266   6.174   6.061
 5962SOL    HW118785   5.248   6.233   6.139
 5962SOL    HW218786   5.199   6.100   6.059
 5963SOL     OW18787   3.523   4.437   0.041
 5963SOL    HW118788   3.435   4.458   7.018
 5963SOL    HW218789   3.541   4.339   0.034
 5964SOL     OW18790   2.302   6.941   3.204
 5964SOL    HW118791   2.400   6.948   3.187
 5964SOL    HW218792   2.255   6.910   3.121
 5965SOL     OW18793   1.986   0.196   6.250
 5965SOL    HW118794   2.044   0.243   6.183
 5965SOL    HW218795   1.969   0.256   6.327
 5966SOL     OW18796   1.485   0.047   5.586
 5966SOL    HW118797   1.433   0.108   5.526
 5966SOL    HW218798   1.582   0.049   5.560
 5967SOL     OW18799   2.686   1.625   5.198
 5967SOL    HW118800   2.594   1.630   5.237
 5967SOL    HW218801   2.709   1.530   5.180
 5968SOL     OW18802   5.546   2.358   0.681
 5968SOL    HW118803   5.507   2.266   0.686
 5968SOL    HW218804   5.508   2.415   0.753
 5969SOL     OW18805   4.801   1.006   6.553
 5969SOL    HW118806   4.801   0.913   6.591
 5969SOL    HW218807   4.784   1.072   6.625
 5970SOL     OW18808   0.324   4.358   0.676
 5970SOL    HW118809   0.228   4.349   0.652
 5970SOL    HW218810   0.374   4.278   0.645
 5971SOL     OW18811   6.076   0.045   2.028
 5971SOL    HW118812   6.123   7.018   2.102
 5971SOL    HW218813   6.033   0.127   2.064
 5972SOL     OW18814   5.408   5.381   6.534
 5972SOL    HW118815   5.377   5.391   6.440
 5972SOL    HW218816   5.419   5.284   6.556
 5973SOL     OW18817   2.101   3.717   2.671
 5973SOL    HW118818   2.100   3.635   2.613
 5973SOL    HW218819   2.129   3.796   2.617
 5974SOL     OW18820   5.056   0.343   0.001
 5974SOL    HW118821   5.022   0.433   6.995
 5974SOL    HW218822   5.156   0.340   7.011
 5975SOL     OW18823   4.953   5.537   1.478
 5975SOL    HW118824   4.857   5.518   1.499
 5975SOL    HW218825   4.963   5.632   1.449
 5976SOL     OW18826   3.348   3.593   5.788
 5976SOL    HW118827   3.448   3.587   5.783
 5976SOL    HW218828   3.311   3.502   5.808
 5977SOL     OW18829   0.739   5.648   0.265
 5977SOL    HW118830   0.818   5.641   0.325
 5977SOL    HW218831   0.759   5.604   0.178
 5978SOL     OW18832   3.719   5.244   0.668
 5978SOL    HW118833   3.662   5.291   0.600
 5978SOL    HW218834   3.660   5.202   0.737
 5979SOL     OW18835   6.131   0.625   1.966
 5979SOL    HW118836   6.069   0.547   1.953
 5979SOL    HW218837   6.225   0.595   1.953
 5980SOL     OW18838   3.350   2.840   2.063
 5980SOL    HW118839   3.256   2.855   2.094
 5980SOL    HW218840   3.350   2.794   1.974
 5981SOL     OW18841   4.873   1.632   0.257
 5981SOL    HW118842   4.855   1.538   0.228
 5981SOL    HW218843   4.792   1.688   0.241
 5982SOL     OW18844   5.618   2.077   2.642
 5982SOL    HW118845   5.657   1.997   2.596
 5982SOL    HW218846   5.657   2.160   2.603
 5983SOL     OW18847   1.519   0.722   3.739
 5983SOL    HW118848   1.531   0.778   3.821
 5983SOL    HW218849   1.423   0.695   3.730
 5984SOL     OW18850   5.866   6.235   3.813
 5984SOL    HW118851   5.775   6.258   3.780
 5984SOL    HW218852   5.861   6.208   3.909
 5985SOL     OW18853   6.235   2.584   3.766
 5985SOL    HW118854   6.313   2.551   3.714
 5985SOL    HW218855   6.209   2.675   3.734
 5986SOL     OW18856   4.054   3.728   5.865
 5986SOL    HW118857   4.093   3.769   5.782
 5986SOL    HW218858   4.101   3.763   5.945
 5987SOL     OW18859   6.127   0.613   4.286
 5987SOL    HW118860   6.174   0.681   4.344
 5987SOL    HW218861   6.084   0.660   4.209
 5988SOL     OW18862   3.350   1.066   6.477
 5988SOL    HW118863   3.274   1.071   6.412
 5988SOL    HW218864   3.408   0.987   6.456
 5989SOL     OW18865   1.927   5.531   6.184
 5989SOL    HW118866   1.879   5.496   6.104
 5989SOL    HW218867   1.992   5.602   6.157
 5990SOL     OW18868   3.610   3.619   1.075
 5990SOL    HW118869   3.615   3.626   0.975
 5990SOL    HW218870   3.684   3.560   1.107
 5991SOL     OW18871   4.104   5.749   0.056
 5991SOL    HW118872   4.006   5.765   0.055
 5991SOL    HW218873   4.127   5.673   7.016
 5992SOL     OW18874   3.066   6.961   2.515
 5992SOL    HW118875   3.102   6.974   2.422
 5992SOL    HW218876   3.124   6.895   2.564
 5993SOL     OW18877   5.797   3.971   6.279
 5993SOL    HW118878   5.885   4.003   6.242
 5993SOL    HW218879   5.731   3.963   6.205
 5994SOL     OW18880   0.034   2.671   0.897
 5994SOL    HW118881   0.068   2.579   0.881
 5994SOL    HW218882   6.968   2.667   0.945
 5995SOL     OW18883   4.494   3.058   1.640
 5995SOL    HW118884   4.523   3.032   1.732
 5995SOL    HW218885   4.488   2.977   1.583
 5996SOL     OW18886   1.946   5.820   1.354
 5996SOL    HW118887   2.001   5.798   1.435
 5996SOL    HW218888   2.007   5.831   1.275
 5997SOL     OW18889   0.423   6.559   3.633
 5997SOL    HW118890   0.388   6.589   3.721
 5997SOL    HW218891   0.460   6.638   3.584
 5998SOL     OW18892   5.479   0.758   1.744
 5998SOL    HW118893   5.488   0.694   1.667
 5998SOL    HW218894   5.507   0.849   1.714
 5999SOL     OW18895   3.431   3.537   1.251
 5999SOL    HW118896   3.452   3.565   1.345
 5999SOL    HW218897   3.504   3.569   1.190
 6000SOL     OW18898   0.491   5.965   6.900
 6000SOL    HW118899   0.460   5.895   6.835
 6000SOL    HW218900   0.435   6.047   6.890
 6001SOL     OW18901   5.316   6.008   0.007
 6001SOL    HW118902   5.372   5.948   0.064
 6001SOL    HW218903   5.363   6.094   7.013
 6002SOL     OW18904   0.016   0.055   5.800
 6002SOL    HW118905   6.968   7.010   5.773
 6002SOL    HW218906   6.993   0.142   5.823
 6003SOL     OW18907   6.257   2.715   4.561
 6003SOL    HW118908   6.237   2.810   4.537
 6003SOL    HW218909   6.233   2.699   4.657
 6004SOL     OW18910   6.126   2.876   3.373
 6004SOL    HW118911   6.104   2.830   3.287
 6004SOL    HW218912   6.093   2.821   3.450
 6005SOL     OW18913   5.391   4.794   5.158
 6005SOL    HW118914   5.369   4.727   5.087
 6005SOL    HW218915   5.311   4.808   5.216
 6006SOL     OW18916   3.504   0.062   5.162
 6006SOL    HW118917   3.501   0.150   5.115
 6006SOL    HW218918   3.434   0.001   5.124
 6007SOL     OW18919   6.953   3.292   6.929
 6007SOL    HW118920   6.979   3.287   6.832
 6007SOL    HW218921   6.882   3.360   6.941
 6008SOL     OW18922   2.224   4.510   5.461
 6008SOL    HW118923   2.309   4.554   5.432
 6008SOL    HW218924   2.158   4.579   5.489
 6009SOL     OW18925   4.636   5.667   3.786
 6009SOL    HW118926   4.553   5.686   3.734
 6009SOL    HW218927   4.633   5.573   3.821
 6010SOL     OW18928   0.564   3.951   4.265
 6010SOL    HW118929   0.598   3.931   4.357
 6010SOL    HW218930   0.531   3.867   4.222
 6011SOL     OW18931   4.713   2.697   2.618
 6011SOL    HW118932   4.735   2.715   2.714
 6011SOL    HW218933   4.691   2.600   2.606
 6012SOL     OW18934   5.990   0.654   0.275
 6012SOL    HW118935   6.045   0.736   0.290
 6012SOL    HW218936   5.941   0.631   0.359
 6013SOL     OW18937   4.694   1.203   2.814
 6013SOL    HW118938   4.690   1.149   2.898
 6013SOL    HW218939   4.633   1.281   2.821
 6014SOL     OW18940   3.320   3.843   4.123
 6014SOL    HW118941   3.358   3.935   4.131
 6014SOL    HW218942   3.307   3.805   4.215
 6015SOL     OW18943   6.005   3.369   4.395
 6015SOL    HW118944   6.023   3.391   4.299
 6015SOL    HW218945   5.913   3.399   4.419
 6016SOL     OW18946   5.217   1.975   5.829
 6016SOL    HW118947   5.287   2.019   5.885
 6016SOL    HW218948   5.149   2.042   5.801
 6017SOL     OW18949   0.368   4.007   5.065
 6017SOL    HW118950   0.447   3.992   5.005
 6017SOL    HW218951   0.295   4.053   5.013
 6018SOL     OW18952   3.348   1.063   4.917
 6018SOL    HW118953   3.281   1.108   4.977
 6018SOL    HW218954   3.360   1.117   4.834
 6019SOL     OW18955   0.604   3.515   5.925
 6019SOL    HW118956   0.698   3.491   5.950
 6019SOL    HW218957   0.605   3.594   5.863
 6020SOL     OW18958   0.973   5.027   0.710
 6020SOL    HW118959   0.999   5.053   0.803
 6020SOL    HW218960   0.989   5.103   0.648
 6021SOL     OW18961   4.883   0.244   2.894
 6021SOL    HW118962   4.867   0.304   2.816
 6021SOL    HW218963   4.883   0.298   2.978
 6022SOL     OW18964   6.380   1.815   3.398
 6022SOL    HW118965   6.319   1.894   3.399
 6022SOL    HW218966   6.384   1.778   3.305
 6023SOL     OW18967   5.299   0.084   1.338
 6023SOL    HW118968   5.355   0.098   1.420
 6023SOL    HW218969   5.337   0.137   1.263
 6024SOL     OW18970   0.441   4.750   0.559
 6024SOL    HW118971   0.415   4.659   0.526
 6024SOL    HW218972   0.537   4.750   0.587
 6025SOL     OW18973   3.036   1.038   3.602
 6025SOL    HW118974   3.047   1.104   3.677
 6025SOL    HW218975   2.939   1.032   3.578
 6026SOL     OW18976   6.297   4.805   4.652
 6026SOL    HW118977   6.203   4.833   4.669
 6026SOL    HW218978   6.313   4.797   4.554
 6027SOL     OW18979   6.291   3.672   6.173
 6027SOL    HW118980   6.343   3.755   6.191
 6027SOL    HW218981   6.268   3.668   6.076
 6028SOL     OW18982   5.527   5.174   1.223
 6028SOL    HW118983   5.483   5.262   1.241
 6028SOL    HW218984   5.545   5.128   1.310
 6029SOL     OW18985   2.007   6.710   3.513
 6029SOL    HW118986   1.931   6.765   3.477
 6029SOL    HW218987   2.065   6.681   3.438
 6030SOL     OW18988   4.914   3.691   4.776
 6030SOL    HW118989   4.848   3.655   4.843
 6030SOL    HW218990   4.997   3.635   4.778
 6031SOL     OW18991   1.968   5.589   3.723
 6031SOL    HW118992   2.033   5.526   3.681
 6031SOL    HW218993   1.888   5.539   3.756
 6032SOL     OW18994   2.960   5.286   3.178
 6032SOL    HW118995   2.966   5.383   3.153
 6032SOL    HW218996   3.033   5.236   3.133
 6033SOL     OW18997   2.217   2.558   2.289
 6033SOL    HW118998   2.156   2.479   2.283
 6033SOL    HW218999   2.255   2.563   2.382
 6034SOL     OW19000   0.886   0.417   6.382
 6034SOL    HW119001   0.946   0.483   6.337
 6034SOL    HW219002   0.792   0.451   6.380
 6035SOL     OW19003   0.843   0.550   2.808
 6035SOL    HW119004   0.847   0.640   2.853
 6035SOL    HW219005   0.937   0.517   2.794
 6036SOL     OW19006   6.085   4.723   1.388
 6036SOL    HW119007   6.174   4.678   1.383
 6036SOL    HW219008   6.094   4.809   1.439
 6037SOL     OW19009   3.996   0.350   1.055
 6037SOL    HW119010   4.043   0.357   1.143
 6037SOL    HW219011   4.035   0.416   0.991
 6038SOL     OW19012   0.424   2.348   6.360
 6038SOL    HW119013   0.359   2.282   6.323
 6038SOL    HW219014   0.455   2.316   6.450
 6039SOL     OW19015   3.724   3.878   4.161
 6039SOL    HW119016   3.649   3.897   4.224
 6039SOL    HW219017   3.706   3.792   4.112
 6040SOL     OW19018   1.483   1.245   6.853
 6040SOL    HW119019   1.576   1.223   6.880
 6040SOL    HW219020   1.428   1.265   6.934
 6041SOL     OW19021   3.151   2.875   5.306
 6041SOL    HW119022   3.209   2.953   5.280
 6041SOL    HW219023   3.187   2.791   5.266
 6042SOL     OW19024   4.039   6.307   3.194
 6042SOL    HW119025   4.011   6.262   3.110
 6042SOL    HW219026   4.131   6.278   3.219
 6043SOL     OW19027   1.083   0.438   4.244
 6043SOL    HW119028   1.098   0.473   4.337
 6043SOL    HW219029   1.158   0.468   4.185
 6044SOL     OW19030   2.120   2.135   1.885
 6044SOL    HW119031   2.202   2.156   1.834
 6044SOL    HW219032   2.053   2.209   1.874
 6045SOL     OW19033   4.833   3.051   3.881
 6045SOL    HW119034   4.822   3.015   3.974
 6045SOL    HW219035   4.832   2.976   3.816
 6046SOL     OW19036   3.288   2.870   0.957
 6046SOL    HW119037   3.346   2.911   0.887
 6046SOL    HW219038   3.296   2.921   1.042
 6047SOL     OW19039   5.520   2.255   1.554
 6047SOL    HW119040   5.472   2.282   1.471
 6047SOL    HW219041   5.603   2.205   1.529
 6048SOL     OW19042   5.157   5.519   5.334
 6048SOL    HW119043   5.168   5.511   5.433
 6048SOL    HW219044   5.084   5.585   5.314
 6049SOL     OW19045   5.722   4.618   5.971
 6049SOL    HW119046   5.780   4.699   5.980
 6049SOL    HW219047   5.701   4.604   5.874
 6050SOL     OW19048   3.006   4.995   0.881
 6050SOL    HW119049   2.917   4.966   0.846
 6050SOL    HW219050   3.077   4.935   0.844
 6051SOL     OW19051   1.502   0.669   2.901
 6051SOL    HW119052   1.445   0.740   2.859
 6051SOL    HW219053   1.548   0.616   2.830
 6052SOL     OW19054   5.328   0.800   1.454
 6052SOL    HW119055   5.257   0.860   1.416
 6052SOL    HW219056   5.321   0.710   1.412
 6053SOL     OW19057   4.122   0.319   6.359
 6053SOL    HW119058   4.027   0.306   6.388
 6053SOL    HW219059   4.124   0.340   6.261
 6054SOL     OW19060   3.564   5.040   0.825
 6054SOL    HW119061   3.559   5.033   0.925
 6054SOL    HW219062   3.473   5.056   0.788
 6055SOL     OW19063   3.349   5.523   6.194
 6055SOL    HW119064   3.445   5.542   6.173
 6055SOL    HW219065   3.340   5.427   6.220
 6056SOL     OW19066   5.792   2.704   5.160
 6056SOL    HW119067   5.796   2.684   5.062
 6056SOL    HW219068   5.696   2.709   5.189
 6057SOL     OW19069   5.957   0.848   2.152
 6057SOL    HW119070   5.920   0.880   2.065
 6057SOL    HW219071   6.053   0.822   2.139
 6058SOL     OW19072   5.522   3.360   0.250
 6058SOL    HW119073   5.560   3.389   0.338
 6058SOL    HW219074   5.428   3.394   0.242
 6059SOL     OW19075   4.824   3.987   5.538
 6059SOL    HW119076   4.903   4.021   5.486
 6059SOL    HW219077   4.856   3.947   5.623
 6060SOL     OW19078   3.015   3.104   0.227
 6060SOL    HW119079   3.045   3.014   0.195
 6060SOL    HW219080   2.988   3.098   0.323
 6061SOL     OW19081   4.529   4.736   0.760
 6061SOL    HW119082   4.455   4.738   0.694
 6061SOL    HW219083   4.596   4.666   0.734
 6062SOL     OW19084   2.463   2.059   6.452
 6062SOL    HW119085   2.462   2.155   6.479
 6062SOL    HW219086   2.445   2.052   6.354
 6063SOL     OW19087   3.478   4.210   5.646
 6063SOL    HW119088   3.512   4.125   5.687
 6063SOL    HW219089   3.496   4.286   5.709
 6064SOL     OW19090   0.931   0.416   1.105
 6064SOL    HW119091   0.957   0.319   1.107
 6064SOL    HW219092   1.012   0.473   1.109
 6065SOL     OW19093   0.613   5.866   1.389
 6065SOL    HW119094   0.704   5.908   1.384
 6065SOL    HW219095   0.555   5.919   1.451
 6066SOL     OW19096   5.269   0.900   4.174
 6066SOL    HW119097   5.177   0.889   4.136
 6066SOL    HW219098   5.307   0.989   4.146
 6067SOL     OW19099   4.876   1.346   5.716
 6067SOL    HW119100   4.963   1.325   5.761
 6067SOL    HW219101   4.815   1.267   5.725
 6068SOL     OW19102   5.148   2.480   5.116
 6068SOL    HW119103   5.157   2.577   5.094
 6068SOL    HW219104   5.237   2.442   5.141
 6069SOL     OW19105   6.615   3.222   6.181
 6069SOL    HW119106   6.618   3.214   6.081
 6069SOL    HW219107   6.582   3.136   6.220
 6070SOL     OW19108   3.670   2.497   1.482
 6070SOL    HW119109   3.649   2.526   1.575
 6070SOL    HW219110   3.759   2.450   1.480
 6071SOL     OW19111   0.519   5.836   4.355
 6071SOL    HW119112   0.420   5.837   4.361
 6071SOL    HW219113   0.554   5.748   4.388
 6072SOL     OW19114   6.660   1.607   1.417
 6072SOL    HW119115   6.757   1.605   1.394
 6072SOL    HW219116   6.634   1.523   1.464
 6073SOL     OW19117   4.966   2.888   0.837
 6073SOL    HW119118   4.944   2.794   0.864
 6073SOL    HW219119   4.888   2.928   0.789
 6074SOL     OW19120   1.917   0.114   1.983
 6074SOL    HW119121   1.918   0.014   1.989
 6074SOL    HW219122   1.849   0.143   1.917
 6075SOL     OW19123   4.823   0.099   5.752
 6075SOL    HW119124   4.816   0.175   5.688
 6075SOL    HW219125   4.852   0.017   5.704
 6076SOL     OW19126   2.782   5.176   3.341
 6076SOL    HW119127   2.704   5.204   3.285
 6076SOL    HW219128   2.866   5.214   3.304
 6077SOL     OW19129   5.333   6.386   0.877
 6077SOL    HW119130   5.419   6.377   0.927
 6077SOL    HW219131   5.266   6.321   0.912
 6078SOL     OW19132   4.455   4.560   0.954
 6078SOL    HW119133   4.502   4.565   1.042
 6078SOL    HW219134   4.499   4.623   0.889
 6079SOL     OW19135   4.887   4.887   6.226
 6079SOL    HW119136   4.818   4.959   6.236
 6079SOL    HW219137   4.860   4.827   6.150
 6080SOL     OW19138   0.455   5.089   1.726
 6080SOL    HW119139   0.416   5.004   1.760
 6080SOL    HW219140   0.386   5.161   1.730
 6081SOL     OW19141   6.771   3.114   5.955
 6081SOL    HW119142   6.786   3.082   5.862
 6081SOL    HW219143   6.844   3.080   6.015
 6082SOL     OW19144   3.278   6.406   2.268
 6082SOL    HW119145   3.183   6.403   2.302
 6082SOL    HW219146   3.304   6.501   2.251
 6083SOL     OW19147   5.635   5.766   0.721
 6083SOL    HW119148   5.656   5.852   0.672
 6083SOL    HW219149   5.549   5.776   0.771
 6084SOL     OW19150   0.785   6.499   2.051
 6084SOL    HW119151   0.823   6.548   1.973
 6084SOL    HW219152   0.855   6.488   2.122
 6085SOL     OW19153   6.266   6.198   6.006
 6085SOL    HW119154   6.201   6.122   6.019
 6085SOL    HW219155   6.221   6.284   6.032
 6086SOL     OW19156   3.011   2.610   5.718
 6086SOL    HW119157   3.041   2.637   5.626
 6086SOL    HW219158   2.985   2.514   5.717
 6087SOL     OW19159   4.365   5.804   0.974
 6087SOL    HW119160   4.394   5.742   0.901
 6087SOL    HW219161   4.289   5.860   0.941
 6088SOL     OW19162   6.270   6.374   5.396
 6088SOL    HW119163   6.232   6.288   5.429
 6088SOL    HW219164   6.198   6.427   5.351
 6089SOL     OW19165   6.462   2.574   2.793
 6089SOL    HW119166   6.410   2.524   2.862
 6089SOL    HW219167   6.560   2.564   2.811
 6090SOL     OW19168   3.081   5.192   4.768
 6090SOL    HW119169   2.994   5.185   4.818
 6090SOL    HW219170   3.110   5.101   4.740
 6091SOL     OW19171   3.198   1.713   0.631
 6091SOL    HW119172   3.163   1.673   0.546
 6091SOL    HW219173   3.266   1.782   0.610
 6092SOL     OW19174   4.340   1.271   1.923
 6092SOL    HW119175   4.241   1.283   1.919
 6092SOL    HW219176   4.362   1.174   1.926
 6093SOL     OW19177   2.441   2.502   1.903
 6093SOL    HW119178   2.391   2.423   1.867
 6093SOL    HW219179   2.539   2.484   1.900
 6094SOL     OW19180   1.239   6.405   3.520
 6094SOL    HW119181   1.163   6.419   3.457
 6094SOL    HW219182   1.205   6.372   3.607
 6095SOL     OW19183   4.568   5.245   6.579
 6095SOL    HW119184   4.559   5.250   6.678
 6095SOL    HW219185   4.643   5.183   6.555
 6096SOL     OW19186   5.531   6.854   2.132
 6096SOL    HW119187   5.604   6.787   2.148
 6096SOL    HW219188   5.456   6.837   2.197
 6097SOL     OW19189   1.585   5.510   1.803
 6097SOL    HW119190   1.608   5.600   1.841
 6097SOL    HW219191   1.622   5.502   1.711
 6098SOL     OW19192   6.467   0.963   5.720
 6098SOL    HW119193   6.451   1.049   5.770
 6098SOL    HW219194   6.564   0.954   5.700
 6099SOL     OW19195   5.006   5.801   5.482
 6099SOL    HW119196   4.971   5.779   5.573
 6099SOL    HW219197   4.934   5.787   5.414
 6100SOL     OW19198   0.322   5.833   2.076
 6100SOL    HW119199   0.343   5.914   2.020
 6100SOL    HW219200   0.277   5.764   2.018
 6101SOL     OW19201   6.452   2.816   2.662
 6101SOL    HW119202   6.416   2.775   2.745
 6101SOL    HW219203   6.552   2.805   2.660
 6102SOL     OW19204   3.893   6.150   2.903
 6102SOL    HW119205   3.813   6.168   2.846
 6102SOL    HW219206   3.973   6.197   2.864
 6103SOL     OW19207   6.675   1.136   1.192
 6103SOL    HW119208   6.731   1.217   1.180
 6103SOL    HW219209   6.717   1.075   1.259
 6104SOL     OW19210   5.923   0.712   5.107
 6104SOL    HW119211   5.828   0.739   5.120
 6104SOL    HW219212   5.928   0.614   5.088
 6105SOL     OW19213   1.805   5.419   5.956
 6105SOL    HW119214   1.893   5.417   5.908
 6105SOL    HW219215   1.732   5.396   5.892
 6106SOL     OW19216   1.323   5.321   0.269
 6106SOL    HW119217   1.293   5.230   0.298
 6106SOL    HW219218   1.376   5.313   0.185
 6107SOL     OW19219   4.360   5.502   4.007
 6107SOL    HW119220   4.447   5.470   3.970
 6107SOL    HW219221   4.377   5.580   4.068
 6108SOL     OW19222   1.892   2.392   2.989
 6108SOL    HW119223   1.921   2.480   3.026
 6108SOL    HW219224   1.822   2.352   3.047
 6109SOL     OW19225   5.197   1.295   5.093
 6109SOL    HW119226   5.225   1.326   5.184
 6109SOL    HW219227   5.173   1.198   5.098
 6110SOL     OW19228   1.925   2.974   0.157
 6110SOL    HW119229   1.975   2.951   0.074
 6110SOL    HW219230   1.934   2.899   0.223
 6111SOL     OW19231   1.208   3.341   1.860
 6111SOL    HW119232   1.203   3.273   1.933
 6111SOL    HW219233   1.232   3.297   1.774
 6112SOL     OW19234   4.478   0.413   2.679
 6112SOL    HW119235   4.525   0.499   2.696
 6112SOL    HW219236   4.406   0.427   2.611
 6113SOL     OW19237   2.618   3.329   6.691
 6113SOL    HW119238   2.684   3.373   6.630
 6113SOL    HW219239   2.592   3.393   6.764
 6114SOL     OW19240   5.369   3.221   2.445
 6114SOL    HW119241   5.302   3.188   2.379
 6114SOL    HW219242   5.418   3.300   2.407
 6115SOL     OW19243   6.610   1.685   5.175
 6115SOL    HW119244   6.628   1.779   5.201
 6115SOL    HW219245   6.613   1.676   5.075
 6116SOL     OW19246   4.102   2.414   5.535
 6116SOL    HW119247   4.049   2.472   5.598
 6116SOL    HW219248   4.081   2.318   5.553
 6117SOL     OW19249   1.599   2.199   2.936
 6117SOL    HW119250   1.626   2.240   3.023
 6117SOL    HW219251   1.626   2.102   2.936
 6118SOL     OW19252   5.633   1.220   1.663
 6118SOL    HW119253   5.572   1.295   1.689
 6118SOL    HW219254   5.589   1.132   1.683
 6119SOL     OW19255   1.039   3.203   0.542
 6119SOL    HW119256   1.030   3.155   0.455
 6119SOL    HW219257   0.989   3.290   0.538
 6120SOL     OW19258   1.961   6.663   5.342
 6120SOL    HW119259   1.898   6.731   5.379
 6120SOL    HW219260   1.979   6.593   5.411
 6121SOL     OW19261   1.093   3.990   5.558
 6121SOL    HW119262   1.074   4.031   5.469
 6121SOL    HW219263   1.032   3.912   5.573
 6122SOL     OW19264   4.740   5.394   6.347
 6122SOL    HW119265   4.794   5.452   6.286
 6122SOL    HW219266   4.727   5.304   6.305
 6123SOL     OW19267   5.282   0.881   5.314
 6123SOL    HW119268   5.310   0.785   5.322
 6123SOL    HW219269   5.247   0.913   5.402
 6124SOL     OW19270   0.514   6.719   5.905
 6124SOL    HW119271   0.603   6.761   5.885
 6124SOL    HW219272   0.462   6.778   5.966
 6125SOL     OW19273   2.525   4.209   7.000
 6125SOL    HW119274   2.537   4.145   6.925
 6125SOL    HW219275   2.604   4.205   0.039
 6126SOL     OW19276   1.051   1.866   5.353
 6126SOL    HW119277   1.106   1.918   5.419
 6126SOL    HW219278   1.016   1.783   5.397
 6127SOL     OW19279   4.303   0.368   1.782
 6127SOL    HW119280   4.348   0.368   1.693
 6127SOL    HW219281   4.261   0.279   1.798
 6128SOL     OW19282   5.235   5.264   0.504
 6128SOL    HW119283   5.224   5.335   0.575
 6128SOL    HW219284   5.146   5.227   0.481
 6129SOL     OW19285   1.256   3.533   3.995
 6129SOL    HW119286   1.323   3.523   4.069
 6129SOL    HW219287   1.245   3.630   3.973
 6130SOL     OW19288   6.117   2.345   3.163
 6130SOL    HW119289   6.163   2.256   3.157
 6130SOL    HW219290   6.150   2.394   3.243
 6131SOL     OW19291   1.058   1.876   2.494
 6131SOL    HW119292   1.103   1.959   2.459
 6131SOL    HW219293   1.086   1.797   2.440
 6132SOL     OW19294   3.635   1.827   6.648
 6132SOL    HW119295   3.664   1.782   6.732
 6132SOL    HW219296   3.571   1.767   6.599
 6133SOL     OW19297   1.621   2.760   3.257
 6133SOL    HW119298   1.651   2.678   3.305
 6133SOL    HW219299   1.690   2.786   3.189
 6134SOL     OW19300   4.015   6.915   6.926
 6134SOL    HW119301   4.057   6.906   6.836
 6134SOL    HW219302   4.079   6.961   6.988
 6135SOL     OW19303   6.232   6.041   0.668
 6135SOL    HW119304   6.151   6.098   0.654
 6135SOL    HW219305   6.205   5.945   0.667
 6136SOL     OW19306   1.330   2.433   1.320
 6136SOL    HW119307   1.333   2.416   1.222
 6136SOL    HW219308   1.266   2.369   1.363
 6137SOL     OW19309   0.681   3.862   2.325
 6137SOL    HW119310   0.739   3.941   2.344
 6137SOL    HW219311   0.589   3.878   2.362
 6138SOL     OW19312   3.747   0.137   2.856
 6138SOL    HW119313   3.726   0.232   2.880
 6138SOL    HW219314   3.676   0.077   2.893
 6139SOL     OW19315   0.533   7.015   5.586
 6139SOL    HW119316   0.442   6.988   5.557
 6139SOL    HW219317   0.584   0.029   5.508
 6140SOL     OW19318   0.258   1.441   3.143
 6140SOL    HW119319   0.194   1.506   3.184
 6140SOL    HW219320   0.232   1.348   3.168
 6141SOL     OW19321   0.804   0.511   5.807
 6141SOL    HW119322   0.834   0.530   5.713
 6141SOL    HW219323   0.845   0.425   5.838
 6142SOL     OW19324   1.060   0.012   6.050
 6142SOL    HW119325   0.960   0.013   6.042
 6142SOL    HW219326   1.089   6.947   6.092
 6143SOL     OW19327   6.986   4.257   1.036
 6143SOL    HW119328   0.045   4.303   1.070
 6143SOL    HW219329   7.007   4.212   0.949
 6144SOL     OW19330   5.270   4.411   3.058
 6144SOL    HW119331   5.276   4.438   3.154
 6144SOL    HW219332   5.195   4.461   3.015
 6145SOL     OW19333   5.653   4.822   4.377
 6145SOL    HW119334   5.660   4.792   4.282
 6145SOL    HW219335   5.557   4.825   4.405
 6146SOL     OW19336   3.444   6.060   3.855
 6146SOL    HW119337   3.543   6.057   3.868
 6146SOL    HW219338   3.424   6.073   3.758
 6147SOL     OW19339   2.088   2.713   4.710
 6147SOL    HW119340   2.179   2.717   4.670
 6147SOL    HW219341   2.090   2.755   4.801
 6148SOL     OW19342   3.657   5.262   6.440
 6148SOL    HW119343   3.696   5.352   6.421
 6148SOL    HW219344   3.563   5.273   6.473
 6149SOL     OW19345   1.713   0.482   1.882
 6149SOL    HW119346   1.734   0.519   1.972
 6149SOL    HW219347   1.739   0.385   1.879
 6150SOL     OW19348   6.139   4.009   6.856
 6150SOL    HW119349   6.163   4.087   6.799
 6150SOL    HW219350   6.064   3.958   6.814
 6151SOL     OW19351   5.022   5.262   4.590
 6151SOL    HW119352   4.960   5.237   4.516
 6151SOL    HW219353   5.106   5.300   4.551
 6152SOL     OW19354   1.078   5.416   4.428
 6152SOL    HW119355   1.089   5.504   4.381
 6152SOL    HW219356   0.992   5.373   4.398
 6153SOL     OW19357   4.873   5.182   1.368
 6153SOL    HW119358   4.794   5.178   1.430
 6153SOL    HW219359   4.841   5.178   1.273
 6154SOL     OW19360   5.649   3.082   2.866
 6154SOL    HW119361   5.588   3.142   2.917
 6154SOL    HW219362   5.676   3.005   2.925
 6155SOL     OW19363   2.968   1.003   2.644
 6155SOL    HW119364   2.903   0.937   2.683
 6155SOL    HW219365   3.042   1.020   2.709
 6156SOL     OW19366   4.543   4.746   1.777
 6156SOL    HW119367   4.633   4.767   1.814
 6156SOL    HW219368   4.525   4.648   1.787
 6157SOL     OW19369   0.695   2.286   3.313
 6157SOL    HW119370   0.732   2.214   3.254
 6157SOL    HW219371   0.757   2.364   3.314
 6158SOL     OW19372   3.111   1.817   0.183
 6158SOL    HW119373   3.194   1.810   0.237
 6158SOL    HW219374   3.032   1.793   0.240
 6159SOL     OW19375   5.210   2.783   0.868
 6159SOL    HW119376   5.279   2.827   0.810
 6159SOL    HW219377   5.120   2.822   0.849
 6160SOL     OW19378   0.087   0.079   6.542
 6160SOL    HW119379   0.107   0.136   6.622
 6160SOL    HW219380   7.010   0.068   6.533
 6161SOL     OW19381   4.797   0.855   0.306
 6161SOL    HW119382   4.739   0.900   0.374
 6161SOL    HW219383   4.878   0.817   0.351
 6162SOL     OW19384   6.144   5.966   3.613
 6162SOL    HW119385   6.088   6.043   3.582
 6162SOL    HW219386   6.180   5.986   3.704
 6163SOL     OW19387   5.507   6.251   2.544
 6163SOL    HW119388   5.602   6.241   2.513
 6163SOL    HW219389   5.484   6.178   2.608
 6164SOL     OW19390   3.555   4.134   4.873
 6164SOL    HW119391   3.632   4.139   4.937
 6164SOL    HW219392   3.469   4.130   4.924
 6165SOL     OW19393   3.546   2.038   5.693
 6165SOL    HW119394   3.625   2.095   5.667
 6165SOL    HW219395   3.462   2.091   5.682
 6166SOL     OW19396   5.846   2.122   0.359
 6166SOL    HW119397   5.772   2.144   0.297
 6166SOL    HW219398   5.811   2.120   0.453
 6167SOL     OW19399   0.648   4.703   3.305
 6167SOL    HW119400   0.585   4.775   3.275
 6167SOL    HW219401   0.603   4.646   3.374
 6168SOL     OW19402   0.543   2.576   3.194
 6168SOL    HW119403   0.578   2.541   3.280
 6168SOL    HW219404   0.447   2.548   3.183
 6169SOL     OW19405   0.706   1.032   6.380
 6169SOL    HW119406   0.803   1.025   6.356
 6169SOL    HW219407   0.693   1.107   6.445
 6170SOL     OW19408   3.284   4.147   5.837
 6170SOL    HW119409   3.362   4.171   5.779
 6170SOL    HW219410   3.202   4.192   5.802
 6171SOL     OW19411   1.520   3.494   1.291
 6171SOL    HW119412   1.602   3.438   1.272
 6171SOL    HW219413   1.447   3.467   1.228
 6172SOL     OW19414   0.170   0.814   2.936
 6172SOL    HW119415   0.092   0.752   2.943
 6172SOL    HW219416   0.227   0.807   3.018
 6173SOL     OW19417   6.941   4.636   2.933
 6173SOL    HW119418   6.952   4.537   2.941
 6173SOL    HW219419   6.960   4.679   3.021
 6174SOL     OW19420   5.901   4.937   2.950
 6174SOL    HW119421   5.824   4.993   2.981
 6174SOL    HW219422   5.891   4.920   2.852
 6175SOL     OW19423   5.525   0.191   3.856
 6175SOL    HW119424   5.441   0.192   3.911
 6175SOL    HW219425   5.511   0.248   3.775
 6176SOL     OW19426   5.975   2.647   0.054
 6176SOL    HW119427   5.950   2.564   0.103
 6176SOL    HW219428   5.964   2.726   0.113
 6177SOL     OW19429   5.601   1.618   1.601
 6177SOL    HW119430   5.557   1.675   1.530
 6177SOL    HW219431   5.562   1.526   1.598
 6178SOL     OW19432   4.550   5.791   1.592
 6178SOL    HW119433   4.561   5.863   1.524
 6178SOL    HW219434   4.458   5.796   1.630
 6179SOL     OW19435   0.169   4.110   4.910
 6179SOL    HW119436   0.185   4.042   4.839
 6179SOL    HW219437   0.200   4.200   4.878
 6180SOL     OW19438   3.087   6.383   6.042
 6180SOL    HW119439   3.157   6.377   5.970
 6180SOL    HW219440   3.059   6.478   6.053
 6181SOL     OW19441   5.291   6.318   0.594
 6181SOL    HW119442   5.317   6.334   0.689
 6181SOL    HW219443   5.215   6.379   0.570
 6182SOL     OW19444   5.082   4.074   5.435
 6182SOL    HW119445   5.156   4.022   5.391
 6182SOL    HW219446   5.110   4.100   5.527
 6183SOL     OW19447   2.840   0.059   3.289
 6183SOL    HW119448   2.877   0.137   3.239
 6183SOL    HW219449   2.744   0.046   3.263
 6184SOL     OW19450   1.669   6.453   6.221
 6184SOL    HW119451   1.729   6.401   6.160
 6184SOL    HW219452   1.584   6.402   6.236
 6185SOL     OW19453   1.407   4.598   6.921
 6185SOL    HW119454   1.313   4.576   6.895
 6185SOL    HW219455   1.470   4.567   6.849
 6186SOL     OW19456   5.842   6.938   3.973
 6186SOL    HW119457   5.817   0.013   3.980
 6186SOL    HW219458   5.939   6.928   3.994
 6187SOL     OW19459   4.773   4.134   4.175
 6187SOL    HW119460   4.780   4.057   4.112
 6187SOL    HW219461   4.864   4.162   4.204
 6188SOL     OW19462   2.247   6.225   1.364
 6188SOL    HW119463   2.185   6.179   1.301
 6188SOL    HW219464   2.195   6.276   1.433
 6189SOL     OW19465   4.507   4.546   3.958
 6189SOL    HW119466   4.567   4.602   3.900
 6189SOL    HW219467   4.562   4.500   4.028
 6190SOL     OW19468   6.107   3.915   6.226
 6190SOL    HW119469   6.100   3.815   6.224
 6190SOL    HW219470   6.079   3.952   6.137
 6191SOL     OW19471   4.884   2.198   0.774
 6191SOL    HW119472   4.835   2.149   0.702
 6191SOL    HW219473   4.973   2.156   0.788
 6192SOL     OW19474   3.224   3.308   0.528
 6192SOL    HW119475   3.227   3.210   0.512
 6192SOL    HW219476   3.313   3.349   0.504
 6193SOL     OW19477   4.187   1.017   2.796
 6193SOL    HW119478   4.277   0.981   2.819
 6193SOL    HW219479   4.178   1.111   2.831
 6194SOL     OW19480   2.003   6.737   0.306
 6194SOL    HW119481   2.030   6.772   0.216
 6194SOL    HW219482   2.052   6.652   0.325
 6195SOL     OW19483   3.727   5.491   5.431
 6195SOL    HW119484   3.747   5.395   5.452
 6195SOL    HW219485   3.712   5.500   5.332
 6196SOL     OW19486   5.726   2.319   1.262
 6196SOL    HW119487   5.775   2.405   1.281
 6196SOL    HW219488   5.695   2.319   1.167
 6197SOL     OW19489   4.849   3.951   0.526
 6197SOL    HW119490   4.809   4.016   0.591
 6197SOL    HW219491   4.938   3.922   0.560
 6198SOL     OW19492   2.981   5.469   2.297
 6198SOL    HW119493   3.075   5.497   2.313
 6198SOL    HW219494   2.925   5.496   2.375
 6199SOL     OW19495   0.484   0.208   0.997
 6199SOL    HW119496   0.487   0.125   1.052
 6199SOL    HW219497   0.396   0.254   1.011
 6200SOL     OW19498   2.101   0.836   5.757
 6200SOL    HW119499   2.148   0.828   5.845
 6200SOL    HW219500   2.108   0.749   5.708
 6201SOL     OW19501   1.863   3.715   5.526
 6201SOL    HW119502   1.769   3.712   5.494
 6201SOL    HW219503   1.867   3.689   5.622
 6202SOL     OW19504   4.106   1.922   1.398
 6202SOL    HW119505   4.164   1.896   1.475
 6202SOL    HW219506   4.060   1.840   1.362
 6203SOL     OW19507   5.155   6.871   3.539
 6203SOL    HW119508   5.135   6.939   3.468
 6203SOL    HW219509   5.169   6.917   3.627
 6204SOL     OW19510   0.675   5.064   5.094
 6204SOL    HW119511   0.621   5.045   5.012
 6204SOL    HW219512   0.760   5.012   5.090
 6205SOL     OW19513   5.660   6.534   6.845
 6205SOL    HW119514   5.571   6.524   6.889
 6205SOL    HW219515   5.682   6.452   6.793
 6206SOL     OW19516   6.352   0.182   2.836
 6206SOL    HW119517   6.299   0.266   2.845
 6206SOL    HW219518   6.339   0.144   2.744
 6207SOL     OW19519   1.510   4.231   4.689
 6207SOL    HW119520   1.547   4.228   4.781
 6207SOL    HW219521   1.567   4.289   4.631
 6208SOL     OW19522   5.973   0.855   6.722
 6208SOL    HW119523   6.021   0.845   6.635
 6208SOL    HW219524   5.875   0.842   6.709
 6209SOL     OW19525   5.003   5.624   6.901
 6209SOL    HW119526   5.009   5.586   6.809
 6209SOL    HW219527   5.095   5.630   6.940
 6210SOL     OW19528   6.006   4.996   3.691
 6210SOL    HW119529   6.092   4.947   3.702
 6210SOL    HW219530   5.976   4.991   3.596
 6211SOL     OW19531   3.501   6.393   4.480
 6211SOL    HW119532   3.452   6.442   4.408
 6211SOL    HW219533   3.568   6.331   4.438
 6212SOL     OW19534   1.784   5.366   2.785
 6212SOL    HW119535   1.711   5.428   2.755
 6212SOL    HW219536   1.867   5.384   2.732
 6213SOL     OW19537   4.959   0.090   6.618
 6213SOL    HW119538   4.872   0.135   6.596
 6213SOL    HW219539   5.031   0.159   6.626
 6214SOL     OW19540   5.623   4.794   3.111
 6214SOL    HW119541   5.550   4.784   3.179
 6214SOL    HW219542   5.709   4.814   3.157
 6215SOL     OW19543   3.872   1.716   6.783
 6215SOL    HW119544   3.884   1.617   6.772
 6215SOL    HW219545   3.941   1.764   6.728
 6216SOL     OW19546   6.805   2.557   2.543
 6216SOL    HW119547   6.903   2.542   2.528
 6216SOL    HW219548   6.757   2.552   2.455
 6217SOL     OW19549   6.752   2.832   2.585
 6217SOL    HW119550   6.724   2.873   2.498
 6217SOL    HW219551   6.784   2.738   2.568
 6218SOL     OW19552   3.359   5.612   4.921
 6218SOL    HW119553   3.361   5.657   5.010
 6218SOL    HW219554   3.384   5.516   4.932
 6219SOL     OW19555   1.113   1.707   4.634
 6219SOL    HW119556   1.061   1.675   4.713
 6219SOL    HW219557   1.211   1.702   4.655
 6220SOL     OW19558   1.109   3.635   5.666
 6220SOL    HW119559   1.152   3.677   5.747
 6220SOL    HW219560   1.121   3.536   5.670
 6221SOL     OW19561   6.167   6.109   6.443
 6221SOL    HW119562   6.225   6.117   6.524
 6221SOL    HW219563   6.104   6.187   6.439
 6222SOL     OW19564   0.693   6.585   1.349
 6222SOL    HW119565   0.714   6.488   1.364
 6222SOL    HW219566   0.741   6.640   1.417
 6223SOL     OW19567   0.087   3.873   4.706
 6223SOL    HW119568   0.120   3.787   4.746
 6223SOL    HW219569   0.040   3.853   4.620
 6224SOL     OW19570   2.035   1.767   6.226
 6224SOL    HW119571   1.936   1.781   6.229
 6224SOL    HW219572   2.078   1.817   6.302
 6225SOL     OW19573   3.333   3.038   1.170
 6225SOL    HW119574   3.370   3.018   1.261
 6225SOL    HW219575   3.333   3.137   1.155
 6226SOL     OW19576   5.360   2.006   4.558
 6226SOL    HW119577   5.430   1.942   4.591
 6226SOL    HW219578   5.333   1.979   4.465
 6227SOL     OW19579   3.733   5.533   6.440
 6227SOL    HW119580   3.805   5.574   6.383
 6227SOL    HW219581   3.758   5.542   6.536
 6228SOL     OW19582   0.206   2.963   2.291
 6228SOL    HW119583   0.281   3.027   2.309
 6228SOL    HW219584   0.119   3.012   2.294
 6229SOL     OW19585   0.729   3.020   1.917
 6229SOL    HW119586   0.811   2.966   1.935
 6229SOL    HW219587   0.719   3.034   1.818
 6230SOL     OW19588   1.373   1.144   4.140
 6230SOL    HW119589   1.381   1.237   4.177
 6230SOL    HW219590   1.303   1.143   4.068
 6231SOL     OW19591   0.126   4.784   1.319
 6231SOL    HW119592   0.206   4.760   1.264
 6231SOL    HW219593   0.156   4.806   1.412
 6232SOL     OW19594   6.225   1.871   1.018
 6232SOL    HW119595   6.288   1.866   1.096
 6232SOL    HW219596   6.164   1.792   1.019
 6233SOL     OW19597   5.529   1.061   0.139
 6233SOL    HW119598   5.507   1.142   0.193
 6233SOL    HW219599   5.588   1.088   0.062
 6234SOL     OW19600   6.918   1.385   6.152
 6234SOL    HW119601   6.887   1.480   6.160
 6234SOL    HW219602   6.972   1.374   6.068
 6235SOL     OW19603   1.145   0.158   2.103
 6235SOL    HW119604   1.153   0.072   2.053
 6235SOL    HW219605   1.071   0.151   2.170
 6236SOL     OW19606   0.759   4.944   0.293
 6236SOL    HW119607   0.790   4.853   0.264
 6236SOL    HW219608   0.837   5.006   0.294
 6237SOL     OW19609   3.172   6.136   0.015
 6237SOL    HW119610   3.132   6.066   6.976
 6237SOL    HW219611   3.268   6.114   0.032
 6238SOL     OW19612   4.028   4.796   2.991
 6238SOL    HW119613   4.089   4.794   2.913
 6238SOL    HW219614   3.946   4.848   2.968
 6239SOL     OW19615   2.843   6.433   1.767
 6239SOL    HW119616   2.800   6.384   1.691
 6239SOL    HW219617   2.831   6.532   1.754
 6240SOL     OW19618   2.819   2.623   6.702
 6240SOL    HW119619   2.865   2.586   6.783
 6240SOL    HW219620   2.886   2.649   6.633
 6241SOL     OW19621   2.485   0.737   2.210
 6241SOL    HW119622   2.426   0.792   2.269
 6241SOL    HW219623   2.435   0.710   2.128
 6242SOL     OW19624   5.126   0.489   3.773
 6242SOL    HW119625   5.081   0.539   3.699
 6242SOL    HW219626   5.222   0.515   3.778
 6243SOL     OW19627   5.321   6.634   3.466
 6243SOL    HW119628   5.303   6.730   3.487
 6243SOL    HW219629   5.235   6.583   3.468
 6244SOL     OW19630   1.712   2.599   2.049
 6244SOL    HW119631   1.654   2.537   1.996
 6244SOL    HW219632   1.702   2.579   2.146
 6245SOL     OW19633   1.856   4.808   1.077
 6245SOL    HW119634   1.833   4.807   0.980
 6245SOL    HW219635   1.945   4.850   1.090
 6246SOL     OW19636   2.113   3.172   6.048
 6246SOL    HW119637   2.182   3.137   5.985
 6246SOL    HW219638   2.041   3.218   5.997
 6247SOL     OW19639   0.668   6.396   3.565
 6247SOL    HW119640   0.707   6.346   3.642
 6247SOL    HW219641   0.706   6.488   3.562
 6248SOL     OW19642   2.811   3.915   0.953
 6248SOL    HW119643   2.761   3.919   1.039
 6248SOL    HW219644   2.901   3.956   0.964
 6249SOL     OW19645   0.607   4.563   0.385
 6249SOL    HW119646   0.612   4.531   0.480
 6249SOL    HW219647   0.536   4.633   0.378
 6250SOL     OW19648   6.664   6.143   0.328
 6250SOL    HW119649   6.719   6.212   0.282
 6250SOL    HW219650   6.723   6.070   0.362
 6251SOL     OW19651   3.443   6.413   6.799
 6251SOL    HW119652   3.445   6.479   6.724
 6251SOL    HW219653   3.352   6.414   6.841
 6252SOL     OW19654   1.638   6.731   5.195
 6252SOL    HW119655   1.608   6.800   5.129
 6252SOL    HW219656   1.710   6.770   5.253
 6253SOL     OW19657   2.161   3.916   2.476
 6253SOL    HW119658   2.183   3.886   2.383
 6253SOL    HW219659   2.212   3.999   2.498
 6254SOL     OW19660   4.876   0.979   0.927
 6254SOL    HW119661   4.944   1.009   0.860
 6254SOL    HW219662   4.816   1.056   0.950
 6255SOL     OW19663   1.984   1.053   1.216
 6255SOL    HW119664   1.925   1.024   1.141
 6255SOL    HW219665   1.944   1.024   1.303
 6256SOL     OW19666   3.358   5.573   2.781
 6256SOL    HW119667   3.410   5.505   2.730
 6256SOL    HW219668   3.402   5.591   2.869
 6257SOL     OW19669   5.373   2.243   1.283
 6257SOL    HW119670   5.456   2.264   1.233
 6257SOL    HW219671   5.294   2.275   1.231
 6258SOL     OW19672   4.671   0.275   3.801
 6258SOL    HW119673   4.609   0.196   3.804
 6258SOL    HW219674   4.633   0.344   3.739
 6259SOL     OW19675   2.971   2.235   0.478
 6259SOL    HW119676   2.972   2.237   0.378
 6259SOL    HW219677   2.879   2.256   0.510
 6260SOL     OW19678   2.564   4.505   6.991
 6260SOL    HW119679   2.521   4.428   6.944
 6260SOL    HW219680   2.501   4.542   0.038
 6261SOL     OW19681   3.392   0.452   6.473
 6261SOL    HW119682   3.370   0.355   6.470
 6261SOL    HW219683   3.316   0.505   6.435
 6262SOL     OW19684   1.511   4.497   1.075
 6262SOL    HW119685   1.608   4.514   1.095
 6262SOL    HW219686   1.503   4.456   0.984
 6263SOL     OW19687   6.883   0.620   5.861
 6263SOL    HW119688   6.905   0.653   5.953
 6263SOL    HW219689   6.947   0.547   5.835
 6264SOL     OW19690   1.630   6.897   0.701
 6264SOL    HW119691   1.611   6.951   0.619
 6264SOL    HW219692   1.729   6.885   0.711
 6265SOL     OW19693   3.600   4.179   0.937
 6265SOL    HW119694   3.577   4.118   1.013
 6265SOL    HW219695   3.517   4.227   0.907
 6266SOL     OW19696   4.229   0.292   4.546
 6266SOL    HW119697   4.253   0.254   4.635
 6266SOL    HW219698   4.138   0.333   4.550
 6267SOL     OW19699   3.113   0.266   0.280
 6267SOL    HW119700   3.175   0.197   0.241
 6267SOL    HW219701   3.043   0.220   0.335
 6268SOL     OW19702   3.177   6.374   3.170
 6268SOL    HW119703   3.255   6.332   3.123
 6268SOL    HW219704   3.104   6.306   3.181
 6269SOL     OW19705   6.649   5.866   2.115
 6269SOL    HW119706   6.746   5.874   2.089
 6269SOL    HW219707   6.613   5.956   2.140
 6270SOL     OW19708   1.608   6.945   5.036
 6270SOL    HW119709   1.698   6.985   5.023
 6270SOL    HW219710   1.539   7.017   5.039
 6271SOL     OW19711   5.961   2.457   5.495
 6271SOL    HW119712   5.908   2.375   5.474
 6271SOL    HW219713   5.916   2.537   5.456
 6272SOL     OW19714   1.349   3.027   5.837
 6272SOL    HW119715   1.441   2.998   5.810
 6272SOL    HW219716   1.312   2.961   5.902
 6273SOL     OW19717   1.574   0.447   2.165
 6273SOL    HW119718   1.566   0.481   2.258
 6273SOL    HW219719   1.659   0.395   2.155
 6274SOL     OW19720   2.255   5.612   5.872
 6274SOL    HW119721   2.304   5.635   5.788
 6274SOL    HW219722   2.309   5.546   5.924
 6275SOL     OW19723   1.920   6.254   4.913
 6275SOL    HW119724   1.903   6.335   4.970
 6275SOL    HW219725   1.872   6.264   4.826
 6276SOL     OW19726   1.803   5.009   3.834
 6276SOL    HW119727   1.725   4.968   3.881
 6276SOL    HW219728   1.877   4.942   3.827
 6277SOL     OW19729   5.254   3.200   2.029
 6277SOL    HW119730   5.308   3.284   2.039
 6277SOL    HW219731   5.262   3.146   2.113
 6278SOL     OW19732   5.001   6.888   4.481
 6278SOL    HW119733   4.973   6.820   4.414
 6278SOL    HW219734   4.933   6.893   4.554
 6279SOL     OW19735   3.640   0.488   6.580
 6279SOL    HW119736   3.545   0.456   6.577
 6279SOL    HW219737   3.644   0.582   6.547
 6280SOL     OW19738   0.829   2.100   5.954
 6280SOL    HW119739   0.833   2.134   5.860
 6280SOL    HW219740   0.919   2.109   5.997
 6281SOL     OW19741   1.579   5.812   4.308
 6281SOL    HW119742   1.546   5.735   4.363
 6281SOL    HW219743   1.637   5.778   4.234
 6282SOL     OW19744   1.243   0.632   4.787
 6282SOL    HW119745   1.144   0.645   4.792
 6282SOL    HW219746   1.283   0.700   4.726
 6283SOL     OW19747   6.544   3.200   5.665
 6283SOL    HW119748   6.580   3.217   5.757
 6283SOL    HW219749   6.519   3.287   5.622
 6284SOL     OW19750   2.053   5.562   4.947
 6284SOL    HW119751   2.103   5.476   4.955
 6284SOL    HW219752   2.075   5.621   5.024
 6285SOL     OW19753   1.033   2.590   3.588
 6285SOL    HW119754   1.063   2.605   3.682
 6285SOL    HW219755   1.030   2.492   3.569
 6286SOL     OW19756   6.294   2.112   3.792
 6286SOL    HW119757   6.387   2.115   3.756
 6286SOL    HW219758   6.295   2.133   3.890
 6287SOL     OW19759   4.209   4.853   2.778
 6287SOL    HW119760   4.306   4.866   2.797
 6287SOL    HW219761   4.197   4.783   2.708
 6288SOL     OW19762   6.066   4.760   2.209
 6288SOL    HW119763   6.134   4.695   2.242
 6288SOL    HW219764   6.077   4.847   2.257
 6289SOL     OW19765   1.348   4.858   2.644
 6289SOL    HW119766   1.339   4.791   2.571
 6289SOL    HW219767   1.333   4.949   2.608
 6290SOL     OW19768   5.910   3.997   4.271
 6290SOL    HW119769   5.989   4.033   4.222
 6290SOL    HW219770   5.938   3.964   4.361
 6291SOL     OW19771   3.702   3.471   4.076
 6291SOL    HW119772   3.781   3.506   4.027
 6291SOL    HW219773   3.622   3.528   4.056
 6292SOL     OW19774   1.613   2.348   3.648
 6292SOL    HW119775   1.518   2.350   3.682
 6292SOL    HW219776   1.648   2.254   3.654
 6293SOL     OW19777   4.163   0.079   0.048
 6293SOL    HW119778   4.108   0.044   0.123
 6293SOL    HW219779   4.242   0.128   0.085
 6294SOL     OW19780   3.770   5.038   4.121
 6294SOL    HW119781   3.717   5.121   4.140
 6294SOL    HW219782   3.800   5.039   4.025
 6295SOL     OW19783   4.847   5.190   5.393
 6295SOL    HW119784   4.816   5.148   5.307
 6295SOL    HW219785   4.834   5.289   5.388
 6296SOL     OW19786   6.984   6.811   5.096
 6296SOL    HW119787   6.916   6.859   5.040
 6296SOL    HW219788   6.948   6.722   5.124
 6297SOL     OW19789   4.816   0.250   5.519
 6297SOL    HW119790   4.760   0.243   5.436
 6297SOL    HW219791   4.866   0.336   5.518
 6298SOL     OW19792   1.719   2.569   5.890
 6298SOL    HW119793   1.707   2.638   5.962
 6298SOL    HW219794   1.804   2.587   5.840
 6299SOL     OW19795   4.944   1.398   0.491
 6299SOL    HW119796   4.972   1.325   0.429
 6299SOL    HW219797   5.004   1.478   0.478
 6300SOL     OW19798   5.352   0.428   5.575
 6300SOL    HW119799   5.375   0.524   5.591
 6300SOL    HW219800   5.318   0.386   5.659
 6301SOL     OW19801   3.141   0.826   1.253
 6301SOL    HW119802   3.190   0.741   1.272
 6301SOL    HW219803   3.205   0.895   1.218
 6302SOL     OW19804   1.491   1.604   3.813
 6302SOL    HW119805   1.526   1.514   3.840
 6302SOL    HW219806   1.538   1.635   3.731
 6303SOL     OW19807   2.310   1.155   4.563
 6303SOL    HW119808   2.224   1.204   4.552
 6303SOL    HW219809   2.334   1.151   4.661
 6304SOL     OW19810   2.278   1.501   0.429
 6304SOL    HW119811   2.311   1.418   0.384
 6304SOL    HW219812   2.323   1.510   0.518
 6305SOL     OW19813   6.145   6.933   0.787
 6305SOL    HW119814   6.127   0.010   0.790
 6305SOL    HW219815   6.103   6.890   0.867
 6306SOL     OW19816   1.408   3.932   4.197
 6306SOL    HW119817   1.459   3.901   4.117
 6306SOL    HW219818   1.469   3.938   4.276
 6307SOL     OW19819   3.977   3.918   5.560
 6307SOL    HW119820   3.968   4.005   5.512
 6307SOL    HW219821   4.071   3.907   5.593
 6308SOL     OW19822   1.392   1.632   4.667
 6308SOL    HW119823   1.457   1.642   4.742
 6308SOL    HW219824   1.405   1.543   4.623
 6309SOL     OW19825   4.857   4.053   4.468
 6309SOL    HW119826   4.815   4.042   4.378
 6309SOL    HW219827   4.915   4.134   4.469
 6310SOL     OW19828   2.129   5.363   3.651
 6310SOL    HW119829   2.151   5.326   3.560
 6310SOL    HW219830   2.138   5.291   3.719
 6311SOL     OW19831   5.931   0.442   5.588
 6311SOL    HW119832   5.858   0.458   5.521
 6311SOL    HW219833   5.916   0.355   5.634
 6312SOL     OW19834   5.856   5.230   5.624
 6312SOL    HW119835   5.904   5.169   5.560
 6312SOL    HW219836   5.774   5.266   5.580
 6313SOL     OW19837   1.668   5.664   2.989
 6313SOL    HW119838   1.718   5.651   3.074
 6313SOL    HW219839   1.572   5.683   3.010
 6314SOL     OW19840   4.212   6.218   1.663
 6314SOL    HW119841   4.266   6.204   1.580
 6314SOL    HW219842   4.242   6.301   1.708
 6315SOL     OW19843   3.458   3.084   6.011
 6315SOL    HW119844   3.371   3.053   6.051
 6315SOL    HW219845   3.460   3.059   5.914
 6316SOL     OW19846   4.678   2.063   6.437
 6316SOL    HW119847   4.596   2.115   6.414
 6316SOL    HW219848   4.743   2.122   6.486
 6317SOL     OW19849   4.827   5.360   3.223
 6317SOL    HW119850   4.917   5.320   3.239
 6317SOL    HW219851   4.759   5.314   3.280
 6318SOL     OW19852   3.088   1.896   4.874
 6318SOL    HW119853   2.988   1.897   4.879
 6318SOL    HW219854   3.118   1.809   4.833
 6319SOL     OW19855   0.404   2.280   3.225
 6319SOL    HW119856   0.493   2.294   3.268
 6319SOL    HW219857   0.413   2.212   3.152
 6320SOL     OW19858   5.934   4.375   5.128
 6320SOL    HW119859   5.996   4.453   5.136
 6320SOL    HW219860   5.901   4.368   5.033
 6321SOL     OW19861   3.317   4.816   1.025
 6321SOL    HW119862   3.369   4.826   1.110
 6321SOL    HW219863   3.220   4.834   1.043
 6322SOL     OW19864   1.575   2.075   6.608
 6322SOL    HW119865   1.645   2.015   6.570
 6322SOL    HW219866   1.605   2.170   6.599
 6323SOL     OW19867   3.709   2.827   1.061
 6323SOL    HW119868   3.695   2.732   1.031
 6323SOL    HW219869   3.756   2.828   1.149
 6324SOL     OW19870   5.082   0.079   6.182
 6324SOL    HW119871   4.995   0.064   6.230
 6324SOL    HW219872   5.144   0.002   6.200
 6325SOL     OW19873   1.425   2.039   2.258
 6325SOL    HW119874   1.490   1.997   2.321
 6325SOL    HW219875   1.357   1.970   2.230
 6326SOL     OW19876   4.573   6.062   2.124
 6326SOL    HW119877   4.572   6.162   2.125
 6326SOL    HW219878   4.592   6.031   2.031
 6327SOL     OW19879   0.146   0.639   5.105
 6327SOL    HW119880   0.066   0.662   5.161
 6327SOL    HW219881   0.180   0.548   5.131
 6328SOL     OW19882   2.035   4.134   0.665
 6328SOL    HW119883   2.071   4.063   0.605
 6328SOL    HW219884   2.051   4.224   0.625
 6329SOL     OW19885   2.366   2.652   3.307
 6329SOL    HW119886   2.342   2.677   3.213
 6329SOL    HW219887   2.456   2.608   3.307
 6330SOL     OW19888   4.407   0.900   1.658
 6330SOL    HW119889   4.449   0.974   1.606
 6330SOL    HW219890   4.365   0.834   1.596
 6331SOL     OW19891   6.113   2.228   0.228
 6331SOL    HW119892   6.097   2.193   0.320
 6331SOL    HW219893   6.054   2.307   0.212
 6332SOL     OW19894   6.932   3.900   2.144
 6332SOL    HW119895   6.837   3.891   2.172
 6332SOL    HW219896   6.979   3.964   2.206
 6333SOL     OW19897   4.245   4.782   4.093
 6333SOL    HW119898   4.237   4.749   3.998
 6333SOL    HW219899   4.177   4.854   4.108
 6334SOL     OW19900   2.185   0.414   2.191
 6334SOL    HW119901   2.215   0.408   2.096
 6334SOL    HW219902   2.139   0.329   2.217
 6335SOL     OW19903   4.567   1.550   0.851
 6335SOL    HW119904   4.571   1.472   0.914
 6335SOL    HW219905   4.636   1.538   0.780
 6336SOL     OW19906   0.326   1.679   6.160
 6336SOL    HW119907   0.357   1.584   6.168
 6336SOL    HW219908   0.330   1.723   6.250
 6337SOL     OW19909   4.870   4.093   6.342
 6337SOL    HW119910   4.785   4.113   6.293
 6337SOL    HW219911   4.941   4.156   6.311
 6338SOL     OW19912   3.078   2.122   2.659
 6338SOL    HW119913   3.056   2.027   2.680
 6338SOL    HW219914   3.172   2.142   2.686
 6339SOL     OW19915   0.731   2.656   3.007
 6339SOL    HW119916   0.674   2.590   3.056
 6339SOL    HW219917   0.730   2.743   3.055
 6340SOL     OW19918   1.773   4.526   2.858
 6340SOL    HW119919   1.849   4.462   2.867
 6340SOL    HW219920   1.766   4.581   2.941
 6341SOL     OW19921   0.769   4.647   3.700
 6341SOL    HW119922   0.697   4.709   3.731
 6341SOL    HW219923   0.753   4.556   3.737
 6342SOL     OW19924   2.723   1.830   1.800
 6342SOL    HW119925   2.788   1.904   1.786
 6342SOL    HW219926   2.749   1.752   1.743
 6343SOL     OW19927   5.113   1.996   6.564
 6343SOL    HW119928   5.201   2.006   6.610
 6343SOL    HW219929   5.112   2.054   6.482
 6344SOL     OW19930   5.962   3.478   5.651
 6344SOL    HW119931   5.959   3.528   5.564
 6344SOL    HW219932   5.876   3.490   5.699
 6345SOL     OW19933   4.411   1.742   2.416
 6345SOL    HW119934   4.480   1.803   2.377
 6345SOL    HW219935   4.364   1.693   2.342
 6346SOL     OW19936   6.923   3.561   3.645
 6346SOL    HW119937   6.849   3.559   3.577
 6346SOL    HW219938   7.007   3.593   3.600
 6347SOL     OW19939   2.063   0.740   1.378
 6347SOL    HW119940   2.125   0.802   1.427
 6347SOL    HW219941   2.061   0.765   1.281
 6348SOL     OW19942   1.425   4.296   5.031
 6348SOL    HW119943   1.367   4.217   5.011
 6348SOL    HW219944   1.415   4.363   4.957
 6349SOL     OW19945   3.235   0.210   1.384
 6349SOL    HW119946   3.243   0.131   1.445
 6349SOL    HW219947   3.234   0.179   1.289
 6350SOL     OW19948   2.549   4.938   3.957
 6350SOL    HW119949   2.514   4.946   4.050
 6350SOL    HW219950   2.510   5.011   3.900
 6351SOL     OW19951   6.656   3.308   2.929
 6351SOL    HW119952   6.633   3.337   2.836
 6351SOL    HW219953   6.751   3.275   2.931
 6352SOL     OW19954   2.232   5.305   4.493
 6352SOL    HW119955   2.285   5.347   4.567
 6352SOL    HW219956   2.260   5.209   4.483
 6353SOL     OW19957   6.438   1.003   6.379
 6353SOL    HW119958   6.537   1.019   6.387
 6353SOL    HW219959   6.413   0.997   6.282
 6354SOL     OW19960   1.519   0.350   2.498
 6354SOL    HW119961   1.451   0.288   2.460
 6354SOL    HW219962   1.515   0.438   2.450
 6355SOL     OW19963   1.319   5.181   5.962
 6355SOL    HW119964   1.280   5.111   6.021
 6355SOL    HW219965   1.323   5.149   5.868
 6356SOL     OW19966   3.966   4.856   2.562
 6356SOL    HW119967   3.987   4.832   2.467
 6356SOL    HW219968   3.998   4.782   2.622
 6357SOL     OW19969   5.017   2.673   2.112
 6357SOL    HW119970   5.066   2.735   2.051
 6357SOL    HW219971   4.942   2.721   2.156
 6358SOL     OW19972   1.184   1.865   6.117
 6358SOL    HW119973   1.254   1.800   6.088
 6358SOL    HW219974   1.152   1.841   6.209
 6359SOL     OW19975   6.223   0.047   5.749
 6359SOL    HW119976   6.221   0.013   5.655
 6359SOL    HW219977   6.233   0.146   5.748
 6360SOL     OW19978   1.824   4.094   4.268
 6360SOL    HW119979   1.924   4.098   4.275
 6360SOL    HW219980   1.789   4.182   4.237
 6361SOL     OW19981   6.396   0.026   0.164
 6361SOL    HW119982   6.313   0.034   0.108
 6361SOL    HW219983   6.475   0.058   0.111
 6362SOL     OW19984   6.534   5.568   6.481
 6362SOL    HW119985   6.588   5.613   6.409
 6362SOL    HW219986   6.564   5.601   6.571
 6363SOL     OW19987   2.299   4.550   3.184
 6363SOL    HW119988   2.228   4.500   3.233
 6363SOL    HW219989   2.269   4.644   3.169
 6364SOL     OW19990   3.383   1.411   5.797
 6364SOL    HW119991   3.341   1.421   5.706
 6364SOL    HW219992   3.483   1.413   5.788
 6365SOL     OW19993   5.312   6.827   4.374
 6365SOL    HW119994   5.297   6.851   4.470
 6365SOL    HW219995   5.407   6.800   4.360
 6366SOL     OW19996   0.498   5.810   6.368
 6366SOL    HW119997   0.493   5.716   6.401
 6366SOL    HW219998   0.582   5.823   6.315
 6367SOL     OW19999   3.832   0.586   4.108
 6367SOL    HW120000   3.924   0.573   4.143
 6367SOL    HW220001   3.775   0.508   4.132
 6368SOL     OW20002   3.502   6.921   3.526
 6368SOL    HW120003   3.570   6.972   3.474
 6368SOL    HW220004   3.533   6.909   3.620
 6369SOL     OW20005   2.508   5.049   4.812
 6369SOL    HW120006   2.487   4.953   4.833
 6369SOL    HW220007   2.502   5.103   4.896
 6370SOL     OW20008   1.145   3.404   2.420
 6370SOL    HW120009   1.155   3.346   2.500
 6370SOL    HW220010   1.115   3.495   2.448
 6371SOL     OW20011   4.889   3.311   3.972
 6371SOL    HW120012   4.862   3.216   3.985
 6371SOL    HW220013   4.988   3.316   3.957
 6372SOL     OW20014   3.602   0.114   1.889
 6372SOL    HW120015   3.642   0.192   1.937
 6372SOL    HW220016   3.559   0.145   1.804
 6373SOL     OW20017   5.954   4.181   3.638
 6373SOL    HW120018   6.013   4.261   3.627
 6373SOL    HW220019   5.878   4.203   3.699
 6374SOL     OW20020   3.645   4.155   4.179
 6374SOL    HW120021   3.691   4.071   4.151
 6374SOL    HW220022   3.641   4.160   4.279
 6375SOL     OW20023   0.200   1.616   4.070
 6375SOL    HW120024   0.256   1.699   4.067
 6375SOL    HW220025   0.184   1.591   4.166
 6376SOL     OW20026   6.371   2.394   5.515
 6376SOL    HW120027   6.464   2.380   5.548
 6376SOL    HW220028   6.319   2.445   5.583
 6377SOL     OW20029   6.449   1.792   5.459
 6377SOL    HW120030   6.518   1.760   5.394
 6377SOL    HW220031   6.466   1.888   5.480
 6378SOL     OW20032   5.019   5.148   3.396
 6378SOL    HW120033   5.118   5.160   3.384
 6378SOL    HW220034   4.994   5.173   3.490
 6379SOL     OW20035   2.323   4.517   4.421
 6379SOL    HW120036   2.417   4.544   4.445
 6379SOL    HW220037   2.290   4.449   4.486
 6380SOL     OW20038   0.146   1.768   5.938
 6380SOL    HW120039   0.185   1.752   6.029
 6380SOL    HW220040   0.212   1.740   5.869
 6381SOL     OW20041   3.393   3.495   2.066
 6381SOL    HW120042   3.319   3.431   2.086
 6381SOL    HW220043   3.474   3.470   2.120
 6382SOL     OW20044   1.354   2.694   0.362
 6382SOL    HW120045   1.395   2.783   0.380
 6382SOL    HW220046   1.259   2.694   0.394
 6383SOL     OW20047   2.147   2.430   2.630
 6383SOL    HW120048   2.134   2.432   2.729
 6383SOL    HW220049   2.241   2.457   2.608
 6384SOL     OW20050   5.820   4.198   1.374
 6384SOL    HW120051   5.874   4.117   1.399
 6384SOL    HW220052   5.759   4.174   1.299
 6385SOL     OW20053   6.908   4.538   4.373
 6385SOL    HW120054   6.847   4.492   4.438
 6385SOL    HW220055   6.928   4.477   4.296
 6386SOL     OW20056   2.514   4.165   6.300
 6386SOL    HW120057   2.581   4.143   6.229
 6386SOL    HW220058   2.456   4.086   6.317
 6387SOL     OW20059   0.607   1.668   6.740
 6387SOL    HW120060   0.642   1.729   6.811
 6387SOL    HW220061   0.614   1.573   6.771
 6388SOL     OW20062   4.400   4.863   1.567
 6388SOL    HW120063   4.457   4.814   1.633
 6388SOL    HW220064   4.381   4.955   1.600
 6389SOL     OW20065   1.049   5.998   2.480
 6389SOL    HW120066   1.061   5.900   2.498
 6389SOL    HW220067   1.081   6.050   2.559
 6390SOL     OW20068   1.368   2.230   4.689
 6390SOL    HW120069   1.332   2.180   4.610
 6390SOL    HW220070   1.361   2.174   4.771
 6391SOL     OW20071   3.246   6.914   5.738
 6391SOL    HW120072   3.162   6.861   5.731
 6391SOL    HW220073   3.267   6.956   5.649
 6392SOL     OW20074   2.282   6.814   3.465
 6392SOL    HW120075   2.290   6.844   3.370
 6392SOL    HW220076   2.373   6.797   3.502
 6393SOL     OW20077   6.254   6.291   1.505
 6393SOL    HW120078   6.349   6.263   1.489
 6393SOL    HW220079   6.251   6.390   1.522
 6394SOL     OW20080   2.572   4.462   0.942
 6394SOL    HW120081   2.505   4.515   0.992
 6394SOL    HW220082   2.614   4.519   0.871
 6395SOL     OW20083   5.915   2.912   1.326
 6395SOL    HW120084   5.922   2.853   1.406
 6395SOL    HW220085   5.996   2.901   1.268
 6396SOL     OW20086   5.179   2.829   6.794
 6396SOL    HW120087   5.168   2.917   6.747
 6396SOL    HW220088   5.262   2.831   6.849
 6397SOL     OW20089   5.738   2.427   6.966
 6397SOL    HW120090   5.707   2.521   6.951
 6397SOL    HW220091   5.817   2.408   6.907
 6398SOL     OW20092   3.537   0.600   0.654
 6398SOL    HW120093   3.535   0.614   0.555
 6398SOL    HW220094   3.574   0.510   0.674
 6399SOL     OW20095   1.420   4.809   6.585
 6399SOL    HW120096   1.333   4.834   6.626
 6399SOL    HW220097   1.494   4.818   6.652
 6400SOL     OW20098   2.138   5.622   3.164
 6400SOL    HW120099   2.134   5.584   3.072
 6400SOL    HW220100   2.150   5.721   3.158
 6401SOL     OW20101   6.544   4.503   3.817
 6401SOL    HW120102   6.622   4.491   3.878
 6401SOL    HW220103   6.572   4.558   3.738
 6402SOL     OW20104   3.016   0.958   2.980
 6402SOL    HW120105   3.103   0.995   2.948
 6402SOL    HW220106   3.029   0.862   3.007
 6403SOL     OW20107   0.807   6.113   6.291
 6403SOL    HW120108   0.834   6.181   6.222
 6403SOL    HW220109   0.808   6.155   6.381
 6404SOL     OW20110   3.850   1.287   3.143
 6404SOL    HW120111   3.886   1.380   3.147
 6404SOL    HW220112   3.768   1.285   3.085
 6405SOL     OW20113   1.680   0.772   3.549
 6405SOL    HW120114   1.613   0.757   3.623
 6405SOL    HW220115   1.757   0.826   3.585
 6406SOL     OW20116   1.850   2.250   3.416
 6406SOL    HW120117   1.933   2.253   3.361
 6406SOL    HW220118   1.836   2.339   3.460
 6407SOL     OW20119   3.332   0.218   2.856
 6407SOL    HW120120   3.233   0.232   2.859
 6407SOL    HW220121   3.364   0.191   2.947
 6408SOL     OW20122   5.932   2.355   6.779
 6408SOL    HW120123   6.024   2.390   6.794
 6408SOL    HW220124   5.937   2.258   6.752
 6409SOL     OW20125   0.340   4.314   3.033
 6409SOL    HW120126   0.303   4.222   3.050
 6409SOL    HW220127   0.316   4.374   3.109
 6410SOL     OW20128   1.844   1.321   0.116
 6410SOL    HW120129   1.922   1.372   0.152
 6410SOL    HW220130   1.782   1.296   0.190
 6411SOL     OW20131   0.250   3.036   3.313
 6411SOL    HW120132   0.217   2.968   3.379
 6411SOL    HW220133   0.348   3.048   3.324
 6412SOL     OW20134   0.112   3.183   5.530
 6412SOL    HW120135   0.191   3.240   5.551
 6412SOL    HW220136   0.028   3.232   5.551
 6413SOL     OW20137   5.184   4.795   3.106
 6413SOL    HW120138   5.243   4.851   3.048
 6413SOL    HW220139   5.109   4.758   3.051
 6414SOL     OW20140   5.866   0.651   1.862
 6414SOL    HW120141   5.835   0.570   1.912
 6414SOL    HW220142   5.947   0.689   1.907
 6415SOL     OW20143   2.528   2.216   2.439
 6415SOL    HW120144   2.519   2.264   2.351
 6415SOL    HW220145   2.615   2.241   2.481
 6416SOL     OW20146   1.305   1.128   5.634
 6416SOL    HW120147   1.338   1.221   5.647
 6416SOL    HW220148   1.243   1.104   5.708
 6417SOL     OW20149   0.179   4.366   2.201
 6417SOL    HW120150   0.186   4.367   2.301
 6417SOL    HW220151   0.254   4.312   2.163
 6418SOL     OW20152   5.787   4.814   2.166
 6418SOL    HW120153   5.756   4.852   2.253
 6418SOL    HW220154   5.885   4.795   2.171
 6419SOL     OW20155   2.203   5.141   2.629
 6419SOL    HW120156   2.133   5.073   2.608
 6419SOL    HW220157   2.200   5.162   2.727
 6420SOL     OW20158   2.774   3.266   5.769
 6420SOL    HW120159   2.757   3.300   5.861
 6420SOL    HW220160   2.833   3.329   5.720
 6421SOL     OW20161   5.674   1.550   2.187
 6421SOL    HW120162   5.655   1.647   2.205
 6421SOL    HW220163   5.703   1.505   2.272
 6422SOL     OW20164   0.253   0.358   4.182
 6422SOL    HW120165   0.286   0.331   4.092
 6422SOL    HW220166   0.319   0.330   4.251
 6423SOL     OW20167   5.028   4.684   2.304
 6423SOL    HW120168   5.089   4.613   2.340
 6423SOL    HW220169   4.952   4.640   2.255
 6424SOL     OW20170   6.729   5.570   5.792
 6424SOL    HW120171   6.776   5.646   5.747
 6424SOL    HW220172   6.716   5.495   5.728
 6425SOL     OW20173   6.506   5.379   3.489
 6425SOL    HW120174   6.558   5.299   3.458
 6425SOL    HW220175   6.524   5.394   3.586
 6426SOL     OW20176   0.445   4.567   3.444
 6426SOL    HW120177   0.461   4.481   3.492
 6426SOL    HW220178   0.406   4.634   3.508
 6427SOL     OW20179   1.939   3.355   6.728
 6427SOL    HW120180   1.872   3.407   6.675
 6427SOL    HW220181   1.954   3.266   6.686
 6428SOL     OW20182   6.482   3.328   0.798
 6428SOL    HW120183   6.461   3.417   0.756
 6428SOL    HW220184   6.576   3.328   0.830
 6429SOL     OW20185   0.644   1.428   5.030
 6429SOL    HW120186   0.721   1.418   4.967
 6429SOL    HW220187   0.656   1.364   5.106
 6430SOL     OW20188   5.020   0.945   2.368
 6430SOL    HW120189   4.949   0.914   2.431
 6430SOL    HW220190   5.051   0.868   2.312
 6431SOL     OW20191   5.456   6.833   3.268
 6431SOL    HW120192   5.419   6.871   3.184
 6431SOL    HW220193   5.403   6.753   3.295
 6432SOL     OW20194   3.961   4.030   6.875
 6432SOL    HW120195   3.991   4.088   6.951
 6432SOL    HW220196   3.891   4.077   6.822
 6433SOL     OW20197   3.756   4.181   0.710
 6433SOL    HW120198   3.798   4.270   0.730
 6433SOL    HW220199   3.710   4.147   0.792
 6434SOL     OW20200   2.024   3.732   0.665
 6434SOL    HW120201   2.027   3.820   0.618
 6434SOL    HW220202   2.017   3.747   0.764
 6435SOL     OW20203   3.936   5.478   6.924
 6435SOL    HW120204   4.026   5.464   6.964
 6435SOL    HW220205   3.875   5.522   6.990
 6436SOL     OW20206   2.197   3.214   4.111
 6436SOL    HW120207   2.101   3.189   4.095
 6436SOL    HW220208   2.257   3.144   4.074
 6437SOL     OW20209   1.747   1.158   0.834
 6437SOL    HW120210   1.679   1.086   0.849
 6437SOL    HW220211   1.751   1.217   0.914
 6438SOL     OW20212   0.499   4.536   6.120
 6438SOL    HW120213   0.474   4.615   6.176
 6438SOL    HW220214   0.587   4.554   6.075
 6439SOL     OW20215   6.906   0.251   1.636
 6439SOL    HW120216   6.914   0.343   1.676
 6439SOL    HW220217   6.821   0.209   1.668
 6440SOL     OW20218   1.901   1.532   1.818
 6440SOL    HW120219   1.947   1.538   1.907
 6440SOL    HW220220   1.950   1.588   1.752
 6441SOL     OW20221   0.750   0.111   2.949
 6441SOL    HW120222   0.773   0.025   2.994
 6441SOL    HW220223   0.743   0.096   2.850
 6442SOL     OW20224   2.055   1.444   3.211
 6442SOL    HW120225   2.077   1.355   3.251
 6442SOL    HW220226   2.075   1.443   3.113
 6443SOL     OW20227   3.821   2.613   0.279
 6443SOL    HW120228   3.727   2.645   0.293
 6443SOL    HW220229   3.884   2.690   0.288
 6444SOL     OW20230   0.981   2.727   4.068
 6444SOL    HW120231   0.986   2.806   4.129
 6444SOL    HW220232   0.901   2.672   4.091
 6445SOL     OW20233   4.920   2.623   5.780
 6445SOL    HW120234   5.009   2.612   5.736
 6445SOL    HW220235   4.883   2.713   5.758
 6446SOL     OW20236   0.945   1.032   6.271
 6446SOL    HW120237   1.044   1.025   6.288
 6446SOL    HW220238   0.930   1.058   6.175
 6447SOL     OW20239   0.099   5.812   2.487
 6447SOL    HW120240   0.148   5.874   2.547
 6447SOL    HW220241   0.142   5.721   2.490
 6448SOL     OW20242   5.392   4.645   2.162
 6448SOL    HW120243   5.416   4.648   2.065
 6448SOL    HW220244   5.377   4.550   2.191
 6449SOL     OW20245   3.792   4.592   0.787
 6449SOL    HW120246   3.747   4.673   0.749
 6449SOL    HW220247   3.739   4.558   0.865
 6450SOL     OW20248   0.176   3.475   1.427
 6450SOL    HW120249   0.161   3.399   1.364
 6450SOL    HW220250   0.209   3.555   1.376
 6451SOL     OW20251   2.540   6.285   4.754
 6451SOL    HW120252   2.541   6.242   4.844
 6451SOL    HW220253   2.546   6.384   4.764
 6452SOL     OW20254   3.363   5.891   5.278
 6452SOL    HW120255   3.352   5.937   5.190
 6452SOL    HW220256   3.323   5.947   5.350
 6453SOL     OW20257   1.631   6.230   0.106
 6453SOL    HW120258   1.677   6.317   0.086
 6453SOL    HW220259   1.662   6.161   0.042
 6454SOL     OW20260   3.121   1.294   3.754
 6454SOL    HW120261   3.173   1.341   3.682
 6454SOL    HW220262   3.175   1.291   3.837
 6455SOL     OW20263   0.975   2.124   4.038
 6455SOL    HW120264   1.021   2.113   3.949
 6455SOL    HW220265   1.033   2.177   4.099
 6456SOL     OW20266   2.083   0.222   3.687
 6456SOL    HW120267   2.043   0.133   3.664
 6456SOL    HW220268   2.011   0.290   3.691
 6457SOL     OW20269   5.030   1.056   1.170
 6457SOL    HW120270   4.989   1.126   1.228
 6457SOL    HW220271   4.958   1.008   1.120
 6458SOL     OW20272   0.935   6.936   3.567
 6458SOL    HW120273   1.028   6.903   3.549
 6458SOL    HW220274   0.897   6.974   3.483
 6459SOL     OW20275   5.759   5.528   0.603
 6459SOL    HW120276   5.729   5.440   0.640
 6459SOL    HW220277   5.696   5.600   0.633
 6460SOL     OW20278   4.558   5.046   5.859
 6460SOL    HW120279   4.570   5.121   5.794
 6460SOL    HW220280   4.573   5.080   5.952
 6461SOL     OW20281   2.925   4.998   5.189
 6461SOL    HW120282   2.996   4.976   5.256
 6461SOL    HW220283   2.927   4.931   5.114
 6462SOL     OW20284   2.180   2.773   5.020
 6462SOL    HW120285   2.236   2.856   5.019
 6462SOL    HW220286   2.238   2.695   5.043
 6463SOL     OW20287   1.639   4.030   6.565
 6463SOL    HW120288   1.639   3.979   6.479
 6463SOL    HW220289   1.733   4.050   6.592
 6464SOL     OW20290   0.896   4.937   5.154
 6464SOL    HW120291   0.910   4.853   5.101
 6464SOL    HW220292   0.948   5.012   5.113
 6465SOL     OW20293   6.365   2.797   3.906
 6465SOL    HW120294   6.311   2.716   3.881
 6465SOL    HW220295   6.435   2.771   3.972
 6466SOL     OW20296   0.632   1.293   6.463
 6466SOL    HW120297   0.536   1.276   6.486
 6466SOL    HW220298   0.665   1.372   6.515
 6467SOL     OW20299   3.001   1.040   0.027
 6467SOL    HW120300   2.915   1.081   7.018
 6467SOL    HW220301   2.998   1.023   0.125
 6468SOL     OW20302   3.758   6.537   1.690
 6468SOL    HW120303   3.700   6.462   1.723
 6468SOL    HW220304   3.817   6.568   1.764
 6469SOL     OW20305   4.929   0.194   5.014
 6469SOL    HW120306   4.844   0.240   5.038
 6469SOL    HW220307   4.961   0.141   5.092
 6470SOL     OW20308   6.088   5.345   6.512
 6470SOL    HW120309   6.040   5.429   6.535
 6470SOL    HW220310   6.180   5.368   6.479
 6471SOL     OW20311   6.569   5.716   5.978
 6471SOL    HW120312   6.624   5.654   5.922
 6471SOL    HW220313   6.476   5.722   5.942
 6472SOL     OW20314   0.582   4.591   0.992
 6472SOL    HW120315   0.610   4.500   1.025
 6472SOL    HW220316   0.508   4.581   0.926
 6473SOL     OW20317   2.346   1.954   4.235
 6473SOL    HW120318   2.351   1.903   4.321
 6473SOL    HW220319   2.279   2.028   4.243
 6474SOL     OW20320   1.950   3.318   5.889
 6474SOL    HW120321   1.899   3.369   5.820
 6474SOL    HW220322   2.002   3.245   5.844
 6475SOL     OW20323   0.124   5.385   4.545
 6475SOL    HW120324   0.195   5.348   4.485
 6475SOL    HW220325   0.037   5.388   4.497
 6476SOL     OW20326   4.502   3.898   1.605
 6476SOL    HW120327   4.413   3.908   1.648
 6476SOL    HW220328   4.491   3.883   1.507
 6477SOL     OW20329   0.444   4.865   1.488
 6477SOL    HW120330   0.475   4.772   1.506
 6477SOL    HW220331   0.481   4.897   1.401
 6478SOL     OW20332   3.466   6.252   2.371
 6478SOL    HW120333   3.406   6.299   2.306
 6478SOL    HW220334   3.411   6.198   2.434
 6479SOL     OW20335   3.907   5.531   3.339
 6479SOL    HW120336   3.878   5.584   3.260
 6479SOL    HW220337   3.921   5.593   3.417
 6480SOL     OW20338   3.258   3.085   5.504
 6480SOL    HW120339   3.191   3.075   5.431
 6480SOL    HW220340   3.269   3.183   5.525
 6481SOL     OW20341   3.124   1.840   1.928
 6481SOL    HW120342   3.115   1.938   1.943
 6481SOL    HW220343   3.045   1.792   1.967
 6482SOL     OW20344   0.053   1.003   6.239
 6482SOL    HW120345   0.026   0.934   6.306
 6482SOL    HW220346   0.129   0.968   6.185
 6483SOL     OW20347   2.514   5.550   1.471
 6483SOL    HW120348   2.440   5.495   1.508
 6483SOL    HW220349   2.504   5.645   1.501
 6484SOL     OW20350   3.741   0.403   2.966
 6484SOL    HW120351   3.645   0.424   2.984
 6484SOL    HW220352   3.783   0.367   3.049
 6485SOL     OW20353   2.046   3.602   3.919
 6485SOL    HW120354   2.101   3.678   3.955
 6485SOL    HW220355   1.977   3.577   3.986
 6486SOL     OW20356   1.173   4.573   4.153
 6486SOL    HW120357   1.246   4.607   4.094
 6486SOL    HW220358   1.145   4.645   4.216
 6487SOL     OW20359   6.732   5.710   4.782
 6487SOL    HW120360   6.716   5.632   4.843
 6487SOL    HW220361   6.738   5.794   4.836
 6488SOL     OW20362   2.593   5.781   4.946
 6488SOL    HW120363   2.504   5.787   4.990
 6488SOL    HW220364   2.665   5.802   5.013
 6489SOL     OW20365   2.376   3.823   6.656
 6489SOL    HW120366   2.392   3.811   6.754
 6489SOL    HW220367   2.463   3.835   6.609
 6490SOL     OW20368   4.129   2.771   6.920
 6490SOL    HW120369   4.046   2.743   6.969
 6490SOL    HW220370   4.154   2.701   6.853
 6491SOL     OW20371   4.375   1.189   6.772
 6491SOL    HW120372   4.431   1.134   6.709
 6491SOL    HW220373   4.343   1.271   6.724
 6492SOL     OW20374   5.934   6.144   7.014
 6492SOL    HW120375   5.865   6.080   0.026
 6492SOL    HW220376   6.024   6.100   7.016
 6493SOL     OW20377   1.538   6.224   5.369
 6493SOL    HW120378   1.559   6.197   5.275
 6493SOL    HW220379   1.611   6.283   5.404
 6494SOL     OW20380   6.850   1.186   3.284
 6494SOL    HW120381   6.896   1.098   3.274
 6494SOL    HW220382   6.899   1.240   3.354
 6495SOL     OW20383   4.973   6.276   4.721
 6495SOL    HW120384   4.919   6.344   4.672
 6495SOL    HW220385   5.068   6.281   4.692
 6496SOL     OW20386   0.071   6.249   2.460
 6496SOL    HW120387   0.135   6.231   2.385
 6496SOL    HW220388   0.042   6.345   2.457
 6497SOL     OW20389   2.509   3.283   6.973
 6497SOL    HW120390   2.598   3.238   6.976
 6497SOL    HW220391   2.462   3.258   6.888
 6498SOL     OW20392   2.453   4.577   4.201
 6498SOL    HW120393   2.542   4.606   4.236
 6498SOL    HW220394   2.393   4.553   4.277
 6499SOL     OW20395   6.084   2.018   5.090
 6499SOL    HW120396   6.055   2.004   4.995
 6499SOL    HW220397   6.167   1.964   5.107
 6500SOL     OW20398   0.202   4.336   3.860
 6500SOL    HW120399   0.209   4.248   3.908
 6500SOL    HW220400   0.142   4.397   3.912
 6501SOL     OW20401   6.737   2.095   0.400
 6501SOL    HW120402   6.807   2.039   0.354
 6501SOL    HW220403   6.667   2.122   0.333
 6502SOL     OW20404   6.357   3.979   3.029
 6502SOL    HW120405   6.330   3.990   2.934
 6502SOL    HW220406   6.277   3.985   3.088
 6503SOL     OW20407   5.187   6.904   3.860
 6503SOL    HW120408   5.114   6.837   3.850
 6503SOL    HW220409   5.272   6.858   3.883
 6504SOL     OW20410   4.826   6.499   6.173
 6504SOL    HW120411   4.863   6.580   6.126
 6504SOL    HW220412   4.886   6.475   6.249
 6505SOL     OW20413   5.729   4.506   1.730
 6505SOL    HW120414   5.745   4.558   1.646
 6505SOL    HW220415   5.648   4.449   1.720
 6506SOL     OW20416   0.432   2.930   0.588
 6506SOL    HW120417   0.395   2.885   0.670
 6506SOL    HW220418   0.531   2.917   0.584
 6507SOL     OW20419   1.623   6.006   6.171
 6507SOL    HW120420   1.628   5.906   6.179
 6507SOL    HW220421   1.668   6.048   6.250
 6508SOL     OW20422   2.174   1.823   3.357
 6508SOL    HW120423   2.150   1.913   3.394
 6508SOL    HW220424   2.269   1.802   3.380
 6509SOL     OW20425   2.401   2.574   4.446
 6509SOL    HW120426   2.342   2.641   4.401
 6509SOL    HW220427   2.345   2.505   4.492
 6510SOL     OW20428   0.213   5.151   6.679
 6510SOL    HW120429   0.143   5.219   6.698
 6510SOL    HW220430   0.254   5.120   6.765
 6511SOL     OW20431   5.018   0.938   4.894
 6511SOL    HW120432   5.108   0.929   4.853
 6511SOL    HW220433   4.961   0.999   4.839
 6512SOL     OW20434   5.215   0.220   2.686
 6512SOL    HW120435   5.153   0.285   2.643
 6512SOL    HW220436   5.266   0.266   2.759
 6513SOL     OW20437   3.221   5.701   3.121
 6513SOL    HW120438   3.309   5.728   3.080
 6513SOL    HW220439   3.220   5.728   3.217
 6514SOL     OW20440   5.990   0.410   3.307
 6514SOL    HW120441   5.956   0.386   3.216
 6514SOL    HW220442   6.016   0.327   3.356
 6515SOL     OW20443   0.334   4.897   4.063
 6515SOL    HW120444   0.273   4.878   3.986
 6515SOL    HW220445   0.358   4.994   4.063
 6516SOL     OW20446   0.512   2.600   0.553
 6516SOL    HW120447   0.556   2.652   0.627
 6516SOL    HW220448   0.552   2.627   0.465
 6517SOL     OW20449   5.770   0.968   0.796
 6517SOL    HW120450   5.867   0.968   0.776
 6517SOL    HW220451   5.754   1.018   0.882
 6518SOL     OW20452   0.523   6.175   6.606
 6518SOL    HW120453   0.494   6.206   6.696
 6518SOL    HW220454   0.473   6.226   6.536
 6519SOL     OW20455   2.571   1.776   3.059
 6519SOL    HW120456   2.478   1.746   3.039
 6519SOL    HW220457   2.598   1.847   2.994
 6520SOL     OW20458   6.552   5.736   2.928
 6520SOL    HW120459   6.559   5.654   2.872
 6520SOL    HW220460   6.634   5.792   2.916
 6521SOL     OW20461   1.106   1.579   4.388
 6521SOL    HW120462   1.090   1.647   4.316
 6521SOL    HW220463   1.122   1.626   4.475
 6522SOL     OW20464   3.201   4.540   6.788
 6522SOL    HW120465   3.221   4.526   6.691
 6522SOL    HW220466   3.281   4.577   6.834
 6523SOL     OW20467   3.147   1.057   6.278
 6523SOL    HW120468   3.073   0.995   6.305
 6523SOL    HW220469   3.205   1.012   6.209
 6524SOL     OW20470   3.543   3.091   2.903
 6524SOL    HW120471   3.538   3.176   2.954
 6524SOL    HW220472   3.601   3.026   2.952
 6525SOL     OW20473   2.162   3.095   2.605
 6525SOL    HW120474   2.159   3.188   2.642
 6525SOL    HW220475   2.181   3.099   2.507
 6526SOL     OW20476   0.678   6.301   5.035
 6526SOL    HW120477   0.667   6.398   5.054
 6526SOL    HW220478   0.633   6.279   4.948
 6527SOL     OW20479   0.476   1.680   4.297
 6527SOL    HW120480   0.493   1.714   4.390
 6527SOL    HW220481   0.510   1.586   4.290
 6528SOL     OW20482   0.137   0.546   3.712
 6528SOL    HW120483   0.168   0.596   3.793
 6528SOL    HW220484   0.212   0.540   3.646
 6529SOL     OW20485   6.335   1.572   3.560
 6529SOL    HW120486   6.355   1.667   3.535
 6529SOL    HW220487   6.383   1.511   3.498
 6530SOL     OW20488   6.602   3.979   1.312
 6530SOL    HW120489   6.659   4.040   1.256
 6530SOL    HW220490   6.659   3.908   1.352
 6531SOL     OW20491   5.244   3.280   4.355
 6531SOL    HW120492   5.209   3.371   4.381
 6531SOL    HW220493   5.218   3.214   4.425
 6532SOL     OW20494   5.765   1.379   0.994
 6532SOL    HW120495   5.681   1.358   0.943
 6532SOL    HW220496   5.743   1.384   1.092
 6533SOL     OW20497   5.325   5.813   1.559
 6533SOL    HW120498   5.367   5.865   1.633
 6533SOL    HW220499   5.226   5.810   1.572
 6534SOL     OW20500   2.933   4.560   1.588
 6534SOL    HW120501   2.898   4.543   1.680
 6534SOL    HW220502   3.032   4.550   1.587
 6535SOL     OW20503   0.249   3.070   4.350
 6535SOL    HW120504   0.168   3.096   4.403
 6535SOL    HW220505   0.323   3.046   4.412
 6536SOL     OW20506   6.711   2.042   5.750
 6536SOL    HW120507   6.748   2.059   5.659
 6536SOL    HW220508   6.783   2.006   5.809
 6537SOL     OW20509   6.119   5.859   6.765
 6537SOL    HW120510   6.023   5.846   6.739
 6537SOL    HW220511   6.170   5.774   6.746
 6538SOL     OW20512   3.931   4.335   6.889
 6538SOL    HW120513   3.970   4.300   6.974
 6538SOL    HW220514   3.834   4.356   6.902
 6539SOL     OW20515   2.697   1.470   5.940
 6539SOL    HW120516   2.694   1.426   6.030
 6539SOL    HW220517   2.629   1.428   5.880
 6540SOL     OW20518   4.642   2.025   5.228
 6540SOL    HW120519   4.573   1.985   5.167
 6540SOL    HW220520   4.624   2.123   5.238
 6541SOL     OW20521   3.900   1.845   4.685
 6541SOL    HW120522   3.989   1.820   4.647
 6541SOL    HW220523   3.869   1.930   4.643
 6542SOL     OW20524   6.792   4.694   3.610
 6542SOL    HW120525   6.763   4.705   3.515
 6542SOL    HW220526   6.837   4.777   3.641
 6543SOL     OW20527   6.318   4.092   0.254
 6543SOL    HW120528   6.235   4.146   0.241
 6543SOL    HW220529   6.303   3.998   0.223
 6544SOL     OW20530   0.544   5.993   3.412
 6544SOL    HW120531   0.498   6.066   3.361
 6544SOL    HW220532   0.509   5.904   3.383
 6545SOL     OW20533   5.220   2.181   6.858
 6545SOL    HW120534   5.265   2.264   6.890
 6545SOL    HW220535   5.256   2.155   6.769
 6546SOL     OW20536   4.407   4.538   6.285
 6546SOL    HW120537   4.368   4.448   6.302
 6546SOL    HW220538   4.341   4.608   6.309
 6547SOL     OW20539   4.171   1.640   5.910
 6547SOL    HW120540   4.227   1.679   5.837
 6547SOL    HW220541   4.223   1.567   5.956
 6548SOL     OW20542   0.875   3.767   6.588
 6548SOL    HW120543   0.792   3.724   6.552
 6548SOL    HW220544   0.937   3.788   6.512
 6549SOL     OW20545   3.369   1.361   0.420
 6549SOL    HW120546   3.386   1.290   0.351
 6549SOL    HW220547   3.439   1.355   0.492
 6550SOL     OW20548   6.976   6.080   3.417
 6550SOL    HW120549   6.891   6.106   3.464
 6550SOL    HW220550   7.010   5.993   3.454
 6551SOL     OW20551   2.009   3.988   1.937
 6551SOL    HW120552   2.095   4.032   1.964
 6551SOL    HW220553   2.018   3.953   1.844
 6552SOL     OW20554   2.605   0.173   4.822
 6552SOL    HW120555   2.603   0.235   4.743
 6552SOL    HW220556   2.644   0.220   4.901
 6553SOL     OW20557   0.232   1.796   1.725
 6553SOL    HW120558   0.221   1.742   1.641
 6553SOL    HW220559   0.157   1.776   1.788
 6554SOL     OW20560   5.666   1.949   5.874
 6554SOL    HW120561   5.622   1.958   5.964
 6554SOL    HW220562   5.751   1.898   5.883
 6555SOL     OW20563   1.379   1.783   1.776
 6555SOL    HW120564   1.345   1.865   1.820
 6555SOL    HW220565   1.409   1.717   1.845
 6556SOL     OW20566   4.522   4.609   5.206
 6556SOL    HW120567   4.504   4.703   5.234
 6556SOL    HW220568   4.456   4.582   5.135
 6557SOL     OW20569   5.469   5.571   1.505
 6557SOL    HW120570   5.441   5.667   1.509
 6557SOL    HW220571   5.548   5.556   1.564
 6558SOL     OW20572   6.138   6.026   1.324
 6558SOL    HW120573   6.229   6.021   1.365
 6558SOL    HW220574   6.123   5.944   1.268
 6559SOL     OW20575   6.541   4.158   0.424
 6559SOL    HW120576   6.530   4.087   0.494
 6559SOL    HW220577   6.454   4.172   0.377
 6560SOL     OW20578   3.538   2.948   1.815
 6560SOL    HW120579   3.476   3.001   1.874
 6560SOL    HW220580   3.491   2.866   1.783
 6561SOL     OW20581   3.286   3.686   1.916
 6561SOL    HW120582   3.329   3.617   1.974
 6561SOL    HW220583   3.203   3.719   1.960
 6562SOL     OW20584   5.898   4.868   6.658
 6562SOL    HW120585   5.892   4.803   6.582
 6562SOL    HW220586   5.926   4.957   6.624
 6563SOL     OW20587   0.530   6.539   6.815
 6563SOL    HW120588   0.593   6.612   6.790
 6563SOL    HW220589   0.496   6.554   6.907
 6564SOL     OW20590   0.523   3.684   2.137
 6564SOL    HW120591   0.457   3.696   2.212
 6564SOL    HW220592   0.604   3.637   2.172
 6565SOL     OW20593   6.356   1.936   4.087
 6565SOL    HW120594   6.349   1.924   3.988
 6565SOL    HW220595   6.402   1.856   4.126
 6566SOL     OW20596   3.592   6.705   1.202
 6566SOL    HW120597   3.492   6.716   1.200
 6566SOL    HW220598   3.619   6.667   1.290
 6567SOL     OW20599   4.253   2.453   1.291
 6567SOL    HW120600   4.250   2.359   1.259
 6567SOL    HW220601   4.228   2.456   1.388
 6568SOL     OW20602   5.047   4.953   2.835
 6568SOL    HW120603   5.146   4.944   2.847
 6568SOL    HW220604   5.025   5.047   2.810
 6569SOL     OW20605   3.426   4.643   1.314
 6569SOL    HW120606   3.474   4.613   1.396
 6569SOL    HW220607   3.485   4.704   1.261
 6570SOL     OW20608   4.610   6.704   1.454
 6570SOL    HW120609   4.658   6.772   1.509
 6570SOL    HW220610   4.660   6.690   1.368
 6571SOL     OW20611   2.431   6.541   2.278
 6571SOL    HW120612   2.363   6.520   2.349
 6571SOL    HW220613   2.384   6.577   2.198
 6572SOL     OW20614   6.591   4.973   5.281
 6572SOL    HW120615   6.591   4.876   5.307
 6572SOL    HW220616   6.678   4.994   5.235
 6573SOL     OW20617   2.865   1.482   2.460
 6573SOL    HW120618   2.840   1.574   2.490
 6573SOL    HW220619   2.840   1.416   2.530
 6574SOL     OW20620   2.801   6.034   2.519
 6574SOL    HW120621   2.882   6.092   2.515
 6574SOL    HW220622   2.823   5.943   2.483
 6575SOL     OW20623   0.965   1.566   1.702
 6575SOL    HW120624   0.917   1.592   1.619
 6575SOL    HW220625   0.980   1.647   1.758
 6576SOL     OW20626   1.313   6.249   6.726
 6576SOL    HW120627   1.247   6.312   6.686
 6576SOL    HW220628   1.311   6.257   6.826
 6577SOL     OW20629   0.464   1.482   3.308
 6577SOL    HW120630   0.399   1.465   3.234
 6577SOL    HW220631   0.514   1.566   3.289
 6578SOL     OW20632   0.231   4.597   2.860
 6578SOL    HW120633   0.222   4.537   2.939
 6578SOL    HW220634   0.144   4.642   2.842
 6579SOL     OW20635   0.210   4.030   4.509
 6579SOL    HW120636   0.188   4.123   4.536
 6579SOL    HW220637   0.182   3.967   4.582
 6580SOL     OW20638   6.108   1.217   1.286
 6580SOL    HW120639   6.156   1.208   1.374
 6580SOL    HW220640   6.011   1.233   1.303
 6581SOL     OW20641   3.910   0.733   5.993
 6581SOL    HW120642   3.903   0.641   6.031
 6581SOL    HW220643   4.000   0.744   5.951
 6582SOL     OW20644   1.441   0.561   1.798
 6582SOL    HW120645   1.399   0.580   1.887
 6582SOL    HW220646   1.531   0.519   1.812
 6583SOL     OW20647   4.114   0.680   5.795
 6583SOL    HW120648   4.133   0.770   5.755
 6583SOL    HW220649   4.196   0.623   5.789
 6584SOL     OW20650   5.292   1.634   0.207
 6584SOL    HW120651   5.219   1.575   0.172
 6584SOL    HW220652   5.278   1.728   0.175
 6585SOL     OW20653   6.184   1.379   0.129
 6585SOL    HW120654   6.144   1.345   0.214
 6585SOL    HW220655   6.114   1.380   0.058
 6586SOL     OW20656   5.953   2.652   6.028
 6586SOL    HW120657   5.965   2.601   5.943
 6586SOL    HW220658   5.870   2.708   6.021
 6587SOL     OW20659   2.974   5.491   3.972
 6587SOL    HW120660   3.062   5.511   3.927
 6587SOL    HW220661   2.918   5.574   3.974
 6588SOL     OW20662   2.105   3.834   1.437
 6588SOL    HW120663   2.047   3.755   1.415
 6588SOL    HW220664   2.132   3.880   1.353
 6589SOL     OW20665   4.364   0.354   6.474
 6589SOL    HW120666   4.388   0.257   6.475
 6589SOL    HW220667   4.266   0.363   6.455
 6590SOL     OW20668   0.709   1.569   6.233
 6590SOL    HW120669   0.786   1.616   6.189
 6590SOL    HW220670   0.720   1.574   6.332
 6591SOL     OW20671   5.761   6.265   2.407
 6591SOL    HW120672   5.854   6.273   2.371
 6591SOL    HW220673   5.746   6.171   2.439
 6592SOL     OW20674   5.431   6.599   4.218
 6592SOL    HW120675   5.334   6.573   4.220
 6592SOL    HW220676   5.469   6.594   4.311
 6593SOL     OW20677   2.430   2.454   3.501
 6593SOL    HW120678   2.345   2.405   3.523
 6593SOL    HW220679   2.493   2.447   3.579
 6594SOL     OW20680   3.496   0.916   0.650
 6594SOL    HW120681   3.574   0.954   0.601
 6594SOL    HW220682   3.452   0.847   0.592
 6595SOL     OW20683   0.410   3.909   0.435
 6595SOL    HW120684   0.450   3.905   0.344
 6595SOL    HW220685   0.390   3.816   0.467
 6596SOL     OW20686   3.889   6.930   4.417
 6596SOL    HW120687   3.900   6.992   4.340
 6596SOL    HW220688   3.979   6.900   4.448
 6597SOL     OW20689   1.575   6.333   3.025
 6597SOL    HW120690   1.541   6.345   3.118
 6597SOL    HW220691   1.625   6.247   3.018
 6598SOL     OW20692   1.421   6.208   4.876
 6598SOL    HW120693   1.491   6.268   4.838
 6598SOL    HW220694   1.432   6.201   4.975
 6599SOL     OW20695   3.557   5.196   5.670
 6599SOL    HW120696   3.569   5.293   5.688
 6599SOL    HW220697   3.578   5.177   5.573
 6600SOL     OW20698   5.063   5.484   5.648
 6600SOL    HW120699   5.033   5.393   5.618
 6600SOL    HW220700   4.983   5.542   5.662
 6601SOL     OW20701   1.178   0.806   0.583
 6601SOL    HW120702   1.250   0.852   0.531
 6601SOL    HW220703   1.193   0.822   0.681
 6602SOL     OW20704   6.154   1.832   1.801
 6602SOL    HW120705   6.160   1.849   1.900
 6602SOL    HW220706   6.152   1.733   1.785
 6603SOL     OW20707   1.027   2.921   4.248
 6603SOL    HW120708   1.116   2.963   4.229
 6603SOL    HW220709   1.022   2.893   4.343
 6604SOL     OW20710   2.477   6.187   1.529
 6604SOL    HW120711   2.417   6.183   1.450
 6604SOL    HW220712   2.439   6.249   1.598
 6605SOL     OW20713   5.044   5.155   0.734
 6605SOL    HW120714   5.111   5.177   0.804
 6605SOL    HW220715   4.978   5.229   0.725
 6606SOL     OW20716   4.765   6.748   2.131
 6606SOL    HW120717   4.682   6.719   2.082
 6606SOL    HW220718   4.802   6.670   2.182
 6607SOL     OW20719   2.219   2.036   1.409
 6607SOL    HW120720   2.266   2.124   1.421
 6607SOL    HW220721   2.219   1.987   1.496
 6608SOL     OW20722   5.223   4.991   2.007
 6608SOL    HW120723   5.144   4.934   2.028
 6608SOL    HW220724   5.243   5.051   2.085
 6609SOL     OW20725   4.691   0.947   6.289
 6609SOL    HW120726   4.714   0.951   6.387
 6609SOL    HW220727   4.599   0.911   6.278
 6610SOL     OW20728   2.548   0.391   6.655
 6610SOL    HW120729   2.468   0.431   6.611
 6610SOL    HW220730   2.626   0.395   6.592
 6611SOL     OW20731   6.582   2.424   3.442
 6611SOL    HW120732   6.566   2.479   3.524
 6611SOL    HW220733   6.532   2.464   3.365
 6612SOL     OW20734   6.812   3.547   6.910
 6612SOL    HW120735   6.745   3.563   6.982
 6612SOL    HW220736   6.869   3.628   6.898
 6613SOL     OW20737   5.626   5.756   3.868
 6613SOL    HW120738   5.607   5.683   3.934
 6613SOL    HW220739   5.678   5.828   3.912
 6614SOL     OW20740   5.014   6.645   6.717
 6614SOL    HW120741   4.974   6.612   6.802
 6614SOL    HW220742   5.113   6.627   6.717
 6615SOL     OW20743   0.954   4.163   4.367
 6615SOL    HW120744   1.016   4.227   4.320
 6615SOL    HW220745   0.924   4.093   4.302
 6616SOL     OW20746   4.263   0.971   6.052
 6616SOL    HW120747   4.239   1.062   6.085
 6616SOL    HW220748   4.318   0.980   5.969
 6617SOL     OW20749   3.084   6.132   2.834
 6617SOL    HW120750   3.036   6.088   2.910
 6617SOL    HW220751   3.042   6.221   2.815
 6618SOL     OW20752   0.901   3.714   2.888
 6618SOL    HW120753   0.925   3.730   2.792
 6618SOL    HW220754   0.828   3.645   2.893
 6619SOL     OW20755   6.512   6.672   4.857
 6619SOL    HW120756   6.497   6.575   4.874
 6619SOL    HW220757   6.435   6.725   4.893
 6620SOL     OW20758   1.861   2.776   5.245
 6620SOL    HW120759   1.932   2.733   5.301
 6620SOL    HW220760   1.875   2.875   5.243
 6621SOL     OW20761   2.823   3.310   0.086
 6621SOL    HW120762   2.910   3.262   0.079
 6621SOL    HW220763   2.768   3.270   0.159
 6622SOL     OW20764   6.319   6.331   1.972
 6622SOL    HW120765   6.262   6.290   1.901
 6622SOL    HW220766   6.358   6.260   2.030
 6623SOL     OW20767   3.048   3.425   1.580
 6623SOL    HW120768   3.065   3.519   1.607
 6623SOL    HW220769   3.106   3.364   1.635
 6624SOL     OW20770   2.144   0.098   4.077
 6624SOL    HW120771   2.135   0.080   4.175
 6624SOL    HW220772   2.130   0.014   4.026
 6625SOL     OW20773   5.371   2.104   6.628
 6625SOL    HW120774   5.423   2.187   6.607
 6625SOL    HW220775   5.421   2.024   6.593
 6626SOL     OW20776   3.835   5.011   3.857
 6626SOL    HW120777   3.742   4.987   3.832
 6626SOL    HW220778   3.896   4.935   3.835
 6627SOL     OW20779   2.475   0.539   5.790
 6627SOL    HW120780   2.382   0.507   5.807
 6627SOL    HW220781   2.472   0.632   5.753
 6628SOL     OW20782   4.962   5.236   3.655
 6628SOL    HW120783   4.987   5.158   3.713
 6628SOL    HW220784   4.939   5.314   3.713
 6629SOL     OW20785   2.504   6.286   0.540
 6629SOL    HW120786   2.574   6.216   0.547
 6629SOL    HW220787   2.503   6.342   0.624
 6630SOL     OW20788   3.641   1.766   1.011
 6630SOL    HW120789   3.670   1.810   1.096
 6630SOL    HW220790   3.671   1.821   0.933
 6631SOL     OW20791   4.422   0.346   2.186
 6631SOL    HW120792   4.332   0.365   2.149
 6631SOL    HW220793   4.421   0.360   2.285
 6632SOL     OW20794   0.269   1.055   1.470
 6632SOL    HW120795   0.255   1.143   1.424
 6632SOL    HW220796   0.185   1.002   1.467
 6633SOL     OW20797   1.634   5.321   5.750
 6633SOL    HW120798   1.612   5.372   5.667
 6633SOL    HW220799   1.549   5.281   5.787
 6634SOL     OW20800   5.761   3.521   5.833
 6634SOL    HW120801   5.707   3.444   5.868
 6634SOL    HW220802   5.804   3.569   5.910
 6635SOL     OW20803   4.293   5.146   3.285
 6635SOL    HW120804   4.329   5.061   3.245
 6635SOL    HW220805   4.226   5.186   3.224
 6636SOL     OW20806   2.743   2.163   5.754
 6636SOL    HW120807   2.675   2.104   5.798
 6636SOL    HW220808   2.805   2.108   5.698
 6637SOL     OW20809   1.616   0.190   6.559
 6637SOL    HW120810   1.550   0.264   6.550
 6637SOL    HW220811   1.599   0.140   6.644
 6638SOL     OW20812   3.895   4.880   5.174
 6638SOL    HW120813   3.845   4.966   5.185
 6638SOL    HW220814   3.833   4.804   5.194
 6639SOL     OW20815   5.547   6.124   6.930
 6639SOL    HW120816   5.565   6.218   6.903
 6639SOL    HW220817   5.628   6.068   6.914
 6640SOL     OW20818   0.066   1.742   5.355
 6640SOL    HW120819   0.023   1.742   5.265
 6640SOL    HW220820   0.131   1.818   5.361
 6641SOL     OW20821   2.352   3.019   6.537
 6641SOL    HW120822   2.333   3.084   6.463
 6641SOL    HW220823   2.380   2.931   6.499
 6642SOL     OW20824   2.974   5.226   0.697
 6642SOL    HW120825   3.012   5.139   0.729
 6642SOL    HW220826   3.035   5.300   0.724
 6643SOL     OW20827   6.418   4.573   6.592
 6643SOL    HW120828   6.448   4.487   6.551
 6643SOL    HW220829   6.463   4.585   6.680
 6644SOL     OW20830   2.783   4.861   1.860
 6644SOL    HW120831   2.791   4.933   1.929
 6644SOL    HW220832   2.774   4.772   1.905
 6645SOL     OW20833   6.817   5.101   0.510
 6645SOL    HW120834   6.764   5.084   0.593
 6645SOL    HW220835   6.914   5.090   0.529
 6646SOL     OW20836   4.180   6.142   4.546
 6646SOL    HW120837   4.205   6.100   4.459
 6646SOL    HW220838   4.094   6.192   4.536
 6647SOL     OW20839   3.617   1.341   2.151
 6647SOL    HW120840   3.546   1.319   2.219
 6647SOL    HW220841   3.667   1.422   2.181
 6648SOL     OW20842   3.047   5.816   2.097
 6648SOL    HW120843   3.131   5.768   2.121
 6648SOL    HW220844   2.990   5.758   2.040
 6649SOL     OW20845   4.977   1.647   6.812
 6649SOL    HW120846   4.950   1.691   6.726
 6649SOL    HW220847   4.895   1.617   6.861
 6650SOL     OW20848   4.333   1.619   5.352
 6650SOL    HW120849   4.270   1.595   5.426
 6650SOL    HW220850   4.334   1.545   5.284
 6651SOL     OW20851   1.461   1.844   6.991
 6651SOL    HW120852   1.426   1.895   6.911
 6651SOL    HW220853   1.504   1.908   0.033
 6652SOL     OW20854   6.401   4.839   0.515
 6652SOL    HW120855   6.397   4.927   0.468
 6652SOL    HW220856   6.337   4.840   0.592
 6653SOL     OW20857   4.012   3.347   3.114
 6653SOL    HW120858   3.947   3.288   3.161
 6653SOL    HW220859   3.962   3.415   3.060
 6654SOL     OW20860   2.368   2.900   0.768
 6654SOL    HW120861   2.304   2.963   0.812
 6654SOL    HW220862   2.389   2.825   0.831
 6655SOL     OW20863   3.190   6.916   1.767
 6655SOL    HW120864   3.272   6.864   1.792
 6655SOL    HW220865   3.217   7.003   1.727
 6656SOL     OW20866   5.979   1.599   2.957
 6656SOL    HW120867   5.887   1.638   2.965
 6656SOL    HW220868   5.982   1.538   2.877
 6657SOL     OW20869   4.977   6.195   6.439
 6657SOL    HW120870   4.928   6.150   6.364
 6657SOL    HW220871   4.922   6.193   6.522
 6658SOL     OW20872   6.077   1.717   4.878
 6658SOL    HW120873   6.079   1.675   4.968
 6658SOL    HW220874   6.023   1.660   4.816
 6659SOL     OW20875   2.742   2.267   0.171
 6659SOL    HW120876   2.716   2.352   0.126
 6659SOL    HW220877   2.708   2.267   0.265
 6660SOL     OW20878   0.353   6.231   0.978
 6660SOL    HW120879   0.425   6.299   0.965
 6660SOL    HW220880   0.265   6.271   0.953
 6661SOL     OW20881   0.743   5.570   3.859
 6661SOL    HW120882   0.783   5.557   3.950
 6661SOL    HW220883   0.738   5.482   3.812
 6662SOL     OW20884   1.850   0.055   6.497
 6662SOL    HW120885   1.789   0.095   6.564
 6662SOL    HW220886   1.856   0.114   6.417
 6663SOL     OW20887   6.855   5.574   3.050
 6663SOL    HW120888   6.847   5.489   2.998
 6663SOL    HW220889   6.826   5.651   2.994
 6664SOL     OW20890   1.477   6.803   1.153
 6664SOL    HW120891   1.482   6.761   1.063
 6664SOL    HW220892   1.451   6.899   1.143
 6665SOL     OW20893   1.959   0.560   2.577
 6665SOL    HW120894   1.967   0.468   2.616
 6665SOL    HW220895   1.879   0.605   2.615
 6666SOL     OW20896   5.904   1.789   5.816
 6666SOL    HW120897   5.963   1.709   5.815
 6666SOL    HW220898   5.896   1.826   5.723
 6667SOL     OW20899   6.967   5.270   5.255
 6667SOL    HW120900   6.876   5.269   5.214
 6667SOL    HW220901   6.969   5.208   5.333
 6668SOL     OW20902   6.872   6.034   1.792
 6668SOL    HW120903   6.800   5.972   1.760
 6668SOL    HW220904   6.886   6.106   1.724
 6669SOL     OW20905   2.296   2.854   4.339
 6669SOL    HW120906   2.223   2.912   4.301
 6669SOL    HW220907   2.316   2.884   4.433
 6670SOL     OW20908   3.535   3.712   6.525
 6670SOL    HW120909   3.488   3.755   6.602
 6670SOL    HW220910   3.626   3.683   6.553
 6671SOL     OW20911   5.481   5.781   1.224
 6671SOL    HW120912   5.578   5.759   1.225
 6671SOL    HW220913   5.431   5.714   1.279
 6672SOL     OW20914   1.031   1.802   5.058
 6672SOL    HW120915   1.099   1.860   5.012
 6672SOL    HW220916   1.042   1.809   5.157
 6673SOL     OW20917   4.352   6.009   3.159
 6673SOL    HW120918   4.338   5.961   3.072
 6673SOL    HW220919   4.375   6.104   3.142
 6674SOL     OW20920   0.801   5.397   6.621
 6674SOL    HW120921   0.825   5.310   6.665
 6674SOL    HW220922   0.760   5.379   6.531
 6675SOL     OW20923   4.544   4.179   1.592
 6675SOL    HW120924   4.521   4.085   1.565
 6675SOL    HW220925   4.480   4.210   1.662
 6676SOL     OW20926   0.223   3.836   5.569
 6676SOL    HW120927   0.181   3.910   5.518
 6676SOL    HW220928   0.278   3.874   5.644
 6677SOL     OW20929   0.176   2.950   0.206
 6677SOL    HW120930   0.109   2.877   0.221
 6677SOL    HW220931   0.156   2.996   0.120
 6678SOL     OW20932   1.811   2.512   0.154
 6678SOL    HW120933   1.711   2.508   0.167
 6678SOL    HW220934   1.851   2.426   0.182
 6679SOL     OW20935   2.694   1.820   4.295
 6679SOL    HW120936   2.640   1.739   4.313
 6679SOL    HW220937   2.703   1.874   4.379
 6680SOL     OW20938   4.392   6.181   6.037
 6680SOL    HW120939   4.296   6.194   6.012
 6680SOL    HW220940   4.429   6.267   6.072
 6681SOL     OW20941   4.765   4.872   6.843
 6681SOL    HW120942   4.837   4.805   6.824
 6681SOL    HW220943   4.804   4.948   6.896
 6682SOL     OW20944   0.827   4.090   2.434
 6682SOL    HW120945   0.895   4.163   2.434
 6682SOL    HW220946   0.737   4.128   2.416
 6683SOL     OW20947   5.165   2.765   6.098
 6683SOL    HW120948   5.066   2.770   6.114
 6683SOL    HW220949   5.213   2.796   6.180
 6684SOL     OW20950   1.888   6.864   1.054
 6684SOL    HW120951   1.801   6.912   1.062
 6684SOL    HW220952   1.945   6.907   0.985
 6685SOL     OW20953   5.538   1.926   5.626
 6685SOL    HW120954   5.578   1.912   5.717
 6685SOL    HW220955   5.535   1.839   5.577
 6686SOL     OW20956   5.384   5.369   3.583
 6686SOL    HW120957   5.331   5.356   3.667
 6686SOL    HW220958   5.373   5.464   3.552
 6687SOL     OW20959   0.484   1.626   1.453
 6687SOL    HW120960   0.485   1.527   1.439
 6687SOL    HW220961   0.577   1.660   1.463
 6688SOL     OW20962   0.298   4.335   1.783
 6688SOL    HW120963   0.203   4.331   1.814
 6688SOL    HW220964   0.345   4.411   1.829
 6689SOL     OW20965   4.381   2.507   0.665
 6689SOL    HW120966   4.462   2.558   0.638
 6689SOL    HW220967   4.373   2.507   0.765
 6690SOL     OW20968   2.536   1.076   1.853
 6690SOL    HW120969   2.557   0.978   1.848
 6690SOL    HW220970   2.621   1.128   1.849
 6691SOL     OW20971   3.234   5.495   1.649
 6691SOL    HW120972   3.239   5.452   1.558
 6691SOL    HW220973   3.260   5.591   1.641
 6692SOL     OW20974   2.790   4.707   5.343
 6692SOL    HW120975   2.758   4.793   5.304
 6692SOL    HW220976   2.841   4.656   5.274
 6693SOL     OW20977   5.092   3.522   6.378
 6693SOL    HW120978   5.131   3.613   6.389
 6693SOL    HW220979   5.163   3.453   6.389
 6694SOL     OW20980   4.710   6.107   6.852
 6694SOL    HW120981   4.789   6.066   6.804
 6694SOL    HW220982   4.638   6.127   6.785
 6695SOL     OW20983   1.402   1.669   6.082
 6695SOL    HW120984   1.421   1.700   6.176
 6695SOL    HW220985   1.465   1.714   6.019
 6696SOL     OW20986   1.826   2.217   0.544
 6696SOL    HW120987   1.741   2.268   0.559
 6696SOL    HW220988   1.833   2.143   0.611
 6697SOL     OW20989   4.382   2.280   3.167
 6697SOL    HW120990   4.371   2.230   3.081
 6697SOL    HW220991   4.455   2.348   3.157
 6698SOL     OW20992   3.556   2.678   0.319
 6698SOL    HW120993   3.565   2.661   0.417
 6698SOL    HW220994   3.487   2.748   0.302
 6699SOL     OW20995   3.734   4.542   6.898
 6699SOL    HW120996   3.671   4.512   6.969
 6699SOL    HW220997   3.742   4.641   6.901
 6700SOL     OW20998   0.158   5.933   1.044
 6700SOL    HW120999   0.213   5.951   0.963
 6700SOL    HW221000   0.217   5.900   1.118
 6701SOL     OW21001   6.165   2.811   1.197
 6701SOL    HW121002   6.252   2.861   1.194
 6701SOL    HW221003   6.171   2.738   1.266
 6702SOL     OW21004   2.696   2.477   6.968
 6702SOL    HW121005   2.754   2.552   7.000
 6702SOL    HW221006   2.600   2.499   6.988
 6703SOL     OW21007   6.199   2.084   6.839
 6703SOL    HW121008   6.146   2.079   6.924
 6703SOL    HW221009   6.169   2.164   6.786
 6704SOL     OW21010   4.302   2.188   2.666
 6704SOL    HW121011   4.274   2.227   2.579
 6704SOL    HW221012   4.281   2.090   2.667
 6705SOL     OW21013   0.059   1.938   1.881
 6705SOL    HW121014   0.137   1.995   1.855
 6705SOL    HW221015   0.021   1.970   1.968
 6706SOL     OW21016   1.179   4.244   0.513
 6706SOL    HW121017   1.279   4.247   0.516
 6706SOL    HW221018   1.149   4.150   0.499
 6707SOL     OW21019   6.682   5.366   4.660
 6707SOL    HW121020   6.631   5.284   4.631
 6707SOL    HW221021   6.658   5.442   4.600
 6708SOL     OW21022   1.859   5.716   2.586
 6708SOL    HW121023   1.878   5.627   2.627
 6708SOL    HW221024   1.859   5.707   2.486
 6709SOL     OW21025   3.227   5.853   1.341
 6709SOL    HW121026   3.238   5.802   1.426
 6709SOL    HW221027   3.249   5.795   1.263
 6710SOL     OW21028   2.165   2.138   5.939
 6710SOL    HW121029   2.193   2.203   5.869
 6710SOL    HW221030   2.148   2.049   5.897
 6711SOL     OW21031   6.029   4.647   6.781
 6711SOL    HW121032   6.101   4.640   6.712
 6711SOL    HW221033   5.969   4.724   6.761
 6712SOL     OW21034   4.331   5.433   0.441
 6712SOL    HW121035   4.299   5.498   0.372
 6712SOL    HW221036   4.298   5.342   0.419
 6713SOL     OW21037   2.204   1.497   1.358
 6713SOL    HW121038   2.267   1.435   1.406
 6713SOL    HW221039   2.226   1.592   1.382
 6714SOL     OW21040   5.448   0.681   5.657
 6714SOL    HW121041   5.442   0.776   5.686
 6714SOL    HW221042   5.516   0.672   5.585
 6715SOL     OW21043   0.201   0.687   0.317
 6715SOL    HW121044   0.286   0.692   0.264
 6715SOL    HW221045   0.181   0.777   0.355
 6716SOL     OW21046   0.997   6.470   1.666
 6716SOL    HW121047   0.982   6.396   1.600
 6716SOL    HW221048   0.998   6.432   1.759
 6717SOL     OW21049   4.581   2.768   0.783
 6717SOL    HW121050   4.497   2.717   0.797
 6717SOL    HW221051   4.603   2.820   0.866
 6718SOL     OW21052   4.126   6.028   6.392
 6718SOL    HW121053   4.220   6.021   6.362
 6718SOL    HW221054   4.092   6.121   6.375
 6719SOL     OW21055   0.571   0.360   6.319
 6719SOL    HW121056   0.479   0.395   6.339
 6719SOL    HW221057   0.566   0.299   6.239
 6720SOL     OW21058   2.291   6.339   1.962
 6720SOL    HW121059   2.330   6.280   2.033
 6720SOL    HW221060   2.311   6.434   1.983
 6721SOL     OW21061   5.923   6.482   4.592
 6721SOL    HW121062   5.952   6.430   4.512
 6721SOL    HW221063   5.856   6.428   4.643
 6722SOL     OW21064   5.203   3.172   1.056
 6722SOL    HW121065   5.234   3.078   1.071
 6722SOL    HW221066   5.129   3.193   1.120
 6723SOL     OW21067   2.099   6.736   3.130
 6723SOL    HW121068   2.069   6.827   3.102
 6723SOL    HW221069   2.169   6.703   3.067
 6724SOL     OW21070   1.409   4.241   5.657
 6724SOL    HW121071   1.484   4.279   5.712
 6724SOL    HW221072   1.333   4.217   5.717
 6725SOL     OW21073   0.822   4.237   2.056
 6725SOL    HW121074   0.914   4.225   2.093
 6725SOL    HW221075   0.759   4.173   2.100
 6726SOL     OW21076   1.806   1.994   4.406
 6726SOL    HW121077   1.819   1.985   4.504
 6726SOL    HW221078   1.712   2.022   4.387
 6727SOL     OW21079   5.733   3.904   5.965
 6727SOL    HW121080   5.685   3.834   6.018
 6727SOL    HW221081   5.757   3.868   5.875
 6728SOL     OW21082   4.262   1.433   4.503
 6728SOL    HW121083   4.175   1.401   4.540
 6728SOL    HW221084   4.324   1.355   4.490
 6729SOL     OW21085   6.613   1.630   2.466
 6729SOL    HW121086   6.556   1.570   2.522
 6729SOL    HW221087   6.709   1.619   2.492
 6730SOL     OW21088   2.175   6.525   6.599
 6730SOL    HW121089   2.086   6.523   6.554
 6730SOL    HW221090   2.245   6.492   6.536
 6731SOL     OW21091   2.731   4.396   1.138
 6731SOL    HW121092   2.820   4.359   1.112
 6731SOL    HW221093   2.680   4.423   1.056
 6732SOL     OW21094   2.907   5.943   6.611
 6732SOL    HW121095   2.885   6.040   6.615
 6732SOL    HW221096   2.928   5.917   6.517
 6733SOL     OW21097   4.429   5.477   6.488
 6733SOL    HW121098   4.503   5.413   6.509
 6733SOL    HW221099   4.343   5.443   6.527
 6734SOL     OW21100   0.457   3.201   5.998
 6734SOL    HW121101   0.515   3.232   5.922
 6734SOL    HW221102   0.428   3.107   5.981
 6735SOL     OW21103   0.327   5.352   5.377
 6735SOL    HW121104   0.345   5.327   5.472
 6735SOL    HW221105   0.406   5.328   5.321
 6736SOL     OW21106   1.888   3.485   0.604
 6736SOL    HW121107   1.941   3.570   0.613
 6736SOL    HW221108   1.874   3.466   0.507
 6737SOL     OW21109   2.104   1.837   1.243
 6737SOL    HW121110   2.137   1.877   1.329
 6737SOL    HW221111   2.177   1.785   1.201
 6738SOL     OW21112   1.882   2.756   1.902
 6738SOL    HW121113   1.970   2.710   1.905
 6738SOL    HW221114   1.820   2.715   1.969
 6739SOL     OW21115   3.319   5.379   5.866
 6739SOL    HW121116   3.413   5.388   5.836
 6739SOL    HW221117   3.315   5.326   5.951
 6740SOL     OW21118   2.120   1.594   4.270
 6740SOL    HW121119   2.176   1.542   4.334
 6740SOL    HW221120   2.029   1.609   4.309
 6741SOL     OW21121   4.500   1.680   5.915
 6741SOL    HW121122   4.517   1.684   5.817
 6741SOL    HW221123   4.575   1.725   5.964
 6742SOL     OW21124   0.178   5.887   4.104
 6742SOL    HW121125   0.256   5.950   4.097
 6742SOL    HW221126   0.162   5.843   4.016
 6743SOL     OW21127   4.088   3.960   6.433
 6743SOL    HW121128   4.135   3.879   6.398
 6743SOL    HW221129   3.992   3.956   6.408
 6744SOL     OW21130   4.079   5.507   6.068
 6744SOL    HW121131   4.157   5.513   6.130
 6744SOL    HW221132   4.074   5.589   6.012
 6745SOL     OW21133   0.826   5.090   2.750
 6745SOL    HW121134   0.841   5.024   2.677
 6745SOL    HW221135   0.914   5.121   2.785
 6746SOL     OW21136   0.412   0.560   2.028
 6746SOL    HW121137   0.354   0.546   2.109
 6746SOL    HW221138   0.383   0.642   1.980
 6747SOL     OW21139   5.587   6.261   4.416
 6747SOL    HW121140   5.553   6.330   4.480
 6747SOL    HW221141   5.545   6.173   4.436
 6748SOL     OW21142   0.996   1.113   2.506
 6748SOL    HW121143   1.024   1.018   2.488
 6748SOL    HW221144   1.045   1.148   2.586
 6749SOL     OW21145   3.117   6.833   0.082
 6749SOL    HW121146   3.210   6.827   0.046
 6749SOL    HW221147   3.090   6.929   0.090
 6750SOL     OW21148   3.506   1.815   4.581
 6750SOL    HW121149   3.547   1.823   4.491
 6750SOL    HW221150   3.441   1.890   4.596
 6751SOL     OW21151   2.941   2.260   3.752
 6751SOL    HW121152   3.041   2.258   3.744
 6751SOL    HW221153   2.901   2.280   3.663
 6752SOL     OW21154   6.348   2.342   1.580
 6752SOL    HW121155   6.317   2.271   1.643
 6752SOL    HW221156   6.278   2.413   1.573
 6753SOL     OW21157   4.415   1.764   6.709
 6753SOL    HW121158   4.364   1.807   6.634
 6753SOL    HW221159   4.352   1.741   6.783
 6754SOL     OW21160   6.595   2.169   6.343
 6754SOL    HW121161   6.669   2.109   6.374
 6754SOL    HW221162   6.591   2.250   6.402
 6755SOL     OW21163   5.096   1.504   4.037
 6755SOL    HW121164   5.171   1.563   4.008
 6755SOL    HW221165   5.055   1.541   4.120
 6756SOL     OW21166   4.794   3.972   3.946
 6756SOL    HW121167   4.807   3.968   3.847
 6756SOL    HW221168   4.847   3.899   3.989
 6757SOL     OW21169   4.783   5.637   0.232
 6757SOL    HW121170   4.793   5.562   0.297
 6757SOL    HW221171   4.820   5.721   0.272
 6758SOL     OW21172   4.864   3.432   1.964
 6758SOL    HW121173   4.835   3.488   1.886
 6758SOL    HW221174   4.795   3.439   2.037
 6759SOL     OW21175   1.339   3.865   3.901
 6759SOL    HW121176   1.428   3.824   3.882
 6759SOL    HW221177   1.350   3.962   3.923
 6760SOL     OW21178   0.106   4.911   4.974
 6760SOL    HW121179   0.148   4.930   4.885
 6760SOL    HW221180   0.129   4.985   5.038
 6761SOL     OW21181   5.596   2.923   5.989
 6761SOL    HW121182   5.634   2.876   5.909
 6761SOL    HW221183   5.531   2.993   5.959
 6762SOL     OW21184   6.396   5.073   3.338
 6762SOL    HW121185   6.316   5.126   3.313
 6762SOL    HW221186   6.401   5.065   3.438
 6763SOL     OW21187   6.048   5.519   4.611
 6763SOL    HW121188   6.017   5.583   4.681
 6763SOL    HW221189   6.133   5.552   4.569
 6764SOL     OW21190   3.256   3.782   5.954
 6764SOL    HW121191   3.299   3.710   5.899
 6764SOL    HW221192   3.219   3.852   5.893
 6765SOL     OW21193   6.308   4.737   3.546
 6765SOL    HW121194   6.335   4.830   3.572
 6765SOL    HW221195   6.222   4.714   3.592
 6766SOL     OW21196   2.113   0.401   6.109
 6766SOL    HW121197   2.182   0.369   6.044
 6766SOL    HW221198   2.137   0.492   6.142
 6767SOL     OW21199   0.266   2.400   0.286
 6767SOL    HW121200   0.221   2.449   0.360
 6767SOL    HW221201   0.198   2.369   0.219
 6768SOL     OW21202   0.651   0.620   3.638
 6768SOL    HW121203   0.663   0.574   3.550
 6768SOL    HW221204   0.661   0.719   3.626
 6769SOL     OW21205   3.152   1.804   5.321
 6769SOL    HW121206   3.070   1.752   5.297
 6769SOL    HW221207   3.135   1.901   5.306
 6770SOL     OW21208   0.293   2.761   3.952
 6770SOL    HW121209   0.386   2.725   3.953
 6770SOL    HW221210   0.263   2.774   3.857
 6771SOL     OW21211   3.488   2.005   3.399
 6771SOL    HW121212   3.423   1.943   3.355
 6771SOL    HW221213   3.515   2.076   3.334
 6772SOL     OW21214   5.344   1.501   2.670
 6772SOL    HW121215   5.297   1.526   2.755
 6772SOL    HW221216   5.289   1.529   2.592
 6773SOL     OW21217   6.976   6.670   1.558
 6773SOL    HW121218   6.882   6.701   1.569
 6773SOL    HW221219   6.976   6.572   1.536
 6774SOL     OW21220   1.898   1.955   5.201
 6774SOL    HW121221   1.850   2.043   5.212
 6774SOL    HW221222   1.967   1.963   5.130
 6775SOL     OW21223   0.832   1.988   4.230
 6775SOL    HW121224   0.764   1.984   4.303
 6775SOL    HW221225   0.798   2.045   4.156
 6776SOL     OW21226   3.866   4.028   1.045
 6776SOL    HW121227   3.942   4.067   1.097
 6776SOL    HW221228   3.891   4.022   0.949
 6777SOL     OW21229   4.681   5.732   1.222
 6777SOL    HW121230   4.684   5.632   1.213
 6777SOL    HW221231   4.588   5.761   1.243
 6778SOL     OW21232   5.807   3.155   2.655
 6778SOL    HW121233   5.754   3.206   2.588
 6778SOL    HW221234   5.744   3.112   2.721
 6779SOL     OW21235   5.864   4.238   5.699
 6779SOL    HW121236   5.898   4.294   5.774
 6779SOL    HW221237   5.778   4.276   5.665
 6780SOL     OW21238   2.544   2.493   2.994
 6780SOL    HW121239   2.481   2.570   3.001
 6780SOL    HW221240   2.567   2.461   3.086
 6781SOL     OW21241   6.360   1.487   4.468
 6781SOL    HW121242   6.266   1.480   4.435
 6781SOL    HW221243   6.396   1.395   4.486
 6782SOL     OW21244   6.605   1.594   3.415
 6782SOL    HW121245   6.596   1.496   3.400
 6782SOL    HW221246   6.520   1.640   3.390
 6783SOL     OW21247   1.062   4.845   5.634
 6783SOL    HW121248   1.162   4.839   5.627
 6783SOL    HW221249   1.027   4.906   5.563
 6784SOL     OW21250   2.320   3.114   1.408
 6784SOL    HW121251   2.296   3.026   1.448
 6784SOL    HW221252   2.399   3.152   1.456
 6785SOL     OW21253   5.444   4.648   4.741
 6785SOL    HW121254   5.459   4.747   4.733
 6785SOL    HW221255   5.462   4.619   4.835
 6786SOL     OW21256   6.422   2.356   1.145
 6786SOL    HW121257   6.475   2.441   1.146
 6786SOL    HW221258   6.354   2.360   1.072
 6787SOL     OW21259   3.651   2.383   0.254
 6787SOL    HW121260   3.708   2.465   0.253
 6787SOL    HW221261   3.555   2.410   0.246
 6788SOL     OW21262   0.667   3.835   3.462
 6788SOL    HW121263   0.700   3.887   3.541
 6788SOL    HW221264   0.591   3.776   3.492
 6789SOL     OW21265   6.995   3.716   3.871
 6789SOL    HW121266   6.910   3.747   3.914
 6789SOL    HW221267   6.973   3.653   3.797
 6790SOL     OW21268   0.942   4.668   6.142
 6790SOL    HW121269   1.004   4.732   6.097
 6790SOL    HW221270   0.870   4.641   6.078
 6791SOL     OW21271   4.516   1.565   4.066
 6791SOL    HW121272   4.445   1.495   4.076
 6791SOL    HW221273   4.561   1.579   4.154
 6792SOL     OW21274   4.569   6.912   5.619
 6792SOL    HW121275   4.524   6.830   5.654
 6792SOL    HW221276   4.668   6.904   5.632
 6793SOL     OW21277   2.464   3.052   0.264
 6793SOL    HW121278   2.435   3.027   0.357
 6793SOL    HW221279   2.564   3.064   0.263
 6794SOL     OW21280   4.448   1.344   5.732
 6794SOL    HW121281   4.519   1.395   5.684
 6794SOL    HW221282   4.379   1.312   5.666
 6795SOL     OW21283   1.156   1.027   0.957
 6795SOL    HW121284   1.094   1.104   0.943
 6795SOL    HW221285   1.251   1.060   0.962
 6796SOL     OW21286   5.854   1.830   2.077
 6796SOL    HW121287   5.837   1.815   2.174
 6796SOL    HW221288   5.767   1.837   2.029
 6797SOL     OW21289   0.274   2.063   1.744
 6797SOL    HW121290   0.287   1.963   1.740
 6797SOL    HW221291   0.339   2.102   1.809
 6798SOL     OW21292   5.760   0.506   2.062
 6798SOL    HW121293   5.680   0.488   2.004
 6798SOL    HW221294   5.780   0.426   2.117
 6799SOL     OW21295   5.291   6.982   3.061
 6799SOL    HW121296   5.227   0.019   3.010
 6799SOL    HW221297   5.240   6.914   3.113
 6800SOL     OW21298   0.889   0.991   1.581
 6800SOL    HW121299   0.880   0.941   1.495
 6800SOL    HW221300   0.801   0.990   1.628
 6801SOL     OW21301   0.940   6.247   5.117
 6801SOL    HW121302   0.851   6.246   5.071
 6801SOL    HW221303   0.937   6.309   5.195
 6802SOL     OW21304   3.256   5.761   1.606
 6802SOL    HW121305   3.355   5.748   1.617
 6802SOL    HW221306   3.223   5.827   1.674
 6803SOL     OW21307   5.146   5.042   6.986
 6803SOL    HW121308   5.168   4.956   6.940
 6803SOL    HW221309   5.224   5.070   0.020
 6804SOL     OW21310   2.409   4.706   2.889
 6804SOL    HW121311   2.360   4.710   2.802
 6804SOL    HW221312   2.413   4.611   2.921
 6805SOL     OW21313   0.392   4.714   5.842
 6805SOL    HW121314   0.328   4.665   5.900
 6805SOL    HW221315   0.432   4.650   5.776
 6806SOL     OW21316   6.737   0.278   3.448
 6806SOL    HW121317   6.757   0.250   3.541
 6806SOL    HW221318   6.736   0.198   3.388
 6807SOL     OW21319   3.344   3.919   2.395
 6807SOL    HW121320   3.346   3.823   2.366
 6807SOL    HW221321   3.337   3.924   2.495
 6808SOL     OW21322   4.460   1.925   5.010
 6808SOL    HW121323   4.517   2.005   4.993
 6808SOL    HW221324   4.363   1.950   5.001
 6809SOL     OW21325   6.168   4.784   1.925
 6809SOL    HW121326   6.093   4.842   1.894
 6809SOL    HW221327   6.141   4.736   2.009
 6810SOL     OW21328   2.868   1.289   3.403
 6810SOL    HW121329   2.953   1.329   3.437
 6810SOL    HW221330   2.889   1.230   3.325
 6811SOL     OW21331   6.282   1.666   2.223
 6811SOL    HW121332   6.250   1.660   2.318
 6811SOL    HW221333   6.379   1.690   2.223
 6812SOL     OW21334   2.872   3.873   5.176
 6812SOL    HW121335   2.909   3.963   5.201
 6812SOL    HW221336   2.796   3.850   5.237
 6813SOL     OW21337   5.330   3.321   1.755
 6813SOL    HW121338   5.319   3.233   1.800
 6813SOL    HW221339   5.414   3.365   1.785
 6814SOL     OW21340   4.509   1.282   6.430
 6814SOL    HW121341   4.581   1.290   6.360
 6814SOL    HW221342   4.543   1.319   6.516
 6815SOL     OW21343   2.294   4.975   6.734
 6815SOL    HW121344   2.198   4.974   6.707
 6815SOL    HW221345   2.310   4.901   6.800
 6816SOL     OW21346   0.632   2.005   4.479
 6816SOL    HW121347   0.693   2.032   4.553
 6816SOL    HW221348   0.583   1.922   4.504
 6817SOL     OW21349   3.247   2.141   2.386
 6817SOL    HW121350   3.211   2.192   2.464
 6817SOL    HW221351   3.182   2.147   2.309
 6818SOL     OW21352   1.979   6.496   6.136
 6818SOL    HW121353   1.937   6.510   6.047
 6818SOL    HW221354   2.066   6.546   6.140
 6819SOL     OW21355   4.652   4.660   3.076
 6819SOL    HW121356   4.642   4.583   3.138
 6819SOL    HW221357   4.593   4.646   2.996
 6820SOL     OW21358   2.080   6.393   1.494
 6820SOL    HW121359   2.011   6.430   1.432
 6820SOL    HW221360   2.108   6.465   1.558
 6821SOL     OW21361   4.382   3.025   5.313
 6821SOL    HW121362   4.476   3.058   5.317
 6821SOL    HW221363   4.320   3.097   5.344
 6822SOL     OW21364   0.197   2.401   6.533
 6822SOL    HW121365   0.277   2.387   6.475
 6822SOL    HW221366   0.215   2.474   6.598
 6823SOL     OW21367   5.511   3.422   7.002
 6823SOL    HW121368   5.496   3.515   0.012
 6823SOL    HW221369   5.516   3.360   0.059
 6824SOL     OW21370   1.645   1.720   6.603
 6824SOL    HW121371   1.722   1.744   6.662
 6824SOL    HW221372   1.562   1.766   6.637
 6825SOL     OW21373   0.126   5.893   1.785
 6825SOL    HW121374   0.202   5.836   1.754
 6825SOL    HW221375   0.042   5.840   1.784
 6826SOL     OW21376   0.780   3.571   3.277
 6826SOL    HW121377   0.865   3.623   3.268
 6826SOL    HW221378   0.783   3.516   3.361
 6827SOL     OW21379   4.201   5.861   4.909
 6827SOL    HW121380   4.267   5.904   4.971
 6827SOL    HW221381   4.197   5.763   4.930
 6828SOL     OW21382   3.641   1.821   2.965
 6828SOL    HW121383   3.732   1.837   2.928
 6828SOL    HW221384   3.648   1.766   3.049
 6829SOL     OW21385   5.442   6.494   4.726
 6829SOL    HW121386   5.398   6.499   4.815
 6829SOL    HW221387   5.537   6.462   4.737
 6830SOL     OW21388   5.696   0.541   3.199
 6830SOL    HW121389   5.770   0.570   3.260
 6830SOL    HW221390   5.729   0.467   3.140
 6831SOL     OW21391   1.293   1.163   5.950
 6831SOL    HW121392   1.274   1.207   6.038
 6831SOL    HW221393   1.346   1.225   5.893
 6832SOL     OW21394   3.150   2.198   0.687
 6832SOL    HW121395   3.116   2.198   0.781
 6832SOL    HW221396   3.072   2.193   0.624
 6833SOL     OW21397   2.896   5.250   5.790
 6833SOL    HW121398   2.836   5.323   5.822
 6833SOL    HW221399   2.928   5.272   5.697
 6834SOL     OW21400   5.015   7.008   0.520
 6834SOL    HW121401   4.977   0.068   0.475
 6834SOL    HW221402   4.975   6.999   0.611
 6835SOL     OW21403   3.178   2.214   4.224
 6835SOL    HW121404   3.252   2.215   4.291
 6835SOL    HW221405   3.127   2.129   4.232
 6836SOL     OW21406   2.013   4.958   6.665
 6836SOL    HW121407   2.001   4.872   6.714
 6836SOL    HW221408   1.951   4.961   6.586
 6837SOL     OW21409   0.956   0.639   2.124
 6837SOL    HW121410   1.046   0.681   2.125
 6837SOL    HW221411   0.903   0.676   2.048
 6838SOL     OW21412   2.801   4.441   5.383
 6838SOL    HW121413   2.792   4.538   5.404
 6838SOL    HW221414   2.732   4.415   5.315
 6839SOL     OW21415   5.421   2.713   3.847
 6839SOL    HW121416   5.328   2.748   3.833
 6839SOL    HW221417   5.479   2.743   3.771
 6840SOL     OW21418   2.650   6.644   5.055
 6840SOL    HW121419   2.607   6.724   5.014
 6840SOL    HW221420   2.749   6.651   5.046
 6841SOL     OW21421   3.750   5.720   1.961
 6841SOL    HW121422   3.664   5.770   1.950
 6841SOL    HW221423   3.737   5.625   1.933
 6842SOL     OW21424   0.786   3.655   6.953
 6842SOL    HW121425   0.691   3.623   6.953
 6842SOL    HW221426   0.834   3.613   0.008
 6843SOL     OW21427   3.908   2.392   1.702
 6843SOL    HW121428   3.945   2.299   1.690
 6843SOL    HW221429   3.849   2.394   1.782
 6844SOL     OW21430   4.482   5.194   4.109
 6844SOL    HW121431   4.480   5.112   4.051
 6844SOL    HW221432   4.490   5.275   4.051
 6845SOL     OW21433   4.558   5.167   2.432
 6845SOL    HW121434   4.524   5.139   2.342
 6845SOL    HW221435   4.552   5.266   2.441
 6846SOL     OW21436   3.898   3.043   2.625
 6846SOL    HW121437   3.811   3.092   2.623
 6846SOL    HW221438   3.964   3.088   2.565
 6847SOL     OW21439   5.021   3.916   1.759
 6847SOL    HW121440   4.995   3.825   1.728
 6847SOL    HW221441   4.939   3.968   1.783
 6848SOL     OW21442   0.413   5.379   4.670
 6848SOL    HW121443   0.423   5.402   4.767
 6848SOL    HW221444   0.490   5.323   4.641
 6849SOL     OW21445   3.753   5.862   4.058
 6849SOL    HW121446   3.815   5.785   4.047
 6849SOL    HW221447   3.673   5.834   4.112
 6850SOL     OW21448   5.711   2.495   3.528
 6850SOL    HW121449   5.695   2.487   3.430
 6850SOL    HW221450   5.657   2.570   3.565
 6851SOL     OW21451   1.929   5.149   6.114
 6851SOL    HW121452   1.899   5.240   6.144
 6851SOL    HW221453   1.851   5.088   6.107
 6852SOL     OW21454   1.196   4.086   1.298
 6852SOL    HW121455   1.250   4.030   1.361
 6852SOL    HW221456   1.148   4.157   1.349
 6853SOL     OW21457   0.654   5.586   5.795
 6853SOL    HW121458   0.621   5.493   5.782
 6853SOL    HW221459   0.732   5.586   5.858
 6854SOL     OW21460   6.510   1.837   5.892
 6854SOL    HW121461   6.586   1.883   5.845
 6854SOL    HW221462   6.545   1.784   5.969
 6855SOL     OW21463   4.230   0.136   2.832
 6855SOL    HW121464   4.212   0.229   2.801
 6855SOL    HW221465   4.144   0.091   2.856
 6856SOL     OW21466   6.348   3.700   4.494
 6856SOL    HW121467   6.416   3.631   4.469
 6856SOL    HW221468   6.358   3.725   4.590
 6857SOL     OW21469   3.096   1.979   6.104
 6857SOL    HW121470   3.003   1.996   6.073
 6857SOL    HW221471   3.113   2.030   6.188
 6858SOL     OW21472   4.150   3.684   4.780
 6858SOL    HW121473   4.247   3.662   4.787
 6858SOL    HW221474   4.132   3.727   4.692
 6859SOL     OW21475   2.465   6.791   0.979
 6859SOL    HW121476   2.508   6.703   0.999
 6859SOL    HW221477   2.366   6.783   0.993
 6860SOL     OW21478   5.744   4.872   1.450
 6860SOL    HW121479   5.757   4.940   1.378
 6860SOL    HW221480   5.656   4.826   1.437
 6861SOL     OW21481   5.502   5.756   0.113
 6861SOL    HW121482   5.407   5.736   0.092
 6861SOL    HW221483   5.527   5.714   0.200
 6862SOL     OW21484   3.098   5.233   5.248
 6862SOL    HW121485   3.013   5.237   5.194
 6862SOL    HW221486   3.076   5.206   5.342
 6863SOL     OW21487   6.128   1.403   4.372
 6863SOL    HW121488   6.032   1.432   4.365
 6863SOL    HW221489   6.175   1.426   4.287
 6864SOL     OW21490   2.789   5.923   3.194
 6864SOL    HW121491   2.696   5.954   3.176
 6864SOL    HW221492   2.835   5.905   3.106
 6865SOL     OW21493   6.343   3.853   4.749
 6865SOL    HW121494   6.410   3.818   4.814
 6865SOL    HW221495   6.372   3.943   4.716
 6866SOL     OW21496   6.895   3.907   1.867
 6866SOL    HW121497   6.901   3.906   1.966
 6866SOL    HW221498   6.985   3.925   1.828
 6867SOL     OW21499   1.689   4.535   1.659
 6867SOL    HW121500   1.784   4.506   1.650
 6867SOL    HW221501   1.633   4.456   1.686
 6868SOL     OW21502   1.918   6.495   4.644
 6868SOL    HW121503   1.906   6.569   4.711
 6868SOL    HW221504   1.833   6.483   4.592
 6869SOL     OW21505   5.492   2.457   5.600
 6869SOL    HW121506   5.478   2.359   5.592
 6869SOL    HW221507   5.559   2.476   5.671
 6870SOL     OW21508   5.545   3.466   3.218
 6870SOL    HW121509   5.538   3.550   3.273
 6870SOL    HW221510   5.623   3.412   3.250
 6871SOL     OW21511   6.252   4.334   1.430
 6871SOL    HW121512   6.290   4.312   1.340
 6871SOL    HW221513   6.289   4.271   1.498
 6872SOL     OW21514   1.866   3.546   1.107
 6872SOL    HW121515   1.824   3.634   1.084
 6872SOL    HW221516   1.907   3.506   1.025
 6873SOL     OW21517   6.007   2.860   5.758
 6873SOL    HW121518   5.999   2.959   5.749
 6873SOL    HW221519   6.080   2.838   5.823
 6874SOL     OW21520   6.981   2.915   3.917
 6874SOL    HW121521   0.041   2.930   3.972
 6874SOL    HW221522   6.995   2.952   3.825
 6875SOL     OW21523   1.324   1.674   2.798
 6875SOL    HW121524   1.327   1.578   2.771
 6875SOL    HW221525   1.364   1.684   2.889
 6876SOL     OW21526   3.562   5.767   6.963
 6876SOL    HW121527   3.586   5.677   6.998
 6876SOL    HW221528   3.641   5.828   6.972
 6877SOL     OW21529   2.228   3.894   0.001
 6877SOL    HW121530   2.320   3.894   6.984
 6877SOL    HW221531   2.172   3.961   6.975
 6878SOL     OW21532   2.453   1.607   5.544
 6878SOL    HW121533   2.415   1.667   5.615
 6878SOL    HW221534   2.454   1.656   5.457
 6879SOL     OW21535   0.247   2.020   6.644
 6879SOL    HW121536   0.325   1.974   6.601
 6879SOL    HW221537   0.227   1.977   6.732
 6880SOL     OW21538   2.090   4.118   5.225
 6880SOL    HW121539   2.021   4.057   5.187
 6880SOL    HW221540   2.173   4.114   5.168
 6881SOL     OW21541   0.140   4.478   1.350
 6881SOL    HW121542   0.072   4.551   1.358
 6881SOL    HW221543   0.172   4.471   1.256
 6882SOL     OW21544   2.022   1.260   4.560
 6882SOL    HW121545   1.977   1.290   4.645
 6882SOL    HW221546   1.960   1.201   4.509
 6883SOL     OW21547   3.942   6.854   1.204
 6883SOL    HW121548   3.884   6.807   1.138
 6883SOL    HW221549   3.895   6.936   1.238
 6884SOL     OW21550   2.458   4.570   4.821
 6884SOL    HW121551   2.465   4.499   4.890
 6884SOL    HW221552   2.385   4.548   4.756
 6885SOL     OW21553   2.740   6.344   3.226
 6885SOL    HW121554   2.700   6.282   3.159
 6885SOL    HW221555   2.721   6.439   3.200
 6886SOL     OW21556   5.073   1.308   2.672
 6886SOL    HW121557   5.113   1.340   2.586
 6886SOL    HW221558   5.140   1.253   2.722
 6887SOL     OW21559   5.864   0.432   5.090
 6887SOL    HW121560   5.900   0.341   5.071
 6887SOL    HW221561   5.797   0.457   5.020
 6888SOL     OW21562   6.187   0.601   5.115
 6888SOL    HW121563   6.172   0.557   5.026
 6888SOL    HW221564   6.099   0.632   5.152
 6889SOL     OW21565   0.714   2.632   5.946
 6889SOL    HW121566   0.687   2.710   5.891
 6889SOL    HW221567   0.657   2.628   6.029
 6890SOL     OW21568   2.681   0.652   1.012
 6890SOL    HW121569   2.732   0.590   0.952
 6890SOL    HW221570   2.734   0.672   1.094
 6891SOL     OW21571   1.907   3.846   4.662
 6891SOL    HW121572   1.960   3.766   4.692
 6891SOL    HW221573   1.969   3.923   4.647
 6892SOL     OW21574   3.881   0.081   4.182
 6892SOL    HW121575   3.864   0.155   4.247
 6892SOL    HW221576   3.947   0.112   4.113
 6893SOL     OW21577   5.130   5.791   3.161
 6893SOL    HW121578   5.129   5.861   3.090
 6893SOL    HW221579   5.143   5.833   3.250
 6894SOL     OW21580   6.296   5.612   0.261
 6894SOL    HW121581   6.198   5.627   0.246
 6894SOL    HW221582   6.342   5.700   0.273
 6895SOL     OW21583   2.739   4.203   0.170
 6895SOL    HW121584   2.789   4.123   0.136
 6895SOL    HW221585   2.804   4.274   0.197
 6896SOL     OW21586   3.183   0.808   3.637
 6896SOL    HW121587   3.155   0.746   3.710
 6896SOL    HW221588   3.132   0.893   3.643
 6897SOL     OW21589   3.068   3.482   0.351
 6897SOL    HW121590   3.027   3.459   0.263
 6897SOL    HW221591   3.066   3.403   0.411
 6898SOL     OW21592   4.113   0.747   1.999
 6898SOL    HW121593   4.042   0.758   2.069
 6898SOL    HW221594   4.203   0.764   2.041
 6899SOL     OW21595   5.467   0.216   6.316
 6899SOL    HW121596   5.553   0.220   6.265
 6899SOL    HW221597   5.463   0.131   6.369
 6900SOL     OW21598   5.425   0.877   5.849
 6900SOL    HW121599   5.351   0.821   5.888
 6900SOL    HW221600   5.390   0.968   5.827
 6901SOL     OW21601   0.904   0.266   6.140
 6901SOL    HW121602   0.999   0.268   6.109
 6901SOL    HW221603   0.888   0.343   6.202
 6902SOL     OW21604   0.631   0.090   0.060
 6902SOL    HW121605   0.592   0.051   0.143
 6902SOL    HW221606   0.726   0.117   0.078
 6903SOL     OW21607   3.604   3.555   0.079
 6903SOL    HW121608   3.703   3.566   0.075
 6903SOL    HW221609   3.582   3.460   0.101
 6904SOL     OW21610   6.900   0.851   3.954
 6904SOL    HW121611   6.959   0.799   4.016
 6904SOL    HW221612   6.895   0.806   3.865
 6905SOL     OW21613   6.575   6.657   0.736
 6905SOL    HW121614   6.590   6.753   0.712
 6905SOL    HW221615   6.508   6.651   0.810
 6906SOL     OW21616   3.815   1.125   4.026
 6906SOL    HW121617   3.832   1.053   4.094
 6906SOL    HW221618   3.768   1.085   3.947
 6907SOL     OW21619   3.756   1.151   1.033
 6907SOL    HW121620   3.712   1.241   1.037
 6907SOL    HW221621   3.688   1.083   1.004
 6908SOL     OW21622   1.141   0.438   5.697
 6908SOL    HW121623   1.196   0.482   5.769
 6908SOL    HW221624   1.085   0.366   5.738
 6909SOL     OW21625   4.224   5.268   1.033
 6909SOL    HW121626   4.241   5.261   1.131
 6909SOL    HW221627   4.127   5.253   1.014
 6910SOL     OW21628   6.401   1.203   2.620
 6910SOL    HW121629   6.431   1.298   2.630
 6910SOL    HW221630   6.313   1.200   2.574
 6911SOL     OW21631   4.119   0.426   4.012
 6911SOL    HW121632   4.106   0.347   4.073
 6911SOL    HW221633   4.176   0.494   4.058
 6912SOL     OW21634   4.697   4.957   1.530
 6912SOL    HW121635   4.624   4.889   1.532
 6912SOL    HW221636   4.661   5.044   1.499
 6913SOL     OW21637   4.991   4.603   4.388
 6913SOL    HW121638   4.894   4.596   4.367
 6913SOL    HW221639   5.009   4.691   4.432
 6914SOL     OW21640   6.033   5.474   6.860
 6914SOL    HW121641   5.999   5.513   6.774
 6914SOL    HW221642   6.106   5.409   6.840
 6915SOL     OW21643   0.541   4.836   2.648
 6915SOL    HW121644   0.560   4.738   2.647
 6915SOL    HW221645   0.562   4.873   2.739
 6916SOL     OW21646   6.510   4.330   6.497
 6916SOL    HW121647   6.486   4.245   6.544
 6916SOL    HW221648   6.566   4.310   6.417
 6917SOL     OW21649   4.812   5.887   5.852
 6917SOL    HW121650   4.868   5.960   5.811
 6917SOL    HW221651   4.734   5.927   5.899
 6918SOL     OW21652   0.441   3.626   4.305
 6918SOL    HW121653   0.395   3.715   4.305
 6918SOL    HW221654   0.387   3.561   4.252
 6919SOL     OW21655   1.801   6.226   2.213
 6919SOL    HW121656   1.852   6.179   2.141
 6919SOL    HW221657   1.706   6.195   2.213
 6920SOL     OW21658   5.003   5.191   4.929
 6920SOL    HW121659   5.086   5.142   4.956
 6920SOL    HW221660   5.027   5.272   4.876
 6921SOL     OW21661   6.000   5.865   3.328
 6921SOL    HW121662   5.926   5.914   3.374
 6921SOL    HW221663   5.988   5.767   3.340
 6922SOL     OW21664   1.894   6.141   6.767
 6922SOL    HW121665   1.797   6.117   6.758
 6922SOL    HW221666   1.928   6.174   6.679
 6923SOL     OW21667   4.431   6.839   3.682
 6923SOL    HW121668   4.487   6.821   3.763
 6923SOL    HW221669   4.430   6.757   3.624
 6924SOL     OW21670   0.878   4.649   0.291
 6924SOL    HW121671   0.896   4.569   0.234
 6924SOL    HW221672   0.793   4.636   0.341
 6925SOL     OW21673   3.687   6.204   3.644
 6925SOL    HW121674   3.602   6.168   3.604
 6925SOL    HW221675   3.698   6.166   3.736
 6926SOL     OW21676   3.989   3.576   3.689
 6926SOL    HW121677   3.926   3.573   3.611
 6926SOL    HW221678   4.051   3.498   3.685
 6927SOL     OW21679   5.040   3.901   6.450
 6927SOL    HW121680   4.994   3.975   6.400
 6927SOL    HW221681   5.056   3.930   6.544
 6928SOL     OW21682   4.405   0.102   6.388
 6928SOL    HW121683   4.340   0.126   6.316
 6928SOL    HW221684   4.496   0.136   6.364
 6929SOL     OW21685   4.696   6.552   6.540
 6929SOL    HW121686   4.775   6.493   6.556
 6929SOL    HW221687   4.639   6.514   6.467
 6930SOL     OW21688   0.296   6.691   2.138
 6930SOL    HW121689   0.382   6.676   2.186
 6930SOL    HW221690   0.231   6.737   2.199
 6931SOL     OW21691   0.660   0.410   1.431
 6931SOL    HW121692   0.758   0.419   1.448
 6931SOL    HW221693   0.622   0.341   1.493
 6932SOL     OW21694   2.952   0.929   6.397
 6932SOL    HW121695   2.982   0.931   6.492
 6932SOL    HW221696   2.856   0.954   6.392
 6933SOL     OW21697   3.613   5.735   4.925
 6933SOL    HW121698   3.706   5.707   4.901
 6933SOL    HW221699   3.552   5.656   4.916
 6934SOL     OW21700   5.299   3.046   0.105
 6934SOL    HW121701   5.254   3.115   0.048
 6934SOL    HW221702   5.231   2.993   0.154
 6935SOL     OW21703   4.337   5.920   3.420
 6935SOL    HW121704   4.240   5.919   3.443
 6935SOL    HW221705   4.349   5.952   3.326
 6936SOL     OW21706   7.006   2.036   2.131
 6936SOL    HW121707   7.014   1.992   2.221
 6936SOL    HW221708   7.005   2.136   2.143
 6937SOL     OW21709   4.561   6.446   6.109
 6937SOL    HW121710   4.656   6.437   6.139
 6937SOL    HW221711   4.503   6.469   6.187
 6938SOL     OW21712   5.007   4.008   5.953
 6938SOL    HW121713   4.941   4.016   6.028
 6938SOL    HW221714   4.967   3.953   5.880
 6939SOL     OW21715   0.517   4.719   2.238
 6939SOL    HW121716   0.604   4.713   2.189
 6939SOL    HW221717   0.453   4.652   2.201
 6940SOL     OW21718   4.803   0.521   0.071
 6940SOL    HW121719   4.725   0.483   0.120
 6940SOL    HW221720   4.772   0.572   7.013
 6941SOL     OW21721   3.193   3.308   2.111
 6941SOL    HW121722   3.171   3.323   2.207
 6941SOL    HW221723   3.108   3.293   2.060
 6942SOL     OW21724   0.252   2.523   0.568
 6942SOL    HW121725   0.345   2.559   0.564
 6942SOL    HW221726   0.253   2.435   0.616
 6943SOL     OW21727   5.340   6.682   6.179
 6943SOL    HW121728   5.438   6.696   6.173
 6943SOL    HW221729   5.312   6.610   6.115
 6944SOL     OW21730   1.476   5.921   5.257
 6944SOL    HW121731   1.417   5.922   5.176
 6944SOL    HW221732   1.434   5.977   5.329
 6945SOL     OW21733   6.198   3.576   6.586
 6945SOL    HW121734   6.100   3.592   6.594
 6945SOL    HW221735   6.217   3.526   6.502
 6946SOL     OW21736   6.014   5.004   2.347
 6946SOL    HW121737   6.039   5.052   2.431
 6946SOL    HW221738   5.924   4.961   2.358
 6947SOL     OW21739   3.986   6.995   3.574
 6947SOL    HW121740   3.974   6.947   3.487
 6947SOL    HW221741   3.911   6.973   3.635
 6948SOL     OW21742   4.835   0.569   0.618
 6948SOL    HW121743   4.856   0.493   0.679
 6948SOL    HW221744   4.762   0.541   0.555
 6949SOL     OW21745   4.786   6.484   3.145
 6949SOL    HW121746   4.848   6.544   3.195
 6949SOL    HW221747   4.837   6.436   3.073
 6950SOL     OW21748   2.243   0.467   2.978
 6950SOL    HW121749   2.269   0.527   2.902
 6950SOL    HW221750   2.303   0.484   3.056
 6951SOL     OW21751   6.673   6.442   6.198
 6951SOL    HW121752   6.646   6.489   6.114
 6951SOL    HW221753   6.745   6.376   6.178
 6952SOL     OW21754   0.150   5.027   3.341
 6952SOL    HW121755   0.233   5.032   3.397
 6952SOL    HW221756   0.069   5.028   3.401
 6953SOL     OW21757   5.066   1.052   5.960
 6953SOL    HW121758   5.079   1.118   5.886
 6953SOL    HW221759   5.123   1.078   6.038
 6954SOL     OW21760   0.748   2.949   4.171
 6954SOL    HW121761   0.656   2.983   4.190
 6954SOL    HW221762   0.801   3.022   4.128
 6955SOL     OW21763   6.958   6.978   1.604
 6955SOL    HW121764   6.956   0.056   1.591
 6955SOL    HW221765   6.864   6.943   1.602
 6956SOL     OW21766   4.281   5.524   2.117
 6956SOL    HW121767   4.346   5.462   2.071
 6956SOL    HW221768   4.189   5.485   2.112
 6957SOL     OW21769   6.931   5.012   1.574
 6957SOL    HW121770   6.914   4.973   1.483
 6957SOL    HW221771   6.918   4.941   1.643
 6958SOL     OW21772   2.275   2.351   5.798
 6958SOL    HW121773   2.248   2.422   5.863
 6958SOL    HW221774   2.372   2.361   5.776
 6959SOL     OW21775   3.373   1.497   4.889
 6959SOL    HW121776   3.288   1.454   4.856
 6959SOL    HW221777   3.359   1.531   4.982
 6960SOL     OW21778   6.974   4.837   0.042
 6960SOL    HW121779   6.995   4.916   0.100
 6960SOL    HW221780   6.876   4.817   0.047
 6961SOL     OW21781   0.578   2.240   3.593
 6961SOL    HW121782   0.646   2.167   3.596
 6961SOL    HW221783   0.573   2.279   3.501
 6962SOL     OW21784   5.526   5.253   2.818
 6962SOL    HW121785   5.547   5.189   2.892
 6962SOL    HW221786   5.427   5.266   2.813
 6963SOL     OW21787   0.069   5.355   1.519
 6963SOL    HW121788   0.169   5.357   1.513
 6963SOL    HW221789   0.033   5.447   1.507
 6964SOL     OW21790   4.657   4.888   5.364
 6964SOL    HW121791   4.622   4.977   5.393
 6964SOL    HW221792   4.633   4.871   5.269
 6965SOL     OW21793   6.345   3.370   5.979
 6965SOL    HW121794   6.441   3.348   5.963
 6965SOL    HW221795   6.333   3.469   5.981
 6966SOL     OW21796   5.592   2.469   2.979
 6966SOL    HW121797   5.554   2.391   2.930
 6966SOL    HW221798   5.678   2.497   2.936
 6967SOL     OW21799   1.717   1.813   5.410
 6967SOL    HW121800   1.787   1.881   5.386
 6967SOL    HW221801   1.639   1.821   5.348
 6968SOL     OW21802   4.030   5.969   1.292
 6968SOL    HW121803   3.937   5.973   1.256
 6968SOL    HW221804   4.092   5.937   1.220
 6969SOL     OW21805   4.032   1.621   1.721
 6969SOL    HW121806   3.935   1.629   1.700
 6969SOL    HW221807   4.065   1.531   1.691
 6970SOL     OW21808   3.990   4.030   0.756
 6970SOL    HW121809   3.978   3.935   0.729
 6970SOL    HW221810   3.913   4.084   0.723
 6971SOL     OW21811   6.588   2.699   1.944
 6971SOL    HW121812   6.616   2.616   1.897
 6971SOL    HW221813   6.582   2.774   1.879
 6972SOL     OW21814   5.283   4.452   4.206
 6972SOL    HW121815   5.382   4.458   4.193
 6972SOL    HW221816   5.241   4.410   4.126
 6973SOL     OW21817   1.682   4.881   5.123
 6973SOL    HW121818   1.739   4.859   5.044
 6973SOL    HW221819   1.599   4.826   5.121
 6974SOL     OW21820   3.640   3.296   3.448
 6974SOL    HW121821   3.706   3.246   3.505
 6974SOL    HW221822   3.562   3.236   3.428
 6975SOL     OW21823   3.069   6.970   5.355
 6975SOL    HW121824   3.159   6.963   5.397
 6975SOL    HW221825   3.039   0.044   5.356
 6976SOL     OW21826   3.605   4.827   6.858
 6976SOL    HW121827   3.652   4.911   6.883
 6976SOL    HW221828   3.581   4.829   6.761
 6977SOL     OW21829   5.009   1.864   1.934
 6977SOL    HW121830   4.968   1.774   1.949
 6977SOL    HW221831   5.100   1.867   1.974
 6978SOL     OW21832   6.731   0.816   1.846
 6978SOL    HW121833   6.665   0.774   1.909
 6978SOL    HW221834   6.731   0.766   1.760
 6979SOL     OW21835   1.264   5.792   2.211
 6979SOL    HW121836   1.258   5.697   2.242
 6979SOL    HW221837   1.302   5.849   2.284
 6980SOL     OW21838   2.031   0.652   3.352
 6980SOL    HW121839   2.013   0.742   3.311
 6980SOL    HW221840   1.945   0.603   3.364
 6981SOL     OW21841   2.704   4.134   6.484
 6981SOL    HW121842   2.743   4.224   6.505
 6981SOL    HW221843   2.633   4.144   6.415
 6982SOL     OW21844   1.500   0.887   3.987
 6982SOL    HW121845   1.459   0.963   4.038
 6982SOL    HW221846   1.550   0.828   4.051
 6983SOL     OW21847   0.310   0.915   4.070
 6983SOL    HW121848   0.230   0.973   4.087
 6983SOL    HW221849   0.359   0.899   4.156
 6984SOL     OW21850   2.206   1.696   4.994
 6984SOL    HW121851   2.107   1.689   5.009
 6984SOL    HW221852   2.229   1.790   4.970
 6985SOL     OW21853   3.767   5.622   2.300
 6985SOL    HW121854   3.738   5.707   2.257
 6985SOL    HW221855   3.715   5.546   2.263
 6986SOL     OW21856   2.149   6.342   5.860
 6986SOL    HW121857   2.153   6.242   5.863
 6986SOL    HW221858   2.060   6.371   5.826
 6987SOL     OW21859   0.040   2.005   5.822
 6987SOL    HW121860   0.099   2.073   5.865
 6987SOL    HW221861   0.072   1.914   5.845
 6988SOL     OW21862   5.822   1.260   4.911
 6988SOL    HW121863   5.734   1.213   4.899
 6988SOL    HW221864   5.858   1.240   5.002
 6989SOL     OW21865   0.965   2.038   3.292
 6989SOL    HW121866   0.953   1.975   3.368
 6989SOL    HW221867   0.994   1.987   3.211
 6990SOL     OW21868   4.839   1.932   0.335
 6990SOL    HW121869   4.809   2.009   0.280
 6990SOL    HW221870   4.928   1.952   0.376
 6991SOL     OW21871   2.632   4.812   5.113
 6991SOL    HW121872   2.607   4.752   5.189
 6991SOL    HW221873   2.712   4.775   5.065
 6992SOL     OW21874   5.957   5.977   4.742
 6992SOL    HW121875   5.926   5.987   4.837
 6992SOL    HW221876   6.023   6.050   4.721
 6993SOL     OW21877   6.404   6.508   3.469
 6993SOL    HW121878   6.441   6.417   3.491
 6993SOL    HW221879   6.390   6.514   3.370
 6994SOL     OW21880   0.877   3.782   5.594
 6994SOL    HW121881   0.962   3.732   5.607
 6994SOL    HW221882   0.802   3.734   5.640
 6995SOL     OW21883   6.261   5.403   4.883
 6995SOL    HW121884   6.278   5.319   4.935
 6995SOL    HW221885   6.166   5.430   4.894
 6996SOL     OW21886   2.845   0.819   5.024
 6996SOL    HW121887   2.768   0.791   5.081
 6996SOL    HW221888   2.815   0.826   4.929
 6997SOL     OW21889   4.876   6.422   5.449
 6997SOL    HW121890   4.791   6.378   5.423
 6997SOL    HW221891   4.869   6.455   5.543
 6998SOL     OW21892   1.748   3.119   1.574
 6998SOL    HW121893   1.812   3.110   1.497
 6998SOL    HW221894   1.655   3.125   1.539
 6999SOL     OW21895   2.639   1.593   6.600
 6999SOL    HW121896   2.589   1.675   6.575
 6999SOL    HW221897   2.714   1.618   6.661
 7000SOL     OW21898   0.430   6.214   2.863
 7000SOL    HW121899   0.338   6.224   2.825
 7000SOL    HW221900   0.488   6.168   2.796
 7001SOL     OW21901   2.677   2.654   5.747
 7001SOL    HW121902   2.632   2.570   5.717
 7001SOL    HW221903   2.776   2.644   5.740
 7002SOL     OW21904   2.637   4.643   3.770
 7002SOL    HW121905   2.686   4.648   3.683
 7002SOL    HW221906   2.554   4.589   3.758
 7003SOL     OW21907   3.031   0.060   0.003
 7003SOL    HW121908   2.988   0.115   6.952
 7003SOL    HW221909   3.115   0.104   0.033
 7004SOL     OW21910   2.094   4.260   1.636
 7004SOL    HW121911   2.193   4.252   1.621
 7004SOL    HW221912   2.057   4.170   1.658
 7005SOL     OW21913   0.273   6.281   5.410
 7005SOL    HW121914   0.229   6.291   5.500
 7005SOL    HW221915   0.207   6.248   5.344
 7006SOL     OW21916   5.248   4.443   5.173
 7006SOL    HW121917   5.248   4.354   5.126
 7006SOL    HW221918   5.192   4.437   5.255
 7007SOL     OW21919   4.951   6.692   3.270
 7007SOL    HW121920   4.978   6.784   3.243
 7007SOL    HW221921   5.026   6.628   3.249
 7008SOL     OW21922   2.424   4.998   4.204
 7008SOL    HW121923   2.340   5.043   4.174
 7008SOL    HW221924   2.402   4.924   4.268
 7009SOL     OW21925   6.543   5.327   2.276
 7009SOL    HW121926   6.559   5.279   2.362
 7009SOL    HW221927   6.627   5.325   2.221
 7010SOL     OW21928   4.063   5.005   5.764
 7010SOL    HW121929   4.129   5.068   5.805
 7010SOL    HW221930   4.065   4.918   5.812
 7011SOL     OW21931   1.293   6.679   5.459
 7011SOL    HW121932   1.291   6.676   5.359
 7011SOL    HW221933   1.384   6.650   5.491
 7012SOL     OW21934   1.363   0.831   1.722
 7012SOL    HW121935   1.437   0.895   1.702
 7012SOL    HW221936   1.402   0.745   1.756
 7013SOL     OW21937   0.763   6.694   1.055
 7013SOL    HW121938   0.813   6.776   1.080
 7013SOL    HW221939   0.755   6.634   1.134
 7014SOL     OW21940   4.426   4.024   0.991
 7014SOL    HW121941   4.475   3.976   0.918
 7014SOL    HW221942   4.371   4.098   0.951
 7015SOL     OW21943   5.790   3.863   1.999
 7015SOL    HW121944   5.811   3.955   1.966
 7015SOL    HW221945   5.874   3.814   2.019
 7016SOL     OW21946   4.312   4.810   2.287
 7016SOL    HW121947   4.362   4.819   2.373
 7016SOL    HW221948   4.223   4.854   2.296
 7017SOL     OW21949   2.476   1.373   2.172
 7017SOL    HW121950   2.425   1.293   2.143
 7017SOL    HW221951   2.417   1.434   2.224
 7018SOL     OW21952   6.936   4.114   4.969
 7018SOL    HW121953   0.014   4.111   4.959
 7018SOL    HW221954   6.904   4.208   4.958
 7019SOL     OW21955   2.831   4.888   6.729
 7019SOL    HW121956   2.889   4.807   6.729
 7019SOL    HW221957   2.757   4.876   6.664
 7020SOL     OW21958   5.290   0.025   0.439
 7020SOL    HW121959   5.206   0.016   0.492
 7020SOL    HW221960   5.339   6.960   0.439
 7021SOL     OW21961   2.884   1.015   5.306
 7021SOL    HW121962   2.886   0.942   5.238
 7021SOL    HW221963   2.790   1.043   5.322
 7022SOL     OW21964   5.227   4.019   0.332
 7022SOL    HW121965   5.130   4.024   0.353
 7022SOL    HW221966   5.271   3.951   0.390
 7023SOL     OW21967   6.522   2.355   3.075
 7023SOL    HW121968   6.442   2.329   3.021
 7023SOL    HW221969   6.605   2.333   3.025
 7024SOL     OW21970   1.689   5.841   6.441
 7024SOL    HW121971   1.748   5.898   6.384
 7024SOL    HW221972   1.644   5.773   6.383
 7025SOL     OW21973   3.267   1.494   6.677
 7025SOL    HW121974   3.354   1.455   6.644
 7025SOL    HW221975   3.192   1.460   6.620
 7026SOL     OW21976   2.918   1.552   1.777
 7026SOL    HW121977   2.846   1.485   1.791
 7026SOL    HW221978   2.893   1.614   1.703
 7027SOL     OW21979   3.471   5.847   3.142
 7027SOL    HW121980   3.458   5.900   3.226
 7027SOL    HW221981   3.510   5.907   3.071
 7028SOL     OW21982   5.547   6.558   4.471
 7028SOL    HW121983   5.627   6.597   4.516
 7028SOL    HW221984   5.476   6.539   4.539
 7029SOL     OW21985   3.825   6.490   6.542
 7029SOL    HW121986   3.747   6.476   6.480
 7029SOL    HW221987   3.835   6.410   6.602
 7030SOL     OW21988   0.326   3.507   5.951
 7030SOL    HW121989   0.292   3.422   5.908
 7030SOL    HW221990   0.423   3.517   5.932
 7031SOL     OW21991   2.309   5.545   3.721
 7031SOL    HW121992   2.343   5.556   3.814
 7031SOL    HW221993   2.233   5.480   3.720
 7032SOL     OW21994   4.231   6.860   3.463
 7032SOL    HW121995   4.200   6.902   3.548
 7032SOL    HW221996   4.151   6.832   3.409
 7033SOL     OW21997   6.485   1.327   4.055
 7033SOL    HW121998   6.548   1.254   4.082
 7033SOL    HW221999   6.433   1.356   4.135
 7034SOL     OW22000   5.510   0.607   2.798
 7034SOL    HW122001   5.530   0.530   2.737
 7034SOL    HW222002   5.431   0.657   2.763
 7035SOL     OW22003   1.138   6.911   2.758
 7035SOL    HW122004   1.150   6.864   2.670
 7035SOL    HW222005   1.041   6.911   2.783
 7036SOL     OW22006   6.670   5.875   1.736
 7036SOL    HW122007   6.642   5.837   1.648
 7036SOL    HW222008   6.618   5.831   1.809
 7037SOL     OW22009   0.454   6.594   6.547
 7037SOL    HW122010   0.473   6.565   6.640
 7037SOL    HW222011   0.485   6.689   6.535
 7038SOL     OW22012   1.810   3.610   4.520
 7038SOL    HW122013   1.849   3.698   4.492
 7038SOL    HW222014   1.843   3.538   4.458
 7039SOL     OW22015   3.213   6.499   0.198
 7039SOL    HW122016   3.128   6.463   0.238
 7039SOL    HW222017   3.227   6.593   0.228
 7040SOL     OW22018   4.857   2.551   6.049
 7040SOL    HW122019   4.851   2.458   6.085
 7040SOL    HW222020   4.883   2.547   5.952
 7041SOL     OW22021   1.316   1.989   3.256
 7041SOL    HW122022   1.242   1.943   3.206
 7041SOL    HW222023   1.316   2.086   3.231
 7042SOL     OW22024   5.229   5.150   6.367
 7042SOL    HW122025   5.207   5.104   6.281
 7042SOL    HW222026   5.329   5.149   6.380
 7043SOL     OW22027   2.194   2.857   3.140
 7043SOL    HW122028   2.156   2.928   3.081
 7043SOL    HW222029   2.190   2.887   3.235
 7044SOL     OW22030   5.041   4.650   2.920
 7044SOL    HW122031   5.021   4.556   2.894
 7044SOL    HW222032   4.977   4.712   2.874
 7045SOL     OW22033   4.717   6.436   1.200
 7045SOL    HW122034   4.743   6.528   1.227
 7045SOL    HW222035   4.791   6.372   1.223
 7046SOL     OW22036   3.715   1.810   3.987
 7046SOL    HW122037   3.735   1.853   3.899
 7046SOL    HW222038   3.781   1.736   4.004
 7047SOL     OW22039   0.987   2.344   3.092
 7047SOL    HW122040   1.018   2.362   3.186
 7047SOL    HW222041   0.979   2.245   3.078
 7048SOL     OW22042   1.288   5.742   1.260
 7048SOL    HW122043   1.226   5.711   1.188
 7048SOL    HW222044   1.362   5.676   1.272
 7049SOL     OW22045   2.625   0.901   0.889
 7049SOL    HW122046   2.643   0.803   0.898
 7049SOL    HW222047   2.606   0.923   0.794
 7050SOL     OW22048   3.188   4.051   3.681
 7050SOL    HW122049   3.175   4.140   3.638
 7050SOL    HW222050   3.283   4.041   3.709
 7051SOL     OW22051   0.264   0.312   1.079
 7051SOL    HW122052   0.177   0.286   1.122
 7051SOL    HW222053   0.282   0.409   1.095
 7052SOL     OW22054   6.715   2.298   4.762
 7052SOL    HW122055   6.716   2.296   4.862
 7052SOL    HW222056   6.669   2.381   4.730
 7053SOL     OW22057   0.006   3.352   6.667
 7053SOL    HW122058   0.016   3.302   6.581
 7053SOL    HW222059   6.998   3.446   6.649
 7054SOL     OW22060   0.927   6.351   1.183
 7054SOL    HW122061   0.879   6.330   1.268
 7054SOL    HW222062   0.861   6.352   1.108
 7055SOL     OW22063   4.471   6.516   5.488
 7055SOL    HW122064   4.414   6.436   5.469
 7055SOL    HW222065   4.484   6.568   5.404
 7056SOL     OW22066   5.712   4.972   3.714
 7056SOL    HW122067   5.694   5.061   3.673
 7056SOL    HW222068   5.716   4.981   3.814
 7057SOL     OW22069   0.707   4.091   4.627
 7057SOL    HW122070   0.721   4.015   4.563
 7057SOL    HW222071   0.766   4.167   4.600
 7058SOL     OW22072   0.047   5.785   5.586
 7058SOL    HW122073   7.009   5.775   5.666
 7058SOL    HW222074   0.112   5.710   5.584
 7059SOL     OW22075   0.038   0.362   2.172
 7059SOL    HW122076   6.963   0.371   2.193
 7059SOL    HW222077   0.049   0.330   2.077
 7060SOL     OW22078   3.520   0.190   1.618
 7060SOL    HW122079   3.587   0.117   1.600
 7060SOL    HW222080   3.517   0.253   1.540
 7061SOL     OW22081   0.053   1.941   3.703
 7061SOL    HW122082   0.137   1.893   3.677
 7061SOL    HW222083   0.075   2.013   3.769
 7062SOL     OW22084   5.661   1.355   5.654
 7062SOL    HW122085   5.720   1.275   5.639
 7062SOL    HW222086   5.649   1.403   5.567
 7063SOL     OW22087   1.271   6.317   0.826
 7063SOL    HW122088   1.304   6.232   0.786
 7063SOL    HW222089   1.316   6.332   0.914
 7064SOL     OW22090   4.276   2.417   1.650
 7064SOL    HW122091   4.223   2.345   1.694
 7064SOL    HW222092   4.215   2.477   1.598
 7065SOL     OW22093   5.285   3.818   1.174
 7065SOL    HW122094   5.305   3.724   1.205
 7065SOL    HW222095   5.189   3.840   1.194
 7066SOL     OW22096   3.638   0.345   0.661
 7066SOL    HW122097   3.550   0.321   0.620
 7066SOL    HW222098   3.711   0.295   0.614
 7067SOL     OW22099   1.419   2.846   5.475
 7067SOL    HW122100   1.417   2.799   5.386
 7067SOL    HW222101   1.326   2.858   5.509
 7068SOL     OW22102   0.714   3.514   3.010
 7068SOL    HW122103   0.716   3.540   3.107
 7068SOL    HW222104   0.633   3.458   2.992
 7069SOL     OW22105   6.629   3.279   4.703
 7069SOL    HW122106   6.546   3.327   4.674
 7069SOL    HW222107   6.604   3.200   4.760
 7070SOL     OW22108   6.669   5.344   5.175
 7070SOL    HW122109   6.657   5.435   5.215
 7070SOL    HW222110   6.692   5.354   5.078
 7071SOL     OW22111   0.417   6.851   5.258
 7071SOL    HW122112   0.339   6.841   5.197
 7071SOL    HW222113   0.487   6.908   5.214
 7072SOL     OW22114   6.780   0.422   6.245
 7072SOL    HW122115   6.734   0.352   6.299
 7072SOL    HW222116   6.759   0.408   6.148
 7073SOL     OW22117   6.538   0.817   4.533
 7073SOL    HW122118   6.493   0.897   4.492
 7073SOL    HW222119   6.524   0.818   4.632
 7074SOL     OW22120   3.499   2.921   2.287
 7074SOL    HW122121   3.446   2.997   2.325
 7074SOL    HW222122   3.450   2.881   2.210
 7075SOL     OW22123   1.089   6.363   4.284
 7075SOL    HW122124   0.998   6.375   4.244
 7075SOL    HW222125   1.129   6.278   4.251
 7076SOL     OW22126   3.989   2.215   0.473
 7076SOL    HW122127   3.934   2.215   0.390
 7076SOL    HW222128   4.075   2.264   0.457
 7077SOL     OW22129   2.179   5.563   5.456
 7077SOL    HW122130   2.082   5.553   5.476
 7077SOL    HW222131   2.197   5.535   5.362
 7078SOL     OW22132   6.389   0.281   2.346
 7078SOL    HW122133   6.289   0.285   2.346
 7078SOL    HW222134   6.426   0.372   2.334
 7079SOL     OW22135   6.599   6.561   5.985
 7079SOL    HW122136   6.569   6.652   6.013
 7079SOL    HW222137   6.621   6.563   5.887
 7080SOL     OW22138   4.229   2.054   3.812
 7080SOL    HW122139   4.160   2.092   3.750
 7080SOL    HW222140   4.317   2.049   3.764
 7081SOL     OW22141   3.919   0.705   5.538
 7081SOL    HW122142   3.947   0.610   5.552
 7081SOL    HW222143   3.908   0.722   5.440
 7082SOL     OW22144   5.530   6.424   0.529
 7082SOL    HW122145   5.586   6.395   0.607
 7082SOL    HW222146   5.438   6.388   0.538
 7083SOL     OW22147   3.254   1.238   5.983
 7083SOL    HW122148   3.197   1.309   6.024
 7083SOL    HW222149   3.318   1.279   5.918
 7084SOL     OW22150   0.100   6.991   5.263
 7084SOL    HW122151   0.080   6.994   5.361
 7084SOL    HW222152   0.067   6.904   5.225
 7085SOL     OW22153   1.999   0.906   3.253
 7085SOL    HW122154   2.090   0.945   3.242
 7085SOL    HW222155   1.958   0.890   3.163
 7086SOL     OW22156   5.394   1.333   6.380
 7086SOL    HW122157   5.466   1.270   6.410
 7086SOL    HW222158   5.316   1.326   6.443
 7087SOL     OW22159   0.281   3.447   4.135
 7087SOL    HW122160   0.199   3.504   4.125
 7087SOL    HW222161   0.258   3.364   4.185
 7088SOL     OW22162   4.795   2.936   4.133
 7088SOL    HW122163   4.729   2.905   4.202
 7088SOL    HW222164   4.841   3.019   4.165
 7089SOL     OW22165   3.121   2.704   6.229
 7089SOL    HW122166   3.053   2.777   6.217
 7089SOL    HW222167   3.112   2.639   6.154
 7090SOL     OW22168   2.333   1.199   5.519
 7090SOL    HW122169   2.427   1.233   5.511
 7090SOL    HW222170   2.302   1.208   5.614
 7091SOL     OW22171   0.236   1.827   6.371
 7091SOL    HW122172   0.296   1.908   6.366
 7091SOL    HW222173   0.223   1.802   6.467
 7092SOL     OW22174   4.250   3.013   0.021
 7092SOL    HW122175   4.313   2.991   0.095
 7092SOL    HW222176   4.221   2.928   6.998
 7093SOL     OW22177   3.053   3.877   4.069
 7093SOL    HW122178   3.150   3.876   4.094
 7093SOL    HW222179   3.044   3.858   3.971
 7094SOL     OW22180   0.371   6.626   5.681
 7094SOL    HW122181   0.395   6.530   5.668
 7094SOL    HW222182   0.402   6.657   5.771
 7095SOL     OW22183   2.805   2.729   0.055
 7095SOL    HW122184   2.764   2.807   0.007
 7095SOL    HW222185   2.885   2.760   0.107
 7096SOL     OW22186   6.088   1.352   4.076
 7096SOL    HW122187   6.171   1.360   4.021
 7096SOL    HW222188   6.089   1.266   4.127
 7097SOL     OW22189   6.686   0.615   1.638
 7097SOL    HW122190   6.778   0.575   1.646
 7097SOL    HW222191   6.619   0.542   1.626
 7098SOL     OW22192   1.058   6.047   4.930
 7098SOL    HW122193   0.999   5.978   4.889
 7098SOL    HW222194   1.005   6.102   4.995
 7099SOL     OW22195   1.772   0.966   4.120
 7099SOL    HW122196   1.781   1.056   4.163
 7099SOL    HW222197   1.862   0.937   4.086
 7100SOL     OW22198   5.387   3.364   1.068
 7100SOL    HW122199   5.320   3.294   1.093
 7100SOL    HW222200   5.470   3.351   1.122
 7101SOL     OW22201   2.410   0.487   4.672
 7101SOL    HW122202   2.427   0.581   4.642
 7101SOL    HW222203   2.441   0.476   4.766
 7102SOL     OW22204   4.417   0.411   1.005
 7102SOL    HW122205   4.417   0.499   1.052
 7102SOL    HW222206   4.374   0.421   0.915
 7103SOL     OW22207   3.832   5.767   0.096
 7103SOL    HW122208   3.805   5.861   0.075
 7103SOL    HW222209   3.820   5.750   0.193
 7104SOL     OW22210   1.011   3.388   4.649
 7104SOL    HW122211   1.041   3.362   4.741
 7104SOL    HW222212   0.912   3.384   4.644
 7105SOL     OW22213   3.658   3.021   5.409
 7105SOL    HW122214   3.616   3.112   5.413
 7105SOL    HW222215   3.593   2.956   5.370
 7106SOL     OW22216   3.261   2.960   3.794
 7106SOL    HW122217   3.315   2.981   3.876
 7106SOL    HW222218   3.277   2.866   3.765
 7107SOL     OW22219   2.610   1.222   0.565
 7107SOL    HW122220   2.681   1.268   0.617
 7107SOL    HW222221   2.611   1.124   0.585
 7108SOL     OW22222   4.712   6.250   0.998
 7108SOL    HW122223   4.776   6.199   1.055
 7108SOL    HW222224   4.680   6.331   1.049
 7109SOL     OW22225   3.715   6.931   6.209
 7109SOL    HW122226   3.664   7.015   6.228
 7109SOL    HW222227   3.784   6.917   6.281
 7110SOL     OW22228   5.414   5.180   3.962
 7110SOL    HW122229   5.327   5.212   3.925
 7110SOL    HW222230   5.484   5.251   3.949
 7111SOL     OW22231   1.335   2.994   4.622
 7111SOL    HW122232   1.348   3.094   4.617
 7111SOL    HW222233   1.343   2.965   4.717
 7112SOL     OW22234   1.779   5.723   4.121
 7112SOL    HW122235   1.825   5.682   4.200
 7112SOL    HW222236   1.790   5.822   4.124
 7113SOL     OW22237   3.181   3.999   4.627
 7113SOL    HW122238   3.138   4.034   4.710
 7113SOL    HW222239   3.260   3.942   4.653
 7114SOL     OW22240   4.227   6.922   1.617
 7114SOL    HW122241   4.317   6.961   1.602
 7114SOL    HW222242   4.204   6.860   1.543
 7115SOL     OW22243   5.101   2.288   1.797
 7115SOL    HW122244   5.171   2.342   1.843
 7115SOL    HW222245   5.103   2.194   1.832
 7116SOL     OW22246   5.699   3.234   3.369
 7116SOL    HW122247   5.765   3.269   3.302
 7116SOL    HW222248   5.748   3.194   3.447
 7117SOL     OW22249   0.116   0.101   4.440
 7117SOL    HW122250   0.090   0.031   4.506
 7117SOL    HW222251   0.090   0.072   4.348
 7118SOL     OW22252   4.573   2.913   0.539
 7118SOL    HW122253   4.615   2.848   0.603
 7118SOL    HW222254   4.508   2.970   0.588
 7119SOL     OW22255   4.851   1.251   3.482
 7119SOL    HW122256   4.781   1.237   3.552
 7119SOL    HW222257   4.936   1.205   3.509
 7120SOL     OW22258   3.840   1.540   3.006
 7120SOL    HW122259   3.904   1.564   2.933
 7120SOL    HW222260   3.765   1.485   2.968
 7121SOL     OW22261   2.064   0.222   2.982
 7121SOL    HW122262   2.142   0.285   2.978
 7121SOL    HW222263   2.024   0.225   3.073
 7122SOL     OW22264   6.264   1.222   6.685
 7122SOL    HW122265   6.300   1.310   6.654
 7122SOL    HW222266   6.204   1.237   6.764
 7123SOL     OW22267   3.258   5.376   1.419
 7123SOL    HW122268   3.226   5.430   1.341
 7123SOL    HW222269   3.228   5.281   1.408
 7124SOL     OW22270   1.208   3.827   0.315
 7124SOL    HW122271   1.190   3.821   0.217
 7124SOL    HW222272   1.183   3.741   0.359
 7125SOL     OW22273   6.945   6.393   1.376
 7125SOL    HW122274   6.937   6.365   1.280
 7125SOL    HW222275   0.005   6.350   1.416
 7126SOL     OW22276   2.164   4.528   0.313
 7126SOL    HW122277   2.161   4.584   0.229
 7126SOL    HW222278   2.213   4.579   0.384
 7127SOL     OW22279   2.605   5.581   4.207
 7127SOL    HW122280   2.674   5.531   4.260
 7127SOL    HW222281   2.638   5.594   4.114
 7128SOL     OW22282   2.956   4.864   0.399
 7128SOL    HW122283   3.051   4.877   0.428
 7128SOL    HW222284   2.901   4.943   0.428
 7129SOL     OW22285   3.355   0.759   0.912
 7129SOL    HW122286   3.268   0.805   0.892
 7129SOL    HW222287   3.394   0.724   0.827
 7130SOL     OW22288   3.434   4.940   4.813
 7130SOL    HW122289   3.431   5.035   4.844
 7130SOL    HW222290   3.366   4.925   4.741
 7131SOL     OW22291   2.399   2.069   0.171
 7131SOL    HW122292   2.425   2.077   0.075
 7131SOL    HW222293   2.333   1.994   0.181
 7132SOL     OW22294   3.650   4.001   1.357
 7132SOL    HW122295   3.637   3.943   1.277
 7132SOL    HW222296   3.689   4.089   1.329
 7133SOL     OW22297   5.527   4.804   3.436
 7133SOL    HW122298   5.450   4.810   3.500
 7133SOL    HW222299   5.539   4.709   3.407
 7134SOL     OW22300   5.979   5.458   3.045
 7134SOL    HW122301   5.974   5.557   3.033
 7134SOL    HW222302   5.890   5.417   3.028
 7135SOL     OW22303   1.717   1.389   3.369
 7135SOL    HW122304   1.725   1.424   3.275
 7135SOL    HW222305   1.748   1.459   3.433
 7136SOL     OW22306   2.213   1.722   0.546
 7136SOL    HW122307   2.218   1.630   0.507
 7136SOL    HW222308   2.125   1.734   0.592
 7137SOL     OW22309   4.958   1.002   5.326
 7137SOL    HW122310   5.024   1.039   5.262
 7137SOL    HW222311   4.902   0.932   5.281
 7138SOL     OW22312   3.029   2.517   1.036
 7138SOL    HW122313   2.994   2.605   1.003
 7138SOL    HW222314   3.061   2.527   1.130
 7139SOL     OW22315   4.895   3.075   2.248
 7139SOL    HW122316   4.845   3.032   2.172
 7139SOL    HW222317   4.877   3.023   2.332
 7140SOL     OW22318   6.266   3.418   5.056
 7140SOL    HW122319   6.298   3.465   4.974
 7140SOL    HW222320   6.312   3.330   5.064
 7141SOL     OW22321   3.202   6.659   1.130
 7141SOL    HW122322   3.199   6.714   1.214
 7141SOL    HW222323   3.128   6.687   1.069
 7142SOL     OW22324   4.282   6.669   2.857
 7142SOL    HW122325   4.324   6.580   2.842
 7142SOL    HW222326   4.243   6.672   2.949
 7143SOL     OW22327   1.210   2.358   6.527
 7143SOL    HW122328   1.194   2.316   6.616
 7143SOL    HW222329   1.198   2.457   6.534
 7144SOL     OW22330   0.997   1.567   2.967
 7144SOL    HW122331   1.095   1.557   2.987
 7144SOL    HW222332   0.955   1.476   2.963
 7145SOL     OW22333   4.126   6.526   6.203
 7145SOL    HW122334   4.057   6.480   6.147
 7145SOL    HW222335   4.154   6.611   6.159
 7146SOL     OW22336   2.479   0.406   0.141
 7146SOL    HW122337   2.449   0.485   0.087
 7146SOL    HW222338   2.456   0.322   0.093
 7147SOL     OW22339   6.648   6.591   3.584
 7147SOL    HW122340   6.552   6.569   3.567
 7147SOL    HW222341   6.667   6.586   3.682
 7148SOL     OW22342   0.340   6.055   1.879
 7148SOL    HW122343   0.259   6.003   1.850
 7148SOL    HW222344   0.366   6.118   1.806
 7149SOL     OW22345   0.075   6.561   3.386
 7149SOL    HW122346   7.001   6.537   3.371
 7149SOL    HW222347   0.086   6.597   3.479
 7150SOL     OW22348   5.067   2.967   1.611
 7150SOL    HW122349   5.019   2.941   1.695
 7150SOL    HW222350   5.035   3.057   1.581
 7151SOL     OW22351   0.609   5.462   0.708
 7151SOL    HW122352   0.617   5.555   0.674
 7151SOL    HW222353   0.683   5.444   0.773
 7152SOL     OW22354   0.404   2.695   5.767
 7152SOL    HW122355   0.445   2.608   5.792
 7152SOL    HW222356   0.337   2.680   5.695
 7153SOL     OW22357   3.101   6.019   4.573
 7153SOL    HW122358   3.020   6.004   4.630
 7153SOL    HW222359   3.126   5.933   4.528
 7154SOL     OW22360   3.993   6.060   4.806
 7154SOL    HW122361   4.062   5.988   4.818
 7154SOL    HW222362   3.946   6.047   4.719
 7155SOL     OW22363   1.740   6.349   1.507
 7155SOL    HW122364   1.797   6.389   1.434
 7155SOL    HW222365   1.649   6.331   1.472
 7156SOL     OW22366   0.841   5.083   4.596
 7156SOL    HW122367   0.936   5.115   4.589
 7156SOL    HW222368   0.838   4.999   4.651
 7157SOL     OW22369   6.003   5.127   1.022
 7157SOL    HW122370   6.040   5.078   1.101
 7157SOL    HW222371   6.018   5.073   0.939
 7158SOL     OW22372   0.213   6.805   3.235
 7158SOL    HW122373   0.194   6.896   3.270
 7158SOL    HW222374   0.161   6.737   3.288
 7159SOL     OW22375   0.472   4.348   2.125
 7159SOL    HW122376   0.528   4.418   2.081
 7159SOL    HW222377   0.473   4.265   2.069
 7160SOL     OW22378   6.696   0.694   3.111
 7160SOL    HW122379   6.622   0.758   3.090
 7160SOL    HW222380   6.700   0.623   3.041
 7161SOL     OW22381   3.158   4.107   4.207
 7161SOL    HW122382   3.086   4.045   4.177
 7161SOL    HW222383   3.229   4.111   4.137
 7162SOL     OW22384   2.727   6.052   5.369
 7162SOL    HW122385   2.824   6.035   5.389
 7162SOL    HW222386   2.709   6.151   5.373
 7163SOL     OW22387   3.282   6.551   3.866
 7163SOL    HW122388   3.222   6.625   3.836
 7163SOL    HW222389   3.250   6.515   3.954
 7164SOL     OW22390   1.793   2.390   2.694
 7164SOL    HW122391   1.821   2.375   2.789
 7164SOL    HW222392   1.707   2.442   2.693
 7165SOL     OW22393   6.043   0.798   1.239
 7165SOL    HW122394   6.064   0.876   1.179
 7165SOL    HW222395   5.944   0.791   1.250
 7166SOL     OW22396   5.353   3.803   0.886
 7166SOL    HW122397   5.447   3.775   0.866
 7166SOL    HW222398   5.335   3.792   0.984
 7167SOL     OW22399   4.957   4.022   5.151
 7167SOL    HW122400   4.889   4.022   5.224
 7167SOL    HW222401   4.983   4.116   5.130
 7168SOL     OW22402   1.141   2.225   3.337
 7168SOL    HW122403   1.220   2.239   3.277
 7168SOL    HW222404   1.097   2.138   3.315
 7169SOL     OW22405   0.814   3.027   4.730
 7169SOL    HW122406   0.846   3.060   4.641
 7169SOL    HW222407   0.868   3.070   4.802
 7170SOL     OW22408   3.946   5.321   3.523
 7170SOL    HW122409   4.036   5.278   3.515
 7170SOL    HW222410   3.930   5.380   3.443
 7171SOL     OW22411   5.646   4.239   6.096
 7171SOL    HW122412   5.742   4.239   6.070
 7171SOL    HW222413   5.598   4.312   6.048
 7172SOL     OW22414   1.313   0.130   6.005
 7172SOL    HW122415   1.359   0.165   6.086
 7172SOL    HW222416   1.218   0.108   6.027
 7173SOL     OW22417   0.348   4.395   5.237
 7173SOL    HW122418   0.293   4.430   5.313
 7173SOL    HW222419   0.441   4.432   5.242
 7174SOL     OW22420   1.198   5.400   6.600
 7174SOL    HW122421   1.114   5.363   6.562
 7174SOL    HW222422   1.179   5.486   6.647
 7175SOL     OW22423   5.739   3.187   0.654
 7175SOL    HW122424   5.836   3.167   0.665
 7175SOL    HW222425   5.708   3.243   0.730
 7176SOL     OW22426   0.227   5.483   2.805
 7176SOL    HW122427   0.241   5.386   2.824
 7176SOL    HW222428   0.316   5.529   2.801
 7177SOL     OW22429   2.401   6.240   3.344
 7177SOL    HW122430   2.384   6.336   3.367
 7177SOL    HW222431   2.420   6.188   3.427
 7178SOL     OW22432   2.506   2.562   5.391
 7178SOL    HW122433   2.553   2.642   5.428
 7178SOL    HW222434   2.410   2.564   5.417
 7179SOL     OW22435   1.658   3.216   5.295
 7179SOL    HW122436   1.709   3.215   5.381
 7179SOL    HW222437   1.571   3.263   5.309
 7180SOL     OW22438   1.081   5.301   6.081
 7180SOL    HW122439   1.179   5.317   6.087
 7180SOL    HW222440   1.060   5.210   6.118
 7181SOL     OW22441   2.979   6.924   1.198
 7181SOL    HW122442   2.947   6.856   1.131
 7181SOL    HW222443   2.904   6.948   1.259
 7182SOL     OW22444   0.963   3.001   5.532
 7182SOL    HW122445   0.894   3.033   5.467
 7182SOL    HW222446   0.931   3.019   5.625
 7183SOL     OW22447   1.704   4.789   2.013
 7183SOL    HW122448   1.687   4.704   1.962
 7183SOL    HW222449   1.721   4.767   2.109
 7184SOL     OW22450   0.543   6.951   3.661
 7184SOL    HW122451   0.480   0.002   3.689
 7184SOL    HW222452   0.626   6.956   3.716
 7185SOL     OW22453   4.821   2.279   6.114
 7185SOL    HW122454   4.881   2.238   6.183
 7185SOL    HW222455   4.828   2.228   6.029
 7186SOL     OW22456   0.235   0.089   5.948
 7186SOL    HW122457   0.301   0.140   5.893
 7186SOL    HW222458   0.145   0.094   5.904
 7187SOL     OW22459   1.759   4.563   1.185
 7187SOL    HW122460   1.804   4.648   1.157
 7187SOL    HW222461   1.719   4.574   1.276
 7188SOL     OW22462   5.556   6.837   0.604
 7188SOL    HW122463   5.556   6.934   0.581
 7188SOL    HW222464   5.525   6.783   0.525
 7189SOL     OW22465   6.029   1.032   6.946
 7189SOL    HW122466   6.005   1.111   6.889
 7189SOL    HW222467   6.026   0.949   6.891
 7190SOL     OW22468   5.269   3.441   3.283
 7190SOL    HW122469   5.365   3.467   3.269
 7190SOL    HW222470   5.220   3.446   3.196
 7191SOL     OW22471   0.850   4.508   2.484
 7191SOL    HW122472   0.873   4.572   2.411
 7191SOL    HW222473   0.897   4.421   2.469
 7192SOL     OW22474   1.977   6.008   4.503
 7192SOL    HW122475   1.968   5.910   4.515
 7192SOL    HW222476   2.047   6.043   4.566
 7193SOL     OW22477   3.101   2.218   3.431
 7193SOL    HW122478   3.139   2.247   3.344
 7193SOL    HW222479   3.013   2.174   3.416
 7194SOL     OW22480   2.378   1.939   1.194
 7194SOL    HW122481   2.317   1.975   1.264
 7194SOL    HW222482   2.437   2.013   1.160
 7195SOL     OW22483   0.351   5.192   7.000
 7195SOL    HW122484   0.385   5.280   6.965
 7195SOL    HW222485   0.426   5.145   0.025
 7196SOL     OW22486   2.921   3.502   2.446
 7196SOL    HW122487   2.934   3.408   2.476
 7196SOL    HW222488   2.899   3.503   2.349
 7197SOL     OW22489   6.881   2.509   5.802
 7197SOL    HW122490   6.805   2.573   5.807
 7197SOL    HW222491   6.854   2.421   5.842
 7198SOL     OW22492   0.858   0.595   5.074
 7198SOL    HW122493   0.832   0.543   5.155
 7198SOL    HW222494   0.813   0.685   5.076
 7199SOL     OW22495   1.791   0.659   2.120
 7199SOL    HW122496   1.701   0.625   2.147
 7199SOL    HW222497   1.780   0.747   2.073
 7200SOL     OW22498   2.439   0.610   6.989
 7200SOL    HW122499   2.365   0.649   6.934
 7200SOL    HW222500   2.523   0.660   6.971
 7201SOL     OW22501   1.453   4.917   3.218
 7201SOL    HW122502   1.454   4.946   3.123
 7201SOL    HW222503   1.367   4.944   3.261
 7202SOL     OW22504   3.700   0.187   6.297
 7202SOL    HW122505   3.761   0.238   6.357
 7202SOL    HW222506   3.664   0.248   6.226
 7203SOL     OW22507   5.685   1.199   0.661
 7203SOL    HW122508   5.723   1.108   0.673
 7203SOL    HW222509   5.604   1.194   0.602
 7204SOL     OW22510   5.777   6.701   4.553
 7204SOL    HW122511   5.830   6.620   4.579
 7204SOL    HW222512   5.726   6.735   4.632
 7205SOL     OW22513   1.760   6.346   3.299
 7205SOL    HW122514   1.842   6.387   3.261
 7205SOL    HW222515   1.685   6.412   3.296
 7206SOL     OW22516   0.927   0.726   1.628
 7206SOL    HW122517   0.973   0.803   1.671
 7206SOL    HW222518   0.922   0.740   1.529
 7207SOL     OW22519   3.678   6.934   1.513
 7207SOL    HW122520   3.655   6.843   1.547
 7207SOL    HW222521   3.608   6.965   1.448
 7208SOL     OW22522   4.019   6.531   4.249
 7208SOL    HW122523   4.011   6.442   4.205
 7208SOL    HW222524   3.949   6.538   4.321
 7209SOL     OW22525   3.106   3.126   3.328
 7209SOL    HW122526   3.098   3.167   3.237
 7209SOL    HW222527   3.033   3.161   3.387
 7210SOL     OW22528   5.150   0.165   3.596
 7210SOL    HW122529   5.216   0.125   3.661
 7210SOL    HW222530   5.074   0.204   3.647
 7211SOL     OW22531   1.604   5.464   3.690
 7211SOL    HW122532   1.583   5.510   3.776
 7211SOL    HW222533   1.587   5.525   3.614
 7212SOL     OW22534   1.186   5.718   3.837
 7212SOL    HW122535   1.242   5.793   3.872
 7212SOL    HW222536   1.120   5.690   3.907
 7213SOL     OW22537   5.866   6.976   5.343
 7213SOL    HW122538   5.772   6.973   5.376
 7213SOL    HW222539   5.920   6.908   5.391
 7214SOL     OW22540   2.617   5.131   4.311
 7214SOL    HW122541   2.598   5.131   4.409
 7214SOL    HW222542   2.541   5.089   4.262
 7215SOL     OW22543   0.701   3.555   4.353
 7215SOL    HW122544   0.754   3.620   4.299
 7215SOL    HW222545   0.603   3.575   4.342
 7216SOL     OW22546   2.548   6.200   6.833
 7216SOL    HW122547   2.615   6.128   6.850
 7216SOL    HW222548   2.593   6.281   6.796
 7217SOL     OW22549   1.694   4.694   1.431
 7217SOL    HW122550   1.759   4.769   1.444
 7217SOL    HW222551   1.685   4.642   1.517
 7218SOL     OW22552   4.538   2.961   5.741
 7218SOL    HW122553   4.442   2.966   5.768
 7218SOL    HW222554   4.575   2.870   5.764
 7219SOL     OW22555   4.799   5.749   3.133
 7219SOL    HW122556   4.741   5.671   3.109
 7219SOL    HW222557   4.786   5.772   3.229
 7220SOL     OW22558   6.728   5.655   3.592
 7220SOL    HW122559   6.723   5.620   3.499
 7220SOL    HW222560   6.709   5.753   3.592
 7221SOL     OW22561   5.250   5.057   5.068
 7221SOL    HW122562   5.348   5.043   5.061
 7221SOL    HW222563   5.220   5.042   5.162
 7222SOL     OW22564   6.352   6.478   0.356
 7222SOL    HW122565   6.395   6.420   0.426
 7222SOL    HW222566   6.354   6.573   0.386
 7223SOL     OW22567   3.116   1.657   1.470
 7223SOL    HW122568   3.116   1.699   1.561
 7223SOL    HW222569   3.163   1.569   1.474
 7224SOL     OW22570   5.778   1.976   4.641
 7224SOL    HW122571   5.795   1.972   4.543
 7224SOL    HW222572   5.696   1.923   4.662
 7225SOL     OW22573   1.554   5.287   6.659
 7225SOL    HW122574   1.634   5.346   6.650
 7225SOL    HW222575   1.486   5.333   6.716
 7226SOL     OW22576   0.497   0.669   0.577
 7226SOL    HW122577   0.453   0.597   0.631
 7226SOL    HW222578   0.432   0.744   0.563
 7227SOL     OW22579   0.573   2.010   0.626
 7227SOL    HW122580   0.561   2.109   0.622
 7227SOL    HW222581   0.523   1.967   0.551
 7228SOL     OW22582   0.197   0.529   1.710
 7228SOL    HW122583   0.204   0.544   1.612
 7228SOL    HW222584   0.239   0.605   1.759
 7229SOL     OW22585   0.802   0.493   4.005
 7229SOL    HW122586   0.858   0.469   3.925
 7229SOL    HW222587   0.830   0.582   4.039
 7230SOL     OW22588   4.503   5.176   4.668
 7230SOL    HW122589   4.510   5.240   4.591
 7230SOL    HW222590   4.581   5.190   4.730
 7231SOL     OW22591   4.566   0.475   0.153
 7231SOL    HW122592   4.514   0.526   0.085
 7231SOL    HW222593   4.526   0.384   0.164
 7232SOL     OW22594   4.059   4.929   3.553
 7232SOL    HW122595   4.081   4.832   3.555
 7232SOL    HW222596   4.011   4.951   3.468
 7233SOL     OW22597   0.548   2.793   4.812
 7233SOL    HW122598   0.452   2.813   4.792
 7233SOL    HW222599   0.596   2.878   4.833
 7234SOL     OW22600   6.243   2.579   1.673
 7234SOL    HW122601   6.224   2.502   1.735
 7234SOL    HW222602   6.261   2.661   1.726
 7235SOL     OW22603   6.511   3.900   3.416
 7235SOL    HW122604   6.488   3.809   3.383
 7235SOL    HW222605   6.570   3.946   3.349
 7236SOL     OW22606   3.175   1.718   2.905
 7236SOL    HW122607   3.243   1.713   2.978
 7236SOL    HW222608   3.088   1.751   2.943
 7237SOL     OW22609   6.485   6.447   5.217
 7237SOL    HW122610   6.478   6.547   5.210
 7237SOL    HW222611   6.420   6.414   5.285
 7238SOL     OW22612   2.264   1.810   1.734
 7238SOL    HW122613   2.358   1.816   1.769
 7238SOL    HW222614   2.201   1.797   1.810
 7239SOL     OW22615   2.073   1.734   3.108
 7239SOL    HW122616   2.041   1.642   3.129
 7239SOL    HW222617   2.114   1.775   3.189
 7240SOL     OW22618   3.132   3.980   0.234
 7240SOL    HW122619   3.065   3.934   0.176
 7240SOL    HW222620   3.130   3.940   0.326
 7241SOL     OW22621   3.535   0.318   6.105
 7241SOL    HW122622   3.515   0.408   6.143
 7241SOL    HW222623   3.534   0.323   6.005
 7242SOL     OW22624   5.875   4.376   0.203
 7242SOL    HW122625   5.808   4.303   0.195
 7242SOL    HW222626   5.843   4.444   0.270
 7243SOL     OW22627   1.433   4.533   6.458
 7243SOL    HW122628   1.522   4.490   6.473
 7243SOL    HW222629   1.422   4.610   6.521
 7244SOL     OW22630   4.405   0.631   1.163
 7244SOL    HW122631   4.395   0.681   1.077
 7244SOL    HW222632   4.501   0.635   1.193
 7245SOL     OW22633   0.272   2.684   4.930
 7245SOL    HW122634   0.279   2.783   4.939
 7245SOL    HW222635   0.208   2.649   4.999
 7246SOL     OW22636   6.865   6.642   4.776
 7246SOL    HW122637   6.904   6.722   4.821
 7246SOL    HW222638   6.802   6.672   4.704
 7247SOL     OW22639   2.475   6.895   2.341
 7247SOL    HW122640   2.449   6.819   2.281
 7247SOL    HW222641   2.416   6.895   2.421
 7248SOL     OW22642   3.410   1.365   3.625
 7248SOL    HW122643   3.477   1.425   3.668
 7248SOL    HW222644   3.417   1.273   3.663
 7249SOL     OW22645   5.731   4.395   1.034
 7249SOL    HW122646   5.694   4.322   1.092
 7249SOL    HW222647   5.819   4.425   1.070
 7250SOL     OW22648   2.333   4.803   6.302
 7250SOL    HW122649   2.248   4.755   6.326
 7250SOL    HW222650   2.341   4.808   6.203
 7251SOL     OW22651   6.502   6.856   5.665
 7251SOL    HW122652   6.584   6.825   5.616
 7251SOL    HW222653   6.522   6.859   5.763
 7252SOL     OW22654   3.421   3.616   4.582
 7252SOL    HW122655   3.378   3.537   4.625
 7252SOL    HW222656   3.415   3.695   4.643
 7253SOL     OW22657   1.891   5.988   0.455
 7253SOL    HW122658   1.893   6.027   0.363
 7253SOL    HW222659   1.846   6.051   0.518
 7254SOL     OW22660   3.400   5.332   4.650
 7254SOL    HW122661   3.358   5.367   4.734
 7254SOL    HW222662   3.337   5.344   4.574
 7255SOL     OW22663   3.035   2.965   1.917
 7255SOL    HW122664   3.018   2.895   1.987
 7255SOL    HW222665   3.085   3.041   1.959
 7256SOL     OW22666   4.684   4.895   4.634
 7256SOL    HW122667   4.697   4.991   4.610
 7256SOL    HW222668   4.599   4.862   4.592
 7257SOL     OW22669   6.572   2.798   3.308
 7257SOL    HW122670   6.634   2.763   3.378
 7257SOL    HW222671   6.507   2.726   3.282
 7258SOL     OW22672   4.491   0.438   4.150
 7258SOL    HW122673   4.547   0.519   4.168
 7258SOL    HW222674   4.410   0.440   4.209
 7259SOL     OW22675   2.862   4.436   6.949
 7259SOL    HW122676   2.763   4.448   6.941
 7259SOL    HW222677   2.885   4.339   6.936
 7260SOL     OW22678   3.915   1.844   3.043
 7260SOL    HW122679   3.915   1.934   3.085
 7260SOL    HW222680   4.004   1.801   3.055
 7261SOL     OW22681   2.352   3.223   1.712
 7261SOL    HW122682   2.435   3.228   1.656
 7261SOL    HW222683   2.338   3.310   1.759
 7262SOL     OW22684   5.830   2.805   4.570
 7262SOL    HW122685   5.740   2.845   4.557
 7262SOL    HW222686   5.824   2.706   4.559
 7263SOL     OW22687   1.231   5.478   1.756
 7263SOL    HW122688   1.317   5.452   1.799
 7263SOL    HW222689   1.244   5.560   1.700
 7264SOL     OW22690   6.920   1.395   6.832
 7264SOL    HW122691   6.876   1.387   6.922
 7264SOL    HW222692   6.987   1.322   6.822
 7265SOL     OW22693   5.443   5.423   6.154
 7265SOL    HW122694   5.420   5.495   6.219
 7265SOL    HW222695   5.516   5.365   6.190
 7266SOL     OW22696   4.752   0.888   1.481
 7266SOL    HW122697   4.809   0.807   1.496
 7266SOL    HW222698   4.786   0.964   1.537
 7267SOL     OW22699   6.685   4.389   5.105
 7267SOL    HW122700   6.708   4.331   5.183
 7267SOL    HW222701   6.768   4.426   5.065
 7268SOL     OW22702   4.103   5.728   2.201
 7268SOL    HW122703   4.089   5.719   2.102
 7268SOL    HW222704   4.183   5.785   2.218
 7269SOL     OW22705   0.739   5.451   1.652
 7269SOL    HW122706   0.665   5.389   1.677
 7269SOL    HW222707   0.812   5.446   1.719
 7270SOL     OW22708   2.619   1.963   2.844
 7270SOL    HW122709   2.696   2.022   2.819
 7270SOL    HW222710   2.535   1.996   2.800
 7271SOL     OW22711   0.253   4.274   2.457
 7271SOL    HW122712   0.332   4.229   2.417
 7271SOL    HW222713   0.275   4.305   2.550
 7272SOL     OW22714   5.105   2.790   2.846
 7272SOL    HW122715   5.138   2.803   2.940
 7272SOL    HW222716   5.089   2.879   2.803
 7273SOL     OW22717   5.990   4.439   1.768
 7273SOL    HW122718   6.028   4.441   1.675
 7273SOL    HW222719   5.892   4.459   1.764
 7274SOL     OW22720   0.269   5.046   5.592
 7274SOL    HW122721   0.203   4.978   5.625
 7274SOL    HW222722   0.294   5.026   5.498
 7275SOL     OW22723   6.458   0.562   0.241
 7275SOL    HW122724   6.487   0.472   0.208
 7275SOL    HW222725   6.422   0.616   0.165
 7276SOL     OW22726   2.425   1.927   3.696
 7276SOL    HW122727   2.452   1.988   3.621
 7276SOL    HW222728   2.500   1.921   3.762
 7277SOL     OW22729   4.760   1.458   5.936
 7277SOL    HW122730   4.798   1.448   5.844
 7277SOL    HW222731   4.704   1.541   5.940
 7278SOL     OW22732   4.032   1.272   3.385
 7278SOL    HW122733   4.028   1.224   3.297
 7278SOL    HW222734   3.942   1.311   3.404
 7279SOL     OW22735   4.410   4.297   0.890
 7279SOL    HW122736   4.435   4.391   0.914
 7279SOL    HW222737   4.312   4.292   0.872
 7280SOL     OW22738   5.467   2.139   5.445
 7280SOL    HW122739   5.474   2.105   5.351
 7280SOL    HW222740   5.510   2.074   5.507
 7281SOL     OW22741   3.764   6.747   0.990
 7281SOL    HW122742   3.713   6.726   1.074
 7281SOL    HW222743   3.759   6.668   0.928
 7282SOL     OW22744   6.535   5.379   1.908
 7282SOL    HW122745   6.466   5.341   1.969
 7282SOL    HW222746   6.620   5.328   1.918
 7283SOL     OW22747   3.027   6.184   2.547
 7283SOL    HW122748   3.025   6.209   2.643
 7283SOL    HW222749   3.060   6.261   2.492
 7284SOL     OW22750   6.785   2.506   3.805
 7284SOL    HW122751   6.841   2.431   3.841
 7284SOL    HW222752   6.799   2.588   3.862
 7285SOL     OW22753   4.922   3.020   1.873
 7285SOL    HW122754   4.847   3.008   1.938
 7285SOL    HW222755   4.955   3.114   1.877
 7286SOL     OW22756   1.091   1.071   0.623
 7286SOL    HW122757   1.096   0.973   0.603
 7286SOL    HW222758   1.172   1.100   0.673
 7287SOL     OW22759   0.778   2.671   3.563
 7287SOL    HW122760   0.725   2.609   3.621
 7287SOL    HW222761   0.875   2.654   3.575
 7288SOL     OW22762   2.826   2.296   2.606
 7288SOL    HW122763   2.905   2.325   2.552
 7288SOL    HW222764   2.852   2.221   2.666
 7289SOL     OW22765   5.954   2.415   2.180
 7289SOL    HW122766   5.899   2.447   2.103
 7289SOL    HW222767   6.013   2.490   2.212
 7290SOL     OW22768   4.307   1.192   5.515
 7290SOL    HW122769   4.218   1.227   5.486
 7290SOL    HW222770   4.364   1.177   5.435
 7291SOL     OW22771   3.374   6.896   0.002
 7291SOL    HW122772   3.429   6.837   0.061
 7291SOL    HW222773   3.392   6.873   6.928
 7292SOL     OW22774   1.537   0.109   3.284
 7292SOL    HW122775   1.447   0.140   3.253
 7292SOL    HW222776   1.525   0.037   3.353
 7293SOL     OW22777   1.606   0.466   5.148
 7293SOL    HW122778   1.509   0.481   5.167
 7293SOL    HW222779   1.637   0.531   5.078
 7294SOL     OW22780   3.092   4.697   1.811
 7294SOL    HW122781   3.062   4.766   1.877
 7294SOL    HW222782   3.048   4.610   1.832
 7295SOL     OW22783   6.835   4.991   1.948
 7295SOL    HW122784   6.857   4.893   1.953
 7295SOL    HW222785   6.737   5.003   1.934
 7296SOL     OW22786   3.700   4.946   2.635
 7296SOL    HW122787   3.767   4.884   2.596
 7296SOL    HW222788   3.649   4.900   2.708
 7297SOL     OW22789   3.343   6.591   1.714
 7297SOL    HW122790   3.381   6.683   1.723
 7297SOL    HW222791   3.402   6.536   1.656
 7298SOL     OW22792   4.900   5.979   6.712
 7298SOL    HW122793   4.988   5.949   6.675
 7298SOL    HW222794   4.876   5.924   6.792
 7299SOL     OW22795   1.188   2.779   0.127
 7299SOL    HW122796   1.126   2.710   0.088
 7299SOL    HW222797   1.232   2.742   0.208
 7300SOL     OW22798   1.090   5.513   2.062
 7300SOL    HW122799   1.176   5.468   2.087
 7300SOL    HW222800   1.104   5.567   1.980
 7301SOL     OW22801   5.934   0.118   5.600
 7301SOL    HW122802   5.900   0.139   5.692
 7301SOL    HW222803   5.929   0.020   5.585
 7302SOL     OW22804   4.948   3.016   6.291
 7302SOL    HW122805   5.022   3.048   6.233
 7302SOL    HW222806   4.910   2.931   6.253
 7303SOL     OW22807   2.767   1.395   0.721
 7303SOL    HW122808   2.827   1.402   0.801
 7303SOL    HW222809   2.778   1.476   0.664
 7304SOL     OW22810   2.778   4.966   1.185
 7304SOL    HW122811   2.713   5.041   1.176
 7304SOL    HW222812   2.752   4.909   1.264
 7305SOL     OW22813   5.922   2.434   0.229
 7305SOL    HW122814   5.860   2.360   0.253
 7305SOL    HW222815   5.924   2.501   0.303
 7306SOL     OW22816   3.437   1.986   0.886
 7306SOL    HW122817   3.508   1.928   0.926
 7306SOL    HW222818   3.450   1.991   0.787
 7307SOL     OW22819   3.231   6.430   1.999
 7307SOL    HW122820   3.296   6.496   1.959
 7307SOL    HW222821   3.260   6.408   2.092
 7308SOL     OW22822   5.469   0.978   2.064
 7308SOL    HW122823   5.554   0.939   2.029
 7308SOL    HW222824   5.396   0.967   1.996
 7309SOL     OW22825   2.372   5.963   2.695
 7309SOL    HW122826   2.413   5.872   2.683
 7309SOL    HW222827   2.444   6.030   2.710
 7310SOL     OW22828   1.564   3.100   0.540
 7310SOL    HW122829   1.499   3.053   0.481
 7310SOL    HW222830   1.625   3.156   0.485
 7311SOL     OW22831   0.189   0.203   0.756
 7311SOL    HW122832   0.218   0.294   0.724
 7311SOL    HW222833   0.105   0.176   0.710
 7312SOL     OW22834   6.928   2.045   5.569
 7312SOL    HW122835   6.938   2.117   5.501
 7312SOL    HW222836   6.985   2.065   5.649
 7313SOL     OW22837   2.238   0.971   1.428
 7313SOL    HW122838   2.244   1.035   1.351
 7313SOL    HW222839   2.299   1.002   1.501
 7314SOL     OW22840   0.019   4.166   6.870
 7314SOL    HW122841   6.947   4.195   6.889
 7314SOL    HW222842   0.030   4.153   6.772
 7315SOL     OW22843   6.840   5.159   2.485
 7315SOL    HW122844   6.798   5.114   2.407
 7315SOL    HW222845   6.798   5.125   2.569
 7316SOL     OW22846   2.622   2.247   6.116
 7316SOL    HW122847   2.576   2.297   6.189
 7316SOL    HW222848   2.604   2.149   6.126
 7317SOL     OW22849   3.622   1.545   1.839
 7317SOL    HW122850   3.620   1.445   1.838
 7317SOL    HW222851   3.640   1.579   1.747
 7318SOL     OW22852   3.635   7.011   2.153
 7318SOL    HW122853   3.610   0.062   2.089
 7318SOL    HW222854   3.731   7.020   2.178
 7319SOL     OW22855   6.892   4.376   0.141
 7319SOL    HW122856   6.987   4.346   0.127
 7319SOL    HW222857   6.874   4.382   0.240
 7320SOL     OW22858   6.901   3.868   0.936
 7320SOL    HW122859   6.997   3.861   0.964
 7320SOL    HW222860   6.852   3.787   0.967
 7321SOL     OW22861   1.877   5.937   6.047
 7321SOL    HW122862   1.847   6.006   5.982
 7321SOL    HW222863   1.816   5.938   6.127
 7322SOL     OW22864   0.893   1.305   2.874
 7322SOL    HW122865   0.865   1.344   2.786
 7322SOL    HW222866   0.952   1.225   2.857
 7323SOL     OW22867   1.795   1.918   1.356
 7323SOL    HW122868   1.777   1.822   1.374
 7323SOL    HW222869   1.710   1.967   1.339
 7324SOL     OW22870   5.623   4.985   2.906
 7324SOL    HW122871   5.669   4.943   2.828
 7324SOL    HW222872   5.636   4.927   2.987
 7325SOL     OW22873   3.848   0.415   5.595
 7325SOL    HW122874   3.751   0.413   5.618
 7325SOL    HW222875   3.859   0.391   5.498
 7326SOL     OW22876   2.867   0.723   6.249
 7326SOL    HW122877   2.937   0.670   6.202
 7326SOL    HW222878   2.910   0.781   6.319
 7327SOL     OW22879   5.776   3.896   3.238
 7327SOL    HW122880   5.813   3.819   3.185
 7327SOL    HW222881   5.702   3.863   3.298
 7328SOL     OW22882   3.884   5.596   5.621
 7328SOL    HW122883   3.849   5.608   5.714
 7328SOL    HW222884   3.812   5.557   5.563
 7329SOL     OW22885   2.057   3.131   0.421
 7329SOL    HW122886   1.966   3.092   0.433
 7329SOL    HW222887   2.069   3.207   0.484
 7330SOL     OW22888   2.908   3.083   1.470
 7330SOL    HW122889   2.919   3.181   1.455
 7330SOL    HW222890   2.924   3.034   1.384
 7331SOL     OW22891   4.826   0.308   1.998
 7331SOL    HW122892   4.737   0.298   1.953
 7331SOL    HW222893   4.836   0.237   2.068
 7332SOL     OW22894   3.673   3.958   6.994
 7332SOL    HW122895   3.750   3.925   0.026
 7332SOL    HW222896   3.706   4.005   6.912
 7333SOL     OW22897   6.901   3.155   1.567
 7333SOL    HW122898   6.867   3.139   1.475
 7333SOL    HW222899   6.826   3.148   1.633
 7334SOL     OW22900   2.608   0.192   5.292
 7334SOL    HW122901   2.632   0.160   5.384
 7334SOL    HW222902   2.525   0.144   5.262
 7335SOL     OW22903   0.174   3.545   2.920
 7335SOL    HW122904   0.151   3.448   2.911
 7335SOL    HW222905   0.246   3.557   2.989
 7336SOL     OW22906   1.458   6.464   1.040
 7336SOL    HW122907   1.478   6.557   1.007
 7336SOL    HW222908   1.377   6.466   1.099
 7337SOL     OW22909   2.833   2.894   1.708
 7337SOL    HW122910   2.886   2.942   1.778
 7337SOL    HW222911   2.824   2.952   1.627
 7338SOL     OW22912   5.520   3.040   1.069
 7338SOL    HW122913   5.591   2.979   1.102
 7338SOL    HW222914   5.484   3.094   1.145
 7339SOL     OW22915   0.030   6.307   5.231
 7339SOL    HW122916   0.012   6.219   5.275
 7339SOL    HW222917   0.102   6.295   5.162
 7340SOL     OW22918   3.029   0.937   6.673
 7340SOL    HW122919   3.080   0.851   6.675
 7340SOL    HW222920   3.091   1.013   6.689
 7341SOL     OW22921   0.122   4.649   4.030
 7341SOL    HW122922   0.155   4.579   4.093
 7341SOL    HW222923   0.182   4.654   3.951
 7342SOL     OW22924   6.963   0.676   0.190
 7342SOL    HW122925   0.034   0.666   0.228
 7342SOL    HW222926   6.899   0.621   0.243
 7343SOL     OW22927   5.736   3.986   2.544
 7343SOL    HW122928   5.763   4.074   2.583
 7343SOL    HW222929   5.702   3.999   2.451
 7344SOL     OW22930   1.520   6.576   6.806
 7344SOL    HW122931   1.538   6.631   6.724
 7344SOL    HW222932   1.562   6.486   6.796
 7345SOL     OW22933   4.274   5.049   5.426
 7345SOL    HW122934   4.249   5.038   5.330
 7345SOL    HW222935   4.194   5.081   5.477
 7346SOL     OW22936   3.937   4.353   0.815
 7346SOL    HW122937   3.918   4.448   0.791
 7346SOL    HW222938   3.899   4.333   0.906
 7347SOL     OW22939   6.240   2.357   2.220
 7347SOL    HW122940   6.163   2.341   2.157
 7347SOL    HW222941   6.323   2.373   2.167
 7348SOL     OW22942   1.542   2.860   4.036
 7348SOL    HW122943   1.482   2.920   4.089
 7348SOL    HW222944   1.607   2.815   4.098
 7349SOL     OW22945   3.490   2.196   1.407
 7349SOL    HW122946   3.466   2.211   1.311
 7349SOL    HW222947   3.434   2.122   1.444
 7350SOL     OW22948   0.717   2.410   3.783
 7350SOL    HW122949   0.790   2.358   3.739
 7350SOL    HW222950   0.628   2.376   3.751
 7351SOL     OW22951   4.133   4.650   6.122
 7351SOL    HW122952   4.220   4.689   6.151
 7351SOL    HW222953   4.058   4.705   6.159
 7352SOL     OW22954   1.115   1.650   2.356
 7352SOL    HW122955   1.207   1.676   2.329
 7352SOL    HW222956   1.106   1.550   2.351
 7353SOL     OW22957   6.346   1.544   4.747
 7353SOL    HW122958   6.261   1.596   4.756
 7353SOL    HW222959   6.385   1.560   4.657
 7354SOL     OW22960   6.674   0.412   6.544
 7354SOL    HW122961   6.581   0.422   6.507
 7354SOL    HW222962   6.683   0.468   6.626
 7355SOL     OW22963   0.749   6.312   1.385
 7355SOL    HW122964   0.690   6.262   1.321
 7355SOL    HW222965   0.696   6.343   1.463
 7356SOL     OW22966   5.888   2.356   6.510
 7356SOL    HW122967   5.866   2.370   6.607
 7356SOL    HW222968   5.986   2.343   6.499
 7357SOL     OW22969   4.647   0.640   0.393
 7357SOL    HW122970   4.694   0.719   0.352
 7357SOL    HW222971   4.619   0.577   0.320
 7358SOL     OW22972   3.780   1.966   3.740
 7358SOL    HW122973   3.841   1.898   3.699
 7358SOL    HW222974   3.805   2.057   3.707
 7359SOL     OW22975   3.762   2.964   2.328
 7359SOL    HW122976   3.671   2.951   2.288
 7359SOL    HW222977   3.780   2.891   2.394
 7360SOL     OW22978   1.676   2.983   5.450
 7360SOL    HW122979   1.587   2.939   5.451
 7360SOL    HW222980   1.680   3.049   5.374
 7361SOL     OW22981   5.188   6.753   0.560
 7361SOL    HW122982   5.260   6.745   0.491
 7361SOL    HW222983   5.114   6.810   0.526
 7362SOL     OW22984   1.001   0.067   4.932
 7362SOL    HW122985   0.925   0.032   4.987
 7362SOL    HW222986   1.005   0.017   4.845
 7363SOL     OW22987   5.949   2.508   0.588
 7363SOL    HW122988   5.997   2.572   0.529
 7363SOL    HW222989   5.850   2.516   0.572
 7364SOL     OW22990   4.251   6.629   0.743
 7364SOL    HW122991   4.186   6.703   0.759
 7364SOL    HW222992   4.218   6.572   0.668
 7365SOL     OW22993   2.975   0.123   2.788
 7365SOL    HW122994   2.995   0.072   2.704
 7365SOL    HW222995   2.877   0.143   2.793
 7366SOL     OW22996   0.770   5.196   6.819
 7366SOL    HW122997   0.795   5.109   6.862
 7366SOL    HW222998   0.760   5.267   6.889
 7367SOL     OW22999   5.082   3.884   1.397
 7367SOL    HW123000   5.035   3.964   1.434
 7367SOL    HW223001   5.016   3.825   1.350
 7368SOL     OW23002   3.552   3.940   4.397
 7368SOL    HW123003   3.465   3.989   4.387
 7368SOL    HW223004   3.564   3.914   4.493
 7369SOL     OW23005   4.926   3.727   1.246
 7369SOL    HW123006   4.841   3.707   1.295
 7369SOL    HW223007   4.924   3.684   1.156
 7370SOL     OW23008   2.094   0.067   6.579
 7370SOL    HW123009   2.113   0.156   6.618
 7370SOL    HW223010   1.998   0.062   6.552
 7371SOL     OW23011   2.770   5.305   4.003
 7371SOL    HW123012   2.848   5.367   3.997
 7371SOL    HW223013   2.779   5.233   3.934
 7372SOL     OW23014   3.669   6.862   5.168
 7372SOL    HW123015   3.590   6.804   5.147
 7372SOL    HW223016   3.641   6.958   5.167
 7373SOL     OW23017   4.200   1.010   3.483
 7373SOL    HW123018   4.135   0.934   3.486
 7373SOL    HW223019   4.150   1.097   3.495
 7374SOL     OW23020   1.535   2.798   5.217
 7374SOL    HW123021   1.620   2.796   5.269
 7374SOL    HW223022   1.555   2.805   5.119
 7375SOL     OW23023   1.469   1.744   4.375
 7375SOL    HW123024   1.412   1.728   4.294
 7375SOL    HW223025   1.447   1.676   4.445
 7376SOL     OW23026   3.122   3.028   6.891
 7376SOL    HW123027   3.086   2.965   6.960
 7376SOL    HW223028   3.168   2.976   6.819
 7377SOL     OW23029   4.968   4.872   1.580
 7377SOL    HW123030   5.019   4.886   1.495
 7377SOL    HW223031   4.883   4.924   1.577
 7378SOL     OW23032   0.030   2.102   4.589
 7378SOL    HW123033   6.998   2.107   4.505
 7378SOL    HW223034   0.124   2.075   4.567
 7379SOL     OW23035   4.189   1.418   2.336
 7379SOL    HW123036   4.271   1.425   2.279
 7379SOL    HW223037   4.114   1.379   2.283
 7380SOL     OW23038   6.612   3.322   5.911
 7380SOL    HW123039   6.676   3.245   5.913
 7380SOL    HW223040   6.662   3.407   5.926
 7381SOL     OW23041   4.777   2.920   2.490
 7381SOL    HW123042   4.789   2.990   2.561
 7381SOL    HW223043   4.749   2.834   2.534
 7382SOL     OW23044   0.475   4.741   5.209
 7382SOL    HW123045   0.524   4.654   5.197
 7382SOL    HW223046   0.471   4.789   5.122
 7383SOL     OW23047   0.421   6.318   2.533
 7383SOL    HW123048   0.406   6.249   2.603
 7383SOL    HW223049   0.377   6.289   2.448
 7384SOL     OW23050   5.387   0.768   2.232
 7384SOL    HW123051   5.438   0.845   2.194
 7384SOL    HW223052   5.422   0.747   2.324
 7385SOL     OW23053   4.362   5.882   2.191
 7385SOL    HW123054   4.445   5.934   2.172
 7385SOL    HW223055   4.283   5.929   2.153
 7386SOL     OW23056   0.850   2.169   5.691
 7386SOL    HW123057   0.821   2.086   5.642
 7386SOL    HW223058   0.869   2.242   5.624
 7387SOL     OW23059   4.112   5.804   4.239
 7387SOL    HW123060   4.071   5.756   4.316
 7387SOL    HW223061   4.098   5.902   4.249
 7388SOL     OW23062   6.624   5.072   3.945
 7388SOL    HW123063   6.631   5.017   3.861
 7388SOL    HW223064   6.528   5.076   3.973
 7389SOL     OW23065   1.318   4.249   6.931
 7389SOL    HW123066   1.227   4.241   6.972
 7389SOL    HW223067   1.379   4.296   6.995
 7390SOL     OW23068   0.666   1.865   6.368
 7390SOL    HW123069   0.632   1.880   6.461
 7390SOL    HW223070   0.714   1.947   6.336
 7391SOL     OW23071   5.499   4.515   6.098
 7391SOL    HW123072   5.580   4.567   6.071
 7391SOL    HW223073   5.463   4.553   6.184
 7392SOL     OW23074   1.546   5.838   5.637
 7392SOL    HW123075   1.455   5.798   5.622
 7392SOL    HW223076   1.556   5.865   5.732
 7393SOL     OW23077   6.027   5.382   1.894
 7393SOL    HW123078   6.061   5.475   1.883
 7393SOL    HW223079   5.937   5.374   1.850
 7394SOL     OW23080   3.687   3.251   6.121
 7394SOL    HW123081   3.667   3.257   6.219
 7394SOL    HW223082   3.619   3.191   6.077
 7395SOL     OW23083   0.799   0.699   6.478
 7395SOL    HW123084   0.837   0.674   6.389
 7395SOL    HW223085   0.749   0.785   6.471
 7396SOL     OW23086   1.744   0.877   6.022
 7396SOL    HW123087   1.684   0.937   6.075
 7396SOL    HW223088   1.749   0.787   6.066
 7397SOL     OW23089   6.201   4.159   4.919
 7397SOL    HW123090   6.218   4.236   4.858
 7397SOL    HW223091   6.289   4.118   4.946
 7398SOL     OW23092   3.637   5.273   3.908
 7398SOL    HW123093   3.690   5.251   3.826
 7398SOL    HW223094   3.699   5.299   3.982
 7399SOL     OW23095   0.012   4.177   5.839
 7399SOL    HW123096   0.048   4.269   5.822
 7399SOL    HW223097   6.959   4.182   5.905
 7400SOL     OW23098   3.048   4.236   6.529
 7400SOL    HW123099   3.055   4.199   6.621
 7400SOL    HW223100   3.064   4.163   6.462
 7401SOL     OW23101   0.378   1.086   3.522
 7401SOL    HW123102   0.334   1.017   3.464
 7401SOL    HW223103   0.373   1.057   3.618
 7402SOL     OW23104   2.029   6.876   3.952
 7402SOL    HW123105   2.050   6.780   3.970
 7402SOL    HW223106   1.935   6.896   3.982
 7403SOL     OW23107   1.909   3.088   4.066
 7403SOL    HW123108   1.943   2.994   4.063
 7403SOL    HW223109   1.893   3.120   3.972
 7404SOL     OW23110   2.429   0.575   1.100
 7404SOL    HW123111   2.389   0.515   1.030
 7404SOL    HW223112   2.518   0.607   1.068
 7405SOL     OW23113   1.824   5.088   4.777
 7405SOL    HW123114   1.841   5.124   4.685
 7405SOL    HW223115   1.726   5.092   4.797
 7406SOL     OW23116   1.249   3.920   2.367
 7406SOL    HW123117   1.174   3.853   2.358
 7406SOL    HW223118   1.283   3.918   2.461
 7407SOL     OW23119   0.033   6.201   4.762
 7407SOL    HW123120   6.997   6.263   4.708
 7407SOL    HW223121   0.120   6.245   4.781
 7408SOL     OW23122   1.802   4.426   6.014
 7408SOL    HW123123   1.835   4.419   6.108
 7408SOL    HW223124   1.878   4.416   5.950
 7409SOL     OW23125   0.822   1.394   4.811
 7409SOL    HW123126   0.907   1.441   4.832
 7409SOL    HW223127   0.772   1.444   4.740
 7410SOL     OW23128   0.451   4.530   1.294
 7410SOL    HW123129   0.429   4.482   1.379
 7410SOL    HW223130   0.515   4.475   1.241
 7411SOL     OW23131   2.519   6.702   4.267
 7411SOL    HW123132   2.591   6.649   4.221
 7411SOL    HW223133   2.513   6.793   4.226
 7412SOL     OW23134   2.590   0.904   1.196
 7412SOL    HW123135   2.575   0.882   1.100
 7412SOL    HW223136   2.685   0.883   1.221
 7413SOL     OW23137   0.256   3.537   3.737
 7413SOL    HW123138   0.354   3.557   3.742
 7413SOL    HW223139   0.213   3.601   3.673
 7414SOL     OW23140   6.511   6.832   2.800
 7414SOL    HW123141   6.470   6.808   2.712
 7414SOL    HW223142   6.535   6.748   2.850
 7415SOL     OW23143   1.082   3.163   2.971
 7415SOL    HW123144   1.131   3.094   3.024
 7415SOL    HW223145   1.009   3.202   3.027
 7416SOL     OW23146   3.382   1.219   4.673
 7416SOL    HW123147   3.324   1.199   4.595
 7416SOL    HW223148   3.478   1.209   4.647
 7417SOL     OW23149   1.682   6.382   5.901
 7417SOL    HW123150   1.626   6.306   5.934
 7417SOL    HW223151   1.623   6.454   5.865
 7418SOL     OW23152   3.212   4.500   1.463
 7418SOL    HW123153   3.306   4.531   1.450
 7418SOL    HW223154   3.209   4.427   1.530
 7419SOL     OW23155   5.640   1.795   4.241
 7419SOL    HW123156   5.560   1.854   4.247
 7419SOL    HW223157   5.612   1.703   4.213
 7420SOL     OW23158   6.558   0.202   2.148
 7420SOL    HW123159   6.505   0.211   2.063
 7420SOL    HW223160   6.495   0.189   2.225
 7421SOL     OW23161   3.488   3.792   1.472
 7421SOL    HW123162   3.559   3.862   1.481
 7421SOL    HW223163   3.458   3.762   1.563
 7422SOL     OW23164   6.896   3.477   1.208
 7422SOL    HW123165   6.915   3.380   1.189
 7422SOL    HW223166   6.887   3.491   1.306
 7423SOL     OW23167   1.640   4.627   6.101
 7423SOL    HW123168   1.547   4.604   6.073
 7423SOL    HW223169   1.703   4.556   6.068
 7424SOL     OW23170   5.865   1.513   4.319
 7424SOL    HW123171   5.787   1.474   4.367
 7424SOL    HW223172   5.847   1.513   4.220
 7425SOL     OW23173   4.235   4.848   6.620
 7425SOL    HW123174   4.322   4.825   6.662
 7425SOL    HW223175   4.242   4.836   6.521
 7426SOL     OW23176   0.316   2.307   6.885
 7426SOL    HW123177   0.218   2.296   6.903
 7426SOL    HW223178   0.355   2.371   6.951
 7427SOL     OW23179   2.978   5.838   4.206
 7427SOL    HW123180   2.910   5.874   4.269
 7427SOL    HW223181   2.940   5.837   4.113
 7428SOL     OW23182   3.828   2.046   5.051
 7428SOL    HW123183   3.761   2.002   5.111
 7428SOL    HW223184   3.788   2.059   4.960
 7429SOL     OW23185   6.730   0.486   2.497
 7429SOL    HW123186   6.691   0.567   2.540
 7429SOL    HW223187   6.719   0.408   2.559
 7430SOL     OW23188   6.961   4.637   5.468
 7430SOL    HW123189   6.997   4.544   5.454
 7430SOL    HW223190   0.016   4.700   5.481
 7431SOL     OW23191   0.492   3.475   1.252
 7431SOL    HW123192   0.487   3.375   1.257
 7431SOL    HW223193   0.403   3.514   1.275
 7432SOL     OW23194   1.010   6.229   3.591
 7432SOL    HW123195   1.020   6.198   3.497
 7432SOL    HW223196   0.925   6.194   3.630
 7433SOL     OW23197   6.340   5.246   1.377
 7433SOL    HW123198   6.345   5.254   1.278
 7433SOL    HW223199   6.390   5.164   1.406
 7434SOL     OW23200   2.853   1.658   6.779
 7434SOL    HW123201   2.914   1.724   6.822
 7434SOL    HW223202   2.836   1.582   6.842
 7435SOL     OW23203   3.727   6.438   5.373
 7435SOL    HW123204   3.645   6.392   5.406
 7435SOL    HW223205   3.808   6.392   5.409
 7436SOL     OW23206   6.158   3.097   6.781
 7436SOL    HW123207   6.225   3.028   6.808
 7436SOL    HW223208   6.160   3.173   6.847
 7437SOL     OW23209   6.514   5.208   6.622
 7437SOL    HW123210   6.613   5.211   6.636
 7437SOL    HW223211   6.484   5.292   6.577
 7438SOL     OW23212   0.855   4.070   1.781
 7438SOL    HW123213   0.866   3.992   1.842
 7438SOL    HW223214   0.828   4.151   1.833
 7439SOL     OW23215   2.831   0.097   3.644
 7439SOL    HW123216   2.797   0.191   3.647
 7439SOL    HW223217   2.794   0.046   3.721
 7440SOL     OW23218   0.967   3.138   4.940
 7440SOL    HW123219   1.014   3.091   5.015
 7440SOL    HW223220   1.024   3.212   4.905
 7441SOL     OW23221   5.723   6.747   4.116
 7441SOL    HW123222   5.751   6.825   4.060
 7441SOL    HW223223   5.683   6.677   4.058
 7442SOL     OW23224   1.288   0.950   6.466
 7442SOL    HW123225   1.312   0.868   6.517
 7442SOL    HW223226   1.207   0.992   6.507
 7443SOL     OW23227   6.792   1.806   0.644
 7443SOL    HW123228   6.794   1.789   0.545
 7443SOL    HW223229   6.863   1.751   0.689
 7444SOL     OW23230   6.649   3.444   6.692
 7444SOL    HW123231   6.724   3.462   6.756
 7444SOL    HW223232   6.585   3.521   6.694
 7445SOL     OW23233   4.999   1.582   1.643
 7445SOL    HW123234   4.978   1.665   1.592
 7445SOL    HW223235   5.087   1.593   1.689
 7446SOL     OW23236   6.482   4.245   6.908
 7446SOL    HW123237   6.580   4.232   6.899
 7446SOL    HW223238   6.461   4.280   6.999
 7447SOL     OW23239   2.507   4.671   6.486
 7447SOL    HW123240   2.533   4.586   6.441
 7447SOL    HW223241   2.468   4.734   6.418
 7448SOL     OW23242   5.741   6.767   5.849
 7448SOL    HW123243   5.812   6.835   5.865
 7448SOL    HW223244   5.739   6.743   5.752
 7449SOL     OW23245   4.723   2.094   2.271
 7449SOL    HW123246   4.634   2.135   2.256
 7449SOL    HW223247   4.785   2.120   2.198
 7450SOL     OW23248   4.985   2.738   3.563
 7450SOL    HW123249   4.923   2.808   3.598
 7450SOL    HW223250   5.007   2.673   3.636
 7451SOL     OW23251   1.611   0.351   3.988
 7451SOL    HW123252   1.688   0.303   4.032
 7451SOL    HW223253   1.554   0.284   3.940
 7452SOL     OW23254   1.737   0.123   4.723
 7452SOL    HW123255   1.757   0.152   4.629
 7452SOL    HW223256   1.798   0.171   4.786
 7453SOL     OW23257   5.921   5.979   5.057
 7453SOL    HW123258   5.996   6.046   5.057
 7453SOL    HW223259   5.925   5.925   5.141
 7454SOL     OW23260   1.100   3.442   1.187
 7454SOL    HW123261   1.105   3.465   1.284
 7454SOL    HW223262   1.010   3.403   1.167
 7455SOL     OW23263   5.469   1.765   1.402
 7455SOL    HW123264   5.500   1.697   1.336
 7455SOL    HW223265   5.498   1.856   1.373
 7456SOL     OW23266   1.586   2.286   4.477
 7456SOL    HW123267   1.500   2.263   4.523
 7456SOL    HW223268   1.657   2.300   4.546
 7457SOL     OW23269   5.643   0.527   5.457
 7457SOL    HW123270   5.660   0.440   5.410
 7457SOL    HW223271   5.725   0.584   5.452
 7458SOL     OW23272   2.449   6.646   6.989
 7458SOL    HW123273   2.385   6.648   6.912
 7458SOL    HW223274   2.459   6.739   0.004
 7459SOL     OW23275   4.677   0.166   6.293
 7459SOL    HW123276   4.666   0.236   6.222
 7459SOL    HW223277   4.730   0.204   6.369
 7460SOL     OW23278   2.185   5.517   0.559
 7460SOL    HW123279   2.116   5.530   0.488
 7460SOL    HW223280   2.273   5.553   0.527
 7461SOL     OW23281   5.131   1.235   5.766
 7461SOL    HW123282   5.104   1.196   5.678
 7461SOL    HW223283   5.231   1.243   5.769
 7462SOL     OW23284   2.147   2.339   1.593
 7462SOL    HW123285   2.211   2.339   1.516
 7462SOL    HW223286   2.054   2.326   1.559
 7463SOL     OW23287   3.575   2.976   1.312
 7463SOL    HW123288   3.668   2.993   1.278
 7463SOL    HW223289   3.564   3.020   1.401
 7464SOL     OW23290   4.028   5.939   6.861
 7464SOL    HW123291   4.081   5.973   6.938
 7464SOL    HW223292   4.051   5.991   6.779
 7465SOL     OW23293   1.733   0.316   0.961
 7465SOL    HW123294   1.710   0.254   0.886
 7465SOL    HW223295   1.756   0.263   1.042
 7466SOL     OW23296   0.816   0.777   6.162
 7466SOL    HW123297   0.879   0.706   6.130
 7466SOL    HW223298   0.869   0.858   6.187
 7467SOL     OW23299   6.461   1.925   1.254
 7467SOL    HW123300   6.534   1.910   1.321
 7467SOL    HW223301   6.469   2.018   1.217
 7468SOL     OW23302   4.781   2.112   2.551
 7468SOL    HW123303   4.861   2.069   2.593
 7468SOL    HW223304   4.777   2.090   2.454
 7469SOL     OW23305   1.068   0.055   6.862
 7469SOL    HW123306   1.077   6.977   6.861
 7469SOL    HW223307   1.160   0.096   6.865
 7470SOL     OW23308   0.858   3.183   2.480
 7470SOL    HW123309   0.922   3.216   2.550
 7470SOL    HW223310   0.891   3.097   2.442
 7471SOL     OW23311   6.153   6.623   4.654
 7471SOL    HW123312   6.233   6.564   4.651
 7471SOL    HW223313   6.080   6.584   4.597
 7472SOL     OW23314   4.631   6.840   4.292
 7472SOL    HW123315   4.685   6.833   4.208
 7472SOL    HW223316   4.625   6.936   4.320
 7473SOL     OW23317   0.071   4.369   3.497
 7473SOL    HW123318   0.057   4.270   3.499
 7473SOL    HW223319   7.020   4.414   3.548
 7474SOL     OW23320   3.000   0.977   4.307
 7474SOL    HW123321   3.086   0.929   4.290
 7474SOL    HW223322   2.945   0.978   4.223
 7475SOL     OW23323   4.893   0.451   2.391
 7475SOL    HW123324   4.967   0.468   2.326
 7475SOL    HW223325   4.830   0.528   2.390
 7476SOL     OW23326   4.539   6.192   4.851
 7476SOL    HW123327   4.492   6.149   4.773
 7476SOL    HW223328   4.524   6.291   4.848
 7477SOL     OW23329   4.499   0.564   3.912
 7477SOL    HW123330   4.497   0.508   3.994
 7477SOL    HW223331   4.572   0.632   3.919
 7478SOL     OW23332   3.938   4.030   6.139
 7478SOL    HW123333   3.903   4.019   6.232
 7478SOL    HW223334   3.946   4.127   6.118
 7479SOL     OW23335   3.902   2.058   0.952
 7479SOL    HW123336   3.980   2.002   0.980
 7479SOL    HW223337   3.840   2.003   0.895
 7480SOL     OW23338   6.377   5.854   1.437
 7480SOL    HW123339   6.338   5.874   1.527
 7480SOL    HW223340   6.474   5.830   1.447
 7481SOL     OW23341   5.426   5.414   1.271
 7481SOL    HW123342   5.334   5.413   1.234
 7481SOL    HW223343   5.424   5.452   1.364
 7482SOL     OW23344   4.070   1.281   1.899
 7482SOL    HW123345   4.050   1.321   1.809
 7482SOL    HW223346   4.094   1.184   1.888
 7483SOL     OW23347   4.095   1.697   4.279
 7483SOL    HW123348   4.194   1.702   4.268
 7483SOL    HW223349   4.072   1.692   4.376
 7484SOL     OW23350   0.343   0.126   1.766
 7484SOL    HW123351   0.322   0.215   1.807
 7484SOL    HW223352   0.385   0.067   1.835
 7485SOL     OW23353   3.030   6.453   5.357
 7485SOL    HW123354   2.958   6.417   5.297
 7485SOL    HW223355   3.032   6.553   5.350
 7486SOL     OW23356   2.380   6.941   5.468
 7486SOL    HW123357   2.474   6.907   5.473
 7486SOL    HW223358   2.317   6.867   5.488
 7487SOL     OW23359   1.999   6.991   2.551
 7487SOL    HW123360   1.924   0.024   2.517
 7487SOL    HW223361   2.052   0.022   2.617
 7488SOL     OW23362   2.270   0.142   5.268
 7488SOL    HW123363   2.299   0.133   5.173
 7488SOL    HW223364   2.275   0.052   5.313
 7489SOL     OW23365   4.628   2.284   5.229
 7489SOL    HW123366   4.706   2.330   5.186
 7489SOL    HW223367   4.559   2.353   5.253
 7490SOL     OW23368   0.710   0.650   0.904
 7490SOL    HW123369   0.628   0.593   0.895
 7490SOL    HW223370   0.686   0.737   0.947
 7491SOL     OW23371   0.448   4.964   6.434
 7491SOL    HW123372   0.358   4.933   6.464
 7491SOL    HW223373   0.494   5.011   6.509
 7492SOL     OW23374   2.485   2.080   5.210
 7492SOL    HW123375   2.385   2.078   5.215
 7492SOL    HW223376   2.514   2.046   5.121
 7493SOL     OW23377   6.294   4.728   5.742
 7493SOL    HW123378   6.332   4.654   5.797
 7493SOL    HW223379   6.352   4.742   5.661
 7494SOL     OW23380   5.521   1.345   2.524
 7494SOL    HW123381   5.482   1.319   2.436
 7494SOL    HW223382   5.455   1.402   2.574
 7495SOL     OW23383   2.281   1.220   0.700
 7495SOL    HW123384   2.339   1.231   0.781
 7495SOL    HW223385   2.297   1.129   0.660
 7496SOL     OW23386   1.425   4.581   5.940
 7496SOL    HW123387   1.445   4.607   5.845
 7496SOL    HW223388   1.393   4.486   5.942
 7497SOL     OW23389   2.861   5.310   1.577
 7497SOL    HW123390   2.843   5.400   1.536
 7497SOL    HW223391   2.889   5.246   1.505
 7498SOL     OW23392   2.619   1.463   4.144
 7498SOL    HW123393   2.582   1.392   4.084
 7498SOL    HW223394   2.691   1.513   4.096
 7499SOL     OW23395   6.340   6.852   3.380
 7499SOL    HW123396   6.298   6.798   3.308
 7499SOL    HW223397   6.365   6.942   3.345
 7500SOL     OW23398   3.845   6.081   2.618
 7500SOL    HW123399   3.819   5.987   2.598
 7500SOL    HW223400   3.769   6.129   2.661
 7501SOL     OW23401   6.678   4.286   4.249
 7501SOL    HW123402   6.587   4.320   4.227
 7501SOL    HW223403   6.746   4.334   4.193
 7502SOL     OW23404   1.634   1.516   5.281
 7502SOL    HW123405   1.675   1.427   5.263
 7502SOL    HW223406   1.534   1.508   5.278
 7503SOL     OW23407   2.661   0.810   6.469
 7503SOL    HW123408   2.700   0.868   6.540
 7503SOL    HW223409   2.699   0.718   6.476
 7504SOL     OW23410   4.181   6.794   3.763
 7504SOL    HW123411   4.140   6.723   3.706
 7504SOL    HW223412   4.272   6.817   3.729
 7505SOL     OW23413   3.615   0.986   5.281
 7505SOL    HW123414   3.580   0.962   5.371
 7505SOL    HW223415   3.556   0.947   5.210
 7506SOL     OW23416   3.822   0.835   2.549
 7506SOL    HW123417   3.906   0.867   2.505
 7506SOL    HW223418   3.743   0.881   2.508
 7507SOL     OW23419   0.416   6.228   0.239
 7507SOL    HW123420   0.344   6.242   0.170
 7507SOL    HW223421   0.474   6.309   0.244
 7508SOL     OW23422   5.887   6.701   2.549
 7508SOL    HW123423   5.811   6.650   2.509
 7508SOL    HW223424   5.852   6.766   2.616
 7509SOL     OW23425   4.580   5.045   0.699
 7509SOL    HW123426   4.515   5.106   0.743
 7509SOL    HW223427   4.546   4.951   0.704
 7510SOL     OW23428   3.057   4.065   4.909
 7510SOL    HW123429   3.015   3.975   4.913
 7510SOL    HW223430   2.995   4.129   4.864
 7511SOL     OW23431   1.188   0.430   2.313
 7511SOL    HW123432   1.145   0.416   2.224
 7511SOL    HW223433   1.241   0.349   2.339
 7512SOL     OW23434   3.208   4.286   1.633
 7512SOL    HW123435   3.221   4.244   1.723
 7512SOL    HW223436   3.115   4.269   1.601
 7513SOL     OW23437   1.394   3.186   0.192
 7513SOL    HW123438   1.337   3.185   0.109
 7513SOL    HW223439   1.471   3.248   0.178
 7514SOL     OW23440   2.734   6.168   2.028
 7514SOL    HW123441   2.817   6.205   1.985
 7514SOL    HW223442   2.730   6.070   2.012
 7515SOL     OW23443   0.644   0.407   2.932
 7515SOL    HW123444   0.659   0.308   2.932
 7515SOL    HW223445   0.728   0.453   2.902
 7516SOL     OW23446   6.427   6.186   4.388
 7516SOL    HW123447   6.424   6.247   4.310
 7516SOL    HW223448   6.510   6.203   4.441
 7517SOL     OW23449   6.764   3.654   1.001
 7517SOL    HW123450   6.804   3.564   1.014
 7517SOL    HW223451   6.694   3.670   1.070
 7518SOL     OW23452   3.539   5.622   3.335
 7518SOL    HW123453   3.517   5.692   3.267
 7518SOL    HW223454   3.583   5.665   3.414
 7519SOL     OW23455   0.668   5.849   3.993
 7519SOL    HW123456   0.744   5.880   4.050
 7519SOL    HW223457   0.704   5.803   3.912
 7520SOL     OW23458   2.060   0.661   2.114
 7520SOL    HW123459   1.961   0.652   2.123
 7520SOL    HW223460   2.105   0.578   2.148
 7521SOL     OW23461   4.290   4.515   5.472
 7521SOL    HW123462   4.197   4.506   5.508
 7521SOL    HW223463   4.320   4.610   5.482
 7522SOL     OW23464   2.651   1.037   6.178
 7522SOL    HW123465   2.743   1.003   6.198
 7522SOL    HW223466   2.655   1.136   6.164
 7523SOL     OW23467   6.330   0.908   5.483
 7523SOL    HW123468   6.234   0.882   5.496
 7523SOL    HW223469   6.366   0.945   5.568
 7524SOL     OW23470   0.558   2.609   6.177
 7524SOL    HW123471   0.546   2.525   6.230
 7524SOL    HW223472   0.481   2.620   6.114
 7525SOL     OW23473   2.307   0.139   6.355
 7525SOL    HW123474   2.208   0.133   6.342
 7525SOL    HW223475   2.335   0.235   6.356
 7526SOL     OW23476   3.854   3.022   3.464
 7526SOL    HW123477   3.889   3.078   3.539
 7526SOL    HW223478   3.766   2.983   3.490
 7527SOL     OW23479   4.485   4.837   2.535
 7527SOL    HW123480   4.534   4.860   2.619
 7527SOL    HW223481   4.550   4.829   2.460
 7528SOL     OW23482   4.386   2.149   0.395
 7528SOL    HW123483   4.306   2.105   0.354
 7528SOL    HW223484   4.414   2.098   0.477
 7529SOL     OW23485   5.549   1.298   3.995
 7529SOL    HW123486   5.504   1.333   3.913
 7529SOL    HW223487   5.649   1.299   3.982
 7530SOL     OW23488   6.967   3.118   2.228
 7530SOL    HW123489   6.917   3.202   2.248
 7530SOL    HW223490   6.955   3.094   2.132
 7531SOL     OW23491   4.678   2.160   4.664
 7531SOL    HW123492   4.623   2.177   4.582
 7531SOL    HW223493   4.754   2.099   4.642
 7532SOL     OW23494   5.373   5.411   1.820
 7532SOL    HW123495   5.359   5.335   1.757
 7532SOL    HW223496   5.290   5.467   1.825
 7533SOL     OW23497   1.900   0.830   2.943
 7533SOL    HW123498   1.936   0.846   2.851
 7533SOL    HW223499   1.926   0.738   2.973
 7534SOL     OW23500   3.736   6.132   4.922
 7534SOL    HW123501   3.700   6.202   4.861
 7534SOL    HW223502   3.820   6.093   4.883
 7535SOL     OW23503   2.783   1.100   5.662
 7535SOL    HW123504   2.778   1.199   5.652
 7535SOL    HW223505   2.856   1.064   5.604
 7536SOL     OW23506   5.190   4.836   5.322
 7536SOL    HW123507   5.200   4.896   5.402
 7536SOL    HW223508   5.094   4.821   5.303
 7537SOL     OW23509   1.926   4.332   5.226
 7537SOL    HW123510   1.983   4.414   5.225
 7537SOL    HW223511   1.981   4.253   5.253
 7538SOL     OW23512   3.498   3.645   2.595
 7538SOL    HW123513   3.482   3.724   2.654
 7538SOL    HW223514   3.591   3.611   2.610
 7539SOL     OW23515   2.403   2.337   5.108
 7539SOL    HW123516   2.495   2.360   5.141
 7539SOL    HW223517   2.375   2.249   5.148
 7540SOL     OW23518   3.324   0.709   6.127
 7540SOL    HW123519   3.317   0.809   6.130
 7540SOL    HW223520   3.330   0.679   6.032
 7541SOL     OW23521   6.979   3.922   5.324
 7541SOL    HW123522   6.924   3.943   5.404
 7541SOL    HW223523   6.926   3.942   5.241
 7542SOL     OW23524   0.974   6.606   6.027
 7542SOL    HW123525   1.030   6.595   6.109
 7542SOL    HW223526   1.014   6.677   5.969
 7543SOL     OW23527   3.993   1.653   0.370
 7543SOL    HW123528   3.974   1.733   0.426
 7543SOL    HW223529   4.078   1.610   0.400
 7544SOL     OW23530   6.853   1.885   3.278
 7544SOL    HW123531   6.923   1.854   3.343
 7544SOL    HW223532   6.820   1.807   3.225
 7545SOL     OW23533   4.722   6.593   2.851
 7545SOL    HW123534   4.748   6.621   2.944
 7545SOL    HW223535   4.804   6.569   2.799
 7546SOL     OW23536   4.370   0.661   0.489
 7546SOL    HW123537   4.466   0.653   0.465
 7546SOL    HW223538   4.316   0.676   0.406
 7547SOL     OW23539   3.922   6.591   0.138
 7547SOL    HW123540   3.939   6.499   0.102
 7547SOL    HW223541   3.875   6.645   0.068
 7548SOL     OW23542   2.163   1.770   6.876
 7548SOL    HW123543   2.234   1.700   6.883
 7548SOL    HW223544   2.113   1.775   6.962
 7549SOL     OW23545   5.549   2.090   2.279
 7549SOL    HW123546   5.586   1.997   2.274
 7549SOL    HW223547   5.603   2.150   2.220
 7550SOL     OW23548   2.260   5.527   2.638
 7550SOL    HW123549   2.250   5.494   2.545
 7550SOL    HW223550   2.354   5.510   2.670
 7551SOL     OW23551   4.565   3.878   6.817
 7551SOL    HW123552   4.591   3.962   6.769
 7551SOL    HW223553   4.596   3.799   6.765
 7552SOL     OW23554   2.472   5.465   3.510
 7552SOL    HW123555   2.431   5.497   3.596
 7552SOL    HW223556   2.496   5.368   3.520
 7553SOL     OW23557   3.696   4.863   6.107
 7553SOL    HW123558   3.632   4.796   6.071
 7553SOL    HW223559   3.723   4.926   6.034
 7554SOL     OW23560   5.230   1.252   0.792
 7554SOL    HW123561   5.209   1.341   0.750
 7554SOL    HW223562   5.192   1.250   0.885
 7555SOL     OW23563   1.210   5.327   4.938
 7555SOL    HW123564   1.271   5.361   5.009
 7555SOL    HW223565   1.127   5.290   4.980
 7556SOL     OW23566   0.301   2.429   5.289
 7556SOL    HW123567   0.354   2.363   5.236
 7556SOL    HW223568   0.335   2.431   5.383
 7557SOL     OW23569   5.256   4.123   6.110
 7557SOL    HW123570   5.328   4.059   6.137
 7557SOL    HW223571   5.189   4.076   6.052
 7558SOL     OW23572   2.394   2.688   4.097
 7558SOL    HW123573   2.465   2.641   4.148
 7558SOL    HW223574   2.340   2.745   4.160
 7559SOL     OW23575   6.420   5.549   1.213
 7559SOL    HW123576   6.518   5.563   1.226
 7559SOL    HW223577   6.374   5.554   1.302
 7560SOL     OW23578   5.413   6.947   6.712
 7560SOL    HW123579   5.316   6.925   6.722
 7560SOL    HW223580   5.466   6.863   6.709
 7561SOL     OW23581   0.878   3.480   0.136
 7561SOL    HW123582   0.936   3.457   0.215
 7561SOL    HW223583   0.849   3.396   0.091
 7562SOL     OW23584   5.068   6.088   4.441
 7562SOL    HW123585   5.089   6.008   4.385
 7562SOL    HW223586   4.977   6.122   4.418
 7563SOL     OW23587   2.677   0.247   0.991
 7563SOL    HW123588   2.673   0.147   0.984
 7563SOL    HW223589   2.591   0.281   1.027
 7564SOL     OW23590   4.798   0.872   3.361
 7564SOL    HW123591   4.724   0.937   3.347
 7564SOL    HW223592   4.782   0.820   3.445
 7565SOL     OW23593   4.818   4.487   6.870
 7565SOL    HW123594   4.841   4.394   6.841
 7565SOL    HW223595   4.838   4.551   6.796
 7566SOL     OW23596   1.008   4.754   3.586
 7566SOL    HW123597   0.924   4.706   3.611
 7566SOL    HW223598   0.985   4.832   3.529
 7567SOL     OW23599   1.119   3.364   5.660
 7567SOL    HW123600   1.207   3.317   5.652
 7567SOL    HW223601   1.069   3.330   5.739
 7568SOL     OW23602   5.721   5.338   4.254
 7568SOL    HW123603   5.763   5.421   4.216
 7568SOL    HW223604   5.784   5.296   4.319
 7569SOL     OW23605   4.702   6.175   6.294
 7569SOL    HW123606   4.678   6.138   6.204
 7569SOL    HW223607   4.701   6.101   6.361
 7570SOL     OW23608   5.554   4.664   5.358
 7570SOL    HW123609   5.507   4.724   5.294
 7570SOL    HW223610   5.488   4.603   5.402
 7571SOL     OW23611   5.166   4.680   1.672
 7571SOL    HW123612   5.101   4.755   1.665
 7571SOL    HW223613   5.211   4.666   1.584
 7572SOL     OW23614   4.949   0.270   3.781
 7572SOL    HW123615   4.856   0.287   3.811
 7572SOL    HW223616   5.001   0.355   3.781
 7573SOL     OW23617   5.545   5.562   4.089
 7573SOL    HW123618   5.536   5.643   4.145
 7573SOL    HW223619   5.557   5.481   4.147
 7574SOL     OW23620   5.630   1.409   4.456
 7574SOL    HW123621   5.624   1.315   4.420
 7574SOL    HW223622   5.582   1.414   4.543
 7575SOL     OW23623   4.196   0.711   6.052
 7575SOL    HW123624   4.185   0.691   5.954
 7575SOL    HW223625   4.233   0.803   6.062
 7576SOL     OW23626   6.079   5.657   0.068
 7576SOL    HW123627   6.050   5.737   0.015
 7576SOL    HW223628   6.091   5.579   0.007
 7577SOL     OW23629   6.729   0.186   4.983
 7577SOL    HW123630   6.792   0.166   4.907
 7577SOL    HW223631   6.780   0.190   5.068
 7578SOL     OW23632   1.801   6.363   3.826
 7578SOL    HW123633   1.836   6.353   3.920
 7578SOL    HW223634   1.775   6.457   3.810
 7579SOL     OW23635   4.266   2.305   2.052
 7579SOL    HW123636   4.313   2.394   2.052
 7579SOL    HW223637   4.236   2.283   1.959
 7580SOL     OW23638   1.451   3.549   4.179
 7580SOL    HW123639   1.490   3.641   4.176
 7580SOL    HW223640   1.523   3.482   4.161
 7581SOL     OW23641   4.407   1.381   0.481
 7581SOL    HW123642   4.403   1.328   0.565
 7581SOL    HW223643   4.488   1.440   0.482
 7582SOL     OW23644   3.771   1.503   0.296
 7582SOL    HW123645   3.844   1.566   0.325
 7582SOL    HW223646   3.765   1.503   0.196
 7583SOL     OW23647   6.059   3.484   1.922
 7583SOL    HW123648   6.077   3.580   1.940
 7583SOL    HW223649   6.145   3.435   1.911
 7584SOL     OW23650   2.490   6.843   1.497
 7584SOL    HW123651   2.559   6.880   1.559
 7584SOL    HW223652   2.415   6.909   1.488
 7585SOL     OW23653   1.725   3.420   5.775
 7585SOL    HW123654   1.675   3.483   5.716
 7585SOL    HW223655   1.704   3.326   5.748
 7586SOL     OW23656   2.852   0.806   2.783
 7586SOL    HW123657   2.875   0.709   2.776
 7586SOL    HW223658   2.902   0.847   2.859
 7587SOL     OW23659   2.579   1.350   6.505
 7587SOL    HW123660   2.639   1.334   6.427
 7587SOL    HW223661   2.592   1.444   6.538
 7588SOL     OW23662   0.563   3.964   1.735
 7588SOL    HW123663   0.637   3.954   1.668
 7588SOL    HW223664   0.490   4.020   1.697
 7589SOL     OW23665   5.977   5.983   0.816
 7589SOL    HW123666   5.927   6.015   0.896
 7589SOL    HW223667   5.962   5.885   0.805
 7590SOL     OW23668   3.308   1.726   6.354
 7590SOL    HW123669   3.300   1.796   6.425
 7590SOL    HW223670   3.304   1.769   6.264
 7591SOL     OW23671   0.381   5.460   0.537
 7591SOL    HW123672   0.459   5.440   0.596
 7591SOL    HW223673   0.412   5.467   0.442
 7592SOL     OW23674   6.943   4.375   6.653
 7592SOL    HW123675   6.935   4.411   6.561
 7592SOL    HW223676   0.009   4.329   6.664
 7593SOL     OW23677   5.857   2.706   6.793
 7593SOL    HW123678   5.902   2.647   6.726
 7593SOL    HW223679   5.926   2.744   6.855
 7594SOL     OW23680   0.504   4.820   1.791
 7594SOL    HW123681   0.603   4.832   1.800
 7594SOL    HW223682   0.482   4.795   1.697
 7595SOL     OW23683   0.579   2.952   6.368
 7595SOL    HW123684   0.515   2.916   6.300
 7595SOL    HW223685   0.669   2.964   6.326
 7596SOL     OW23686   4.865   5.582   2.301
 7596SOL    HW123687   4.960   5.587   2.333
 7596SOL    HW223688   4.805   5.622   2.370
 7597SOL     OW23689   2.732   6.013   1.575
 7597SOL    HW123690   2.737   6.112   1.588
 7597SOL    HW223691   2.821   5.973   1.598
 7598SOL     OW23692   6.019   0.993   2.888
 7598SOL    HW123693   5.982   1.050   2.814
 7598SOL    HW223694   5.945   0.940   2.929
 7599SOL     OW23695   5.240   1.108   3.515
 7599SOL    HW123696   5.202   1.098   3.607
 7599SOL    HW223697   5.191   1.048   3.452
 7600SOL     OW23698   1.978   0.797   2.359
 7600SOL    HW123699   1.999   0.770   2.265
 7600SOL    HW223700   1.879   0.802   2.371
 7601SOL     OW23701   2.098   5.407   3.383
 7601SOL    HW123702   2.022   5.430   3.443
 7601SOL    HW223703   2.105   5.475   3.309
 7602SOL     OW23704   1.587   3.954   5.264
 7602SOL    HW123705   1.555   3.960   5.170
 7602SOL    HW223706   1.597   4.047   5.301
 7603SOL     OW23707   1.340   6.055   6.534
 7603SOL    HW123708   1.360   6.107   6.616
 7603SOL    HW223709   1.273   6.105   6.478
 7604SOL     OW23710   2.685   5.582   3.932
 7604SOL    HW123711   2.687   5.490   3.893
 7604SOL    HW223712   2.641   5.645   3.868
 7605SOL     OW23713   1.958   6.149   0.233
 7605SOL    HW123714   1.907   6.234   0.225
 7605SOL    HW223715   2.029   6.159   0.303
 7606SOL     OW23716   0.194   2.155   2.408
 7606SOL    HW123717   0.254   2.228   2.443
 7606SOL    HW223718   0.145   2.188   2.328
 7607SOL     OW23719   4.249   6.583   6.985
 7607SOL    HW123720   4.210   6.634   0.040
 7607SOL    HW223721   4.317   6.640   6.938
 7608SOL     OW23722   3.325   4.018   3.294
 7608SOL    HW123723   3.380   3.935   3.294
 7608SOL    HW223724   3.231   3.997   3.319
 7609SOL     OW23725   6.519   3.608   2.993
 7609SOL    HW123726   6.517   3.692   2.939
 7609SOL    HW223727   6.551   3.532   2.935
 7610SOL     OW23728   6.081   0.937   0.335
 7610SOL    HW123729   6.001   0.976   0.288
 7610SOL    HW223730   6.135   1.011   0.375
 7611SOL     OW23731   0.575   1.811   0.135
 7611SOL    HW123732   0.552   1.869   0.057
 7611SOL    HW223733   0.550   1.716   0.114
 7612SOL     OW23734   3.980   2.131   4.186
 7612SOL    HW123735   3.995   2.191   4.265
 7612SOL    HW223736   4.019   2.041   4.206
 7613SOL     OW23737   4.662   2.095   1.829
 7613SOL    HW123738   4.605   2.077   1.909
 7613SOL    HW223739   4.705   2.185   1.838
 7614SOL     OW23740   4.214   2.915   1.566
 7614SOL    HW123741   4.233   2.888   1.472
 7614SOL    HW223742   4.267   2.859   1.629
 7615SOL     OW23743   5.393   4.807   6.236
 7615SOL    HW123744   5.303   4.845   6.212
 7615SOL    HW223745   5.463   4.845   6.176
 7616SOL     OW23746   0.567   4.424   4.289
 7616SOL    HW123747   0.655   4.399   4.250
 7616SOL    HW223748   0.507   4.344   4.291
 7617SOL     OW23749   2.567   5.762   2.807
 7617SOL    HW123750   2.606   5.697   2.872
 7617SOL    HW223751   2.541   5.714   2.723
 7618SOL     OW23752   1.198   1.721   6.807
 7618SOL    HW123753   1.209   1.756   6.900
 7618SOL    HW223754   1.112   1.753   6.768
 7619SOL     OW23755   5.852   3.172   5.232
 7619SOL    HW123756   5.813   3.245   5.176
 7619SOL    HW223757   5.896   3.104   5.172
 7620SOL     OW23758   3.401   5.987   0.307
 7620SOL    HW123759   3.491   5.990   0.349
 7620SOL    HW223760   3.331   5.986   0.378
 7621SOL     OW23761   0.758   1.201   0.313
 7621SOL    HW123762   0.706   1.218   0.229
 7621SOL    HW223763   0.819   1.278   0.331
 7622SOL     OW23764   5.582   3.704   1.879
 7622SOL    HW123765   5.651   3.752   1.932
 7622SOL    HW223766   5.616   3.688   1.786
 7623SOL     OW23767   4.305   4.808   6.336
 7623SOL    HW123768   4.288   4.838   6.242
 7623SOL    HW223769   4.384   4.857   6.372
 7624SOL     OW23770   0.497   2.720   4.413
 7624SOL    HW123771   0.527   2.675   4.497
 7624SOL    HW223772   0.419   2.671   4.374
 7625SOL     OW23773   4.591   0.379   0.794
 7625SOL    HW123774   4.530   0.457   0.788
 7625SOL    HW223775   4.565   0.321   0.871
 7626SOL     OW23776   6.907   6.601   5.461
 7626SOL    HW123777   6.991   6.612   5.514
 7626SOL    HW223778   6.930   6.574   5.368
 7627SOL     OW23779   6.236   3.162   0.113
 7627SOL    HW123780   6.214   3.224   0.038
 7627SOL    HW223781   6.331   3.133   0.106
 7628SOL     OW23782   3.409   0.532   1.100
 7628SOL    HW123783   3.383   0.611   1.045
 7628SOL    HW223784   3.499   0.548   1.142
 7629SOL     OW23785   6.520   6.466   2.859
 7629SOL    HW123786   6.432   6.427   2.888
 7629SOL    HW223787   6.533   6.451   2.761
 7630SOL     OW23788   6.406   6.130   2.134
 7630SOL    HW123789   6.500   6.163   2.142
 7630SOL    HW223790   6.358   6.145   2.220
 7631SOL     OW23791   1.042   1.604   5.588
 7631SOL    HW123792   1.036   1.597   5.488
 7631SOL    HW223793   0.984   1.534   5.630
 7632SOL     OW23794   3.744   2.200   1.484
 7632SOL    HW123795   3.738   2.178   1.581
 7632SOL    HW223796   3.652   2.195   1.443
 7633SOL     OW23797   4.887   2.357   0.325
 7633SOL    HW123798   4.977   2.316   0.336
 7633SOL    HW223799   4.827   2.295   0.274
 7634SOL     OW23800   1.158   1.357   2.422
 7634SOL    HW123801   1.080   1.328   2.367
 7634SOL    HW223802   1.235   1.296   2.405
 7635SOL     OW23803   2.481   4.729   5.536
 7635SOL    HW123804   2.576   4.710   5.562
 7635SOL    HW223805   2.430   4.758   5.617
 7636SOL     OW23806   1.035   1.741   3.263
 7636SOL    HW123807   1.027   1.762   3.165
 7636SOL    HW223808   1.131   1.744   3.290
 7637SOL     OW23809   1.534   6.784   2.379
 7637SOL    HW123810   1.526   6.718   2.454
 7637SOL    HW223811   1.486   6.749   2.299
 7638SOL     OW23812   5.147   5.899   2.292
 7638SOL    HW123813   5.246   5.888   2.280
 7638SOL    HW223814   5.128   5.924   2.387
 7639SOL     OW23815   1.041   2.078   0.410
 7639SOL    HW123816   1.052   2.177   0.401
 7639SOL    HW223817   1.125   2.032   0.381
 7640SOL     OW23818   2.718   2.274   6.736
 7640SOL    HW123819   2.735   2.337   6.812
 7640SOL    HW223820   2.673   2.192   6.771
 7641SOL     OW23821   0.887   4.170   1.526
 7641SOL    HW123822   0.881   4.140   1.621
 7641SOL    HW223823   0.850   4.263   1.518
 7642SOL     OW23824   2.747   1.625   2.927
 7642SOL    HW123825   2.745   1.534   2.969
 7642SOL    HW223826   2.675   1.682   2.966
 7643SOL     OW23827   4.499   2.042   4.042
 7643SOL    HW123828   4.553   2.075   4.119
 7643SOL    HW223829   4.402   2.059   4.061
 7644SOL     OW23830   6.216   1.856   2.683
 7644SOL    HW123831   6.303   1.900   2.659
 7644SOL    HW223832   6.155   1.924   2.725
 7645SOL     OW23833   4.558   4.655   6.098
 7645SOL    HW123834   4.536   4.614   6.009
 7645SOL    HW223835   4.508   4.609   6.170
 7646SOL     OW23836   1.695   2.857   2.577
 7646SOL    HW123837   1.638   2.933   2.544
 7646SOL    HW223838   1.762   2.833   2.506
 7647SOL     OW23839   1.416   3.036   1.164
 7647SOL    HW123840   1.405   2.965   1.095
 7647SOL    HW223841   1.508   3.030   1.204
 7648SOL     OW23842   4.016   2.232   3.680
 7648SOL    HW123843   4.000   2.224   3.779
 7648SOL    HW223844   3.938   2.195   3.631
 7649SOL     OW23845   1.669   0.951   2.916
 7649SOL    HW123846   1.599   0.894   2.959
 7649SOL    HW223847   1.760   0.915   2.940
 7650SOL     OW23848   6.239   3.226   1.388
 7650SOL    HW123849   6.203   3.300   1.444
 7650SOL    HW223850   6.178   3.210   1.310
 7651SOL     OW23851   2.675   0.097   5.558
 7651SOL    HW123852   2.641   0.190   5.569
 7651SOL    HW223853   2.653   0.043   5.639
 7652SOL     OW23854   6.881   3.645   4.322
 7652SOL    HW123855   6.898   3.548   4.340
 7652SOL    HW223856   6.836   3.655   4.233
 7653SOL     OW23857   2.250   1.872   0.185
 7653SOL    HW123858   2.252   1.778   0.151
 7653SOL    HW223859   2.155   1.902   0.194
 7654SOL     OW23860   5.055   2.878   3.119
 7654SOL    HW123861   5.031   2.806   3.183
 7654SOL    HW223862   4.973   2.924   3.087
 7655SOL     OW23863   3.507   0.631   3.710
 7655SOL    HW123864   3.594   0.661   3.751
 7655SOL    HW223865   3.474   0.702   3.647
 7656SOL     OW23866   1.133   5.891   5.721
 7656SOL    HW123867   1.063   5.948   5.677
 7656SOL    HW223868   1.100   5.859   5.809
 7657SOL     OW23869   2.566   2.423   2.716
 7657SOL    HW123870   2.586   2.440   2.812
 7657SOL    HW223871   2.644   2.379   2.672
 7658SOL     OW23872   4.736   6.734   5.862
 7658SOL    HW123873   4.645   6.745   5.904
 7658SOL    HW223874   4.806   6.740   5.933
 7659SOL     OW23875   5.574   6.271   6.491
 7659SOL    HW123876   5.507   6.210   6.534
 7659SOL    HW223877   5.637   6.306   6.561
 7660SOL     OW23878   6.526   5.506   4.456
 7660SOL    HW123879   6.575   5.438   4.400
 7660SOL    HW223880   6.534   5.596   4.412
 7661SOL     OW23881   6.258   1.771   4.577
 7661SOL    HW123882   6.177   1.738   4.528
 7661SOL    HW223883   6.340   1.727   4.539
 7662SOL     OW23884   0.870   2.099   2.017
 7662SOL    HW123885   0.827   2.123   1.931
 7662SOL    HW223886   0.873   2.179   2.077
 7663SOL     OW23887   6.256   6.724   6.137
 7663SOL    HW123888   6.329   6.732   6.205
 7663SOL    HW223889   6.267   6.796   6.068
 7664SOL     OW23890   3.565   0.135   2.511
 7664SOL    HW123891   3.553   0.177   2.421
 7664SOL    HW223892   3.555   0.205   2.582
 7665SOL     OW23893   3.886   0.474   3.863
 7665SOL    HW123894   3.979   0.459   3.897
 7665SOL    HW223895   3.834   0.526   3.930
 7666SOL     OW23896   6.693   0.092   1.137
 7666SOL    HW123897   6.679   0.063   1.231
 7666SOL    HW223898   6.765   0.161   1.134
 7667SOL     OW23899   4.936   5.779   1.331
 7667SOL    HW123900   4.928   5.858   1.392
 7667SOL    HW223901   4.846   5.757   1.293
 7668SOL     OW23902   2.982   4.324   1.073
 7668SOL    HW123903   3.027   4.264   1.138
 7668SOL    HW223904   3.003   4.419   1.095
 7669SOL     OW23905   5.457   1.663   5.067
 7669SOL    HW123906   5.360   1.643   5.054
 7669SOL    HW223907   5.507   1.578   5.081
 7670SOL     OW23908   1.529   5.756   6.210
 7670SOL    HW123909   1.436   5.793   6.205
 7670SOL    HW223910   1.530   5.662   6.176
 7671SOL     OW23911   4.398   1.384   5.164
 7671SOL    HW123912   4.344   1.326   5.103
 7671SOL    HW223913   4.443   1.456   5.112
 7672SOL     OW23914   5.451   6.181   3.996
 7672SOL    HW123915   5.504   6.226   4.068
 7672SOL    HW223916   5.430   6.087   4.025
 7673SOL     OW23917   2.408   5.058   0.237
 7673SOL    HW123918   2.475   5.030   0.169
 7673SOL    HW223919   2.342   5.121   0.196
 7674SOL     OW23920   6.458   2.184   4.373
 7674SOL    HW123921   6.492   2.277   4.388
 7674SOL    HW223922   6.360   2.188   4.352
 7675SOL     OW23923   5.093   0.585   2.829
 7675SOL    HW123924   5.172   0.524   2.832
 7675SOL    HW223925   5.082   0.630   2.918
 7676SOL     OW23926   1.098   1.735   0.402
 7676SOL    HW123927   1.094   1.696   0.494
 7676SOL    HW223928   1.006   1.740   0.364
 7677SOL     OW23929   1.305   3.878   1.458
 7677SOL    HW123930   1.286   3.904   1.552
 7677SOL    HW223931   1.305   3.778   1.451
 7678SOL     OW23932   1.688   1.145   5.808
 7678SOL    HW123933   1.676   1.238   5.772
 7678SOL    HW223934   1.785   1.128   5.823
 7679SOL     OW23935   0.989   6.620   5.246
 7679SOL    HW123936   0.947   6.548   5.301
 7679SOL    HW223937   1.086   6.600   5.233
 7680SOL     OW23938   1.980   2.719   0.249
 7680SOL    HW123939   2.074   2.684   0.243
 7680SOL    HW223940   1.918   2.657   0.201
 7681SOL     OW23941   2.975   0.107   0.459
 7681SOL    HW123942   2.940   0.016   0.439
 7681SOL    HW223943   2.912   0.154   0.522
 7682SOL     OW23944   2.450   0.362   1.973
 7682SOL    HW123945   2.524   0.362   1.905
 7682SOL    HW223946   2.389   0.285   1.956
 7683SOL     OW23947   6.691   2.068   4.294
 7683SOL    HW123948   6.716   1.995   4.231
 7683SOL    HW223949   6.594   2.089   4.285
 7684SOL     OW23950   5.530   2.088   0.299
 7684SOL    HW123951   5.536   2.188   0.307
 7684SOL    HW223952   5.474   2.052   0.373
 7685SOL     OW23953   3.548   3.287   0.103
 7685SOL    HW123954   3.561   3.212   0.168
 7685SOL    HW223955   3.472   3.264   0.042
 7686SOL     OW23956   4.584   0.490   3.660
 7686SOL    HW123957   4.607   0.559   3.728
 7686SOL    HW223958   4.510   0.524   3.602
 7687SOL     OW23959   6.232   5.735   5.083
 7687SOL    HW123960   6.136   5.720   5.058
 7687SOL    HW223961   6.258   5.829   5.060
 7688SOL     OW23962   0.587   0.709   6.737
 7688SOL    HW123963   0.637   0.771   6.676
 7688SOL    HW223964   0.635   0.702   6.824
 7689SOL     OW23965   5.257   5.996   3.624
 7689SOL    HW123966   5.273   6.089   3.656
 7689SOL    HW223967   5.342   5.944   3.627
 7690SOL     OW23968   6.134   5.216   1.564
 7690SOL    HW123969   6.205   5.226   1.495
 7690SOL    HW223970   6.163   5.260   1.649
 7691SOL     OW23971   4.672   2.735   4.302
 7691SOL    HW123972   4.586   2.689   4.324
 7691SOL    HW223973   4.742   2.667   4.280
 7692SOL     OW23974   0.636   7.022   1.110
 7692SOL    HW123975   0.583   6.938   1.092
 7692SOL    HW223976   0.693   0.020   1.031
 7693SOL     OW23977   4.430   6.893   0.668
 7693SOL    HW123978   4.375   6.884   0.751
 7693SOL    HW223979   4.433   6.805   0.621
 7694SOL     OW23980   0.409   4.181   4.288
 7694SOL    HW123981   0.489   4.127   4.260
 7694SOL    HW223982   0.417   4.205   4.385
 7695SOL     OW23983   4.088   6.837   0.817
 7695SOL    HW123984   4.038   6.809   0.900
 7695SOL    HW223985   4.105   6.935   0.820
 7696SOL     OW23986   6.782   1.957   4.527
 7696SOL    HW123987   6.729   1.998   4.453
 7696SOL    HW223988   6.871   1.929   4.493
 7697SOL     OW23989   2.618   0.937   2.721
 7697SOL    HW123990   2.549   0.868   2.699
 7697SOL    HW223991   2.707   0.892   2.735
 7698SOL     OW23992   0.292   2.848   4.726
 7698SOL    HW123993   0.227   2.914   4.689
 7698SOL    HW223994   0.250   2.757   4.728
 7699SOL     OW23995   3.346   5.567   6.510
 7699SOL    HW123996   3.250   5.562   6.539
 7699SOL    HW223997   3.390   5.478   6.526
 7700SOL     OW23998   5.428   6.840   5.186
 7700SOL    HW123999   5.344   6.859   5.135
 7700SOL    HW224000   5.458   6.924   5.232
 7701SOL     OW24001   6.014   1.731   6.707
 7701SOL    HW124002   5.970   1.738   6.796
 7701SOL    HW224003   6.104   1.776   6.711
 7702SOL     OW24004   3.241   6.246   5.321
 7702SOL    HW124005   3.187   6.327   5.346
 7702SOL    HW224006   3.271   6.254   5.226
 7703SOL     OW24007   6.757   1.366   4.813
 7703SOL    HW124008   6.720   1.370   4.906
 7703SOL    HW224009   6.724   1.444   4.760
 7704SOL     OW24010   4.621   4.663   5.551
 7704SOL    HW124011   4.621   4.745   5.493
 7704SOL    HW224012   4.577   4.684   5.639
 7705SOL     OW24013   3.520   4.648   6.046
 7705SOL    HW124014   3.461   4.594   5.986
 7705SOL    HW224015   3.527   4.603   6.136
 7706SOL     OW24016   4.998   1.623   6.000
 7706SOL    HW124017   5.014   1.644   5.903
 7706SOL    HW224018   4.985   1.524   6.010
 7707SOL     OW24019   0.907   5.790   6.604
 7707SOL    HW124020   0.841   5.857   6.637
 7707SOL    HW224021   0.893   5.777   6.505
 7708SOL     OW24022   4.971   6.123   5.435
 7708SOL    HW124023   4.977   6.065   5.354
 7708SOL    HW224024   4.886   6.176   5.432
 7709SOL     OW24025   5.212   3.528   1.921
 7709SOL    HW124026   5.139   3.509   1.856
 7709SOL    HW224027   5.245   3.621   1.908
 7710SOL     OW24028   2.259   0.787   1.030
 7710SOL    HW124029   2.320   0.721   1.075
 7710SOL    HW224030   2.299   0.878   1.036
 7711SOL     OW24031   6.483   6.165   4.713
 7711SOL    HW124032   6.454   6.078   4.752
 7711SOL    HW224033   6.571   6.152   4.667
 7712SOL     OW24034   6.861   4.686   1.126
 7712SOL    HW124035   6.934   4.702   1.192
 7712SOL    HW224036   6.898   4.635   1.048
 7713SOL     OW24037   1.867   4.664   0.514
 7713SOL    HW124038   1.769   4.681   0.499
 7713SOL    HW224039   1.920   4.708   0.442
 7714SOL     OW24040   6.621   5.618   5.316
 7714SOL    HW124041   6.539   5.631   5.372
 7714SOL    HW224042   6.697   5.587   5.375
 7715SOL     OW24043   4.928   1.271   1.331
 7715SOL    HW124044   4.959   1.272   1.426
 7715SOL    HW224045   4.836   1.312   1.326
 7716SOL     OW24046   5.620   3.261   3.844
 7716SOL    HW124047   5.555   3.318   3.794
 7716SOL    HW224048   5.701   3.316   3.868
 7717SOL     OW24049   2.768   1.189   4.804
 7717SOL    HW124050   2.810   1.246   4.733
 7717SOL    HW224051   2.814   1.206   4.891
 7718SOL     OW24052   1.614   2.669   2.730
 7718SOL    HW124053   1.612   2.709   2.822
 7718SOL    HW224054   1.651   2.736   2.666
 7719SOL     OW24055   6.987   3.263   3.677
 7719SOL    HW124056   6.979   3.362   3.667
 7719SOL    HW224057   0.047   3.242   3.731
 7720SOL     OW24058   0.164   6.766   0.536
 7720SOL    HW124059   0.108   6.754   0.618
 7720SOL    HW224060   0.215   6.852   0.543
 7721SOL     OW24061   1.767   4.166   3.526
 7721SOL    HW124062   1.848   4.224   3.514
 7721SOL    HW224063   1.685   4.224   3.534
 7722SOL     OW24064   0.269   5.211   2.855
 7722SOL    HW124065   0.223   5.171   2.934
 7722SOL    HW224066   0.228   5.178   2.771
 7723SOL     OW24067   6.432   4.022   0.698
 7723SOL    HW124068   6.375   4.104   0.696
 7723SOL    HW224069   6.494   4.026   0.777
 7724SOL     OW24070   2.393   4.472   2.244
 7724SOL    HW124071   2.473   4.517   2.204
 7724SOL    HW224072   2.368   4.393   2.188
 7725SOL     OW24073   5.203   2.544   3.065
 7725SOL    HW124074   5.187   2.566   3.161
 7725SOL    HW224075   5.238   2.450   3.058
 7726SOL     OW24076   0.089   5.091   3.946
 7726SOL    HW124077   0.051   5.076   4.037
 7726SOL    HW224078   0.023   5.139   3.889
 7727SOL     OW24079   5.983   1.936   3.401
 7727SOL    HW124080   5.936   2.023   3.410
 7727SOL    HW224081   5.998   1.896   3.491
 7728SOL     OW24082   0.859   3.793   3.808
 7728SOL    HW124083   0.918   3.844   3.871
 7728SOL    HW224084   0.797   3.856   3.763
 7729SOL     OW24085   5.797   2.497   1.966
 7729SOL    HW124086   5.802   2.415   1.910
 7729SOL    HW224087   5.709   2.542   1.951
 7730SOL     OW24088   5.685   5.465   2.188
 7730SOL    HW124089   5.779   5.483   2.217
 7730SOL    HW224090   5.677   5.370   2.157
 7731SOL     OW24091   6.028   1.024   1.096
 7731SOL    HW124092   6.080   1.089   1.151
 7731SOL    HW224093   5.930   1.040   1.108
 7732SOL     OW24094   4.594   5.975   0.479
 7732SOL    HW124095   4.678   5.927   0.453
 7732SOL    HW224096   4.601   6.005   0.574
 7733SOL     OW24097   4.365   6.213   1.964
 7733SOL    HW124098   4.440   6.226   1.900
 7733SOL    HW224099   4.284   6.262   1.931
 7734SOL     OW24100   1.756   4.060   3.891
 7734SOL    HW124101   1.735   3.969   3.854
 7734SOL    HW224102   1.680   4.122   3.872
 7735SOL     OW24103   3.717   5.042   6.591
 7735SOL    HW124104   3.715   5.068   6.687
 7735SOL    HW224105   3.685   5.119   6.535
 7736SOL     OW24106   5.272   4.447   6.904
 7736SOL    HW124107   5.334   4.519   6.938
 7736SOL    HW224108   5.185   4.452   6.954
 7737SOL     OW24109   4.450   1.037   0.942
 7737SOL    HW124110   4.520   1.094   0.899
 7737SOL    HW224111   4.440   1.064   1.038
 7738SOL     OW24112   2.081   5.725   6.839
 7738SOL    HW124113   2.153   5.676   6.789
 7738SOL    HW224114   2.094   5.824   6.826
 7739SOL     OW24115   0.120   1.447   1.525
 7739SOL    HW124116   0.109   1.464   1.623
 7739SOL    HW224117   0.060   1.371   1.498
 7740SOL     OW24118   0.531   0.851   2.782
 7740SOL    HW124119   0.511   0.767   2.731
 7740SOL    HW224120   0.595   0.907   2.731
 7741SOL     OW24121   1.493   6.065   4.378
 7741SOL    HW124122   1.532   5.975   4.357
 7741SOL    HW224123   1.514   6.128   4.303
 7742SOL     OW24124   6.231   2.041   3.372
 7742SOL    HW124125   6.141   2.002   3.354
 7742SOL    HW224126   6.226   2.104   3.450
 7743SOL     OW24127   4.305   2.607   6.520
 7743SOL    HW124128   4.299   2.589   6.618
 7743SOL    HW224129   4.374   2.547   6.479
 7744SOL     OW24130   0.650   6.069   4.251
 7744SOL    HW124131   0.732   6.039   4.202
 7744SOL    HW224132   0.602   5.990   4.287
 7745SOL     OW24133   3.327   2.223   5.613
 7745SOL    HW124134   3.381   2.269   5.683
 7745SOL    HW224135   3.238   2.197   5.652
 7746SOL     OW24136   2.829   0.118   6.801
 7746SOL    HW124137   2.780   0.121   6.714
 7746SOL    HW224138   2.815   0.028   6.844
 7747SOL     OW24139   4.501   6.011   1.084
 7747SOL    HW124140   4.435   5.954   1.035
 7747SOL    HW224141   4.572   6.041   1.021
 7748SOL     OW24142   2.937   3.670   5.621
 7748SOL    HW124143   2.898   3.717   5.542
 7748SOL    HW224144   3.036   3.684   5.622
 7749SOL     OW24145   4.472   3.708   6.225
 7749SOL    HW124146   4.540   3.635   6.235
 7749SOL    HW224147   4.407   3.703   6.300
 7750SOL     OW24148   0.608   6.175   1.223
 7750SOL    HW124149   0.629   6.205   1.130
 7750SOL    HW224150   0.509   6.181   1.239
 7751SOL     OW24151   0.968   1.498   2.088
 7751SOL    HW124152   1.062   1.501   2.055
 7751SOL    HW224153   0.924   1.586   2.070
 7752SOL     OW24154   5.105   0.483   4.984
 7752SOL    HW124155   5.049   0.545   4.928
 7752SOL    HW224156   5.055   0.397   4.998
 7753SOL     OW24157   1.850   1.555   4.583
 7753SOL    HW124158   1.812   1.603   4.662
 7753SOL    HW224159   1.948   1.541   4.596
 7754SOL     OW24160   3.661   6.035   1.546
 7754SOL    HW124161   3.702   5.944   1.545
 7754SOL    HW224162   3.701   6.090   1.473
 7755SOL     OW24163   1.318   3.592   6.128
 7755SOL    HW124164   1.318   3.647   6.045
 7755SOL    HW224165   1.326   3.495   6.105
 7756SOL     OW24166   2.764   6.711   1.641
 7756SOL    HW124167   2.735   6.802   1.668
 7756SOL    HW224168   2.836   6.718   1.572
 7757SOL     OW24169   6.597   4.669   1.184
 7757SOL    HW124170   6.566   4.576   1.166
 7757SOL    HW224171   6.691   4.680   1.151
 7758SOL     OW24172   1.557   0.176   6.297
 7758SOL    HW124173   1.592   0.154   6.388
 7758SOL    HW224174   1.628   0.157   6.229
 7759SOL     OW24175   3.223   2.078   5.902
 7759SOL    HW124176   3.210   2.173   5.932
 7759SOL    HW224177   3.189   2.015   5.971
 7760SOL     OW24178   5.085   2.259   2.200
 7760SOL    HW124179   5.027   2.198   2.147
 7760SOL    HW224180   5.151   2.206   2.253
 7761SOL     OW24181   5.632   5.587   4.983
 7761SOL    HW124182   5.623   5.490   5.006
 7761SOL    HW224183   5.568   5.641   5.037
 7762SOL     OW24184   1.311   0.570   4.053
 7762SOL    HW124185   1.404   0.584   4.020
 7762SOL    HW224186   1.254   0.648   4.025
 7763SOL     OW24187   2.021   0.231   5.334
 7763SOL    HW124188   2.107   0.196   5.296
 7763SOL    HW224189   2.037   0.265   5.426
 7764SOL     OW24190   3.278   3.999   5.403
 7764SOL    HW124191   3.239   3.951   5.324
 7764SOL    HW224192   3.205   4.019   5.469
 7765SOL     OW24193   6.407   3.857   4.248
 7765SOL    HW124194   6.337   3.805   4.297
 7765SOL    HW224195   6.416   3.821   4.155
 7766SOL     OW24196   0.697   4.295   0.381
 7766SOL    HW124197   0.672   4.390   0.365
 7766SOL    HW224198   0.744   4.287   0.469
 7767SOL     OW24199   3.932   6.837   2.630
 7767SOL    HW124200   3.875   6.888   2.566
 7767SOL    HW224201   3.988   6.771   2.579
 7768SOL     OW24202   4.871   4.283   3.074
 7768SOL    HW124203   4.932   4.307   2.998
 7768SOL    HW224204   4.779   4.315   3.053
 7769SOL     OW24205   3.883   1.940   5.363
 7769SOL    HW124206   3.808   2.003   5.345
 7769SOL    HW224207   3.966   1.992   5.382
 7770SOL     OW24208   0.436   3.537   4.834
 7770SOL    HW124209   0.443   3.521   4.933
 7770SOL    HW224210   0.438   3.635   4.816
 7771SOL     OW24211   2.863   2.042   6.015
 7771SOL    HW124212   2.823   2.119   6.065
 7771SOL    HW224213   2.790   1.985   5.978
 7772SOL     OW24214   5.015   0.604   1.069
 7772SOL    HW124215   4.990   0.688   1.021
 7772SOL    HW224216   4.952   0.531   1.042
 7773SOL     OW24217   2.828   6.116   0.193
 7773SOL    HW124218   2.780   6.199   0.222
 7773SOL    HW224219   2.768   6.037   0.207
 7774SOL     OW24220   4.686   2.304   3.935
 7774SOL    HW124221   4.760   2.332   3.875
 7774SOL    HW224222   4.599   2.308   3.886
 7775SOL     OW24223   4.060   0.348   6.728
 7775SOL    HW124224   4.026   0.314   6.816
 7775SOL    HW224225   4.100   0.272   6.677
 7776SOL     OW24226   0.612   6.714   6.222
 7776SOL    HW124227   0.562   6.746   6.141
 7776SOL    HW224228   0.609   6.615   6.226
 7777SOL     OW24229   5.910   5.297   4.468
 7777SOL    HW124230   5.957   5.209   4.468
 7777SOL    HW224231   5.948   5.355   4.540
 7778SOL     OW24232   5.895   3.801   2.841
 7778SOL    HW124233   5.951   3.739   2.786
 7778SOL    HW224234   5.799   3.786   2.821
 7779SOL     OW24235   3.504   6.739   2.516
 7779SOL    HW124236   3.488   6.765   2.420
 7779SOL    HW224237   3.487   6.818   2.575
 7780SOL     OW24238   0.181   6.159   6.424
 7780SOL    HW124239   0.247   6.084   6.434
 7780SOL    HW224240   0.229   6.246   6.430
 7781SOL     OW24241   1.738   3.703   0.418
 7781SOL    HW124242   1.781   3.729   0.332
 7781SOL    HW224243   1.766   3.611   0.443
 7782SOL     OW24244   6.117   4.914   3.194
 7782SOL    HW124245   6.138   5.003   3.234
 7782SOL    HW224246   6.132   4.918   3.095
 7783SOL     OW24247   0.510   0.109   5.858
 7783SOL    HW124248   0.533   0.174   5.786
 7783SOL    HW224249   0.534   0.017   5.828
 7784SOL     OW24250   2.633   2.299   1.596
 7784SOL    HW124251   2.725   2.320   1.564
 7784SOL    HW224252   2.634   2.290   1.696
 7785SOL     OW24253   1.511   6.426   3.304
 7785SOL    HW124254   1.495   6.512   3.255
 7785SOL    HW224255   1.493   6.439   3.401
 7786SOL     OW24256   4.566   0.615   6.531
 7786SOL    HW124257   4.512   0.695   6.559
 7786SOL    HW224258   4.543   0.590   6.437
 7787SOL     OW24259   2.381   3.618   0.938
 7787SOL    HW124260   2.298   3.655   0.980
 7787SOL    HW224261   2.448   3.691   0.926
 7788SOL     OW24262   1.532   6.195   1.677
 7788SOL    HW124263   1.523   6.102   1.712
 7788SOL    HW224264   1.614   6.238   1.716
 7789SOL     OW24265   3.519   6.752   6.141
 7789SOL    HW124266   3.583   6.801   6.200
 7789SOL    HW224267   3.464   6.818   6.090
 7790SOL     OW24268   6.521   5.204   2.538
 7790SOL    HW124269   6.422   5.209   2.522
 7790SOL    HW224270   6.541   5.124   2.595
 7791SOL     OW24271   2.081   5.770   1.591
 7791SOL    HW124272   2.131   5.687   1.565
 7791SOL    HW224273   2.065   5.769   1.690
 7792SOL     OW24274   0.432   1.257   2.994
 7792SOL    HW124275   0.517   1.307   3.013
 7792SOL    HW224276   0.360   1.290   3.055
 7793SOL     OW24277   4.221   2.067   6.827
 7793SOL    HW124278   4.302   2.120   6.853
 7793SOL    HW224279   4.200   2.001   6.899
 7794SOL     OW24280   0.701   5.347   2.608
 7794SOL    HW124281   0.801   5.356   2.612
 7794SOL    HW224282   0.673   5.268   2.662
 7795SOL     OW24283   3.214   5.130   5.499
 7795SOL    HW124284   3.309   5.100   5.490
 7795SOL    HW224285   3.211   5.217   5.547
 7796SOL     OW24286   3.624   3.306   5.457
 7796SOL    HW124287   3.714   3.320   5.416
 7796SOL    HW224288   3.634   3.292   5.556
 7797SOL     OW24289   1.259   5.293   2.148
 7797SOL    HW124290   1.342   5.279   2.094
 7797SOL    HW224291   1.192   5.222   2.125
 7798SOL     OW24292   0.862   1.295   1.804
 7798SOL    HW124293   0.807   1.257   1.730
 7798SOL    HW224294   0.885   1.390   1.785
 7799SOL     OW24295   2.671   6.032   2.770
 7799SOL    HW124296   2.633   5.940   2.778
 7799SOL    HW224297   2.708   6.045   2.677
 7800SOL     OW24298   1.113   5.642   1.035
 7800SOL    HW124299   1.044   5.619   1.103
 7800SOL    HW224300   1.081   5.719   0.980
 7801SOL     OW24301   1.934   2.525   2.504
 7801SOL    HW124302   2.031   2.500   2.512
 7801SOL    HW224303   1.882   2.481   2.577
 7802SOL     OW24304   0.159   4.551   6.233
 7802SOL    HW124305   0.105   4.514   6.309
 7802SOL    HW224306   0.141   4.649   6.223
 7803SOL     OW24307   5.634   2.564   6.565
 7803SOL    HW124308   5.593   2.633   6.624
 7803SOL    HW224309   5.713   2.603   6.518
 7804SOL     OW24310   2.665   1.919   3.851
 7804SOL    HW124311   2.649   1.956   3.943
 7804SOL    HW224312   2.684   1.821   3.857
 7805SOL     OW24313   5.123   2.899   2.025
 7805SOL    HW124314   5.043   2.944   1.986
 7805SOL    HW224315   5.157   2.952   2.103
 7806SOL     OW24316   6.724   2.775   5.548
 7806SOL    HW124317   6.700   2.756   5.643
 7806SOL    HW224318   6.719   2.691   5.494
 7807SOL     OW24319   2.107   4.984   6.244
 7807SOL    HW124320   2.201   5.019   6.253
 7807SOL    HW224321   2.050   5.053   6.201
 7808SOL     OW24322   4.527   4.477   2.619
 7808SOL    HW124323   4.482   4.479   2.529
 7808SOL    HW224324   4.593   4.401   2.620
 7809SOL     OW24325   4.855   4.928   4.326
 7809SOL    HW124326   4.853   4.859   4.253
 7809SOL    HW224327   4.902   4.890   4.406
 7810SOL     OW24328   4.105   6.305   4.849
 7810SOL    HW124329   4.071   6.216   4.817
 7810SOL    HW224330   4.176   6.338   4.788
 7811SOL     OW24331   0.942   5.887   2.819
 7811SOL    HW124332   0.937   5.816   2.749
 7811SOL    HW224333   0.969   5.846   2.906
 7812SOL     OW24334   2.387   2.848   5.332
 7812SOL    HW124335   2.440   2.850   5.417
 7812SOL    HW224336   2.421   2.919   5.271
 7813SOL     OW24337   4.881   2.883   1.240
 7813SOL    HW124338   4.815   2.816   1.273
 7813SOL    HW224339   4.971   2.841   1.233
 7814SOL     OW24340   6.521   3.312   2.154
 7814SOL    HW124341   6.447   3.379   2.144
 7814SOL    HW224342   6.484   3.220   2.147
 7815SOL     OW24343   6.071   2.232   4.878
 7815SOL    HW124344   6.055   2.138   4.847
 7815SOL    HW224345   6.170   2.250   4.879
 7816SOL     OW24346   0.265   1.654   5.639
 7816SOL    HW124347   0.343   1.596   5.660
 7816SOL    HW224348   0.215   1.617   5.561
 7817SOL     OW24349   3.891   4.143   5.757
 7817SOL    HW124350   3.885   4.133   5.658
 7817SOL    HW224351   3.861   4.058   5.801
 7818SOL     OW24352   4.869   1.153   2.265
 7818SOL    HW124353   4.954   1.109   2.292
 7818SOL    HW224354   4.831   1.204   2.343
 7819SOL     OW24355   0.533   3.377   3.996
 7819SOL    HW124356   0.437   3.397   4.014
 7819SOL    HW224357   0.583   3.375   4.083
 7820SOL     OW24358   1.902   0.724   5.370
 7820SOL    HW124359   1.807   0.695   5.365
 7820SOL    HW224360   1.908   0.815   5.409
 7821SOL     OW24361   6.400   6.179   6.976
 7821SOL    HW124362   6.320   6.118   6.976
 7821SOL    HW224363   6.473   6.138   0.008
 7822SOL     OW24364   1.278   1.181   5.214
 7822SOL    HW124365   1.301   1.113   5.284
 7822SOL    HW224366   1.179   1.195   5.212
 7823SOL     OW24367   1.637   4.457   6.675
 7823SOL    HW124368   1.579   4.375   6.670
 7823SOL    HW224369   1.644   4.486   6.770
 7824SOL     OW24370   5.446   1.439   3.789
 7824SOL    HW124371   5.371   1.480   3.737
 7824SOL    HW224372   5.529   1.492   3.774
 7825SOL     OW24373   2.352   3.130   1.107
 7825SOL    HW124374   2.331   3.106   1.202
 7825SOL    HW224375   2.372   3.228   1.102
 7826SOL     OW24376   5.585   0.822   0.232
 7826SOL    HW124377   5.570   0.895   0.165
 7826SOL    HW224378   5.561   0.855   0.323
 7827SOL     OW24379   4.221   4.728   1.401
 7827SOL    HW124380   4.201   4.785   1.321
 7827SOL    HW224381   4.291   4.774   1.457
 7828SOL     OW24382   0.812   5.990   0.792
 7828SOL    HW124383   0.815   6.077   0.741
 7828SOL    HW224384   0.794   6.008   0.888
 7829SOL     OW24385   2.487   3.484   1.391
 7829SOL    HW124386   2.478   3.489   1.491
 7829SOL    HW224387   2.554   3.414   1.367
 7830SOL     OW24388   5.502   3.433   6.343
 7830SOL    HW124389   5.484   3.513   6.286
 7830SOL    HW224390   5.517   3.462   6.437
 7831SOL     OW24391   1.575   4.084   0.289
 7831SOL    HW124392   1.672   4.064   0.300
 7831SOL    HW224393   1.522   4.023   0.347
 7832SOL     OW24394   3.355   1.848   5.089
 7832SOL    HW124395   3.332   1.938   5.052
 7832SOL    HW224396   3.331   1.845   5.186
 7833SOL     OW24397   0.623   0.327   0.600
 7833SOL    HW124398   0.594   0.387   0.675
 7833SOL    HW224399   0.637   0.234   0.636
 7834SOL     OW24400   0.250   1.027   2.174
 7834SOL    HW124401   0.293   1.085   2.106
 7834SOL    HW224402   0.315   0.955   2.202
 7835SOL     OW24403   2.322   2.856   4.738
 7835SOL    HW124404   2.413   2.813   4.740
 7835SOL    HW224405   2.320   2.931   4.805
 7836SOL     OW24406   3.300   6.782   6.457
 7836SOL    HW124407   3.281   6.850   6.528
 7836SOL    HW224408   3.251   6.806   6.373
 7837SOL     OW24409   6.359   6.517   2.300
 7837SOL    HW124410   6.293   6.484   2.232
 7837SOL    HW224411   6.312   6.577   2.365
 7838SOL     OW24412   5.111   6.250   5.122
 7838SOL    HW124413   5.064   6.335   5.142
 7838SOL    HW224414   5.054   6.193   5.062
 7839SOL     OW24415   6.090   3.730   4.371
 7839SOL    HW124416   6.169   3.669   4.383
 7839SOL    HW224417   6.101   3.811   4.428
 7840SOL     OW24418   5.054   2.339   4.359
 7840SOL    HW124419   5.073   2.309   4.453
 7840SOL    HW224420   5.135   2.385   4.322
 7841SOL     OW24421   5.590   2.813   6.702
 7841SOL    HW124422   5.676   2.810   6.754
 7841SOL    HW224423   5.530   2.883   6.740
 7842SOL     OW24424   1.363   1.661   3.328
 7842SOL    HW124425   1.411   1.580   3.361
 7842SOL    HW224426   1.350   1.725   3.404
 7843SOL     OW24427   5.601   3.807   1.180
 7843SOL    HW124428   5.516   3.858   1.194
 7843SOL    HW224429   5.673   3.846   1.238
 7844SOL     OW24430   4.458   1.004   3.577
 7844SOL    HW124431   4.361   1.016   3.557
 7844SOL    HW224432   4.470   0.921   3.633
 7845SOL     OW24433   1.139   0.813   3.869
 7845SOL    HW124434   1.078   0.794   3.792
 7845SOL    HW224435   1.158   0.911   3.873
 7846SOL     OW24436   2.244   1.130   1.173
 7846SOL    HW124437   2.146   1.110   1.183
 7846SOL    HW224438   2.256   1.202   1.105
 7847SOL     OW24439   0.607   1.283   0.721
 7847SOL    HW124440   0.604   1.222   0.642
 7847SOL    HW224441   0.649   1.236   0.799
 7848SOL     OW24442   3.768   4.355   1.035
 7848SOL    HW124443   3.725   4.271   1.003
 7848SOL    HW224444   3.702   4.430   1.033
 7849SOL     OW24445   5.006   3.481   3.626
 7849SOL    HW124446   4.975   3.399   3.674
 7849SOL    HW224447   5.104   3.474   3.608
 7850SOL     OW24448   0.374   1.115   3.802
 7850SOL    HW124449   0.340   1.106   3.896
 7850SOL    HW224450   0.411   1.206   3.788
 7851SOL     OW24451   6.090   6.372   0.058
 7851SOL    HW124452   6.032   6.306   0.010
 7851SOL    HW224453   6.086   6.356   0.156
 7852SOL     OW24454   2.695   6.595   0.177
 7852SOL    HW124455   2.637   6.677   0.180
 7852SOL    HW224456   2.785   6.619   0.141
 7853SOL     OW24457   2.869   1.494   0.325
 7853SOL    HW124458   2.779   1.528   0.296
 7853SOL    HW224459   2.934   1.504   0.250
 7854SOL     OW24460   3.929   3.677   1.501
 7854SOL    HW124461   4.009   3.653   1.557
 7854SOL    HW224462   3.960   3.709   1.412
 7855SOL     OW24463   4.194   5.705   6.436
 7855SOL    HW124464   4.293   5.700   6.446
 7855SOL    HW224465   4.171   5.777   6.370
 7856SOL     OW24466   6.409   4.110   4.665
 7856SOL    HW124467   6.476   4.151   4.727
 7856SOL    HW224468   6.447   4.108   4.572
 7857SOL     OW24469   6.450   2.378   5.897
 7857SOL    HW124470   6.419   2.473   5.890
 7857SOL    HW224471   6.545   2.372   5.866
 7858SOL     OW24472   5.707   4.488   3.739
 7858SOL    HW124473   5.724   4.573   3.689
 7858SOL    HW224474   5.722   4.410   3.678
 7859SOL     OW24475   0.872   4.277   6.280
 7859SOL    HW124476   0.818   4.237   6.354
 7859SOL    HW224477   0.951   4.324   6.319
 7860SOL     OW24478   3.976   6.409   2.456
 7860SOL    HW124479   3.991   6.311   2.439
 7860SOL    HW224480   3.880   6.431   2.443
 7861SOL     OW24481   4.230   5.390   1.643
 7861SOL    HW124482   4.168   5.400   1.721
 7861SOL    HW224483   4.295   5.466   1.643
 7862SOL     OW24484   2.845   4.262   1.697
 7862SOL    HW124485   2.884   4.334   1.754
 7862SOL    HW224486   2.748   4.281   1.681
 7863SOL     OW24487   6.638   6.042   3.206
 7863SOL    HW124488   6.710   6.016   3.142
 7863SOL    HW224489   6.551   6.005   3.175
 7864SOL     OW24490   0.321   6.541   5.333
 7864SOL    HW124491   0.296   6.447   5.354
 7864SOL    HW224492   0.281   6.602   5.402
 7865SOL     OW24493   3.804   6.263   3.383
 7865SOL    HW124494   3.815   6.224   3.475
 7865SOL    HW224495   3.889   6.253   3.332
 7866SOL     OW24496   3.020   1.392   2.224
 7866SOL    HW124497   2.968   1.413   2.307
 7866SOL    HW224498   3.108   1.440   2.226
 7867SOL     OW24499   5.763   6.014   2.466
 7867SOL    HW124500   5.822   5.988   2.543
 7867SOL    HW224501   5.735   5.932   2.416
 7868SOL     OW24502   5.288   6.231   1.769
 7868SOL    HW124503   5.279   6.269   1.861
 7868SOL    HW224504   5.333   6.297   1.709
 7869SOL     OW24505   6.455   3.601   1.002
 7869SOL    HW124506   6.504   3.516   1.021
 7869SOL    HW224507   6.357   3.585   1.011
 7870SOL     OW24508   6.160   5.230   3.561
 7870SOL    HW124509   6.150   5.321   3.601
 7870SOL    HW224510   6.087   5.214   3.495
 7871SOL     OW24511   5.682   2.950   3.695
 7871SOL    HW124512   5.727   3.036   3.670
 7871SOL    HW224513   5.584   2.966   3.707
 7872SOL     OW24514   1.014   4.052   2.825
 7872SOL    HW124515   0.991   4.000   2.742
 7872SOL    HW224516   1.102   4.022   2.860
 7873SOL     OW24517   6.685   0.881   6.147
 7873SOL    HW124518   6.679   0.981   6.146
 7873SOL    HW224519   6.599   0.841   6.115
 7874SOL     OW24520   6.547   1.533   6.871
 7874SOL    HW124521   6.451   1.557   6.859
 7874SOL    HW224522   6.578   1.563   6.962
 7875SOL     OW24523   5.022   4.473   0.025
 7875SOL    HW124524   4.949   4.503   6.984
 7875SOL    HW224525   5.008   4.514   0.115
 7876SOL     OW24526   6.678   0.599   4.853
 7876SOL    HW124527   6.760   0.638   4.896
 7876SOL    HW224528   6.632   0.539   4.918
 7877SOL     OW24529   0.139   2.000   3.141
 7877SOL    HW124530   0.109   1.976   3.233
 7877SOL    HW224531   0.235   1.973   3.129
 7878SOL     OW24532   4.814   4.490   2.746
 7878SOL    HW124533   4.785   4.569   2.799
 7878SOL    HW224534   4.836   4.519   2.652
 7879SOL     OW24535   4.778   5.893   3.368
 7879SOL    HW124536   4.771   5.991   3.351
 7879SOL    HW224537   4.776   5.876   3.467
 7880SOL     OW24538   0.683   6.364   0.413
 7880SOL    HW124539   0.766   6.321   0.447
 7880SOL    HW224540   0.673   6.346   0.315
 7881SOL     OW24541   6.945   4.029   4.255
 7881SOL    HW124542   7.001   4.107   4.285
 7881SOL    HW224543   6.925   3.970   4.333
 7882SOL     OW24544   1.123   2.944   2.438
 7882SOL    HW124545   1.223   2.947   2.432
 7882SOL    HW224546   1.097   2.893   2.519
 7883SOL     OW24547   2.345   1.112   1.658
 7883SOL    HW124548   2.429   1.117   1.711
 7883SOL    HW224549   2.273   1.164   1.705
 7884SOL     OW24550   1.408   4.124   3.870
 7884SOL    HW124551   1.382   4.116   3.774
 7884SOL    HW224552   1.378   4.212   3.906
 7885SOL     OW24553   5.955   5.391   2.736
 7885SOL    HW124554   5.952   5.388   2.836
 7885SOL    HW224555   5.999   5.476   2.707
 7886SOL     OW24556   5.223   3.430   1.532
 7886SOL    HW124557   5.155   3.502   1.546
 7886SOL    HW224558   5.256   3.396   1.620
 7887SOL     OW24559   3.244   3.350   5.520
 7887SOL    HW124560   3.167   3.398   5.562
 7887SOL    HW224561   3.330   3.392   5.550
 7888SOL     OW24562   6.595   1.665   3.832
 7888SOL    HW124563   6.628   1.752   3.796
 7888SOL    HW224564   6.617   1.592   3.767
 7889SOL     OW24565   6.759   5.486   0.418
 7889SOL    HW124566   6.722   5.422   0.485
 7889SOL    HW224567   6.856   5.468   0.403
 7890SOL     OW24568   1.646   2.746   4.268
 7890SOL    HW124569   1.575   2.686   4.306
 7890SOL    HW224570   1.693   2.793   4.343
 7891SOL     OW24571   0.761   2.712   4.335
 7891SOL    HW124572   0.670   2.724   4.375
 7891SOL    HW224573   0.778   2.786   4.269
 7892SOL     OW24574   1.955   2.212   4.303
 7892SOL    HW124575   1.888   2.141   4.323
 7892SOL    HW224576   1.965   2.272   4.382
 7893SOL     OW24577   6.345   6.573   1.807
 7893SOL    HW124578   6.354   6.498   1.873
 7893SOL    HW224579   6.297   6.540   1.725
 7894SOL     OW24580   2.483   1.829   6.591
 7894SOL    HW124581   2.476   1.841   6.690
 7894SOL    HW224582   2.457   1.915   6.545
 7895SOL     OW24583   3.780   5.982   4.347
 7895SOL    HW124584   3.764   5.884   4.364
 7895SOL    HW224585   3.844   5.993   4.271
 7896SOL     OW24586   4.556   3.209   1.417
 7896SOL    HW124587   4.556   3.142   1.492
 7896SOL    HW224588   4.490   3.182   1.348
 7897SOL     OW24589   3.521   4.319   6.469
 7897SOL    HW124590   3.541   4.371   6.552
 7897SOL    HW224591   3.508   4.382   6.392
 7898SOL     OW24592   4.893   0.422   4.257
 7898SOL    HW124593   4.838   0.384   4.182
 7898SOL    HW224594   4.959   0.353   4.287
 7899SOL     OW24595   5.604   5.507   1.778
 7899SOL    HW124596   5.510   5.476   1.793
 7899SOL    HW224597   5.644   5.535   1.865
 7900SOL     OW24598   0.225   4.040   0.585
 7900SOL    HW124599   0.291   4.004   0.520
 7900SOL    HW224600   0.177   3.965   0.630
 7901SOL     OW24601   5.202   1.189   6.153
 7901SOL    HW124602   5.186   1.192   6.252
 7901SOL    HW224603   5.262   1.264   6.127
 7902SOL     OW24604   0.398   6.192   3.279
 7902SOL    HW124605   0.379   6.266   3.343
 7902SOL    HW224606   0.316   6.170   3.227
 7903SOL     OW24607   3.480   1.632   3.997
 7903SOL    HW124608   3.497   1.613   3.901
 7903SOL    HW224609   3.539   1.706   4.028
 7904SOL     OW24610   6.228   0.807   2.805
 7904SOL    HW124611   6.293   0.833   2.733
 7904SOL    HW224612   6.177   0.888   2.834
 7905SOL     OW24613   5.348   0.875   0.472
 7905SOL    HW124614   5.375   0.877   0.568
 7905SOL    HW224615   5.352   0.781   0.439
 7906SOL     OW24616   1.300   4.995   1.349
 7906SOL    HW124617   1.369   4.924   1.362
 7906SOL    HW224618   1.288   5.012   1.251
 7907SOL     OW24619   5.896   0.364   3.050
 7907SOL    HW124620   5.908   0.405   2.960
 7907SOL    HW224621   5.865   0.269   3.040
 7908SOL     OW24622   0.483   2.002   6.954
 7908SOL    HW124623   0.419   2.077   6.972
 7908SOL    HW224624   0.448   1.947   6.878
 7909SOL     OW24625   5.048   4.400   2.869
 7909SOL    HW124626   4.974   4.414   2.804
 7909SOL    HW224627   5.091   4.311   2.852
 7910SOL     OW24628   1.678   3.158   0.965
 7910SOL    HW124629   1.696   3.246   1.009
 7910SOL    HW224630   1.594   3.164   0.912
 7911SOL     OW24631   1.026   3.985   1.098
 7911SOL    HW124632   1.056   4.059   1.158
 7911SOL    HW224633   1.098   3.916   1.091
 7912SOL     OW24634   5.571   5.601   0.323
 7912SOL    HW124635   5.564   5.502   0.328
 7912SOL    HW224636   5.668   5.628   0.325
 7913SOL     OW24637   1.875   4.034   0.900
 7913SOL    HW124638   1.790   4.084   0.919
 7913SOL    HW224639   1.940   4.095   0.854
 7914SOL     OW24640   6.912   5.413   6.481
 7914SOL    HW124641   6.890   5.459   6.567
 7914SOL    HW224642   6.921   5.480   6.408
 7915SOL     OW24643   3.984   0.850   2.917
 7915SOL    HW124644   3.968   0.934   2.865
 7915SOL    HW224645   4.073   0.812   2.893
 7916SOL     OW24646   0.206   0.525   4.782
 7916SOL    HW124647   0.183   0.440   4.736
 7916SOL    HW224648   0.300   0.520   4.816
 7917SOL     OW24649   3.927   2.683   6.219
 7917SOL    HW124650   4.001   2.623   6.251
 7917SOL    HW224651   3.839   2.643   6.245
 7918SOL     OW24652   1.609   1.374   4.994
 7918SOL    HW124653   1.630   1.333   4.905
 7918SOL    HW224654   1.629   1.309   5.067
 7919SOL     OW24655   1.175   4.955   3.321
 7919SOL    HW124656   1.182   5.040   3.268
 7919SOL    HW224657   1.094   4.959   3.380
 7920SOL     OW24658   4.909   0.789   1.769
 7920SOL    HW124659   5.008   0.783   1.761
 7920SOL    HW224660   4.884   0.831   1.856
 7921SOL     OW24661   5.224   1.700   1.760
 7921SOL    HW124662   5.316   1.694   1.797
 7921SOL    HW224663   5.201   1.795   1.741
 7922SOL     OW24664   0.892   6.446   6.592
 7922SOL    HW124665   0.840   6.525   6.560
 7922SOL    HW224666   0.842   6.362   6.570
 7923SOL     OW24667   3.068   2.174   6.319
 7923SOL    HW124668   3.064   2.267   6.283
 7923SOL    HW224669   3.122   2.174   6.404
 7924SOL     OW24670   5.721   6.845   1.188
 7924SOL    HW124671   5.701   6.940   1.212
 7924SOL    HW224672   5.693   6.829   1.093
 7925SOL     OW24673   2.542   6.551   1.038
 7925SOL    HW124674   2.514   6.510   1.126
 7925SOL    HW224675   2.523   6.486   0.964
 7926SOL     OW24676   5.561   1.172   6.546
 7926SOL    HW124677   5.578   1.075   6.563
 7926SOL    HW224678   5.645   1.224   6.559
 7927SOL     OW24679   5.374   0.252   2.459
 7927SOL    HW124680   5.345   0.206   2.375
 7927SOL    HW224681   5.310   0.230   2.533
 7928SOL     OW24682   6.665   0.907   3.516
 7928SOL    HW124683   6.582   0.943   3.472
 7928SOL    HW224684   6.690   0.966   3.593
 7929SOL     OW24685   4.306   4.188   6.849
 7929SOL    HW124686   4.287   4.283   6.823
 7929SOL    HW224687   4.393   4.183   6.897
 7930SOL     OW24688   3.646   5.604   6.181
 7930SOL    HW124689   3.711   5.637   6.250
 7930SOL    HW224690   3.642   5.504   6.185
 7931SOL     OW24691   3.385   2.885   0.333
 7931SOL    HW124692   3.294   2.849   0.354
 7931SOL    HW224693   3.418   2.940   0.410
 7932SOL     OW24694   6.793   5.347   0.659
 7932SOL    HW124695   6.773   5.420   0.725
 7932SOL    HW224696   6.890   5.325   0.662
 7933SOL     OW24697   6.466   0.779   6.021
 7933SOL    HW124698   6.395   0.786   6.090
 7933SOL    HW224699   6.429   0.805   5.931
 7934SOL     OW24700   1.638   5.036   0.746
 7934SOL    HW124701   1.571   5.095   0.792
 7934SOL    HW224702   1.625   5.043   0.647
 7935SOL     OW24703   5.372   4.397   2.271
 7935SOL    HW124704   5.272   4.402   2.271
 7935SOL    HW224705   5.401   4.308   2.236
 7936SOL     OW24706   2.634   6.345   3.716
 7936SOL    HW124707   2.557   6.300   3.761
 7936SOL    HW224708   2.666   6.421   3.772
 7937SOL     OW24709   1.595   6.029   4.642
 7937SOL    HW124710   1.568   6.028   4.546
 7937SOL    HW224711   1.513   6.018   4.699
 7938SOL     OW24712   5.168   0.430   5.314
 7938SOL    HW124713   5.216   0.446   5.228
 7938SOL    HW224714   5.218   0.473   5.389
 7939SOL     OW24715   0.729   1.899   5.156
 7939SOL    HW124716   0.730   1.808   5.198
 7939SOL    HW224717   0.790   1.900   5.077
 7940SOL     OW24718   3.766   1.828   2.294
 7940SOL    HW124719   3.796   1.920   2.272
 7940SOL    HW224720   3.723   1.786   2.214
 7941SOL     OW24721   4.539   6.388   3.139
 7941SOL    HW124722   4.629   6.429   3.151
 7941SOL    HW224723   4.495   6.377   3.228
 7942SOL     OW24724   0.845   2.779   2.341
 7942SOL    HW124725   0.804   2.779   2.432
 7942SOL    HW224726   0.897   2.864   2.328
 7943SOL     OW24727   1.320   4.844   5.610
 7943SOL    HW124728   1.379   4.806   5.681
 7943SOL    HW224729   1.361   4.825   5.520
 7944SOL     OW24730   0.831   2.462   1.796
 7944SOL    HW124731   0.849   2.475   1.699
 7944SOL    HW224732   0.791   2.545   1.834
 7945SOL     OW24733   6.283   5.333   2.484
 7945SOL    HW124734   6.210   5.266   2.494
 7945SOL    HW224735   6.300   5.377   2.572
 7946SOL     OW24736   4.034   0.021   5.466
 7946SOL    HW124737   4.018   6.947   5.492
 7946SOL    HW224738   4.027   0.079   5.548
 7947SOL     OW24739   1.983   2.351   5.003
 7947SOL    HW124740   1.981   2.344   5.102
 7947SOL    HW224741   1.900   2.397   4.971
 7948SOL     OW24742   1.478   4.681   1.739
 7948SOL    HW124743   1.506   4.742   1.813
 7948SOL    HW224744   1.558   4.636   1.700
 7949SOL     OW24745   4.467   4.611   5.814
 7949SOL    HW124746   4.454   4.706   5.786
 7949SOL    HW224747   4.384   4.559   5.797
 7950SOL     OW24748   6.074   6.113   5.354
 7950SOL    HW124749   6.030   6.024   5.367
 7950SOL    HW224750   6.112   6.118   5.261
 7951SOL     OW24751   2.545   4.923   2.948
 7951SOL    HW124752   2.532   4.987   2.872
 7951SOL    HW224753   2.525   4.830   2.918
 7952SOL     OW24754   6.221   3.655   0.004
 7952SOL    HW124755   6.290   3.647   6.954
 7952SOL    HW224756   6.133   3.620   6.992
 7953SOL     OW24757   4.066   1.747   0.771
 7953SOL    HW124758   4.156   1.707   0.751
 7953SOL    HW224759   4.035   1.799   0.692
 7954SOL     OW24760   4.100   3.745   6.233
 7954SOL    HW124761   4.155   3.685   6.292
 7954SOL    HW224762   4.159   3.785   6.163
 7955SOL     OW24763   2.208   1.344   6.210
 7955SOL    HW124764   2.138   1.405   6.171
 7955SOL    HW224765   2.290   1.397   6.229
 7956SOL     OW24766   5.746   1.834   1.669
 7956SOL    HW124767   5.844   1.836   1.647
 7956SOL    HW224768   5.705   1.753   1.629
 7957SOL     OW24769   4.062   0.167   5.689
 7957SOL    HW124770   4.042   0.247   5.632
 7957SOL    HW224771   4.132   0.190   5.756
 7958SOL     OW24772   5.879   4.403   6.644
 7958SOL    HW124773   5.805   4.407   6.712
 7958SOL    HW224774   5.931   4.488   6.647
 7959SOL     OW24775   5.108   0.787   6.389
 7959SOL    HW124776   5.043   0.837   6.333
 7959SOL    HW224777   5.124   0.836   6.474
 7960SOL     OW24778   0.134   1.211   6.407
 7960SOL    HW124779   0.116   1.149   6.330
 7960SOL    HW224780   0.128   1.160   6.493
 7961SOL     OW24781   6.596   6.930   0.777
 7961SOL    HW124782   6.673   6.923   0.714
 7961SOL    HW224783   6.512   6.945   0.724
 7962SOL     OW24784   6.966   1.390   6.436
 7962SOL    HW124785   0.027   1.336   6.422
 7962SOL    HW224786   6.931   1.421   6.348
 7963SOL     OW24787   6.095   4.411   3.949
 7963SOL    HW124788   6.017   4.351   3.969
 7963SOL    HW224789   6.083   4.498   3.997
 7964SOL     OW24790   7.005   2.867   1.606
 7964SOL    HW124791   6.969   2.959   1.623
 7964SOL    HW224792   6.945   2.799   1.648
 7965SOL     OW24793   4.886   2.680   0.133
 7965SOL    HW124794   4.823   2.626   0.190
 7965SOL    HW224795   4.834   2.749   0.083
 7966SOL     OW24796   4.285   3.590   5.991
 7966SOL    HW124797   4.286   3.689   6.006
 7966SOL    HW224798   4.218   3.567   5.921
 7967SOL     OW24799   1.740   5.077   2.078
 7967SOL    HW124800   1.837   5.068   2.055
 7967SOL    HW224801   1.691   4.994   2.047
 7968SOL     OW24802   6.462   1.829   4.828
 7968SOL    HW124803   6.513   1.906   4.788
 7968SOL    HW224804   6.487   1.744   4.781
 7969SOL     OW24805   4.762   6.037   0.219
 7969SOL    HW124806   4.761   6.131   0.254
 7969SOL    HW224807   4.844   5.990   0.253
 7970SOL     OW24808   6.110   2.804   2.771
 7970SOL    HW124809   6.150   2.881   2.820
 7970SOL    HW224810   6.094   2.729   2.834
 7971SOL     OW24811   3.227   1.823   1.663
 7971SOL    HW124812   3.176   1.876   1.732
 7971SOL    HW224813   3.249   1.733   1.700
 7972SOL     OW24814   3.727   3.139   1.876
 7972SOL    HW124815   3.798   3.152   1.806
 7972SOL    HW224816   3.660   3.073   1.843
 7973SOL     OW24817   5.534   4.014   3.646
 7973SOL    HW124818   5.550   4.089   3.711
 7973SOL    HW224819   5.483   4.048   3.568
 7974SOL     OW24820   6.446   1.249   4.626
 7974SOL    HW124821   6.517   1.252   4.696
 7974SOL    HW224822   6.356   1.248   4.670
 7975SOL     OW24823   4.206   0.709   0.272
 7975SOL    HW124824   4.127   0.710   0.333
 7975SOL    HW224825   4.195   0.637   0.204
 7976SOL     OW24826   0.898   0.276   5.848
 7976SOL    HW124827   0.918   0.193   5.795
 7976SOL    HW224828   0.869   0.250   5.940
 7977SOL     OW24829   6.119   6.271   2.638
 7977SOL    HW124830   6.113   6.230   2.729
 7977SOL    HW224831   6.093   6.203   2.570
 7978SOL     OW24832   0.631   3.908   6.978
 7978SOL    HW124833   0.575   3.929   6.898
 7978SOL    HW224834   0.691   3.831   6.957
 7979SOL     OW24835   1.952   4.274   5.555
 7979SOL    HW124836   2.051   4.273   5.540
 7979SOL    HW224837   1.910   4.345   5.499
 7980SOL     OW24838   3.419   4.995   6.062
 7980SOL    HW124839   3.505   4.963   6.021
 7980SOL    HW224840   3.357   5.026   5.990
 7981SOL     OW24841   1.122   4.800   2.106
 7981SOL    HW124842   1.097   4.897   2.095
 7981SOL    HW224843   1.218   4.788   2.082
 7982SOL     OW24844   1.370   1.353   5.757
 7982SOL    HW124845   1.454   1.407   5.752
 7982SOL    HW224846   1.307   1.396   5.822
 7983SOL     OW24847   5.526   1.314   1.198
 7983SOL    HW124848   5.449   1.298   1.259
 7983SOL    HW224849   5.492   1.333   1.106
 7984SOL     OW24850   0.755   1.641   0.817
 7984SOL    HW124851   0.776   1.679   0.727
 7984SOL    HW224852   0.658   1.657   0.838
 7985SOL     OW24853   2.576   2.142   4.747
 7985SOL    HW124854   2.627   2.110   4.667
 7985SOL    HW224855   2.619   2.225   4.783
 7986SOL     OW24856   3.895   1.680   5.271
 7986SOL    HW124857   3.809   1.629   5.268
 7986SOL    HW224858   3.877   1.776   5.293
 7987SOL     OW24859   2.165   4.009   0.924
 7987SOL    HW124860   2.080   4.029   0.875
 7987SOL    HW224861   2.242   4.016   0.860
 7988SOL     OW24862   0.650   0.771   1.289
 7988SOL    HW124863   0.636   0.695   1.225
 7988SOL    HW224864   0.623   0.742   1.381
 7989SOL     OW24865   1.722   4.192   0.009
 7989SOL    HW124866   1.739   4.177   0.106
 7989SOL    HW224867   1.752   4.111   6.979
 7990SOL     OW24868   2.813   6.150   4.358
 7990SOL    HW124869   2.804   6.148   4.458
 7990SOL    HW224870   2.727   6.122   4.316
 7991SOL     OW24871   5.374   1.901   4.305
 7991SOL    HW124872   5.335   1.932   4.217
 7991SOL    HW224873   5.311   1.835   4.347
 7992SOL     OW24874   2.647   0.529   0.574
 7992SOL    HW124875   2.631   0.535   0.475
 7992SOL    HW224876   2.745   0.538   0.593
 7993SOL     OW24877   0.125   6.873   2.267
 7993SOL    HW124878   0.026   6.877   2.254
 7993SOL    HW224879   0.168   6.946   2.213
 7994SOL     OW24880   5.088   0.680   3.093
 7994SOL    HW124881   5.149   0.686   3.172
 7994SOL    HW224882   4.995   0.702   3.122
 7995SOL     OW24883   5.675   4.426   2.731
 7995SOL    HW124884   5.650   4.465   2.819
 7995SOL    HW224885   5.611   4.458   2.661
 7996SOL     OW24886   4.157   0.144   4.190
 7996SOL    HW124887   4.187   0.220   4.249
 7996SOL    HW224888   4.231   0.119   4.128
 7997SOL     OW24889   0.061   1.921   0.063
 7997SOL    HW124890   7.013   1.961   0.004
 7997SOL    HW224891   0.050   1.822   0.066
 7998SOL     OW24892   2.906   6.744   0.463
 7998SOL    HW124893   2.868   6.832   0.434
 7998SOL    HW224894   2.910   6.683   0.384
 7999SOL     OW24895   1.228   1.519   5.956
 7999SOL    HW124896   1.170   1.587   5.911
 7999SOL    HW224897   1.291   1.566   6.018
 8000SOL     OW24898   6.172   0.123   6.518
 8000SOL    HW124899   6.200   0.214   6.550
 8000SOL    HW224900   6.107   0.084   6.583
 8001SOL     OW24901   4.630   6.422   1.486
 8001SOL    HW124902   4.614   6.510   1.532
 8001SOL    HW224903   4.614   6.432   1.388
 8002SOL     OW24904   0.651   1.371   5.419
 8002SOL    HW124905   0.689   1.449   5.470
 8002SOL    HW224906   0.726   1.311   5.390
 8003SOL     OW24907   1.564   6.740   2.091
 8003SOL    HW124908   1.633   6.722   2.021
 8003SOL    HW224909   1.545   6.838   2.095
 8004SOL     OW24910   2.328   2.779   3.545
 8004SOL    HW124911   2.362   2.716   3.615
 8004SOL    HW224912   2.350   2.742   3.454
 8005SOL     OW24913   2.779   0.380   3.786
 8005SOL    HW124914   2.763   0.451   3.717
 8005SOL    HW224915   2.856   0.406   3.843
 8006SOL     OW24916   3.413   5.529   5.517
 8006SOL    HW124917   3.352   5.470   5.570
 8006SOL    HW224918   3.428   5.490   5.427
 8007SOL     OW24919   5.545   2.290   6.501
 8007SOL    HW124920   5.624   2.231   6.483
 8007SOL    HW224921   5.576   2.382   6.524
 8008SOL     OW24922   3.352   6.401   0.424
 8008SOL    HW124923   3.282   6.381   0.355
 8008SOL    HW224924   3.310   6.405   0.514
 8009SOL     OW24925   4.695   0.994   1.213
 8009SOL    HW124926   4.738   0.987   1.303
 8009SOL    HW224927   4.610   1.047   1.220
 8010SOL     OW24928   2.980   2.580   5.376
 8010SOL    HW124929   3.044   2.553   5.304
 8010SOL    HW224930   2.966   2.679   5.372
 8011SOL     OW24931   3.449   1.974   1.868
 8011SOL    HW124932   3.444   2.047   1.936
 8011SOL    HW224933   3.396   2.000   1.788
 8012SOL     OW24934   0.842   2.699   6.335
 8012SOL    HW124935   0.801   2.618   6.377
 8012SOL    HW224936   0.773   2.746   6.280
 8013SOL     OW24937   0.837   2.530   3.337
 8013SOL    HW124938   0.804   2.572   3.422
 8013SOL    HW224939   0.851   2.600   3.268
 8014SOL     OW24940   1.797   0.145   3.874
 8014SOL    HW124941   1.732   0.151   3.798
 8014SOL    HW224942   1.795   0.053   3.912
 8015SOL     OW24943   2.005   6.960   5.889
 8015SOL    HW124944   2.104   6.973   5.895
 8015SOL    HW224945   1.975   6.896   5.961
 8016SOL     OW24946   3.908   1.377   5.073
 8016SOL    HW124947   3.814   1.378   5.036
 8016SOL    HW224948   3.969   1.424   5.009
 8017SOL     OW24949   6.681   6.970   0.327
 8017SOL    HW124950   6.604   6.910   0.304
 8017SOL    HW224951   6.724   6.938   0.412
 8018SOL     OW24952   3.874   2.668   0.010
 8018SOL    HW124953   3.827   2.753   7.007
 8018SOL    HW224954   3.854   2.645   0.105
 8019SOL     OW24955   2.513   3.726   0.627
 8019SOL    HW124956   2.558   3.712   0.715
 8019SOL    HW224957   2.431   3.668   0.622
 8020SOL     OW24958   5.876   0.380   6.376
 8020SOL    HW124959   5.941   0.436   6.427
 8020SOL    HW224960   5.925   0.316   6.317
 8021SOL     OW24961   1.941   2.603   1.190
 8021SOL    HW124962   1.946   2.527   1.254
 8021SOL    HW224963   1.976   2.574   1.101
 8022SOL     OW24964   6.021   0.379   1.914
 8022SOL    HW124965   6.100   0.317   1.902
 8022SOL    HW224966   5.945   0.328   1.953
 8023SOL     OW24967   5.590   5.528   2.834
 8023SOL    HW124968   5.624   5.438   2.862
 8023SOL    HW224969   5.555   5.577   2.914
 8024SOL     OW24970   1.230   5.777   6.128
 8024SOL    HW124971   1.277   5.755   6.042
 8024SOL    HW224972   1.194   5.693   6.168
 8025SOL     OW24973   1.666   4.941   1.193
 8025SOL    HW124974   1.601   4.882   1.240
 8025SOL    HW224975   1.734   4.886   1.146
 8026SOL     OW24976   6.954   4.540   0.565
 8026SOL    HW124977   0.001   4.587   0.620
 8026SOL    HW224978   6.980   4.445   0.552
 8027SOL     OW24979   3.291   6.623   5.197
 8027SOL    HW124980   3.310   6.696   5.132
 8027SOL    HW224981   3.241   6.549   5.151
 8028SOL     OW24982   2.621   5.985   4.242
 8028SOL    HW124983   2.659   5.903   4.286
 8028SOL    HW224984   2.660   5.995   4.151
 8029SOL     OW24985   4.787   2.344   1.883
 8029SOL    HW124986   4.834   2.396   1.811
 8029SOL    HW224987   4.770   2.404   1.961
 8030SOL     OW24988   6.252   5.335   0.607
 8030SOL    HW124989   6.283   5.426   0.582
 8030SOL    HW224990   6.277   5.315   0.702
 8031SOL     OW24991   6.139   6.697   3.160
 8031SOL    HW124992   6.122   6.611   3.113
 8031SOL    HW224993   6.214   6.746   3.116
 8032SOL     OW24994   5.065   3.659   1.586
 8032SOL    HW124995   4.970   3.637   1.609
 8032SOL    HW224996   5.068   3.746   1.536
 8033SOL     OW24997   4.522   3.498   0.145
 8033SOL    HW124998   4.602   3.463   0.193
 8033SOL    HW224999   4.458   3.537   0.211
 8034SOL     OW25000   5.771   0.301   5.359
 8034SOL    HW125001   5.787   0.313   5.261
 8034SOL    HW225002   5.791   0.207   5.385
 8035SOL     OW25003   4.734   0.913   2.245
 8035SOL    HW125004   4.797   0.991   2.256
 8035SOL    HW225005   4.651   0.930   2.297
 8036SOL     OW25006   6.858   2.920   3.425
 8036SOL    HW125007   6.822   2.966   3.344
 8036SOL    HW225008   6.875   2.824   3.404
 8037SOL     OW25009   1.106   3.390   0.279
 8037SOL    HW125010   1.092   3.292   0.294
 8037SOL    HW225011   1.151   3.404   0.191
 8038SOL     OW25012   5.641   6.196   2.061
 8038SOL    HW125013   5.710   6.245   2.008
 8038SOL    HW225014   5.620   6.249   2.144
 8039SOL     OW25015   0.440   2.494   5.009
 8039SOL    HW125016   0.381   2.558   4.960
 8039SOL    HW225017   0.407   2.484   5.103
 8040SOL     OW25018   2.102   6.000   6.847
 8040SOL    HW125019   2.028   6.064   6.829
 8040SOL    HW225020   2.188   6.050   6.857
 8041SOL     OW25021   3.233   1.060   2.885
 8041SOL    HW125022   3.302   1.063   2.957
 8041SOL    HW225023   3.245   1.139   2.824
 8042SOL     OW25024   4.322   4.214   5.357
 8042SOL    HW125025   4.297   4.190   5.451
 8042SOL    HW225026   4.240   4.238   5.305
 8043SOL     OW25027   3.898   5.359   0.908
 8043SOL    HW125028   3.905   5.330   1.003
 8043SOL    HW225029   3.928   5.284   0.848
 8044SOL     OW25030   3.375   3.307   1.133
 8044SOL    HW125031   3.452   3.303   1.069
 8044SOL    HW225032   3.383   3.389   1.189
 8045SOL     OW25033   6.959   1.793   2.715
 8045SOL    HW125034   7.010   1.738   2.649
 8045SOL    HW225035   7.019   1.863   2.754
 8046SOL     OW25036   0.534   5.163   2.195
 8046SOL    HW125037   0.488   5.252   2.206
 8046SOL    HW225038   0.528   5.112   2.281
 8047SOL     OW25039   3.859   6.829   6.431
 8047SOL    HW125040   3.847   6.738   6.470
 8047SOL    HW225041   3.951   6.863   6.451
 8048SOL     OW25042   3.509   3.006   6.729
 8048SOL    HW125043   3.573   2.969   6.662
 8048SOL    HW225044   3.502   3.105   6.718
 8049SOL     OW25045   1.372   6.297   0.193
 8049SOL    HW125046   1.360   6.393   0.219
 8049SOL    HW225047   1.469   6.278   0.181
 8050SOL     OW25048   2.114   4.264   4.616
 8050SOL    HW125049   2.097   4.237   4.711
 8050SOL    HW225050   2.173   4.197   4.573
 8051SOL     OW25051   4.728   5.599   4.293
 8051SOL    HW125052   4.639   5.589   4.339
 8051SOL    HW225053   4.716   5.655   4.212
 8052SOL     OW25054   2.626   2.059   1.968
 8052SOL    HW125055   2.580   1.973   1.992
 8052SOL    HW225056   2.682   2.045   1.886
 8053SOL     OW25057   2.886   2.881   5.352
 8053SOL    HW125058   2.975   2.889   5.308
 8053SOL    HW225059   2.872   2.957   5.415
 8054SOL     OW25060   5.757   3.818   5.095
 8054SOL    HW125061   5.851   3.785   5.099
 8054SOL    HW225062   5.757   3.917   5.079
 8055SOL     OW25063   0.264   0.888   5.623
 8055SOL    HW125064   0.259   0.983   5.592
 8055SOL    HW225065   0.359   0.866   5.646
 8056SOL     OW25066   3.185   6.566   3.406
 8056SOL    HW125067   3.201   6.537   3.312
 8056SOL    HW225068   3.087   6.570   3.423
 8057SOL     OW25069   2.859   1.897   2.095
 8057SOL    HW125070   2.844   1.953   2.013
 8057SOL    HW225071   2.888   1.805   2.067
 8058SOL     OW25072   2.876   6.718   2.927
 8058SOL    HW125073   2.877   6.739   3.025
 8058SOL    HW225074   2.826   6.632   2.913
 8059SOL     OW25075   3.323   0.926   5.727
 8059SOL    HW125076   3.314   0.852   5.794
 8059SOL    HW225077   3.417   0.930   5.695
 8060SOL     OW25078   0.129   1.188   5.930
 8060SOL    HW125079   0.063   1.119   5.960
 8060SOL    HW225080   0.123   1.199   5.831
 8061SOL     OW25081   0.184   1.167   3.171
 8061SOL    HW125082   0.159   1.143   3.078
 8061SOL    HW225083   0.245   1.097   3.209
 8062SOL     OW25084   4.067   5.239   4.872
 8062SOL    HW125085   4.105   5.167   4.815
 8062SOL    HW225086   4.131   5.260   4.946
 8063SOL     OW25087   3.098   1.267   2.759
 8063SOL    HW125088   3.160   1.338   2.725
 8063SOL    HW225089   3.029   1.308   2.818
 8064SOL     OW25090   6.488   3.086   0.162
 8064SOL    HW125091   6.569   3.145   0.160
 8064SOL    HW225092   6.471   3.057   0.256
 8065SOL     OW25093   3.738   7.001   4.672
 8065SOL    HW125094   3.804   7.000   4.597
 8065SOL    HW225095   3.738   6.912   4.718
 8066SOL     OW25096   6.488   0.464   4.430
 8066SOL    HW125097   6.490   0.554   4.386
 8066SOL    HW225098   6.483   0.476   4.529
 8067SOL     OW25099   5.089   2.592   3.736
 8067SOL    HW125100   5.060   2.610   3.829
 8067SOL    HW225101   5.173   2.538   3.737
 8068SOL     OW25102   0.655   4.894   1.007
 8068SOL    HW125103   0.654   4.974   0.947
 8068SOL    HW225104   0.653   4.811   0.952
 8069SOL     OW25105   2.561   4.952   1.719
 8069SOL    HW125106   2.591   5.002   1.637
 8069SOL    HW225107   2.640   4.910   1.763
 8070SOL     OW25108   3.830   3.607   0.826
 8070SOL    HW125109   3.895   3.542   0.788
 8070SOL    HW225110   3.761   3.630   0.757
 8071SOL     OW25111   3.776   6.739   4.747
 8071SOL    HW125112   3.734   6.673   4.809
 8071SOL    HW225113   3.872   6.715   4.731
 8072SOL     OW25114   3.407   2.704   0.673
 8072SOL    HW125115   3.459   2.622   0.649
 8072SOL    HW225116   3.310   2.681   0.683
 8073SOL     OW25117   2.650   6.834   5.507
 8073SOL    HW125118   2.678   6.921   5.466
 8073SOL    HW225119   2.730   6.775   5.520
 8074SOL     OW25120   2.415   1.346   0.919
 8074SOL    HW125121   2.334   1.381   0.965
 8074SOL    HW225122   2.498   1.382   0.962
 8075SOL     OW25123   0.440   6.855   1.027
 8075SOL    HW125124   0.378   6.933   1.020
 8075SOL    HW225125   0.462   6.822   0.936
 8076SOL     OW25126   0.198   0.169   6.198
 8076SOL    HW125127   0.265   0.242   6.215
 8076SOL    HW225128   0.212   0.133   6.105
 8077SOL     OW25129   3.592   6.000   2.376
 8077SOL    HW125130   3.588   6.099   2.388
 8077SOL    HW225131   3.649   5.978   2.296
 8078SOL     OW25132   0.904   1.704   1.047
 8078SOL    HW125133   0.838   1.698   1.122
 8078SOL    HW225134   0.859   1.679   0.961
 8079SOL     OW25135   6.821   1.548   4.101
 8079SOL    HW125136   6.870   1.628   4.067
 8079SOL    HW225137   6.724   1.555   4.077
 8080SOL     OW25138   1.597   2.754   1.780
 8080SOL    HW125139   1.662   2.679   1.783
 8080SOL    HW225140   1.520   2.734   1.841
 8081SOL     OW25141   6.271   4.954   5.490
 8081SOL    HW125142   6.313   4.864   5.477
 8081SOL    HW225143   6.208   4.972   5.415
 8082SOL     OW25144   3.418   0.580   2.195
 8082SOL    HW125145   3.365   0.619   2.271
 8082SOL    HW225146   3.490   0.644   2.169
 8083SOL     OW25147   5.327   2.868   4.352
 8083SOL    HW125148   5.389   2.790   4.340
 8083SOL    HW225149   5.362   2.946   4.299
 8084SOL     OW25150   3.067   0.974   5.890
 8084SOL    HW125151   3.157   1.017   5.884
 8084SOL    HW225152   3.042   0.938   5.800
 8085SOL     OW25153   6.757   6.406   2.965
 8085SOL    HW125154   6.659   6.409   2.943
 8085SOL    HW225155   6.769   6.381   3.061
 8086SOL     OW25156   0.219   1.229   0.872
 8086SOL    HW125157   0.290   1.250   0.938
 8086SOL    HW225158   0.212   1.130   0.860
 8087SOL     OW25159   1.756   0.155   6.089
 8087SOL    HW125160   1.788   0.107   6.008
 8087SOL    HW225161   1.832   0.165   6.154
 8088SOL     OW25162   5.848   0.110   6.833
 8088SOL    HW125163   5.928   0.130   6.889
 8088SOL    HW225164   5.875   0.054   6.755
 8089SOL     OW25165   6.005   2.668   6.538
 8089SOL    HW125166   5.937   2.667   6.465
 8089SOL    HW225167   6.073   2.596   6.522
 8090SOL     OW25168   4.405   1.438   5.996
 8090SOL    HW125169   4.437   1.532   5.999
 8090SOL    HW225170   4.412   1.403   5.903
 8091SOL     OW25171   1.630   4.606   4.934
 8091SOL    HW125172   1.544   4.632   4.891
 8091SOL    HW225173   1.699   4.677   4.917
 8092SOL     OW25174   5.255   2.268   5.702
 8092SOL    HW125175   5.322   2.260   5.628
 8092SOL    HW225176   5.259   2.360   5.741
 8093SOL     OW25177   3.508   5.357   3.256
 8093SOL    HW125178   3.524   5.440   3.310
 8093SOL    HW225179   3.456   5.381   3.174
 8094SOL     OW25180   0.886   3.101   5.790
 8094SOL    HW125181   0.963   3.122   5.850
 8094SOL    HW225182   0.810   3.162   5.811
 8095SOL     OW25183   0.597   5.242   4.532
 8095SOL    HW125184   0.675   5.198   4.576
 8095SOL    HW225185   0.626   5.286   4.447
 8096SOL     OW25186   1.821   0.483   2.835
 8096SOL    HW125187   1.876   0.530   2.903
 8096SOL    HW225188   1.755   0.423   2.881
 8097SOL     OW25189   4.223   0.436   4.286
 8097SOL    HW125190   4.270   0.417   4.372
 8097SOL    HW225191   4.164   0.515   4.297
 8098SOL     OW25192   2.072   6.230   3.710
 8098SOL    HW125193   1.975   6.251   3.696
 8098SOL    HW225194   2.127   6.281   3.643
 8099SOL     OW25195   4.390   6.356   4.483
 8099SOL    HW125196   4.410   6.364   4.385
 8099SOL    HW225197   4.317   6.289   4.496
 8100SOL     OW25198   6.717   1.762   6.741
 8100SOL    HW125199   6.802   1.713   6.720
 8100SOL    HW225200   6.643   1.697   6.755
 8101SOL     OW25201   1.641   5.370   0.469
 8101SOL    HW125202   1.708   5.408   0.533
 8101SOL    HW225203   1.640   5.271   0.476
 8102SOL     OW25204   0.482   3.790   3.759
 8102SOL    HW125205   0.516   3.709   3.807
 8102SOL    HW225206   0.468   3.768   3.662
 8103SOL     OW25207   3.693   0.297   2.078
 8103SOL    HW125208   3.641   0.326   2.158
 8103SOL    HW225209   3.791   0.295   2.101
 8104SOL     OW25210   1.839   0.094   5.169
 8104SOL    HW125211   1.907   0.149   5.217
 8104SOL    HW225212   1.748   0.112   5.207
 8105SOL     OW25213   0.040   2.520   2.557
 8105SOL    HW125214   0.090   2.518   2.643
 8105SOL    HW225215   0.104   2.526   2.481
 8106SOL     OW25216   2.640   6.609   3.190
 8106SOL    HW125217   2.574   6.604   3.265
 8106SOL    HW225218   2.710   6.677   3.213
 8107SOL     OW25219   1.224   6.080   4.133
 8107SOL    HW125220   1.162   6.045   4.204
 8107SOL    HW225221   1.267   6.002   4.086
 8108SOL     OW25222   6.562   2.137   0.175
 8108SOL    HW125223   6.529   2.221   0.217
 8108SOL    HW225224   6.521   2.127   0.085
 8109SOL     OW25225   0.118   3.622   6.788
 8109SOL    HW125226   0.100   3.642   6.884
 8109SOL    HW225227   0.131   3.523   6.776
 8110SOL     OW25228   4.223   4.721   1.850
 8110SOL    HW125229   4.152   4.769   1.901
 8110SOL    HW225230   4.184   4.681   1.768
 8111SOL     OW25231   4.872   1.150   4.145
 8111SOL    HW125232   4.945   1.176   4.208
 8111SOL    HW225233   4.856   1.223   4.079
 8112SOL     OW25234   1.998   2.939   4.413
 8112SOL    HW125235   2.084   2.938   4.465
 8112SOL    HW225236   1.990   2.854   4.361
 8113SOL     OW25237   6.701   3.515   0.757
 8113SOL    HW125238   6.689   3.574   0.837
 8113SOL    HW225239   6.713   3.572   0.676
 8114SOL     OW25240   1.568   3.564   2.175
 8114SOL    HW125241   1.540   3.660   2.165
 8114SOL    HW225242   1.662   3.553   2.144
 8115SOL     OW25243   3.297   6.399   5.859
 8115SOL    HW125244   3.352   6.322   5.827
 8115SOL    HW225245   3.350   6.484   5.852
 8116SOL     OW25246   4.167   4.959   0.267
 8116SOL    HW125247   4.178   4.861   0.285
 8116SOL    HW225248   4.070   4.981   0.260
 8117SOL     OW25249   2.404   0.116   3.424
 8117SOL    HW125250   2.429   0.058   3.347
 8117SOL    HW225251   2.321   0.167   3.402
 8118SOL     OW25252   5.548   4.152   6.502
 8118SOL    HW125253   5.592   4.227   6.453
 8118SOL    HW225254   5.598   4.132   6.586
 8119SOL     OW25255   5.243   6.542   5.947
 8119SOL    HW125256   5.149   6.516   5.970
 8119SOL    HW225257   5.294   6.462   5.917
 8120SOL     OW25258   3.241   4.794   0.424
 8120SOL    HW125259   3.305   4.871   0.426
 8120SOL    HW225260   3.236   4.752   0.514
 8121SOL     OW25261   0.732   4.809   1.389
 8121SOL    HW125262   0.648   4.840   1.344
 8121SOL    HW225263   0.754   4.717   1.358
 8122SOL     OW25264   0.629   4.266   3.000
 8122SOL    HW125265   0.667   4.224   2.917
 8122SOL    HW225266   0.531   4.283   2.987
 8123SOL     OW25267   6.491   2.026   6.914
 8123SOL    HW125268   6.400   2.061   6.892
 8123SOL    HW225269   6.552   2.040   6.835
 8124SOL     OW25270   5.447   6.239   3.506
 8124SOL    HW125271   5.493   6.153   3.486
 8124SOL    HW225272   5.411   6.236   3.599
 8125SOL     OW25273   1.356   1.063   2.580
 8125SOL    HW125274   1.289   1.061   2.654
 8125SOL    HW225275   1.311   1.081   2.494
 8126SOL     OW25276   5.308   4.593   3.281
 8126SOL    HW125277   5.276   4.638   3.197
 8126SOL    HW225278   5.296   4.656   3.358
 8127SOL     OW25279   2.758   3.262   6.291
 8127SOL    HW125280   2.778   3.346   6.340
 8127SOL    HW225281   2.730   3.284   6.197
 8128SOL     OW25282   3.149   2.120   1.973
 8128SOL    HW125283   3.187   2.102   2.063
 8128SOL    HW225284   3.070   2.181   1.981
 8129SOL     OW25285   3.807   1.430   6.705
 8129SOL    HW125286   3.871   1.354   6.694
 8129SOL    HW225287   3.822   1.497   6.632
 8130SOL     OW25288   0.786   6.194   6.560
 8130SOL    HW125289   0.688   6.202   6.579
 8130SOL    HW225290   0.817   6.103   6.586
 8131SOL     OW25291   3.239   1.553   2.173
 8131SOL    HW125292   3.282   1.527   2.086
 8131SOL    HW225293   3.279   1.639   2.205
 8132SOL     OW25294   5.617   6.117   4.786
 8132SOL    HW125295   5.634   6.020   4.772
 8132SOL    HW225296   5.520   6.137   4.770
 8133SOL     OW25297   3.642   5.354   2.265
 8133SOL    HW125298   3.543   5.370   2.266
 8133SOL    HW225299   3.661   5.261   2.297
 8134SOL     OW25300   7.020   1.801   6.193
 8134SOL    HW125301   0.060   1.814   6.271
 8134SOL    HW225302   0.049   1.812   6.108
 8135SOL     OW25303   1.846   1.289   1.411
 8135SOL    HW125304   1.788   1.227   1.358
 8135SOL    HW225305   1.893   1.352   1.348
 8136SOL     OW25306   5.357   5.257   2.140
 8136SOL    HW125307   5.408   5.337   2.108
 8136SOL    HW225308   5.420   5.179   2.151
 8137SOL     OW25309   3.165   1.525   5.459
 8137SOL    HW125310   3.066   1.517   5.470
 8137SOL    HW225311   3.194   1.618   5.483
 8138SOL     OW25312   5.503   0.981   1.579
 8138SOL    HW125313   5.557   1.015   1.503
 8138SOL    HW225314   5.422   0.934   1.544
 8139SOL     OW25315   0.095   0.906   1.869
 8139SOL    HW125316   0.034   0.894   1.947
 8139SOL    HW225317   0.115   1.003   1.856
 8140SOL     OW25318   5.116   1.039   5.133
 8140SOL    HW125319   5.193   0.983   5.163
 8140SOL    HW225320   5.083   1.006   5.045
 8141SOL     OW25321   4.811   5.296   6.014
 8141SOL    HW125322   4.904   5.276   5.982
 8141SOL    HW225323   4.780   5.381   5.972
 8142SOL     OW25324   6.524   5.191   0.290
 8142SOL    HW125325   6.479   5.111   0.329
 8142SOL    HW225326   6.461   5.268   0.289
 8143SOL     OW25327   6.296   5.116   0.431
 8143SOL    HW125328   6.214   5.077   0.389
 8143SOL    HW225329   6.269   5.188   0.495
 8144SOL     OW25330   5.802   6.742   6.996
 8144SOL    HW125331   5.761   6.771   0.060
 8144SOL    HW225332   5.772   6.649   6.973
 8145SOL     OW25333   5.386   5.715   2.072
 8145SOL    HW125334   5.370   5.813   2.062
 8145SOL    HW225335   5.479   5.693   2.044
 8146SOL     OW25336   3.661   1.371   4.957
 8146SOL    HW125337   3.574   1.352   5.003
 8146SOL    HW225338   3.659   1.464   4.920
 8147SOL     OW25339   5.844   2.289   3.192
 8147SOL    HW125340   5.936   2.320   3.168
 8147SOL    HW225341   5.785   2.368   3.210
 8148SOL     OW25342   5.454   3.821   2.418
 8148SOL    HW125343   5.481   3.916   2.403
 8148SOL    HW225344   5.494   3.763   2.347
 8149SOL     OW25345   2.580   5.443   2.188
 8149SOL    HW125346   2.566   5.372   2.257
 8149SOL    HW225347   2.609   5.401   2.102
 8150SOL     OW25348   0.055   5.061   0.550
 8150SOL    HW125349   0.131   5.121   0.575
 8150SOL    HW225350   0.076   5.015   0.464
 8151SOL     OW25351   0.382   2.393   2.948
 8151SOL    HW125352   0.433   2.339   2.881
 8151SOL    HW225353   0.435   2.400   3.032
 8152SOL     OW25354   0.675   1.979   2.725
 8152SOL    HW125355   0.713   1.983   2.633
 8152SOL    HW225356   0.589   1.929   2.723
 8153SOL     OW25357   3.622   0.016   3.310
 8153SOL    HW125358   3.716   0.014   3.278
 8153SOL    HW225359   3.591   0.111   3.316
 8154SOL     OW25360   1.890   5.854   3.805
 8154SOL    HW125361   1.977   5.902   3.813
 8154SOL    HW225362   1.900   5.775   3.744
 8155SOL     OW25363   2.749   3.516   1.630
 8155SOL    HW125364   2.758   3.501   1.532
 8155SOL    HW225365   2.652   3.523   1.654
 8156SOL     OW25366   6.009   0.360   5.922
 8156SOL    HW125367   5.999   0.418   6.002
 8156SOL    HW225368   5.930   0.299   5.915
 8157SOL     OW25369   5.636   5.783   6.219
 8157SOL    HW125370   5.638   5.711   6.149
 8157SOL    HW225371   5.730   5.814   6.237
 8158SOL     OW25372   0.891   5.715   0.483
 8158SOL    HW125373   0.944   5.794   0.514
 8158SOL    HW225374   0.881   5.650   0.558
 8159SOL     OW25375   2.217   5.658   2.153
 8159SOL    HW125376   2.236   5.575   2.100
 8159SOL    HW225377   2.303   5.705   2.172
 8160SOL     OW25378   4.473   1.354   1.601
 8160SOL    HW125379   4.402   1.417   1.570
 8160SOL    HW225380   4.471   1.346   1.700
 8161SOL     OW25381   5.147   0.480   1.279
 8161SOL    HW125382   5.080   0.535   1.228
 8161SOL    HW225383   5.133   0.383   1.259
 8162SOL     OW25384   6.369   6.616   6.399
 8162SOL    HW125385   6.382   6.713   6.422
 8162SOL    HW225386   6.455   6.577   6.367
 8163SOL     OW25387   2.606   4.310   5.681
 8163SOL    HW125388   2.517   4.266   5.666
 8163SOL    HW225389   2.635   4.297   5.775
 8164SOL     OW25390   5.619   3.424   0.493
 8164SOL    HW125391   5.648   3.335   0.526
 8164SOL    HW225392   5.694   3.490   0.503
 8165SOL     OW25393   1.587   4.701   0.414
 8165SOL    HW125394   1.529   4.670   0.489
 8165SOL    HW225395   1.544   4.777   0.367
 8166SOL     OW25396   2.186   1.280   1.790
 8166SOL    HW125397   2.086   1.281   1.794
 8166SOL    HW225398   2.218   1.368   1.754
 8167SOL     OW25399   5.516   1.561   4.103
 8167SOL    HW125400   5.523   1.470   4.063
 8167SOL    HW225401   5.420   1.589   4.104
 8168SOL     OW25402   3.335   2.112   2.744
 8168SOL    HW125403   3.364   2.149   2.833
 8168SOL    HW225404   3.400   2.042   2.715
 8169SOL     OW25405   4.692   3.181   0.984
 8169SOL    HW125406   4.687   3.139   1.074
 8169SOL    HW225407   4.732   3.272   0.991
 8170SOL     OW25408   1.693   5.654   3.280
 8170SOL    HW125409   1.617   5.667   3.344
 8170SOL    HW225410   1.778   5.685   3.324
 8171SOL     OW25411   0.692   2.108   6.576
 8171SOL    HW125412   0.718   2.099   6.480
 8171SOL    HW225413   0.614   2.169   6.584
 8172SOL     OW25414   0.245   0.936   0.887
 8172SOL    HW125415   0.239   0.864   0.956
 8172SOL    HW225416   0.260   0.895   0.797
 8173SOL     OW25417   3.214   2.096   0.085
 8173SOL    HW125418   3.226   2.104   7.007
 8173SOL    HW225419   3.184   2.004   0.108
 8174SOL     OW25420   5.364   2.027   1.028
 8174SOL    HW125421   5.325   1.936   1.044
 8174SOL    HW225422   5.302   2.096   1.066
 8175SOL     OW25423   0.228   2.639   6.658
 8175SOL    HW125424   0.326   2.658   6.660
 8175SOL    HW225425   0.178   2.715   6.700
 8176SOL     OW25426   2.639   5.702   2.233
 8176SOL    HW125427   2.604   5.609   2.228
 8176SOL    HW225428   2.566   5.767   2.213
 8177SOL     OW25429   1.554   5.712   3.523
 8177SOL    HW125430   1.590   5.805   3.527
 8177SOL    HW225431   1.460   5.714   3.487
 8178SOL     OW25432   1.452   0.236   5.782
 8178SOL    HW125433   1.396   0.217   5.862
 8178SOL    HW225434   1.450   0.157   5.721
 8179SOL     OW25435   3.857   3.586   7.009
 8179SOL    HW125436   3.874   3.501   0.039
 8179SOL    HW225437   3.943   3.621   6.973
 8180SOL     OW25438   6.492   6.933   3.828
 8180SOL    HW125439   6.470   0.004   3.859
 8180SOL    HW225440   6.504   6.932   3.729
 8181SOL     OW25441   2.435   2.159   2.757
 8181SOL    HW125442   2.351   2.114   2.728
 8181SOL    HW225443   2.453   2.237   2.696
 8182SOL     OW25444   3.384   2.149   6.368
 8182SOL    HW125445   3.345   2.231   6.325
 8182SOL    HW225446   3.416   2.086   6.297
 8183SOL     OW25447   0.770   3.085   5.338
 8183SOL    HW125448   0.767   3.149   5.262
 8183SOL    HW225449   0.679   3.047   5.353
 8184SOL     OW25450   6.204   1.379   5.849
 8184SOL    HW125451   6.264   1.457   5.828
 8184SOL    HW225452   6.240   1.329   5.927
 8185SOL     OW25453   2.969   0.479   0.570
 8185SOL    HW125454   3.064   0.498   0.595
 8185SOL    HW225455   2.948   0.384   0.589
 8186SOL     OW25456   3.445   6.184   5.816
 8186SOL    HW125457   3.540   6.171   5.788
 8186SOL    HW225458   3.400   6.095   5.824
 8187SOL     OW25459   1.350   1.713   5.038
 8187SOL    HW125460   1.280   1.779   5.009
 8187SOL    HW225461   1.410   1.756   5.105
 8188SOL     OW25462   4.913   1.826   2.863
 8188SOL    HW125463   4.921   1.900   2.797
 8188SOL    HW225464   4.876   1.862   2.949
 8189SOL     OW25465   5.089   4.157   2.343
 8189SOL    HW125466   4.998   4.145   2.304
 8189SOL    HW225467   5.117   4.072   2.389
 8190SOL     OW25468   5.554   4.374   4.117
 8190SOL    HW125469   5.636   4.430   4.102
 8190SOL    HW225470   5.580   4.290   4.165
 8191SOL     OW25471   1.888   5.142   3.607
 8191SOL    HW125472   1.889   5.074   3.533
 8191SOL    HW225473   1.847   5.101   3.689
 8192SOL     OW25474   2.906   5.459   0.498
 8192SOL    HW125475   2.840   5.438   0.570
 8192SOL    HW225476   2.881   5.410   0.414
 8193SOL     OW25477   6.180   6.405   4.910
 8193SOL    HW125478   6.226   6.435   4.826
 8193SOL    HW225479   6.100   6.463   4.926
 8194SOL     OW25480   6.519   2.383   0.304
 8194SOL    HW125481   6.475   2.396   0.392
 8194SOL    HW225482   6.496   2.458   0.243
 8195SOL     OW25483   0.320   0.618   0.846
 8195SOL    HW125484   0.254   0.650   0.914
 8195SOL    HW225485   0.272   0.585   0.765
 8196SOL     OW25486   4.080   6.517   5.532
 8196SOL    HW125487   4.021   6.436   5.529
 8196SOL    HW225488   4.116   6.535   5.440
 8197SOL     OW25489   6.107   1.111   6.349
 8197SOL    HW125490   6.113   1.188   6.285
 8197SOL    HW225491   6.199   1.086   6.381
 8198SOL     OW25492   2.634   6.800   2.593
 8198SOL    HW125493   2.621   6.863   2.670
 8198SOL    HW225494   2.546   6.781   2.550
 8199SOL     OW25495   0.235   3.724   0.253
 8199SOL    HW125496   0.229   3.811   0.204
 8199SOL    HW225497   0.187   3.732   0.340
 8200SOL     OW25498   4.384   5.306   1.292
 8200SOL    HW125499   4.464   5.246   1.291
 8200SOL    HW225500   4.390   5.368   1.370
 8201SOL     OW25501   5.065   1.173   4.525
 8201SOL    HW125502   5.116   1.099   4.567
 8201SOL    HW225503   4.977   1.139   4.492
 8202SOL     OW25504   1.845   5.249   3.982
 8202SOL    HW125505   1.842   5.171   3.920
 8202SOL    HW225506   1.899   5.226   4.063
 8203SOL     OW25507   4.582   3.644   0.975
 8203SOL    HW125508   4.541   3.633   0.885
 8203SOL    HW225509   4.675   3.681   0.966
 8204SOL     OW25510   3.474   6.420   1.580
 8204SOL    HW125511   3.462   6.374   1.668
 8204SOL    HW225512   3.459   6.355   1.506
 8205SOL     OW25513   5.641   5.171   1.494
 8205SOL    HW125514   5.730   5.172   1.539
 8205SOL    HW225515   5.578   5.113   1.545
 8206SOL     OW25516   3.386   2.562   6.079
 8206SOL    HW125517   3.349   2.582   5.988
 8206SOL    HW225518   3.426   2.645   6.118
 8207SOL     OW25519   2.938   4.770   5.595
 8207SOL    HW125520   2.851   4.774   5.545
 8207SOL    HW225521   2.922   4.794   5.691
 8208SOL     OW25522   2.249   5.956   2.004
 8208SOL    HW125523   2.325   5.953   2.069
 8208SOL    HW225524   2.265   6.032   1.939
 8209SOL     OW25525   1.699   1.060   5.507
 8209SOL    HW125526   1.697   1.059   5.607
 8209SOL    HW225527   1.663   0.973   5.473
 8210SOL     OW25528   2.610   0.967   0.611
 8210SOL    HW125529   2.580   0.913   0.533
 8210SOL    HW225530   2.706   0.946   0.632
 8211SOL     OW25531   3.562   4.187   4.593
 8211SOL    HW125532   3.532   4.232   4.678
 8211SOL    HW225533   3.482   4.164   4.538
 8212SOL     OW25534   2.241   0.084   0.923
 8212SOL    HW125535   2.150   0.048   0.902
 8212SOL    HW225536   2.246   0.104   1.021
 8213SOL     OW25537   4.174   5.082   2.933
 8213SOL    HW125538   4.253   5.061   2.990
 8213SOL    HW225539   4.157   5.006   2.870
 8214SOL     OW25540   2.543   5.813   3.808
 8214SOL    HW125541   2.474   5.803   3.880
 8214SOL    HW225542   2.502   5.788   3.720
 8215SOL     OW25543   4.045   6.499   6.831
 8215SOL    HW125544   4.128   6.544   6.863
 8215SOL    HW225545   3.966   6.559   6.846
 8216SOL     OW25546   4.920   6.353   2.957
 8216SOL    HW125547   5.012   6.363   2.919
 8216SOL    HW225548   4.865   6.294   2.897
 8217SOL     OW25549   2.208   3.987   3.083
 8217SOL    HW125550   2.149   4.036   3.019
 8217SOL    HW225551   2.224   3.894   3.050
 8218SOL     OW25552   1.879   0.567   4.755
 8218SOL    HW125553   1.884   0.482   4.808
 8218SOL    HW225554   1.854   0.545   4.661
 8219SOL     OW25555   3.413   3.921   1.939
 8219SOL    HW125556   3.365   3.994   1.890
 8219SOL    HW225557   3.347   3.852   1.968
 8220SOL     OW25558   3.342   4.281   5.234
 8220SOL    HW125559   3.257   4.334   5.228
 8220SOL    HW225560   3.335   4.218   5.312
 8221SOL     OW25561   6.053   3.752   3.078
 8221SOL    HW125562   6.045   3.769   2.980
 8221SOL    HW225563   6.086   3.659   3.093
 8222SOL     OW25564   6.502   3.187   1.391
 8222SOL    HW125565   6.403   3.197   1.384
 8222SOL    HW225566   6.529   3.095   1.364
 8223SOL     OW25567   0.115   5.809   5.328
 8223SOL    HW125568   0.087   5.824   5.422
 8223SOL    HW225569   0.081   5.720   5.297
 8224SOL     OW25570   5.050   1.811   0.756
 8224SOL    HW125571   5.023   1.791   0.662
 8224SOL    HW225572   5.116   1.743   0.788
 8225SOL     OW25573   4.160   0.598   6.763
 8225SOL    HW125574   4.110   0.637   6.840
 8225SOL    HW225575   4.120   0.509   6.739
 8226SOL     OW25576   3.579   0.442   0.002
 8226SOL    HW125577   3.576   0.512   0.074
 8226SOL    HW225578   3.656   0.460   6.964
 8227SOL     OW25579   5.185   1.465   3.199
 8227SOL    HW125580   5.102   1.471   3.254
 8227SOL    HW225581   5.253   1.410   3.248
 8228SOL     OW25582   0.565   1.151   5.129
 8228SOL    HW125583   0.473   1.190   5.116
 8228SOL    HW225584   0.578   1.126   5.225
 8229SOL     OW25585   3.807   4.712   1.352
 8229SOL    HW125586   3.826   4.614   1.345
 8229SOL    HW225587   3.892   4.763   1.341
 8230SOL     OW25588   4.344   0.532   5.849
 8230SOL    HW125589   4.373   0.623   5.877
 8230SOL    HW225590   4.393   0.463   5.902
 8231SOL     OW25591   3.415   0.948   1.846
 8231SOL    HW125592   3.347   0.931   1.774
 8231SOL    HW225593   3.394   1.035   1.891
 8232SOL     OW25594   4.467   1.031   2.295
 8232SOL    HW125595   4.383   1.026   2.350
 8232SOL    HW225596   4.489   1.127   2.277
 8233SOL     OW25597   0.619   1.091   5.394
 8233SOL    HW125598   0.619   1.122   5.489
 8233SOL    HW225599   0.553   1.017   5.382
 8234SOL     OW25600   2.468   3.835   6.919
 8234SOL    HW125601   2.558   3.879   6.918
 8234SOL    HW225602   2.476   3.745   6.962
 8235SOL     OW25603   6.970   5.055   6.769
 8235SOL    HW125604   7.015   4.969   6.747
 8235SOL    HW225605   0.014   5.118   6.811
 8236SOL     OW25606   0.288   6.085   6.077
 8236SOL    HW125607   0.326   6.055   5.989
 8236SOL    HW225608   0.359   6.083   6.147
 8237SOL     OW25609   4.874   5.600   6.231
 8237SOL    HW125610   4.898   5.597   6.328
 8237SOL    HW225611   4.958   5.597   6.176
 8238SOL     OW25612   2.839   5.133   0.441
 8238SOL    HW125613   2.838   5.189   0.524
 8238SOL    HW225614   2.880   5.186   0.366
 8239SOL     OW25615   1.016   1.562   4.904
 8239SOL    HW125616   1.062   1.478   4.935
 8239SOL    HW225617   1.020   1.630   4.977
 8240SOL     OW25618   3.994   3.283   4.446
 8240SOL    HW125619   4.003   3.332   4.533
 8240SOL    HW225620   3.938   3.201   4.459
 8241SOL     OW25621   1.113   3.050   6.651
 8241SOL    HW125622   1.208   3.060   6.681
 8241SOL    HW225623   1.052   3.057   6.730
 8242SOL     OW25624   1.156   3.774   4.498
 8242SOL    HW125625   1.127   3.869   4.511
 8242SOL    HW225626   1.083   3.713   4.527
 8243SOL     OW25627   0.747   4.579   5.974
 8243SOL    HW125628   0.798   4.606   5.893
 8243SOL    HW225629   0.749   4.479   5.982
 8244SOL     OW25630   0.886   0.340   3.696
 8244SOL    HW125631   0.834   0.274   3.749
 8244SOL    HW225632   0.870   0.325   3.599
 8245SOL     OW25633   5.043   1.282   4.289
 8245SOL    HW125634   5.065   1.240   4.377
 8245SOL    HW225635   5.096   1.365   4.277
 8246SOL     OW25636   1.026   4.069   6.454
 8246SOL    HW125637   1.048   3.973   6.473
 8246SOL    HW225638   1.095   4.128   6.495
 8247SOL     OW25639   3.142   5.033   3.591
 8247SOL    HW125640   3.082   4.996   3.519
 8247SOL    HW225641   3.230   4.986   3.588
 8248SOL     OW25642   0.496   5.513   2.851
 8248SOL    HW125643   0.556   5.590   2.831
 8248SOL    HW225644   0.547   5.427   2.842
 8249SOL     OW25645   2.046   2.015   5.661
 8249SOL    HW125646   2.029   2.013   5.562
 8249SOL    HW225647   2.024   1.926   5.700
 8250SOL     OW25648   2.042   1.702   6.634
 8250SOL    HW125649   2.115   1.681   6.699
 8250SOL    HW225650   1.998   1.618   6.604
 8251SOL     OW25651   0.350   2.965   5.040
 8251SOL    HW125652   0.408   2.905   5.095
 8251SOL    HW225653   0.406   3.036   4.997
 8252SOL     OW25654   2.420   2.754   6.391
 8252SOL    HW125655   2.377   2.768   6.302
 8252SOL    HW225656   2.502   2.698   6.381
 8253SOL     OW25657   3.788   5.541   6.698
 8253SOL    HW125658   3.837   5.497   6.773
 8253SOL    HW225659   3.784   5.639   6.713
 8254SOL     OW25660   5.502   5.220   0.587
 8254SOL    HW125661   5.540   5.290   0.647
 8254SOL    HW225662   5.412   5.248   0.555
 8255SOL     OW25663   0.331   0.457   6.107
 8255SOL    HW125664   0.421   0.432   6.072
 8255SOL    HW225665   0.325   0.557   6.114
 8256SOL     OW25666   1.121   6.516   2.450
 8256SOL    HW125667   1.146   6.613   2.440
 8256SOL    HW225668   1.056   6.506   2.525
 8257SOL     OW25669   5.265   4.173   4.051
 8257SOL    HW125670   5.306   4.195   3.962
 8257SOL    HW225671   5.208   4.091   4.042
 8258SOL     OW25672   5.704   3.133   1.361
 8258SOL    HW125673   5.719   3.062   1.292
 8258SOL    HW225674   5.667   3.092   1.444
 8259SOL     OW25675   4.541   2.520   4.457
 8259SOL    HW125676   4.640   2.504   4.455
 8259SOL    HW225677   4.517   2.572   4.538
 8260SOL     OW25678   2.455   0.240   0.396
 8260SOL    HW125679   2.390   0.309   0.428
 8260SOL    HW225680   2.467   0.249   0.297
 8261SOL     OW25681   5.562   6.404   2.900
 8261SOL    HW125682   5.617   6.410   2.983
 8261SOL    HW225683   5.603   6.338   2.838
 8262SOL     OW25684   0.611   4.456   0.626
 8262SOL    HW125685   0.524   4.420   0.661
 8262SOL    HW225686   0.683   4.390   0.642
 8263SOL     OW25687   6.854   2.071   6.953
 8263SOL    HW125688   6.803   2.155   6.974
 8263SOL    HW225689   6.800   1.991   6.980
 8264SOL     OW25690   1.802   0.295   2.123
 8264SOL    HW125691   1.878   0.360   2.118
 8264SOL    HW225692   1.836   0.203   2.103
 8265SOL     OW25693   4.818   0.457   1.028
 8265SOL    HW125694   4.802   0.424   0.934
 8265SOL    HW225695   4.740   0.512   1.057
 8266SOL     OW25696   2.558   6.741   3.559
 8266SOL    HW125697   2.605   6.822   3.525
 8266SOL    HW225698   2.579   6.727   3.656
 8267SOL     OW25699   1.204   4.394   2.583
 8267SOL    HW125700   1.271   4.447   2.532
 8267SOL    HW225701   1.152   4.455   2.643
 8268SOL     OW25702   3.416   3.827   6.747
 8268SOL    HW125703   3.400   3.890   6.824
 8268SOL    HW225704   3.351   3.847   6.674
 8269SOL     OW25705   4.338   2.357   2.905
 8269SOL    HW125706   4.374   2.450   2.895
 8269SOL    HW225707   4.354   2.306   2.821
 8270SOL     OW25708   3.931   6.913   5.192
 8270SOL    HW125709   3.952   6.980   5.263
 8270SOL    HW225710   3.832   6.897   5.190
 8271SOL     OW25711   5.246   6.253   4.576
 8271SOL    HW125712   5.234   6.337   4.523
 8271SOL    HW225713   5.189   6.180   4.537
 8272SOL     OW25714   0.523   0.353   2.178
 8272SOL    HW125715   0.615   0.381   2.204
 8272SOL    HW225716   0.481   0.424   2.121
 8273SOL     OW25717   2.410   6.397   0.068
 8273SOL    HW125718   2.420   6.493   0.042
 8273SOL    HW225719   2.470   6.340   0.013
 8274SOL     OW25720   5.012   5.342   6.966
 8274SOL    HW125721   4.953   5.423   6.977
 8274SOL    HW225722   5.009   5.287   0.028
 8275SOL     OW25723   6.862   0.467   4.112
 8275SOL    HW125724   6.819   0.443   4.199
 8275SOL    HW225725   6.792   0.503   4.050
 8276SOL     OW25726   6.759   2.744   6.400
 8276SOL    HW125727   6.702   2.715   6.323
 8276SOL    HW225728   6.855   2.725   6.380
 8277SOL     OW25729   1.379   6.051   5.766
 8277SOL    HW125730   1.288   6.009   5.765
 8277SOL    HW225731   1.415   6.054   5.673
 8278SOL     OW25732   3.587   2.131   6.545
 8278SOL    HW125733   3.552   2.098   6.632
 8278SOL    HW225734   3.511   2.151   6.484
 8279SOL     OW25735   4.460   6.235   6.402
 8279SOL    HW125736   4.413   6.322   6.386
 8279SOL    HW225737   4.542   6.230   6.345
 8280SOL     OW25738   5.152   2.522   0.910
 8280SOL    HW125739   5.059   2.545   0.882
 8280SOL    HW225740   5.203   2.605   0.932
 8281SOL     OW25741   1.427   4.931   0.410
 8281SOL    HW125742   1.341   4.976   0.386
 8281SOL    HW225743   1.426   4.906   0.507
 8282SOL     OW25744   3.055   3.004   1.230
 8282SOL    HW125745   3.010   3.049   1.153
 8282SOL    HW225746   3.150   2.983   1.206
 8283SOL     OW25747   0.572   4.798   3.843
 8283SOL    HW125748   0.563   4.857   3.923
 8283SOL    HW225749   0.486   4.751   3.825
 8284SOL     OW25750   2.401   2.205   2.090
 8284SOL    HW125751   2.487   2.153   2.091
 8284SOL    HW225752   2.371   2.216   1.995
 8285SOL     OW25753   3.243   4.556   5.925
 8285SOL    HW125754   3.155   4.520   5.893
 8285SOL    HW225755   3.237   4.655   5.935
 8286SOL     OW25756   5.227   0.980   4.602
 8286SOL    HW125757   5.271   1.014   4.686
 8286SOL    HW225758   5.233   0.880   4.599
 8287SOL     OW25759   1.309   0.277   3.680
 8287SOL    HW125760   1.398   0.315   3.654
 8287SOL    HW225761   1.265   0.337   3.746
 8288SOL     OW25762   1.782   1.794   2.212
 8288SOL    HW125763   1.715   1.862   2.182
 8288SOL    HW225764   1.873   1.821   2.180
 8289SOL     OW25765   6.446   2.074   5.452
 8289SOL    HW125766   6.394   2.158   5.465
 8289SOL    HW225767   6.542   2.095   5.437
 8290SOL     OW25768   3.644   2.589   1.737
 8290SOL    HW125769   3.650   2.500   1.781
 8290SOL    HW225770   3.707   2.652   1.781
 8291SOL     OW25771   6.095   6.796   6.434
 8291SOL    HW125772   6.086   6.737   6.354
 8291SOL    HW225773   6.192   6.815   6.451
 8292SOL     OW25774   0.850   4.557   5.387
 8292SOL    HW125775   0.818   4.598   5.472
 8292SOL    HW225776   0.948   4.539   5.393
 8293SOL     OW25777   2.611   5.180   2.341
 8293SOL    HW125778   2.611   5.086   2.374
 8293SOL    HW225779   2.699   5.201   2.299
 8294SOL     OW25780   6.676   3.650   6.338
 8294SOL    HW125781   6.588   3.604   6.344
 8294SOL    HW225782   6.750   3.582   6.340
 8295SOL     OW25783   5.176   4.152   2.911
 8295SOL    HW125784   5.107   4.086   2.942
 8295SOL    HW225785   5.243   4.105   2.853
 8296SOL     OW25786   3.152   5.453   0.631
 8296SOL    HW125787   3.058   5.454   0.596
 8296SOL    HW225788   3.215   5.449   0.554
 8297SOL     OW25789   6.380   4.303   2.805
 8297SOL    HW125790   6.402   4.397   2.830
 8297SOL    HW225791   6.302   4.271   2.859
 8298SOL     OW25792   0.491   0.875   0.091
 8298SOL    HW125793   0.480   0.798   0.155
 8298SOL    HW225794   0.583   0.873   0.053
 8299SOL     OW25795   0.412   3.741   1.704
 8299SOL    HW125796   0.450   3.834   1.703
 8299SOL    HW225797   0.454   3.689   1.778
 8300SOL     OW25798   6.367   5.058   3.621
 8300SOL    HW125799   6.299   5.121   3.585
 8300SOL    HW225800   6.347   5.038   3.717
 8301SOL     OW25801   3.673   6.571   0.552
 8301SOL    HW125802   3.764   6.581   0.512
 8301SOL    HW225803   3.605   6.566   0.478
 8302SOL     OW25804   3.610   6.288   4.041
 8302SOL    HW125805   3.520   6.329   4.058
 8302SOL    HW225806   3.670   6.356   3.999
 8303SOL     OW25807   6.250   6.995   2.228
 8303SOL    HW125808   6.329   6.934   2.236
 8303SOL    HW225809   6.176   6.961   2.287
 8304SOL     OW25810   5.822   3.670   3.674
 8304SOL    HW125811   5.838   3.578   3.638
 8304SOL    HW225812   5.766   3.663   3.757
 8305SOL     OW25813   4.603   5.381   3.914
 8305SOL    HW125814   4.695   5.345   3.931
 8305SOL    HW225815   4.568   5.346   3.827
 8306SOL     OW25816   6.186   1.184   2.447
 8306SOL    HW125817   6.184   1.090   2.413
 8306SOL    HW225818   6.226   1.244   2.377
 8307SOL     OW25819   1.904   4.904   1.838
 8307SOL    HW125820   1.824   4.916   1.779
 8307SOL    HW225821   1.883   4.839   1.911
 8308SOL     OW25822   0.827   4.958   6.943
 8308SOL    HW125823   0.866   4.903   6.870
 8308SOL    HW225824   0.856   4.922   0.010
 8309SOL     OW25825   6.868   4.103   4.679
 8309SOL    HW125826   6.772   4.080   4.661
 8309SOL    HW225827   6.910   4.029   4.732
 8310SOL     OW25828   0.499   6.879   0.683
 8310SOL    HW125829   0.525   6.972   0.710
 8310SOL    HW225830   0.578   6.818   0.692
 8311SOL     OW25831   5.912   6.486   3.894
 8311SOL    HW125832   5.958   6.544   3.828
 8311SOL    HW225833   5.901   6.394   3.856
 8312SOL     OW25834   4.827   0.282   6.870
 8312SOL    HW125835   4.773   0.357   6.831
 8312SOL    HW225836   4.909   0.319   6.913
 8313SOL     OW25837   4.331   0.731   4.875
 8313SOL    HW125838   4.238   0.757   4.901
 8313SOL    HW225839   4.331   0.638   4.837
 8314SOL     OW25840   5.652   6.352   5.629
 8314SOL    HW125841   5.614   6.304   5.708
 8314SOL    HW225842   5.579   6.397   5.579
 8315SOL     OW25843   3.588   3.036   4.749
 8315SOL    HW125844   3.494   3.019   4.778
 8315SOL    HW225845   3.651   2.984   4.807
 8316SOL     OW25846   0.802   2.704   0.421
 8316SOL    HW125847   0.791   2.606   0.436
 8316SOL    HW225848   0.774   2.726   0.328
 8317SOL     OW25849   1.952   1.843   4.218
 8317SOL    HW125850   1.903   1.906   4.280
 8317SOL    HW225851   1.971   1.890   4.132
 8318SOL     OW25852   3.854   0.339   6.505
 8318SOL    HW125853   3.935   0.340   6.564
 8318SOL    HW225854   3.781   0.393   6.547
 8319SOL     OW25855   1.532   7.000   5.999
 8319SOL    HW125856   1.570   0.030   6.076
 8319SOL    HW225857   1.444   0.018   5.973
 8320SOL     OW25858   3.661   3.886   4.679
 8320SOL    HW125859   3.651   3.867   4.776
 8320SOL    HW225860   3.728   3.960   4.666
 8321SOL     OW25861   0.240   6.968   0.126
 8321SOL    HW125862   0.170   6.897   0.122
 8321SOL    HW225863   0.196   0.036   0.128
 8322SOL     OW25864   6.638   1.076   0.132
 8322SOL    HW125865   6.628   1.046   0.037
 8322SOL    HW225866   6.581   1.018   0.191
 8323SOL     OW25867   4.863   4.774   0.982
 8323SOL    HW125868   4.848   4.729   0.895
 8323SOL    HW225869   4.819   4.721   1.055
 8324SOL     OW25870   6.794   7.018   6.664
 8324SOL    HW125871   6.813   6.939   6.606
 8324SOL    HW225872   6.788   0.078   6.608
 8325SOL     OW25873   1.723   5.806   4.562
 8325SOL    HW125874   1.708   5.897   4.601
 8325SOL    HW225875   1.636   5.758   4.556
 8326SOL     OW25876   2.570   3.821   0.362
 8326SOL    HW125877   2.591   3.918   0.372
 8326SOL    HW225878   2.507   3.793   0.434
 8327SOL     OW25879   0.622   0.762   5.070
 8327SOL    HW125880   0.552   0.797   5.007
 8327SOL    HW225881   0.582   0.688   5.125
 8328SOL     OW25882   0.732   6.509   5.937
 8328SOL    HW125883   0.817   6.549   5.971
 8328SOL    HW225884   0.659   6.577   5.941
 8329SOL     OW25885   0.606   3.061   4.908
 8329SOL    HW125886   0.630   3.112   4.990
 8329SOL    HW225887   0.688   3.046   4.853
 8330SOL     OW25888   3.620   0.754   6.767
 8330SOL    HW125889   3.720   0.753   6.758
 8330SOL    HW225890   3.589   0.848   6.778
 8331SOL     OW25891   2.006   1.974   0.144
 8331SOL    HW125892   1.924   1.948   0.195
 8331SOL    HW225893   1.983   1.983   0.047
 8332SOL     OW25894   5.462   4.909   1.899
 8332SOL    HW125895   5.484   4.813   1.912
 8332SOL    HW225896   5.369   4.926   1.931
 8333SOL     OW25897   2.156   4.719   1.174
 8333SOL    HW125898   2.152   4.816   1.149
 8333SOL    HW225899   2.249   4.685   1.160
 8334SOL     OW25900   2.789   2.524   6.410
 8334SOL    HW125901   2.755   2.545   6.502
 8334SOL    HW225902   2.718   2.547   6.343
 8335SOL     OW25903   4.931   2.993   6.567
 8335SOL    HW125904   4.834   3.019   6.573
 8335SOL    HW225905   4.959   2.993   6.471
 8336SOL     OW25906   1.319   3.502   3.253
 8336SOL    HW125907   1.301   3.473   3.348
 8336SOL    HW225908   1.237   3.544   3.215
 8337SOL     OW25909   0.866   1.290   4.446
 8337SOL    HW125910   0.777   1.317   4.483
 8337SOL    HW225911   0.911   1.370   4.406
 8338SOL     OW25912   3.830   4.833   2.093
 8338SOL    HW125913   3.788   4.867   2.177
 8338SOL    HW225914   3.770   4.766   2.050
 8339SOL     OW25915   0.024   0.609   0.703
 8339SOL    HW125916   0.025   0.705   0.676
 8339SOL    HW225917   0.021   0.552   0.621
 8340SOL     OW25918   4.887   2.194   1.044
 8340SOL    HW125919   4.881   2.202   0.944
 8340SOL    HW225920   4.815   2.250   1.086
 8341SOL     OW25921   3.583   0.173   0.115
 8341SOL    HW125922   3.648   0.121   0.060
 8341SOL    HW225923   3.573   0.265   0.076
 8342SOL     OW25924   3.827   6.226   6.629
 8342SOL    HW125925   3.879   6.245   6.712
 8342SOL    HW225926   3.858   6.140   6.589
 8343SOL     OW25927   6.905   4.255   3.907
 8343SOL    HW125928   6.966   4.180   3.881
 8343SOL    HW225929   6.810   4.223   3.909
 8344SOL     OW25930   0.820   5.300   4.348
 8344SOL    HW125931   0.875   5.218   4.364
 8344SOL    HW225932   0.731   5.274   4.310
 8345SOL     OW25933   5.032   0.938   2.735
 8345SOL    HW125934   5.128   0.934   2.705
 8345SOL    HW225935   5.016   1.024   2.784
 8346SOL     OW25936   4.275   3.305   5.685
 8346SOL    HW125937   4.201   3.360   5.724
 8346SOL    HW225938   4.279   3.216   5.730
 8347SOL     OW25939   2.255   0.061   5.865
 8347SOL    HW125940   2.338   0.071   5.920
 8347SOL    HW225941   2.268   0.103   5.776
 8348SOL     OW25942   3.957   6.482   1.493
 8348SOL    HW125943   3.966   6.386   1.467
 8348SOL    HW225944   3.919   6.488   1.585
 8349SOL     OW25945   1.007   6.420   2.224
 8349SOL    HW125946   0.966   6.340   2.268
 8349SOL    HW225947   1.052   6.477   2.294
 8350SOL     OW25948   2.909   0.057   6.081
 8350SOL    HW125949   2.834   7.015   6.099
 8350SOL    HW225950   2.873   0.139   6.036
 8351SOL     OW25951   6.609   4.443   4.467
 8351SOL    HW125952   6.657   4.378   4.408
 8351SOL    HW225953   6.554   4.505   4.411
 8352SOL     OW25954   2.558   5.955   1.766
 8352SOL    HW125955   2.634   5.968   1.702
 8352SOL    HW225956   2.481   6.014   1.739
 8353SOL     OW25957   1.055   3.900   1.997
 8353SOL    HW125958   1.074   3.802   2.000
 8353SOL    HW225959   1.139   3.951   2.016
 8354SOL     OW25960   3.569   6.663   4.193
 8354SOL    HW125961   3.591   6.750   4.235
 8354SOL    HW225962   3.563   6.674   4.094
 8355SOL     OW25963   1.308   6.630   6.112
 8355SOL    HW125964   1.297   6.727   6.134
 8355SOL    HW225965   1.260   6.574   6.180
 8356SOL     OW25966   1.912   5.397   1.408
 8356SOL    HW125967   1.981   5.435   1.346
 8356SOL    HW225968   1.877   5.311   1.370
 8357SOL     OW25969   4.118   5.509   5.704
 8357SOL    HW125970   4.160   5.444   5.640
 8357SOL    HW225971   4.029   5.537   5.669
 8358SOL     OW25972   1.254   2.317   5.190
 8358SOL    HW125973   1.161   2.349   5.168
 8358SOL    HW225974   1.264   2.310   5.289
 8359SOL     OW25975   3.087   0.946   5.026
 8359SOL    HW125976   2.994   0.911   5.022
 8359SOL    HW225977   3.128   0.922   5.114
 8360SOL     OW25978   5.076   6.485   0.518
 8360SOL    HW125979   5.092   6.583   0.519
 8360SOL    HW225980   5.016   6.460   0.594
 8361SOL     OW25981   2.442   6.803   6.628
 8361SOL    HW125982   2.422   6.899   6.647
 8361SOL    HW225983   2.361   6.759   6.590
 8362SOL     OW25984   6.470   2.807   0.665
 8362SOL    HW125985   6.372   2.815   0.687
 8362SOL    HW225986   6.515   2.895   0.680
 8363SOL     OW25987   4.081   2.251   0.777
 8363SOL    HW125988   4.040   2.231   0.688
 8363SOL    HW225989   4.022   2.214   0.849
 8364SOL     OW25990   0.487   2.541   3.471
 8364SOL    HW125991   0.446   2.631   3.457
 8364SOL    HW225992   0.455   2.503   3.558
 8365SOL     OW25993   2.087   2.584   1.992
 8365SOL    HW125994   2.033   2.514   2.037
 8365SOL    HW225995   2.141   2.634   2.060
 8366SOL     OW25996   4.422   5.710   0.709
 8366SOL    HW125997   4.449   5.621   0.672
 8366SOL    HW225998   4.351   5.750   0.652
 8367SOL     OW25999   3.859   5.232   5.211
 8367SOL    HW126000   3.951   5.271   5.210
 8367SOL    HW226001   3.797   5.291   5.159
 8368SOL     OW26002   1.186   6.175   0.349
 8368SOL    HW126003   1.250   6.228   0.294
 8368SOL    HW226004   1.141   6.106   0.292
 8369SOL     OW26005   1.148   1.655   0.716
 8369SOL    HW126006   1.210   1.723   0.755
 8369SOL    HW226007   1.070   1.642   0.777
 8370SOL     OW26008   3.035   1.815   6.934
 8370SOL    HW126009   3.058   1.808   0.009
 8370SOL    HW226010   3.118   1.823   6.880
 8371SOL     OW26011   1.348   3.234   5.649
 8371SOL    HW126012   1.335   3.150   5.703
 8371SOL    HW226013   1.426   3.285   5.687
 8372SOL     OW26014   2.163   6.818   2.385
 8372SOL    HW126015   2.107   6.878   2.442
 8372SOL    HW226016   2.120   6.728   2.380
 8373SOL     OW26017   0.556   1.433   4.303
 8373SOL    HW126018   0.640   1.416   4.353
 8373SOL    HW226019   0.547   1.366   4.229
 8374SOL     OW26020   1.201   1.081   4.533
 8374SOL    HW126021   1.190   1.084   4.633
 8374SOL    HW226022   1.220   1.172   4.499
 8375SOL     OW26023   4.467   0.800   5.835
 8375SOL    HW126024   4.458   0.897   5.813
 8375SOL    HW226025   4.542   0.787   5.900
 8376SOL     OW26026   1.554   0.844   3.332
 8376SOL    HW126027   1.613   0.831   3.411
 8376SOL    HW226028   1.544   0.942   3.314
 8377SOL     OW26029   5.669   5.492   6.870
 8377SOL    HW126030   5.736   5.422   6.844
 8377SOL    HW226031   5.582   5.474   6.824
 8378SOL     OW26032   5.326   5.613   3.508
 8378SOL    HW126033   5.373   5.696   3.541
 8378SOL    HW226034   5.290   5.630   3.417
 8379SOL     OW26035   5.280   1.873   2.150
 8379SOL    HW126036   5.293   1.942   2.222
 8379SOL    HW226037   5.332   1.899   2.069
 8380SOL     OW26038   0.110   5.728   6.536
 8380SOL    HW126039   0.031   5.784   6.514
 8380SOL    HW226040   0.194   5.783   6.527
 8381SOL     OW26041   6.895   2.139   2.508
 8381SOL    HW126042   6.967   2.089   2.460
 8381SOL    HW226043   6.930   2.171   2.596
 8382SOL     OW26044   2.485   0.238   6.896
 8382SOL    HW126045   2.483   0.329   6.854
 8382SOL    HW226046   2.568   0.190   6.868
 8383SOL     OW26047   2.691   0.037   4.309
 8383SOL    HW126048   2.675   0.135   4.305
 8383SOL    HW226049   2.615   7.010   4.265
 8384SOL     OW26050   6.806   2.012   1.269
 8384SOL    HW126051   6.728   2.053   1.221
 8384SOL    HW226052   6.773   1.948   1.338
 8385SOL     OW26053   4.878   3.312   0.688
 8385SOL    HW126054   4.936   3.275   0.761
 8385SOL    HW226055   4.854   3.240   0.623
 8386SOL     OW26056   1.952   6.747   1.627
 8386SOL    HW126057   1.919   6.839   1.647
 8386SOL    HW226058   1.878   6.681   1.642
 8387SOL     OW26059   2.482   1.597   1.054
 8387SOL    HW126060   2.567   1.634   1.017
 8387SOL    HW226061   2.499   1.557   1.144
 8388SOL     OW26062   2.231   6.554   0.473
 8388SOL    HW126063   2.304   6.507   0.422
 8388SOL    HW226064   2.250   6.653   0.475
 8389SOL     OW26065   1.342   3.277   4.566
 8389SOL    HW126066   1.255   3.326   4.558
 8389SOL    HW226067   1.394   3.290   4.482
 8390SOL     OW26068   2.651   0.467   5.996
 8390SOL    HW126069   2.595   0.518   6.062
 8390SOL    HW226070   2.595   0.441   5.918
 8391SOL     OW26071   5.153   5.548   1.982
 8391SOL    HW126072   5.067   5.592   2.010
 8391SOL    HW226073   5.229   5.591   2.030
 8392SOL     OW26074   6.348   5.685   4.713
 8392SOL    HW126075   6.362   5.648   4.621
 8392SOL    HW226076   6.361   5.613   4.780
 8393SOL     OW26077   6.537   6.903   3.559
 8393SOL    HW126078   6.480   6.890   3.479
 8393SOL    HW226079   6.573   6.814   3.589
 8394SOL     OW26080   0.561   1.529   2.676
 8394SOL    HW126081   0.462   1.518   2.675
 8394SOL    HW226082   0.595   1.508   2.768
 8395SOL     OW26083   0.637   6.279   4.594
 8395SOL    HW126084   0.607   6.292   4.500
 8395SOL    HW226085   0.575   6.216   4.641
 8396SOL     OW26086   4.419   4.530   2.361
 8396SOL    HW126087   4.491   4.527   2.292
 8396SOL    HW226088   4.358   4.607   2.342
 8397SOL     OW26089   1.912   6.799   2.738
 8397SOL    HW126090   1.815   6.802   2.761
 8397SOL    HW226091   1.929   6.850   2.654
 8398SOL     OW26092   3.988   1.656   0.101
 8398SOL    HW126093   4.077   1.686   0.069
 8398SOL    HW226094   3.979   1.674   0.199
 8399SOL     OW26095   5.860   5.930   1.066
 8399SOL    HW126096   5.773   5.933   1.016
 8399SOL    HW226097   5.860   6.003   1.135
 8400SOL     OW26098   0.163   0.451   2.666
 8400SOL    HW126099   0.127   0.363   2.699
 8400SOL    HW226100   0.243   0.434   2.609
 8401SOL     OW26101   4.326   3.128   6.093
 8401SOL    HW126102   4.304   3.220   6.125
 8401SOL    HW226103   4.259   3.100   6.024
 8402SOL     OW26104   3.665   1.951   5.958
 8402SOL    HW126105   3.625   1.957   5.866
 8402SOL    HW226106   3.764   1.938   5.951
 8403SOL     OW26107   1.273   1.748   3.822
 8403SOL    HW126108   1.300   1.843   3.808
 8403SOL    HW226109   1.351   1.688   3.804
 8404SOL     OW26110   5.365   6.326   5.826
 8404SOL    HW126111   5.314   6.338   5.740
 8404SOL    HW226112   5.331   6.245   5.873
 8405SOL     OW26113   1.381   2.067   6.820
 8405SOL    HW126114   1.298   2.111   6.785
 8405SOL    HW226115   1.449   2.060   6.747
 8406SOL     OW26116   4.366   1.703   0.742
 8406SOL    HW126117   4.451   1.663   0.776
 8406SOL    HW226118   4.367   1.801   0.759
 8407SOL     OW26119   5.657   4.454   4.656
 8407SOL    HW126120   5.715   4.512   4.600
 8407SOL    HW226121   5.575   4.503   4.682
 8408SOL     OW26122   5.011   0.069   3.975
 8408SOL    HW126123   5.081   0.015   3.928
 8408SOL    HW226124   4.986   0.146   3.917
 8409SOL     OW26125   0.533   1.901   3.784
 8409SOL    HW126126   0.580   1.903   3.695
 8409SOL    HW226127   0.569   1.826   3.839
 8410SOL     OW26128   5.395   0.400   1.808
 8410SOL    HW126129   5.379   0.336   1.883
 8410SOL    HW226130   5.432   0.485   1.843
 8411SOL     OW26131   1.259   4.937   3.844
 8411SOL    HW126132   1.319   4.994   3.901
 8411SOL    HW226133   1.179   4.989   3.818
 8412SOL     OW26134   4.601   2.323   1.245
 8412SOL    HW126135   4.596   2.415   1.285
 8412SOL    HW226136   4.629   2.258   1.316
 8413SOL     OW26137   4.049   5.000   0.821
 8413SOL    HW126138   4.038   4.941   0.740
 8413SOL    HW226139   4.074   5.092   0.791
 8414SOL     OW26140   3.756   6.908   2.458
 8414SOL    HW126141   3.754   6.850   2.377
 8414SOL    HW226142   3.672   6.963   2.461
 8415SOL     OW26143   6.884   4.931   3.760
 8415SOL    HW126144   6.794   4.947   3.720
 8415SOL    HW226145   6.876   4.934   3.860
 8416SOL     OW26146   5.219   4.290   2.621
 8416SOL    HW126147   5.247   4.262   2.529
 8416SOL    HW226148   5.298   4.326   2.671
 8417SOL     OW26149   2.535   6.572   5.323
 8417SOL    HW126150   2.571   6.602   5.235
 8417SOL    HW226151   2.592   6.611   5.396
 8418SOL     OW26152   5.480   5.592   2.299
 8418SOL    HW126153   5.461   5.666   2.235
 8418SOL    HW226154   5.549   5.531   2.260
 8419SOL     OW26155   5.087   0.460   1.835
 8419SOL    HW126156   5.065   0.435   1.741
 8419SOL    HW226157   5.181   0.433   1.856
 8420SOL     OW26158   4.586   0.170   0.162
 8420SOL    HW126159   4.590   0.154   0.063
 8420SOL    HW226160   4.516   0.110   0.202
 8421SOL     OW26161   1.987   0.129   1.644
 8421SOL    HW126162   2.026   0.181   1.568
 8421SOL    HW226163   2.055   0.065   1.679
 8422SOL     OW26164   5.634   6.055   0.943
 8422SOL    HW126165   5.697   6.097   0.879
 8422SOL    HW226166   5.541   6.061   0.908
 8423SOL     OW26167   4.042   5.111   7.016
 8423SOL    HW126168   4.031   5.080   6.922
 8423SOL    HW226169   4.138   5.132   0.011
 8424SOL     OW26170   3.542   2.111   2.410
 8424SOL    HW126171   3.564   2.051   2.487
 8424SOL    HW226172   3.445   2.135   2.412
 8425SOL     OW26173   6.847   5.306   1.347
 8425SOL    HW126174   6.925   5.318   1.409
 8425SOL    HW226175   6.872   5.239   1.276
 8426SOL     OW26176   3.879   3.230   3.618
 8426SOL    HW126177   3.877   3.184   3.706
 8426SOL    HW226178   3.966   3.278   3.607
 8427SOL     OW26179   1.629   4.292   5.811
 8427SOL    HW126180   1.692   4.222   5.780
 8427SOL    HW226181   1.676   4.354   5.874
 8428SOL     OW26182   6.860   4.778   1.734
 8428SOL    HW126183   6.871   4.678   1.739
 8428SOL    HW226184   6.784   4.806   1.792
 8429SOL     OW26185   3.140   4.936   4.663
 8429SOL    HW126186   3.220   4.888   4.625
 8429SOL    HW226187   3.057   4.884   4.640
 8430SOL     OW26188   4.553   5.445   2.463
 8430SOL    HW126189   4.536   5.487   2.552
 8430SOL    HW226190   4.517   5.504   2.391
 8431SOL     OW26191   2.964   5.054   1.425
 8431SOL    HW126192   2.898   5.033   1.353
 8431SOL    HW226193   2.965   4.980   1.492
 8432SOL     OW26194   4.483   5.236   6.059
 8432SOL    HW126195   4.513   5.321   6.016
 8432SOL    HW226196   4.438   5.257   6.146
 8433SOL     OW26197   0.957   2.943   7.021
 8433SOL    HW126198   0.969   3.023   6.962
 8433SOL    HW226199   1.039   2.886   7.017
 8434SOL     OW26200   3.914   6.625   5.039
 8434SOL    HW126201   3.816   6.644   5.035
 8434SOL    HW226202   3.963   6.708   5.064
 8435SOL     OW26203   4.706   1.763   1.618
 8435SOL    HW126204   4.664   1.722   1.699
 8435SOL    HW226205   4.764   1.840   1.645
 8436SOL     OW26206   3.895   5.648   3.042
 8436SOL    HW126207   3.925   5.641   2.946
 8436SOL    HW226208   3.815   5.590   3.056
 8437SOL     OW26209   0.571   0.646   1.529
 8437SOL    HW126210   0.572   0.556   1.486
 8437SOL    HW226211   0.601   0.638   1.624
 8438SOL     OW26212   2.965   4.815   2.803
 8438SOL    HW126213   2.966   4.818   2.704
 8438SOL    HW226214   2.884   4.864   2.837
 8439SOL     OW26215   6.337   5.530   1.704
 8439SOL    HW126216   6.428   5.546   1.741
 8439SOL    HW226217   6.269   5.575   1.761
 8440SOL     OW26218   7.012   0.963   2.142
 8440SOL    HW126219   0.088   0.975   2.161
 8440SOL    HW226220   6.966   1.052   2.146
 8441SOL     OW26221   5.548   6.455   0.207
 8441SOL    HW126222   5.636   6.483   0.246
 8441SOL    HW226223   5.478   6.523   0.230
 8442SOL     OW26224   3.495   3.561   6.848
 8442SOL    HW126225   3.466   3.653   6.821
 8442SOL    HW226226   3.539   3.564   6.937
 8443SOL     OW26227   1.081   0.485   3.395
 8443SOL    HW126228   1.064   0.420   3.469
 8443SOL    HW226229   1.098   0.435   3.310
 8444SOL     OW26230   3.435   6.119   3.587
 8444SOL    HW126231   3.404   6.213   3.600
 8444SOL    HW226232   3.439   6.098   3.489
 8445SOL     OW26233   3.308   4.889   2.637
 8445SOL    HW126234   3.275   4.882   2.731
 8445SOL    HW226235   3.299   4.800   2.592
 8446SOL     OW26236   5.136   5.945   2.909
 8446SOL    HW126237   5.117   6.010   2.835
 8446SOL    HW226238   5.218   5.973   2.958
 8447SOL     OW26239   5.696   2.318   2.536
 8447SOL    HW126240   5.627   2.318   2.463
 8447SOL    HW226241   5.714   2.412   2.564
 8448SOL     OW26242   0.317   3.968   6.195
 8448SOL    HW126243   0.324   4.064   6.222
 8448SOL    HW226244   0.359   3.955   6.106
 8449SOL     OW26245   0.289   3.263   4.733
 8449SOL    HW126246   0.276   3.358   4.760
 8449SOL    HW226247   0.380   3.252   4.692
 8450SOL     OW26248   1.868   6.285   2.615
 8450SOL    HW126249   1.856   6.382   2.595
 8450SOL    HW226250   1.789   6.233   2.583
 8451SOL     OW26251   3.975   2.538   0.936
 8451SOL    HW126252   3.993   2.547   0.838
 8451SOL    HW226253   3.967   2.442   0.960
 8452SOL     OW26254   6.618   0.031   1.371
 8452SOL    HW126255   6.578   0.123   1.376
 8452SOL    HW226256   6.595   7.002   1.454
 8453SOL     OW26257   0.076   4.823   6.198
 8453SOL    HW126258   0.033   4.872   6.274
 8453SOL    HW226259   0.160   4.870   6.171
 8454SOL     OW26260   1.436   6.455   2.142
 8454SOL    HW126261   1.424   6.554   2.132
 8454SOL    HW226262   1.443   6.413   2.052
 8455SOL     OW26263   4.828   1.739   1.299
 8455SOL    HW126264   4.862   1.831   1.280
 8455SOL    HW226265   4.896   1.688   1.351
 8456SOL     OW26266   6.044   5.627   3.842
 8456SOL    HW126267   6.138   5.601   3.863
 8456SOL    HW226268   6.031   5.629   3.743
 8457SOL     OW26269   6.829   6.875   5.811
 8457SOL    HW126270   6.885   6.793   5.825
 8457SOL    HW226271   6.778   6.866   5.726
 8458SOL     OW26272   1.900   1.143   6.722
 8458SOL    HW126273   1.879   1.132   6.625
 8458SOL    HW226274   1.999   1.153   6.733
 8459SOL     OW26275   3.897   6.720   1.891
 8459SOL    HW126276   3.847   6.804   1.869
 8459SOL    HW226277   3.995   6.738   1.892
 8460SOL     OW26278   4.121   2.985   6.736
 8460SOL    HW126279   4.083   3.075   6.758
 8460SOL    HW226280   4.112   2.925   6.816
 8461SOL     OW26281   0.562   3.614   1.497
 8461SOL    HW126282   0.529   3.580   1.409
 8461SOL    HW226283   0.490   3.670   1.540
 8462SOL     OW26284   3.918   3.378   0.141
 8462SOL    HW126285   3.876   3.348   0.227
 8462SOL    HW226286   4.001   3.324   0.124
 8463SOL     OW26287   6.923   2.217   0.562
 8463SOL    HW126288   6.906   2.315   0.569
 8463SOL    HW226289   6.857   2.177   0.498
 8464SOL     OW26290   6.912   4.047   5.602
 8464SOL    HW126291   6.944   3.978   5.666
 8464SOL    HW226292   6.968   4.130   5.612
 8465SOL     OW26293   2.777   2.375   0.918
 8465SOL    HW126294   2.865   2.389   0.963
 8465SOL    HW226295   2.704   2.389   0.984
 8466SOL     OW26296   6.118   0.755   5.548
 8466SOL    HW126297   6.022   0.757   5.518
 8466SOL    HW226298   6.167   0.684   5.498
 8467SOL     OW26299   3.943   0.580   0.868
 8467SOL    HW126300   3.920   0.517   0.795
 8467SOL    HW226301   3.946   0.673   0.832
 8468SOL     OW26302   5.978   3.664   6.319
 8468SOL    HW126303   5.956   3.677   6.416
 8468SOL    HW226304   6.048   3.593   6.310
 8469SOL     OW26305   3.318   2.681   5.800
 8469SOL    HW126306   3.261   2.607   5.764
 8469SOL    HW226307   3.320   2.757   5.735
 8470SOL     OW26308   1.189   5.069   0.414
 8470SOL    HW126309   1.149   5.130   0.482
 8470SOL    HW226310   1.153   4.976   0.427
 8471SOL     OW26311   4.184   7.010   5.046
 8471SOL    HW126312   4.188   0.012   4.949
 8471SOL    HW226313   4.089   7.014   5.077
 8472SOL     OW26314   5.893   1.950   5.562
 8472SOL    HW126315   5.834   2.016   5.607
 8472SOL    HW226316   5.921   1.985   5.472
 8473SOL     OW26317   4.366   4.636   0.452
 8473SOL    HW126318   4.371   4.569   0.526
 8473SOL    HW226319   4.452   4.636   0.401
 8474SOL     OW26320   3.313   4.042   2.705
 8474SOL    HW126321   3.299   4.112   2.774
 8474SOL    HW226322   3.238   3.976   2.708
 8475SOL     OW26323   0.432   3.219   1.425
 8475SOL    HW126324   0.346   3.230   1.474
 8475SOL    HW226325   0.507   3.257   1.480
 8476SOL     OW26326   6.899   0.994   1.024
 8476SOL    HW126327   6.827   1.045   1.073
 8476SOL    HW226328   6.987   1.009   1.070
 8477SOL     OW26329   5.667   5.925   2.178
 8477SOL    HW126330   5.716   5.860   2.120
 8477SOL    HW226331   5.696   6.018   2.155
 8478SOL     OW26332   0.990   1.245   5.817
 8478SOL    HW126333   0.920   1.293   5.764
 8478SOL    HW226334   1.080   1.282   5.795
 8479SOL     OW26335   1.338   2.353   1.730
 8479SOL    HW126336   1.277   2.322   1.657
 8479SOL    HW226337   1.337   2.288   1.805
 8480SOL     OW26338   5.163   2.693   6.555
 8480SOL    HW126339   5.226   2.615   6.560
 8480SOL    HW226340   5.153   2.733   6.647
 8481SOL     OW26341   4.078   2.113   4.738
 8481SOL    HW126342   3.985   2.077   4.738
 8481SOL    HW226343   4.096   2.159   4.824
 8482SOL     OW26344   4.349   0.537   0.755
 8482SOL    HW126345   4.353   0.628   0.796
 8482SOL    HW226346   4.348   0.546   0.655
 8483SOL     OW26347   2.649   5.601   3.367
 8483SOL    HW126348   2.577   5.566   3.427
 8483SOL    HW226349   2.690   5.683   3.408
 8484SOL     OW26350   6.762   5.941   4.917
 8484SOL    HW126351   6.759   5.861   4.977
 8484SOL    HW226352   6.795   6.020   4.968
 8485SOL     OW26353   4.218   2.429   0.076
 8485SOL    HW126354   4.200   2.384   7.010
 8485SOL    HW226355   4.314   2.412   0.102
 8486SOL     OW26356   1.812   1.143   2.576
 8486SOL    HW126357   1.731   1.088   2.597
 8486SOL    HW226358   1.852   1.111   2.490
 8487SOL     OW26359   5.567   1.539   6.320
 8487SOL    HW126360   5.500   1.465   6.324
 8487SOL    HW226361   5.581   1.566   6.225
 8488SOL     OW26362   5.301   5.220   3.367
 8488SOL    HW126363   5.332   5.296   3.424
 8488SOL    HW226364   5.294   5.250   3.272
 8489SOL     OW26365   6.467   0.452   1.619
 8489SOL    HW126366   6.450   0.469   1.522
 8489SOL    HW226367   6.450   0.356   1.639
 8490SOL     OW26368   3.552   6.563   5.171
 8490SOL    HW126369   3.607   6.530   5.248
 8490SOL    HW226370   3.464   6.597   5.206
 8491SOL     OW26371   2.129   5.613   2.881
 8491SOL    HW126372   2.115   5.711   2.867
 8491SOL    HW226373   2.144   5.568   2.793
 8492SOL     OW26374   5.936   4.848   3.907
 8492SOL    HW126375   5.968   4.911   3.837
 8492SOL    HW226376   5.838   4.831   3.894
 8493SOL     OW26377   2.550   1.377   0.158
 8493SOL    HW126378   2.505   1.306   0.212
 8493SOL    HW226379   2.516   1.467   0.185
 8494SOL     OW26380   5.094   5.259   2.098
 8494SOL    HW126381   5.060   5.343   2.055
 8494SOL    HW226382   5.194   5.257   2.092
 8495SOL     OW26383   0.189   5.666   0.514
 8495SOL    HW126384   0.261   5.608   0.552
 8495SOL    HW226385   0.190   5.755   0.557
 8496SOL     OW26386   5.248   1.089   2.410
 8496SOL    HW126387   5.283   1.064   2.500
 8496SOL    HW226388   5.162   1.041   2.392
 8497SOL     OW26389   0.761   0.166   3.963
 8497SOL    HW126390   0.855   0.191   3.989
 8497SOL    HW226391   0.760   0.073   3.928
 8498SOL     OW26392   5.713   6.944   3.214
 8498SOL    HW126393   5.764   6.858   3.214
 8498SOL    HW226394   5.623   6.928   3.257
 8499SOL     OW26395   0.566   5.134   0.538
 8499SOL    HW126396   0.602   5.083   0.460
 8499SOL    HW226397   0.617   5.218   0.550
 8500SOL     OW26398   1.653   6.702   6.068
 8500SOL    HW126399   1.665   6.621   6.126
 8500SOL    HW226400   1.559   6.707   6.036
 8501SOL     OW26401   0.656   2.129   0.097
 8501SOL    HW126402   0.599   2.072   0.038
 8501SOL    HW226403   0.610   2.142   0.185
 8502SOL     OW26404   0.716   2.937   0.550
 8502SOL    HW126405   0.752   2.869   0.487
 8502SOL    HW226406   0.750   3.028   0.524
 8503SOL     OW26407   6.639   5.734   5.063
 8503SOL    HW126408   6.572   5.671   5.023
 8503SOL    HW226409   6.643   5.720   5.162
 8504SOL     OW26410   1.849   5.428   2.123
 8504SOL    HW126411   1.888   5.369   2.051
 8504SOL    HW226412   1.872   5.523   2.104
 8505SOL     OW26413   5.377   3.943   2.772
 8505SOL    HW126414   5.439   3.877   2.731
 8505SOL    HW226415   5.333   3.902   2.852
 8506SOL     OW26416   1.498   0.924   6.821
 8506SOL    HW126417   1.470   1.018   6.836
 8506SOL    HW226418   1.417   0.865   6.820
 8507SOL     OW26419   4.573   0.298   4.561
 8507SOL    HW126420   4.647   0.363   4.547
 8507SOL    HW226421   4.533   0.273   4.473
 8508SOL     OW26422   3.937   1.815   5.912
 8508SOL    HW126423   3.952   1.897   5.856
 8508SOL    HW226424   4.025   1.768   5.926
 8509SOL     OW26425   5.591   6.566   3.926
 8509SOL    HW126426   5.663   6.519   3.876
 8509SOL    HW226427   5.509   6.509   3.928
 8510SOL     OW26428   5.153   2.915   3.715
 8510SOL    HW126429   5.099   2.899   3.798
 8510SOL    HW226430   5.120   2.856   3.642
 8511SOL     OW26431   6.209   3.231   2.216
 8511SOL    HW126432   6.207   3.206   2.313
 8511SOL    HW226433   6.163   3.319   2.204
 8512SOL     OW26434   2.464   0.152   2.870
 8512SOL    HW126435   2.417   0.200   2.796
 8512SOL    HW226436   2.435   0.056   2.872
 8513SOL     OW26437   6.972   6.249   0.479
 8513SOL    HW126438   6.974   6.170   0.418
 8513SOL    HW226439   6.908   6.317   0.443
 8514SOL     OW26440   3.524   6.660   3.143
 8514SOL    HW126441   3.475   6.628   3.062
 8514SOL    HW226442   3.484   6.619   3.225
 8515SOL     OW26443   4.918   2.268   1.387
 8515SOL    HW126444   4.890   2.335   1.319
 8515SOL    HW226445   4.839   2.214   1.416
 8516SOL     OW26446   6.592   1.552   2.864
 8516SOL    HW126447   6.613   1.455   2.852
 8516SOL    HW226448   6.586   1.574   2.961
 8517SOL     OW26449   0.959   2.705   6.647
 8517SOL    HW126450   0.919   2.794   6.667
 8517SOL    HW226451   0.890   2.633   6.663
 8518SOL     OW26452   4.270   5.087   0.577
 8518SOL    HW126453   4.254   4.988   0.571
 8518SOL    HW226454   4.226   5.132   0.499
 8519SOL     OW26455   1.831   5.846   2.256
 8519SOL    HW126456   1.898   5.920   2.270
 8519SOL    HW226457   1.752   5.861   2.315
 8520SOL     OW26458   3.645   1.044   0.447
 8520SOL    HW126459   3.607   1.014   0.359
 8520SOL    HW226460   3.715   1.113   0.430
 8521SOL     OW26461   1.272   6.246   6.096
 8521SOL    HW126462   1.353   6.229   6.041
 8521SOL    HW226463   1.205   6.298   6.043
 8522SOL     OW26464   1.360   6.412   2.430
 8522SOL    HW126465   1.391   6.418   2.335
 8522SOL    HW226466   1.261   6.419   2.433
 8523SOL     OW26467   2.043   0.016   5.525
 8523SOL    HW126468   1.982   0.079   5.478
 8523SOL    HW226469   2.127   0.064   5.550
 8524SOL     OW26470   1.122   3.358   4.907
 8524SOL    HW126471   1.090   3.452   4.919
 8524SOL    HW226472   1.222   3.357   4.903
 8525SOL     OW26473   6.081   3.494   3.261
 8525SOL    HW126474   6.158   3.433   3.277
 8525SOL    HW226475   6.029   3.505   3.345
 8526SOL     OW26476   2.567   3.233   1.545
 8526SOL    HW126477   2.640   3.241   1.613
 8526SOL    HW226478   2.606   3.229   1.454
 8527SOL     OW26479   4.056   0.891   4.203
 8527SOL    HW126480   4.087   0.949   4.127
 8527SOL    HW226481   3.960   0.867   4.189
 8528SOL     OW26482   4.907   3.955   6.694
 8528SOL    HW126483   4.918   3.905   6.780
 8528SOL    HW226484   4.809   3.963   6.672
 8529SOL     OW26485   1.561   5.544   0.259
 8529SOL    HW126486   1.569   5.462   0.314
 8529SOL    HW226487   1.635   5.607   0.281
 8530SOL     OW26488   1.699   5.122   5.298
 8530SOL    HW126489   1.617   5.159   5.341
 8530SOL    HW226490   1.672   5.061   5.223
 8531SOL     OW26491   5.523   3.670   2.972
 8531SOL    HW126492   5.432   3.653   2.934
 8531SOL    HW226493   5.552   3.590   3.025
 8532SOL     OW26494   3.977   4.895   4.872
 8532SOL    HW126495   3.977   4.864   4.967
 8532SOL    HW226496   3.888   4.934   4.849
 8533SOL     OW26497   2.357   1.031   5.167
 8533SOL    HW126498   2.325   1.000   5.256
 8533SOL    HW226499   2.328   1.125   5.151
 8534SOL     OW26500   0.562   4.145   2.721
 8534SOL    HW126501   0.659   4.164   2.709
 8534SOL    HW226502   0.518   4.136   2.631
 8535SOL     OW26503   1.140   2.326   4.436
 8535SOL    HW126504   1.084   2.327   4.519
 8535SOL    HW226505   1.113   2.401   4.376
 8536SOL     OW26506   6.459   2.682   5.128
 8536SOL    HW126507   6.454   2.652   5.033
 8536SOL    HW226508   6.484   2.605   5.187
 8537SOL     OW26509   5.534   0.867   0.722
 8537SOL    HW126510   5.474   0.885   0.799
 8537SOL    HW226511   5.625   0.905   0.740
 8538SOL     OW26512   0.032   0.358   5.014
 8538SOL    HW126513   0.099   0.326   5.082
 8538SOL    HW226514   0.069   0.435   4.964
 8539SOL     OW26515   6.458   2.443   2.532
 8539SOL    HW126516   6.456   2.492   2.620
 8539SOL    HW226517   6.364   2.433   2.498
 8540SOL     OW26518   2.867   0.873   0.593
 8540SOL    HW126519   2.910   0.952   0.635
 8540SOL    HW226520   2.928   0.835   0.523
 8541SOL     OW26521   2.929   1.302   5.032
 8541SOL    HW126522   3.015   1.296   5.082
 8541SOL    HW226523   2.934   1.376   4.964
 8542SOL     OW26524   2.819   4.374   6.588
 8542SOL    HW126525   2.812   4.449   6.653
 8542SOL    HW226526   2.915   4.350   6.575
 8543SOL     OW26527   2.450   1.888   5.394
 8543SOL    HW126528   2.475   1.975   5.352
 8543SOL    HW226529   2.400   1.906   5.479
 8544SOL     OW26530   4.800   3.805   5.282
 8544SOL    HW126531   4.751   3.825   5.367
 8544SOL    HW226532   4.771   3.716   5.247
 8545SOL     OW26533   3.570   6.687   4.572
 8545SOL    HW126534   3.636   6.699   4.646
 8545SOL    HW226535   3.545   6.590   4.565
 8546SOL     OW26536   6.070   0.379   1.570
 8546SOL    HW126537   5.978   0.417   1.562
 8546SOL    HW226538   6.098   0.378   1.666
 8547SOL     OW26539   6.919   0.289   5.886
 8547SOL    HW126540   6.837   0.331   5.926
 8547SOL    HW226541   6.998   0.308   5.945
 8548SOL     OW26542   0.473   2.935   5.925
 8548SOL    HW126543   0.564   2.948   5.966
 8548SOL    HW226544   0.475   2.856   5.864
 8549SOL     OW26545   1.436   1.371   3.486
 8549SOL    HW126546   1.527   1.395   3.453
 8549SOL    HW226547   1.438   1.278   3.524
 8550SOL     OW26548   0.558   4.662   6.822
 8550SOL    HW126549   0.556   4.762   6.826
 8550SOL    HW226550   0.618   4.627   6.893
 8551SOL     OW26551   1.687   2.331   6.588
 8551SOL    HW126552   1.784   2.342   6.611
 8551SOL    HW226553   1.632   2.394   6.644
 8552SOL     OW26554   3.204   0.871   2.089
 8552SOL    HW126555   3.262   0.952   2.081
 8552SOL    HW226556   3.204   0.840   2.184
 8553SOL     OW26557   4.097   3.019   0.765
 8553SOL    HW126558   4.078   2.923   0.743
 8553SOL    HW226559   4.011   3.069   0.773
 8554SOL     OW26560   0.946   6.977   0.964
 8554SOL    HW126561   0.977   6.890   0.924
 8554SOL    HW226562   0.925   0.019   0.890
 8555SOL     OW26563   4.329   1.686   3.836
 8555SOL    HW126564   4.388   1.730   3.904
 8555SOL    HW226565   4.352   1.589   3.829
 8556SOL     OW26566   1.945   6.231   6.151
 8556SOL    HW126567   1.900   6.196   6.068
 8556SOL    HW226568   1.964   6.329   6.140
 8557SOL     OW26569   6.461   0.910   0.264
 8557SOL    HW126570   6.436   0.819   0.231
 8557SOL    HW226571   6.386   0.973   0.246
 8558SOL     OW26572   2.312   4.843   3.129
 8558SOL    HW126573   2.391   4.868   3.184
 8558SOL    HW226574   2.339   4.830   3.034
 8559SOL     OW26575   0.843   5.914   2.164
 8559SOL    HW126576   0.780   5.839   2.147
 8559SOL    HW226577   0.808   5.997   2.120
 8560SOL     OW26578   2.088   4.983   1.083
 8560SOL    HW126579   2.036   5.067   1.069
 8560SOL    HW226580   2.186   5.004   1.079
 8561SOL     OW26581   3.511   0.540   2.997
 8561SOL    HW126582   3.474   0.621   2.952
 8561SOL    HW226583   3.460   0.523   3.081
 8562SOL     OW26584   3.549   1.010   0.197
 8562SOL    HW126585   3.602   1.038   0.116
 8562SOL    HW226586   3.470   1.070   0.208
 8563SOL     OW26587   1.587   5.627   2.441
 8563SOL    HW126588   1.582   5.726   2.452
 8563SOL    HW226589   1.609   5.605   2.346
 8564SOL     OW26590   3.674   6.253   0.141
 8564SOL    HW126591   3.751   6.303   0.180
 8564SOL    HW226592   3.659   6.283   0.047
 8565SOL     OW26593   3.595   5.600   1.355
 8565SOL    HW126594   3.679   5.546   1.356
 8565SOL    HW226595   3.531   5.564   1.423
 8566SOL     OW26596   2.591   1.134   2.529
 8566SOL    HW126597   2.609   1.095   2.438
 8566SOL    HW226598   2.595   1.062   2.597
 8567SOL     OW26599   1.175   1.784   1.293
 8567SOL    HW126600   1.208   1.700   1.250
 8567SOL    HW226601   1.196   1.862   1.233
 8568SOL     OW26602   6.953   1.343   0.316
 8568SOL    HW126603   6.922   1.275   0.382
 8568SOL    HW226604   6.929   1.313   0.224
 8569SOL     OW26605   5.595   2.677   6.172
 8569SOL    HW126606   5.577   2.608   6.102
 8569SOL    HW226607   5.558   2.765   6.143
 8570SOL     OW26608   1.478   1.908   4.773
 8570SOL    HW126609   1.496   1.949   4.683
 8570SOL    HW226610   1.564   1.875   4.812
 8571SOL     OW26611   1.635   1.288   4.006
 8571SOL    HW126612   1.660   1.338   3.923
 8571SOL    HW226613   1.549   1.324   4.043
 8572SOL     OW26614   3.017   4.070   5.538
 8572SOL    HW126615   2.924   4.100   5.514
 8572SOL    HW226616   3.011   3.999   5.608
 8573SOL     OW26617   3.073   6.185   0.286
 8573SOL    HW126618   2.986   6.162   0.241
 8573SOL    HW226619   3.148   6.177   0.220
 8574SOL     OW26620   0.191   6.761   6.183
 8574SOL    HW126621   0.173   6.800   6.273
 8574SOL    HW226622   0.132   6.681   6.169
 8575SOL     OW26623   3.557   0.364   2.301
 8575SOL    HW126624   3.507   0.429   2.245
 8575SOL    HW226625   3.576   0.403   2.391
 8576SOL     OW26626   0.734   3.872   4.470
 8576SOL    HW126627   0.720   3.799   4.537
 8576SOL    HW226628   0.783   3.837   4.391
 8577SOL     OW26629   2.234   0.791   5.998
 8577SOL    HW126630   2.208   0.880   6.034
 8577SOL    HW226631   2.332   0.791   5.979
 8578SOL     OW26632   6.763   6.371   5.578
 8578SOL    HW126633   6.715   6.332   5.499
 8578SOL    HW226634   6.818   6.449   5.547
 8579SOL     OW26635   2.451   6.278   2.397
 8579SOL    HW126636   2.506   6.362   2.395
 8579SOL    HW226637   2.389   6.282   2.475
 8580SOL     OW26638   0.889   5.908   1.350
 8580SOL    HW126639   0.954   5.904   1.274
 8580SOL    HW226640   0.925   5.856   1.428
 8581SOL     OW26641   3.517   5.063   1.386
 8581SOL    HW126642   3.543   5.090   1.293
 8581SOL    HW226643   3.564   5.122   1.452
 8582SOL     OW26644   4.023   4.453   5.585
 8582SOL    HW126645   4.004   4.551   5.585
 8582SOL    HW226646   3.982   4.412   5.667
 8583SOL     OW26647   4.284   0.687   3.146
 8583SOL    HW126648   4.318   0.626   3.074
 8583SOL    HW226649   4.188   0.667   3.165
 8584SOL     OW26650   6.618   1.124   4.898
 8584SOL    HW126651   6.561   1.203   4.922
 8584SOL    HW226652   6.710   1.155   4.877
 8585SOL     OW26653   5.785   1.813   1.006
 8585SOL    HW126654   5.763   1.911   1.008
 8585SOL    HW226655   5.874   1.799   1.049
 8586SOL     OW26656   5.672   6.330   1.456
 8586SOL    HW126657   5.657   6.289   1.366
 8586SOL    HW226658   5.704   6.259   1.520
 8587SOL     OW26659   0.851   1.972   4.905
 8587SOL    HW126660   0.860   2.018   4.817
 8587SOL    HW226661   0.930   1.913   4.920
 8588SOL     OW26662   3.642   1.278   0.055
 8588SOL    HW126663   3.689   1.363   0.081
 8588SOL    HW226664   3.578   1.297   7.002
 8589SOL     OW26665   6.862   3.142   5.145
 8589SOL    HW126666   6.860   3.110   5.050
 8589SOL    HW226667   6.847   3.064   5.206
 8590SOL     OW26668   6.961   0.670   3.008
 8590SOL    HW126669   6.916   0.613   2.939
 8590SOL    HW226670   6.901   0.681   3.087
 8591SOL     OW26671   6.233   4.770   0.743
 8591SOL    HW126672   6.308   4.748   0.806
 8591SOL    HW226673   6.210   4.688   0.690
 8592SOL     OW26674   0.564   2.476   6.878
 8592SOL    HW126675   0.471   2.463   6.844
 8592SOL    HW226676   0.578   2.572   6.903
 8593SOL     OW26677   3.154   0.624   6.745
 8593SOL    HW126678   3.236   0.632   6.687
 8593SOL    HW226679   3.111   0.535   6.730
 8594SOL     OW26680   6.179   2.684   6.196
 8594SOL    HW126681   6.093   2.652   6.156
 8594SOL    HW226682   6.246   2.610   6.194
 8595SOL     OW26683   5.662   0.200   2.812
 8595SOL    HW126684   5.574   0.233   2.845
 8595SOL    HW226685   5.712   0.155   2.886
 8596SOL     OW26686   1.247   3.471   3.510
 8596SOL    HW126687   1.219   3.566   3.527
 8596SOL    HW226688   1.266   3.426   3.597
 8597SOL     OW26689   6.360   2.533   0.780
 8597SOL    HW126690   6.320   2.450   0.819
 8597SOL    HW226691   6.339   2.611   0.838
 8598SOL     OW26692   5.596   1.082   4.913
 8598SOL    HW126693   5.597   1.079   5.013
 8598SOL    HW226694   5.653   1.009   4.877
 8599SOL     OW26695   1.489   3.018   3.525
 8599SOL    HW126696   1.441   2.987   3.607
 8599SOL    HW226697   1.512   3.115   3.535
 8600SOL     OW26698   4.802   3.831   0.952
 8600SOL    HW126699   4.873   3.761   0.948
 8600SOL    HW226700   4.836   3.910   1.002
 8601SOL     OW26701   0.549   1.296   3.493
 8601SOL    HW126702   0.494   1.213   3.488
 8601SOL    HW226703   0.512   1.363   3.429
 8602SOL     OW26704   2.486   6.507   3.415
 8602SOL    HW126705   2.480   6.578   3.485
 8602SOL    HW226706   2.558   6.442   3.440
 8603SOL     OW26707   5.792   1.374   0.235
 8603SOL    HW126708   5.759   1.397   0.327
 8603SOL    HW226709   5.812   1.458   0.184
 8604SOL     OW26710   0.244   3.132   6.194
 8604SOL    HW126711   0.302   3.191   6.138
 8604SOL    HW226712   0.230   3.174   6.283
 8605SOL     OW26713   0.359   4.707   4.534
 8605SOL    HW126714   0.280   4.680   4.588
 8605SOL    HW226715   0.328   4.738   4.444
 8606SOL     OW26716   2.809   2.081   6.359
 8606SOL    HW126717   2.770   2.171   6.338
 8606SOL    HW226718   2.907   2.081   6.337
 8607SOL     OW26719   2.252   4.909   0.630
 8607SOL    HW126720   2.277   4.889   0.725
 8607SOL    HW226721   2.308   4.984   0.596
 8608SOL     OW26722   2.276   4.769   2.663
 8608SOL    HW126723   2.190   4.812   2.687
 8608SOL    HW226724   2.268   4.728   2.572
 8609SOL     OW26725   5.072   0.937   3.873
 8609SOL    HW126726   5.079   1.035   3.854
 8609SOL    HW226727   5.142   0.888   3.822
 8610SOL     OW26728   6.999   6.324   2.924
 8610SOL    HW126729   6.902   6.343   2.931
 8610SOL    HW226730   0.019   6.387   2.857
 8611SOL     OW26731   2.857   1.091   4.094
 8611SOL    HW126732   2.872   1.176   4.043
 8611SOL    HW226733   2.792   1.033   4.044
 8612SOL     OW26734   2.986   3.298   2.756
 8612SOL    HW126735   2.943   3.262   2.673
 8612SOL    HW226736   3.082   3.319   2.738
 8613SOL     OW26737   2.849   2.658   1.447
 8613SOL    HW126738   2.887   2.665   1.539
 8613SOL    HW226739   2.886   2.731   1.390
 8614SOL     OW26740   1.047   2.581   2.295
 8614SOL    HW126741   0.974   2.648   2.285
 8614SOL    HW226742   1.106   2.582   2.214
 8615SOL     OW26743   5.097   1.970   4.718
 8615SOL    HW126744   5.074   1.883   4.673
 8615SOL    HW226745   5.159   1.953   4.794
 8616SOL     OW26746   2.946   4.820   2.517
 8616SOL    HW126747   2.970   4.914   2.495
 8616SOL    HW226748   2.934   4.767   2.432
 8617SOL     OW26749   5.758   0.167   4.004
 8617SOL    HW126750   5.667   0.178   3.964
 8617SOL    HW226751   5.818   0.240   3.970
 8618SOL     OW26752   6.435   3.876   1.040
 8618SOL    HW126753   6.449   3.778   1.031
 8618SOL    HW226754   6.519   3.918   1.075
 8619SOL     OW26755   4.497   5.058   2.172
 8619SOL    HW126756   4.557   4.980   2.192
 8619SOL    HW226757   4.465   5.052   2.078
 8620SOL     OW26758   1.986   0.313   4.482
 8620SOL    HW126759   2.081   0.341   4.496
 8620SOL    HW226760   1.929   0.394   4.469
 8621SOL     OW26761   4.745   2.808   2.246
 8621SOL    HW126762   4.748   2.861   2.330
 8621SOL    HW226763   4.703   2.862   2.173
 8622SOL     OW26764   6.332   5.312   2.104
 8622SOL    HW126765   6.412   5.305   2.164
 8622SOL    HW226766   6.280   5.394   2.126
 8623SOL     OW26767   6.861   3.314   4.615
 8623SOL    HW126768   6.926   3.352   4.681
 8623SOL    HW226769   6.770   3.309   4.657
 8624SOL     OW26770   3.417   3.544   6.158
 8624SOL    HW126771   3.420   3.463   6.100
 8624SOL    HW226772   3.485   3.611   6.126
 8625SOL     OW26773   4.048   1.131   5.332
 8625SOL    HW126774   4.070   1.228   5.323
 8625SOL    HW226775   3.995   1.116   5.415
 8626SOL     OW26776   4.101   2.610   0.426
 8626SOL    HW126777   4.133   2.646   0.338
 8626SOL    HW226778   4.158   2.532   0.452
 8627SOL     OW26779   1.625   1.573   2.199
 8627SOL    HW126780   1.609   1.568   2.101
 8627SOL    HW226781   1.689   1.647   2.219
 8628SOL     OW26782   6.882   6.891   0.137
 8628SOL    HW126783   6.835   6.915   0.222
 8628SOL    HW226784   6.817   6.890   0.061
 8629SOL     OW26785   0.974   6.976   4.660
 8629SOL    HW126786   0.933   7.017   4.578
 8629SOL    HW226787   0.953   6.879   4.663
 8630SOL     OW26788   4.874   3.137   3.425
 8630SOL    HW126789   4.793   3.141   3.484
 8630SOL    HW226790   4.957   3.133   3.481
 8631SOL     OW26791   2.309   5.615   6.696
 8631SOL    HW126792   2.369   5.615   6.616
 8631SOL    HW226793   2.365   5.617   6.780
 8632SOL     OW26794   3.972   4.513   5.297
 8632SOL    HW126795   3.965   4.484   5.393
 8632SOL    HW226796   4.029   4.447   5.247
 8633SOL     OW26797   5.272   3.809   5.936
 8633SOL    HW126798   5.292   3.860   5.852
 8633SOL    HW226799   5.173   3.799   5.946
 8634SOL     OW26800   4.930   4.903   0.399
 8634SOL    HW126801   4.902   4.930   0.491
 8634SOL    HW226802   4.999   4.831   0.404
 8635SOL     OW26803   6.305   2.892   6.888
 8635SOL    HW126804   6.257   2.805   6.875
 8635SOL    HW226805   6.293   2.922   6.983
 8636SOL     OW26806   4.025   5.741   0.438
 8636SOL    HW126807   4.084   5.689   0.376
 8636SOL    HW226808   4.080   5.779   0.513
 8637SOL     OW26809   2.187   1.202   6.449
 8637SOL    HW126810   2.091   1.173   6.450
 8637SOL    HW226811   2.204   1.258   6.369
 8638SOL     OW26812   4.149   2.832   5.353
 8638SOL    HW126813   4.137   2.743   5.309
 8638SOL    HW226814   4.212   2.888   5.299
 8639SOL     OW26815   4.977   3.406   6.917
 8639SOL    HW126816   5.009   3.492   6.879
 8639SOL    HW226817   4.956   3.342   6.842
 8640SOL     OW26818   3.916   3.136   1.697
 8640SOL    HW126819   3.973   3.218   1.687
 8640SOL    HW226820   3.858   3.125   1.616
 8641SOL     OW26821   4.194   5.210   3.521
 8641SOL    HW126822   4.251   5.156   3.584
 8641SOL    HW226823   4.218   5.187   3.427
 8642SOL     OW26824   0.564   6.334   3.797
 8642SOL    HW126825   0.532   6.384   3.717
 8642SOL    HW226826   0.531   6.240   3.793
 8643SOL     OW26827   2.318   6.828   0.429
 8643SOL    HW126828   2.274   6.911   0.394
 8643SOL    HW226829   2.383   6.853   0.501
 8644SOL     OW26830   5.925   2.412   6.206
 8644SOL    HW126831   5.939   2.485   6.139
 8644SOL    HW226832   5.911   2.452   6.296
 8645SOL     OW26833   5.327   4.686   1.437
 8645SOL    HW126834   5.300   4.608   1.380
 8645SOL    HW226835   5.383   4.748   1.383
 8646SOL     OW26836   0.152   2.183   6.001
 8646SOL    HW126837   0.109   2.168   6.090
 8646SOL    HW226838   0.146   2.280   5.978
 8647SOL     OW26839   3.051   5.461   1.193
 8647SOL    HW126840   3.056   5.438   1.095
 8647SOL    HW226841   2.958   5.488   1.216
 8648SOL     OW26842   5.578   6.444   1.070
 8648SOL    HW126843   5.674   6.430   1.045
 8648SOL    HW226844   5.558   6.542   1.071
 8649SOL     OW26845   4.489   6.374   6.798
 8649SOL    HW126846   4.508   6.281   6.767
 8649SOL    HW226847   4.400   6.403   6.762
 8650SOL     OW26848   1.766   0.032   4.324
 8650SOL    HW126849   1.732   6.978   4.380
 8650SOL    HW226850   1.866   0.028   4.320
 8651SOL     OW26851   2.952   1.448   0.926
 8651SOL    HW126852   2.998   1.371   0.970
 8651SOL    HW226853   2.920   1.512   0.995
 8652SOL     OW26854   0.609   4.930   4.169
 8652SOL    HW126855   0.587   4.850   4.224
 8652SOL    HW226856   0.699   4.918   4.128
 8653SOL     OW26857   6.376   1.651   5.703
 8653SOL    HW126858   6.362   1.713   5.625
 8653SOL    HW226859   6.423   1.700   5.776
 8654SOL     OW26860   0.722   5.057   1.590
 8654SOL    HW126861   0.747   4.978   1.533
 8654SOL    HW226862   0.626   5.048   1.618
 8655SOL     OW26863   6.515   1.261   5.227
 8655SOL    HW126864   6.508   1.303   5.318
 8655SOL    HW226865   6.531   1.163   5.236
 8656SOL     OW26866   5.435   0.257   2.069
 8656SOL    HW126867   5.467   0.331   2.128
 8656SOL    HW226868   5.351   0.218   2.107
 8657SOL     OW26869   5.786   6.282   0.439
 8657SOL    HW126870   5.775   6.191   0.400
 8657SOL    HW226871   5.697   6.327   0.446
 8658SOL     OW26872   5.894   5.556   1.067
 8658SOL    HW126873   5.808   5.588   1.107
 8658SOL    HW226874   5.966   5.556   1.137
 8659SOL     OW26875   4.542   2.608   2.949
 8659SOL    HW126876   4.616   2.675   2.942
 8659SOL    HW226877   4.519   2.593   3.045
 8660SOL     OW26878   0.314   2.627   1.748
 8660SOL    HW126879   0.374   2.704   1.726
 8660SOL    HW226880   0.359   2.568   1.814
 8661SOL     OW26881   6.363   3.429   3.371
 8661SOL    HW126882   6.386   3.512   3.320
 8661SOL    HW226883   6.446   3.393   3.414
 8662SOL     OW26884   3.385   6.047   2.136
 8662SOL    HW126885   3.403   6.092   2.223
 8662SOL    HW226886   3.291   6.068   2.107
 8663SOL     OW26887   2.618   5.597   3.063
 8663SOL    HW126888   2.567   5.567   3.144
 8663SOL    HW226889   2.710   5.558   3.065
 8664SOL     OW26890   2.079   5.209   3.140
 8664SOL    HW126891   1.986   5.176   3.123
 8664SOL    HW226892   2.085   5.247   3.232
 8665SOL     OW26893   6.610   5.153   5.861
 8665SOL    HW126894   6.641   5.210   5.785
 8665SOL    HW226895   6.522   5.112   5.839
 8666SOL     OW26896   5.670   0.070   4.279
 8666SOL    HW126897   5.755   0.073   4.226
 8666SOL    HW226898   5.648   6.997   4.301
 8667SOL     OW26899   4.882   1.151   4.775
 8667SOL    HW126900   4.899   1.238   4.823
 8667SOL    HW226901   4.878   1.168   4.677
 8668SOL     OW26902   5.226   3.095   4.877
 8668SOL    HW126903   5.207   3.107   4.974
 8668SOL    HW226904   5.309   3.146   4.852
 8669SOL     OW26905   0.068   6.649   6.525
 8669SOL    HW126906   0.056   6.566   6.470
 8669SOL    HW226907   0.153   6.695   6.498
 8670SOL     OW26908   5.437   5.043   5.731
 8670SOL    HW126909   5.423   4.989   5.814
 8670SOL    HW226910   5.512   5.003   5.678
 8671SOL     OW26911   0.365   1.688   2.073
 8671SOL    HW126912   0.446   1.742   2.053
 8671SOL    HW226913   0.356   1.614   2.006
 8672SOL     OW26914   0.342   0.304   3.331
 8672SOL    HW126915   0.410   0.268   3.395
 8672SOL    HW226916   0.261   0.332   3.381
 8673SOL     OW26917   6.565   1.611   0.111
 8673SOL    HW126918   6.567   1.663   0.197
 8673SOL    HW226919   6.535   1.517   0.129
 8674SOL     OW26920   6.853   4.209   3.301
 8674SOL    HW126921   6.792   4.279   3.264
 8674SOL    HW226922   6.849   4.127   3.245
 8675SOL     OW26923   4.086   1.146   5.891
 8675SOL    HW126924   4.071   1.228   5.836
 8675SOL    HW226925   4.114   1.070   5.832
 8676SOL     OW26926   5.643   1.044   1.326
 8676SOL    HW126927   5.713   1.109   1.354
 8676SOL    HW226928   5.570   1.093   1.278
 8677SOL     OW26929   1.934   5.933   5.373
 8677SOL    HW126930   1.849   5.983   5.390
 8677SOL    HW226931   1.978   5.911   5.460
 8678SOL     OW26932   1.194   6.739   0.272
 8678SOL    HW126933   1.228   6.789   0.351
 8678SOL    HW226934   1.130   6.795   0.221
 8679SOL     OW26935   2.147   1.087   3.955
 8679SOL    HW126936   2.142   1.133   4.043
 8679SOL    HW226937   2.235   1.040   3.946
 8680SOL     OW26938   6.411   2.772   6.653
 8680SOL    HW126939   6.355   2.792   6.572
 8680SOL    HW226940   6.373   2.821   6.732
 8681SOL     OW26941   4.568   6.004   1.397
 8681SOL    HW126942   4.488   6.058   1.422
 8681SOL    HW226943   4.574   5.995   1.298
 8682SOL     OW26944   6.571   0.564   1.097
 8682SOL    HW126945   6.623   0.626   1.037
 8682SOL    HW226946   6.540   0.485   1.044
 8683SOL     OW26947   1.419   3.245   5.064
 8683SOL    HW126948   1.444   3.299   5.145
 8683SOL    HW226949   1.423   3.303   4.983
 8684SOL     OW26950   0.172   3.682   4.468
 8684SOL    HW126951   0.200   3.593   4.431
 8684SOL    HW226952   0.177   3.751   4.396
 8685SOL     OW26953   5.315   2.469   6.597
 8685SOL    HW126954   5.328   2.433   6.505
 8685SOL    HW226955   5.401   2.461   6.649
 8686SOL     OW26956   6.434   6.495   3.195
 8686SOL    HW126957   6.377   6.449   3.126
 8686SOL    HW226958   6.496   6.559   3.150
 8687SOL     OW26959   6.148   4.264   2.995
 8687SOL    HW126960   6.177   4.295   3.085
 8687SOL    HW226961   6.048   4.256   2.992
 8688SOL     OW26962   1.902   4.051   6.617
 8688SOL    HW126963   1.993   4.094   6.620
 8688SOL    HW226964   1.912   3.952   6.607
 8689SOL     OW26965   4.815   3.092   0.492
 8689SOL    HW126966   4.909   3.059   0.497
 8689SOL    HW226967   4.752   3.015   0.495
 8690SOL     OW26968   0.800   2.400   2.860
 8690SOL    HW126969   0.753   2.476   2.904
 8690SOL    HW226970   0.869   2.363   2.922
 8691SOL     OW26971   3.597   1.749   5.029
 8691SOL    HW126972   3.586   1.731   4.932
 8691SOL    HW226973   3.514   1.792   5.065
 8692SOL     OW26974   4.065   2.003   5.719
 8692SOL    HW126975   3.994   2.064   5.684
 8692SOL    HW226976   4.076   1.926   5.657
 8693SOL     OW26977   6.647   1.493   6.468
 8693SOL    HW126978   6.662   1.431   6.545
 8693SOL    HW226979   6.571   1.459   6.413
 8694SOL     OW26980   5.999   2.386   4.612
 8694SOL    HW126981   6.023   2.297   4.574
 8694SOL    HW226982   6.001   2.381   4.712
 8695SOL     OW26983   4.031   3.379   6.324
 8695SOL    HW126984   3.974   3.459   6.305
 8695SOL    HW226985   4.047   3.371   6.422
 8696SOL     OW26986   2.160   6.055   5.093
 8696SOL    HW126987   2.178   6.084   4.999
 8696SOL    HW226988   2.196   6.122   5.157
 8697SOL     OW26989   1.541   4.740   5.734
 8697SOL    HW126990   1.627   4.769   5.777
 8697SOL    HW226991   1.561   4.699   5.645
 8698SOL     OW26992   5.300   5.915   5.972
 8698SOL    HW126993   5.339   5.953   6.056
 8698SOL    HW226994   5.302   5.984   5.900
 8699SOL     OW26995   2.380   3.241   6.371
 8699SOL    HW126996   2.377   3.319   6.308
 8699SOL    HW226997   2.475   3.218   6.391
 8700SOL     OW26998   1.099   0.440   5.109
 8700SOL    HW126999   1.105   0.424   5.011
 8700SOL    HW227000   1.028   0.508   5.128
 8701SOL     OW27001   1.745   1.491   6.809
 8701SOL    HW127002   1.721   1.415   6.870
 8701SOL    HW227003   1.731   1.578   6.857
 8702SOL     OW27004   5.203   5.436   1.519
 8702SOL    HW127005   5.117   5.485   1.504
 8702SOL    HW227006   5.279   5.500   1.517
 8703SOL     OW27007   2.952   4.647   6.727
 8703SOL    HW127008   2.943   4.599   6.815
 8703SOL    HW227009   3.047   4.643   6.697
 8704SOL     OW27010   0.051   2.459   4.287
 8704SOL    HW127011   0.090   2.481   4.198
 8704SOL    HW227012   6.986   2.411   4.274
 8705SOL     OW27013   4.865   2.250   6.574
 8705SOL    HW127014   4.945   2.251   6.514
 8705SOL    HW227015   4.891   2.282   6.665
 8706SOL     OW27016   5.894   2.866   0.254
 8706SOL    HW127017   5.798   2.849   0.274
 8706SOL    HW227018   5.911   2.965   0.253
 8707SOL     OW27019   1.439   2.093   4.143
 8707SOL    HW127020   1.479   2.174   4.185
 8707SOL    HW227021   1.484   2.011   4.178
 8708SOL     OW27022   4.981   2.156   4.165
 8708SOL    HW127023   4.994   2.215   4.085
 8708SOL    HW227024   4.979   2.213   4.247
 8709SOL     OW27025   6.814   0.193   0.162
 8709SOL    HW127026   6.747   0.124   0.190
 8709SOL    HW227027   6.774   0.251   0.090
 8710SOL     OW27028   1.998   1.856   3.715
 8710SOL    HW127029   2.012   1.948   3.679
 8710SOL    HW227030   2.086   1.815   3.739
 8711SOL     OW27031   1.114   1.124   1.802
 8711SOL    HW127032   1.113   1.122   1.702
 8711SOL    HW227033   1.065   1.205   1.835
 8712SOL     OW27034   2.871   1.802   5.293
 8712SOL    HW127035   2.880   1.772   5.388
 8712SOL    HW227036   2.808   1.741   5.245
 8713SOL     OW27037   1.137   3.979   1.719
 8713SOL    HW127038   1.047   4.024   1.721
 8713SOL    HW227039   1.128   3.885   1.750
 8714SOL     OW27040   0.363   6.651   0.750
 8714SOL    HW127041   0.422   6.726   0.719
 8714SOL    HW227042   0.324   6.605   0.670
 8715SOL     OW27043   2.782   1.915   0.015
 8715SOL    HW127044   2.796   1.949   0.108
 8715SOL    HW227045   2.869   1.884   6.998
 8716SOL     OW27046   0.056   6.107   1.593
 8716SOL    HW127047   7.004   6.168   1.620
 8716SOL    HW227048   0.079   6.047   1.669
 8717SOL     OW27049   2.610   3.587   6.226
 8717SOL    HW127050   2.649   3.637   6.303
 8717SOL    HW227051   2.594   3.649   6.149
 8718SOL     OW27052   1.340   3.042   6.199
 8718SOL    HW127053   1.273   2.971   6.179
 8718SOL    HW227054   1.353   3.049   6.298
 8719SOL     OW27055   3.968   0.965   6.869
 8719SOL    HW127056   3.897   1.009   6.925
 8719SOL    HW227057   3.953   0.988   6.773
 8720SOL     OW27058   6.841   5.004   5.165
 8720SOL    HW127059   6.834   5.081   5.102
 8720SOL    HW227060   6.814   4.920   5.119
 8721SOL     OW27061   6.801   6.357   6.614
 8721SOL    HW127062   6.750   6.416   6.552
 8721SOL    HW227063   6.896   6.388   6.620
 8722SOL     OW27064   3.256   0.555   0.668
 8722SOL    HW127065   3.353   0.543   0.647
 8722SOL    HW227066   3.234   0.510   0.754
 8723SOL     OW27067   5.706   0.246   2.312
 8723SOL    HW127068   5.646   0.324   2.295
 8723SOL    HW227069   5.669   0.191   2.387
 8724SOL     OW27070   4.843   6.949   4.693
 8724SOL    HW127071   4.749   6.963   4.661
 8724SOL    HW227072   4.883   0.015   4.720
 8725SOL     OW27073   0.380   6.517   4.990
 8725SOL    HW127074   0.325   6.593   5.025
 8725SOL    HW227075   0.452   6.496   5.055
 8726SOL     OW27076   6.916   1.578   0.171
 8726SOL    HW127077   7.010   1.568   0.137
 8726SOL    HW227078   6.894   1.501   0.231
 8727SOL     OW27079   6.505   6.972   6.640
 8727SOL    HW127080   6.604   6.961   6.653
 8727SOL    HW227081   6.460   6.971   6.729
 8728SOL     OW27082   5.540   1.129   3.257
 8728SOL    HW127083   5.613   1.143   3.191
 8728SOL    HW227084   5.506   1.035   3.250
 8729SOL     OW27085   3.091   4.902   5.419
 8729SOL    HW127086   3.118   4.996   5.440
 8729SOL    HW227087   3.050   4.861   5.501
 8730SOL     OW27088   5.371   4.178   3.186
 8730SOL    HW127089   5.312   4.245   3.141
 8730SOL    HW227090   5.364   4.090   3.140
 8731SOL     OW27091   0.121   2.437   2.960
 8731SOL    HW127092   0.219   2.423   2.975
 8731SOL    HW227093   0.071   2.414   3.043
 8732SOL     OW27094   5.457   4.873   1.112
 8732SOL    HW127095   5.434   4.944   1.179
 8732SOL    HW227096   5.501   4.796   1.159
 8733SOL     OW27097   0.629   5.584   1.062
 8733SOL    HW127098   0.631   5.484   1.052
 8733SOL    HW227099   0.658   5.626   0.977
 8734SOL     OW27100   6.627   3.515   1.800
 8734SOL    HW127101   6.583   3.505   1.711
 8734SOL    HW227102   6.712   3.567   1.790
 8735SOL     OW27103   1.349   3.549   5.082
 8735SOL    HW127104   1.318   3.510   5.168
 8735SOL    HW227105   1.269   3.584   5.031
 8736SOL     OW27106   0.375   5.405   2.243
 8736SOL    HW127107   0.393   5.478   2.177
 8736SOL    HW227108   0.283   5.416   2.281
 8737SOL     OW27109   2.501   5.902   6.384
 8737SOL    HW127110   2.469   5.964   6.456
 8737SOL    HW227111   2.540   5.956   6.309
 8738SOL     OW27112   1.276   3.735   3.647
 8738SOL    HW127113   1.295   3.794   3.725
 8738SOL    HW227114   1.361   3.696   3.613
 8739SOL     OW27115   5.540   3.751   5.290
 8739SOL    HW127116   5.603   3.777   5.217
 8739SOL    HW227117   5.525   3.653   5.288
 8740SOL     OW27118   3.688   2.093   3.239
 8740SOL    HW127119   3.751   2.120   3.166
 8740SOL    HW227120   3.707   1.999   3.268
 8741SOL     OW27121   2.171   0.067   2.744
 8741SOL    HW127122   2.172   0.048   2.843
 8741SOL    HW227123   2.211   0.157   2.727
 8742SOL     OW27124   3.800   0.588   2.671
 8742SOL    HW127125   3.752   0.586   2.759
 8742SOL    HW227126   3.773   0.671   2.621
 8743SOL     OW27127   1.530   1.021   1.606
 8743SOL    HW127128   1.497   1.104   1.560
 8743SOL    HW227129   1.610   1.043   1.662
 8744SOL     OW27130   4.454   2.901   6.717
 8744SOL    HW127131   4.490   2.828   6.774
 8744SOL    HW227132   4.376   2.867   6.664
 8745SOL     OW27133   6.598   2.361   6.541
 8745SOL    HW127134   6.679   2.324   6.586
 8745SOL    HW227135   6.609   2.459   6.528
 8746SOL     OW27136   4.900   4.573   4.043
 8746SOL    HW127137   4.975   4.637   4.055
 8746SOL    HW227138   4.907   4.530   3.953
 8747SOL     OW27139   6.578   0.897   2.441
 8747SOL    HW127140   6.584   0.904   2.342
 8747SOL    HW227141   6.660   0.937   2.483
 8748SOL     OW27142   1.173   1.536   3.966
 8748SOL    HW127143   1.197   1.621   3.920
 8748SOL    HW227144   1.231   1.524   4.046
 8749SOL     OW27145   2.217   0.947   5.439
 8749SOL    HW127146   2.121   0.969   5.457
 8749SOL    HW227147   2.273   1.028   5.458
 8750SOL     OW27148   4.027   2.763   5.972
 8750SOL    HW127149   4.077   2.687   5.930
 8750SOL    HW227150   3.992   2.734   6.061
 8751SOL     OW27151   6.798   6.891   0.556
 8751SOL    HW127152   6.842   6.806   0.582
 8751SOL    HW227153   6.865   6.953   0.516
 8752SOL     OW27154   5.107   2.847   0.207
 8752SOL    HW127155   5.088   2.864   0.304
 8752SOL    HW227156   5.041   2.781   0.171
 8753SOL     OW27157   1.793   3.211   0.028
 8753SOL    HW127158   1.869   3.268   7.018
 8753SOL    HW227159   1.828   3.136   0.084
 8754SOL     OW27160   2.801   5.236   6.357
 8754SOL    HW127161   2.816   5.331   6.330
 8754SOL    HW227162   2.794   5.230   6.456
 8755SOL     OW27163   0.890   1.418   0.715
 8755SOL    HW127164   0.805   1.460   0.749
 8755SOL    HW227165   0.892   1.425   0.615
 8756SOL     OW27166   2.281   2.931   4.002
 8756SOL    HW127167   2.349   2.861   4.023
 8756SOL    HW227168   2.202   2.888   3.957
 8757SOL     OW27169   5.443   6.417   5.489
 8757SOL    HW127170   5.412   6.340   5.433
 8757SOL    HW227171   5.366   6.454   5.541
 8758SOL     OW27172   4.133   0.084   3.189
 8758SOL    HW127173   4.165   0.011   3.129
 8758SOL    HW227174   4.127   0.169   3.138
 8759SOL     OW27175   6.274   1.619   6.868
 8759SOL    HW127176   6.257   1.695   6.806
 8759SOL    HW227177   6.299   1.654   6.959
 8760SOL     OW27178   2.229   1.731   3.817
 8760SOL    HW127179   2.307   1.781   3.781
 8760SOL    HW227180   2.216   1.754   3.914
 8761SOL     OW27181   5.079   1.488   2.130
 8761SOL    HW127182   5.017   1.476   2.052
 8761SOL    HW227183   5.172   1.469   2.102
 8762SOL     OW27184   1.719   6.076   3.879
 8762SOL    HW127185   1.756   6.160   3.837
 8762SOL    HW227186   1.775   5.998   3.852
 8763SOL     OW27187   6.905   0.744   5.212
 8763SOL    HW127188   6.915   0.814   5.141
 8763SOL    HW227189   6.869   0.786   5.296
 8764SOL     OW27190   4.456   5.832   5.933
 8764SOL    HW127191   4.364   5.813   5.967
 8764SOL    HW227192   4.451   5.904   5.864
 8765SOL     OW27193   5.972   1.000   5.441
 8765SOL    HW127194   6.026   1.059   5.502
 8765SOL    HW227195   6.001   1.015   5.346
 8766SOL     OW27196   4.485   4.204   5.672
 8766SOL    HW127197   4.525   4.261   5.599
 8766SOL    HW227198   4.386   4.197   5.658
 8767SOL     OW27199   3.206   0.410   3.544
 8767SOL    HW127200   3.300   0.436   3.562
 8767SOL    HW227201   3.184   0.326   3.595
 8768SOL     OW27202   0.433   2.218   6.641
 8768SOL    HW127203   0.358   2.156   6.620
 8768SOL    HW227204   0.423   2.253   6.734
 8769SOL     OW27205   6.184   1.276   1.721
 8769SOL    HW127206   6.130   1.225   1.654
 8769SOL    HW227207   6.252   1.216   1.761
 8770SOL     OW27208   5.407   4.164   2.137
 8770SOL    HW127209   5.332   4.128   2.081
 8770SOL    HW227210   5.474   4.208   2.077
 8771SOL     OW27211   0.350   3.629   6.603
 8771SOL    HW127212   0.255   3.638   6.634
 8771SOL    HW227213   0.360   3.674   6.514
 8772SOL     OW27214   5.308   0.975   4.853
 8772SOL    HW127215   5.394   1.024   4.865
 8772SOL    HW227216   5.327   0.879   4.832
 8773SOL     OW27217   5.847   2.658   4.249
 8773SOL    HW127218   5.840   2.664   4.349
 8773SOL    HW227219   5.926   2.711   4.218
 8774SOL     OW27220   0.786   6.633   0.115
 8774SOL    HW127221   0.733   6.704   0.068
 8774SOL    HW227222   0.765   6.635   0.213
 8775SOL     OW27223   5.714   1.587   4.787
 8775SOL    HW127224   5.807   1.591   4.752
 8775SOL    HW227225   5.666   1.509   4.746
 8776SOL     OW27226   4.420   3.201   0.960
 8776SOL    HW127227   4.519   3.191   0.971
 8776SOL    HW227228   4.380   3.115   0.930
 8777SOL     OW27229   0.831   3.408   2.790
 8777SOL    HW127230   0.771   3.396   2.711
 8777SOL    HW227231   0.776   3.421   2.872
 8778SOL     OW27232   4.239   3.912   6.035
 8778SOL    HW127233   4.298   3.953   5.965
 8778SOL    HW227234   4.162   3.973   6.053
 8779SOL     OW27235   3.028   5.086   2.438
 8779SOL    HW127236   3.125   5.100   2.456
 8779SOL    HW227237   2.974   5.141   2.502
 8780SOL     OW27238   0.148   5.304   2.375
 8780SOL    HW127239   0.058   5.319   2.415
 8780SOL    HW227240   0.183   5.215   2.405
 8781SOL     OW27241   4.469   0.266   2.911
 8781SOL    HW127242   4.398   0.195   2.907
 8781SOL    HW227243   4.472   0.315   2.824
 8782SOL     OW27244   5.832   1.089   1.799
 8782SOL    HW127245   5.764   1.150   1.758
 8782SOL    HW227246   5.872   1.133   1.879
 8783SOL     OW27247   5.482   3.184   4.791
 8783SOL    HW127248   5.507   3.219   4.881
 8783SOL    HW227249   5.523   3.242   4.720
 8784SOL     OW27250   6.476   6.383   0.726
 8784SOL    HW127251   6.540   6.460   0.733
 8784SOL    HW227252   6.472   6.351   0.631
 8785SOL     OW27253   0.394   5.446   6.304
 8785SOL    HW127254   0.309   5.456   6.356
 8785SOL    HW227255   0.382   5.488   6.214
 8786SOL     OW27256   4.102   1.958   2.449
 8786SOL    HW127257   4.199   1.931   2.449
 8786SOL    HW227258   4.084   2.013   2.367
 8787SOL     OW27259   3.578   0.535   1.313
 8787SOL    HW127260   3.557   0.574   1.403
 8787SOL    HW227261   3.666   0.570   1.282
 8788SOL     OW27262   0.245   0.560   5.391
 8788SOL    HW127263   0.225   0.462   5.401
 8788SOL    HW227264   0.176   0.613   5.440
 8789SOL     OW27265   0.180   3.793   5.210
 8789SOL    HW127266   0.140   3.848   5.284
 8789SOL    HW227267   0.128   3.809   5.126
 8790SOL     OW27268   6.307   2.282   0.554
 8790SOL    HW127269   6.210   2.299   0.541
 8790SOL    HW227270   6.323   2.183   0.562
 8791SOL     OW27271   4.692   6.230   5.385
 8791SOL    HW127272   4.665   6.141   5.421
 8791SOL    HW227273   4.675   6.232   5.286
 8792SOL     OW27274   4.110   5.481   1.855
 8792SOL    HW127275   4.025   5.529   1.832
 8792SOL    HW227276   4.184   5.548   1.867
 8793SOL     OW27277   1.173   5.155   4.280
 8793SOL    HW127278   1.115   5.106   4.215
 8793SOL    HW227279   1.267   5.157   4.246
 8794SOL     OW27280   6.145   1.273   3.453
 8794SOL    HW127281   6.116   1.276   3.549
 8794SOL    HW227282   6.125   1.360   3.409
 8795SOL     OW27283   1.172   5.086   5.467
 8795SOL    HW127284   1.191   5.156   5.399
 8795SOL    HW227285   1.207   5.115   5.556
 8796SOL     OW27286   6.096   3.987   3.228
 8796SOL    HW127287   6.086   3.907   3.169
 8796SOL    HW227288   6.113   3.957   3.322
 8797SOL     OW27289   0.306   6.664   3.868
 8797SOL    HW127290   0.212   6.672   3.900
 8797SOL    HW227291   0.369   6.690   3.941
 8798SOL     OW27292   4.869   6.493   5.151
 8798SOL    HW127293   4.862   6.497   5.250
 8798SOL    HW227294   4.795   6.545   5.110
 8799SOL     OW27295   2.158   4.678   1.860
 8799SOL    HW127296   2.152   4.692   1.959
 8799SOL    HW227297   2.193   4.760   1.816
 8800SOL     OW27298   0.134   6.280   5.644
 8800SOL    HW127299   0.046   6.239   5.669
 8800SOL    HW227300   0.160   6.349   5.712
 8801SOL     OW27301   5.965   2.049   5.331
 8801SOL    HW127302   5.881   2.104   5.332
 8801SOL    HW227303   6.002   2.044   5.239
 8802SOL     OW27304   1.303   5.726   5.592
 8802SOL    HW127305   1.276   5.640   5.638
 8802SOL    HW227306   1.243   5.800   5.622
 8803SOL     OW27307   6.488   0.964   6.892
 8803SOL    HW127308   6.407   0.980   6.949
 8803SOL    HW227309   6.529   1.052   6.866
 8804SOL     OW27310   1.739   5.757   1.186
 8804SOL    HW127311   1.811   5.764   1.254
 8804SOL    HW227312   1.708   5.848   1.160
 8805SOL     OW27313   4.463   5.743   3.577
 8805SOL    HW127314   4.422   5.814   3.519
 8805SOL    HW227315   4.394   5.673   3.598
 8806SOL     OW27316   2.211   6.437   0.725
 8806SOL    HW127317   2.162   6.351   0.711
 8806SOL    HW227318   2.214   6.488   0.639
 8807SOL     OW27319   4.692   2.149   0.519
 8807SOL    HW127320   4.650   2.196   0.441
 8807SOL    HW227321   4.705   2.052   0.496
 8808SOL     OW27322   1.949   2.421   0.651
 8808SOL    HW127323   1.892   2.343   0.627
 8808SOL    HW227324   1.933   2.496   0.587
 8809SOL     OW27325   2.257   4.067   3.498
 8809SOL    HW127326   2.195   4.008   3.446
 8809SOL    HW227327   2.301   4.132   3.435
 8810SOL     OW27328   6.144   1.825   5.343
 8810SOL    HW127329   6.066   1.886   5.331
 8810SOL    HW227330   6.202   1.829   5.262
 8811SOL     OW27331   4.510   0.103   2.537
 8811SOL    HW127332   4.553   0.028   2.587
 8811SOL    HW227333   4.464   0.164   2.602
 8812SOL     OW27334   3.440   0.537   6.814
 8812SOL    HW127335   3.479   0.625   6.788
 8812SOL    HW227336   3.469   0.513   6.906
 8813SOL     OW27337   2.041   4.080   2.898
 8813SOL    HW127338   1.949   4.093   2.860
 8813SOL    HW227339   2.108   4.121   2.837
 8814SOL     OW27340   5.661   6.773   0.236
 8814SOL    HW127341   5.732   6.843   0.230
 8814SOL    HW227342   5.701   6.688   0.270
 8815SOL     OW27343   5.548   0.583   0.700
 8815SOL    HW127344   5.543   0.682   0.708
 8815SOL    HW227345   5.541   0.557   0.604
 8816SOL     OW27346   0.083   6.356   6.649
 8816SOL    HW127347   0.144   6.414   6.595
 8816SOL    HW227348   0.066   6.270   6.600
 8817SOL     OW27349   0.715   3.415   4.582
 8817SOL    HW127350   0.657   3.336   4.560
 8817SOL    HW227351   0.736   3.466   4.498
 8818SOL     OW27352   1.640   6.803   3.756
 8818SOL    HW127353   1.697   6.738   3.706
 8818SOL    HW227354   1.544   6.777   3.747
 8819SOL     OW27355   5.589   4.312   5.580
 8819SOL    HW127356   5.539   4.368   5.514
 8819SOL    HW227357   5.531   4.237   5.612
 8820SOL     OW27358   3.717   0.927   4.817
 8820SOL    HW127359   3.710   0.925   4.917
 8820SOL    HW227360   3.734   1.021   4.788
 8821SOL     OW27361   1.011   5.256   0.572
 8821SOL    HW127362   1.073   5.333   0.591
 8821SOL    HW227363   0.956   5.277   0.491
 8822SOL     OW27364   6.450   6.324   4.162
 8822SOL    HW127365   6.375   6.331   4.096
 8822SOL    HW227366   6.536   6.349   4.117
 8823SOL     OW27367   2.982   1.151   2.130
 8823SOL    HW127368   2.964   1.107   2.218
 8823SOL    HW227369   2.995   1.249   2.143
 8824SOL     OW27370   1.495   0.450   0.986
 8824SOL    HW127371   1.579   0.399   1.001
 8824SOL    HW227372   1.492   0.482   0.891
 8825SOL     OW27373   0.366   0.541   1.175
 8825SOL    HW127374   0.328   0.523   1.266
 8825SOL    HW227375   0.465   0.526   1.176
 8826SOL     OW27376   0.921   3.291   0.882
 8826SOL    HW127377   1.017   3.300   0.856
 8826SOL    HW227378   0.873   3.376   0.859
 8827SOL     OW27379   3.970   0.361   2.309
 8827SOL    HW127380   3.916   0.324   2.385
 8827SOL    HW227381   4.029   0.289   2.272
 8828SOL     OW27382   3.974   4.308   6.097
 8828SOL    HW127383   4.064   4.296   6.139
 8828SOL    HW227384   3.985   4.351   6.008
 8829SOL     OW27385   6.972   1.457   2.303
 8829SOL    HW127386   0.049   1.462   2.314
 8829SOL    HW227387   6.938   1.542   2.263
 8830SOL     OW27388   2.519   1.472   1.927
 8830SOL    HW127389   2.480   1.425   2.007
 8830SOL    HW227390   2.606   1.429   1.903
 8831SOL     OW27391   0.318   2.819   2.511
 8831SOL    HW127392   0.275   2.814   2.601
 8831SOL    HW227393   0.256   2.866   2.448
 8832SOL     OW27394   6.287   6.701   4.038
 8832SOL    HW127395   6.265   6.798   4.041
 8832SOL    HW227396   6.372   6.684   4.088
 8833SOL     OW27397   4.036   2.999   1.130
 8833SOL    HW127398   4.107   2.958   1.071
 8833SOL    HW227399   4.005   2.931   1.196
 8834SOL     OW27400   5.971   3.597   5.412
 8834SOL    HW127401   5.887   3.644   5.438
 8834SOL    HW227402   5.967   3.572   5.315
 8835SOL     OW27403   5.810   0.758   5.997
 8835SOL    HW127404   5.838   0.725   5.907
 8835SOL    HW227405   5.796   0.857   5.994
 8836SOL     OW27406   5.584   2.580   0.235
 8836SOL    HW127407   5.642   2.630   0.171
 8836SOL    HW227408   5.494   2.623   0.239
 8837SOL     OW27409   0.063   6.607   1.975
 8837SOL    HW127410   0.048   6.697   1.935
 8837SOL    HW227411   0.144   6.609   2.034
 8838SOL     OW27412   0.799   4.237   2.752
 8838SOL    HW127413   0.811   4.321   2.805
 8838SOL    HW227414   0.875   4.175   2.769
 8839SOL     OW27415   5.334   5.442   2.443
 8839SOL    HW127416   5.392   5.510   2.399
 8839SOL    HW227417   5.357   5.350   2.410
 8840SOL     OW27418   6.312   0.490   2.173
 8840SOL    HW127419   6.324   0.556   2.098
 8840SOL    HW227420   6.245   0.421   2.146
 8841SOL     OW27421   4.194   1.056   2.329
 8841SOL    HW127422   4.130   0.985   2.301
 8841SOL    HW227423   4.177   1.140   2.277
 8842SOL     OW27424   3.402   4.103   4.080
 8842SOL    HW127425   3.428   4.108   3.984
 8842SOL    HW227426   3.475   4.141   4.136
 8843SOL     OW27427   1.916   3.068   5.156
 8843SOL    HW127428   1.875   3.138   5.214
 8843SOL    HW227429   2.003   3.102   5.120
 8844SOL     OW27430   6.372   2.260   5.135
 8844SOL    HW127431   6.338   2.212   5.053
 8844SOL    HW227432   6.303   2.254   5.207
 8845SOL     OW27433   2.177   5.316   0.976
 8845SOL    HW127434   2.215   5.287   0.888
 8845SOL    HW227435   2.091   5.268   0.993
 8846SOL     OW27436   5.306   4.648   3.871
 8846SOL    HW127437   5.239   4.664   3.942
 8846SOL    HW227438   5.262   4.603   3.793
 8847SOL     OW27439   1.328   1.905   2.671
 8847SOL    HW127440   1.264   1.908   2.595
 8847SOL    HW227441   1.330   1.812   2.710
 8848SOL     OW27442   3.332   1.997   1.484
 8848SOL    HW127443   3.298   2.038   1.569
 8848SOL    HW227444   3.282   1.913   1.465
 8849SOL     OW27445   2.510   5.265   4.062
 8849SOL    HW127446   2.488   5.304   4.151
 8849SOL    HW227447   2.605   5.285   4.039
 8850SOL     OW27448   2.883   1.792   0.338
 8850SOL    HW127449   2.834   1.878   0.321
 8850SOL    HW227450   2.863   1.761   0.431
 8851SOL     OW27451   0.787   4.495   2.926
 8851SOL    HW127452   0.724   4.430   2.968
 8851SOL    HW227453   0.800   4.573   2.987
 8852SOL     OW27454   5.303   2.799   6.327
 8852SOL    HW127455   5.391   2.825   6.367
 8852SOL    HW227456   5.241   2.767   6.399
 8853SOL     OW27457   3.561   1.264   5.245
 8853SOL    HW127458   3.586   1.167   5.244
 8853SOL    HW227459   3.464   1.275   5.223
 8854SOL     OW27460   1.765   0.054   5.796
 8854SOL    HW127461   1.691   0.003   5.838
 8854SOL    HW227462   1.853   0.019   5.828
 8855SOL     OW27463   5.843   5.793   6.678
 8855SOL    HW127464   5.797   5.794   6.767
 8855SOL    HW227465   5.814   5.871   6.624
 8856SOL     OW27466   6.451   0.514   4.708
 8856SOL    HW127467   6.482   0.420   4.693
 8856SOL    HW227468   6.504   0.556   4.780
 8857SOL     OW27469   6.270   2.111   3.067
 8857SOL    HW127470   6.350   2.110   3.008
 8857SOL    HW227471   6.283   2.047   3.143
 8858SOL     OW27472   1.208   3.737   5.899
 8858SOL    HW127473   1.189   3.831   5.925
 8858SOL    HW227474   1.300   3.730   5.861
 8859SOL     OW27475   0.847   6.986   5.109
 8859SOL    HW127476   0.868   6.926   5.186
 8859SOL    HW227477   0.752   6.973   5.081
 8860SOL     OW27478   1.402   3.384   2.275
 8860SOL    HW127479   1.310   3.419   2.294
 8860SOL    HW227480   1.456   3.454   2.229
 8861SOL     OW27481   3.458   3.336   6.715
 8861SOL    HW127482   3.412   3.336   6.627
 8861SOL    HW227483   3.467   3.430   6.748
 8862SOL     OW27484   5.965   1.588   4.646
 8862SOL    HW127485   5.973   1.491   4.626
 8862SOL    HW227486   5.976   1.641   4.561
 8863SOL     OW27487   2.183   5.779   4.337
 8863SOL    HW127488   2.178   5.839   4.258
 8863SOL    HW227489   2.113   5.709   4.330
 8864SOL     OW27490   2.083   3.059   6.283
 8864SOL    HW127491   2.101   3.090   6.190
 8864SOL    HW227492   2.053   2.964   6.282
 8865SOL     OW27493   3.157   1.369   4.775
 8865SOL    HW127494   3.241   1.338   4.729
 8865SOL    HW227495   3.097   1.290   4.789
 8866SOL     OW27496   4.164   6.549   3.119
 8866SOL    HW127497   4.102   6.484   3.163
 8866SOL    HW227498   4.248   6.557   3.173
 8867SOL     OW27499   5.894   2.392   2.792
 8867SOL    HW127500   5.903   2.306   2.743
 8867SOL    HW227501   5.848   2.459   2.734
 8868SOL     OW27502   5.251   3.483   0.289
 8868SOL    HW127503   5.214   3.523   0.373
 8868SOL    HW227504   5.284   3.556   0.230
 8869SOL     OW27505   4.751   4.160   2.824
 8869SOL    HW127506   4.787   4.073   2.858
 8869SOL    HW227507   4.788   4.178   2.733
 8870SOL     OW27508   3.757   0.560   1.083
 8870SOL    HW127509   3.745   0.471   1.126
 8870SOL    HW227510   3.843   0.561   1.032
 8871SOL     OW27511   2.632   1.648   3.817
 8871SOL    HW127512   2.656   1.609   3.728
 8871SOL    HW227513   2.542   1.615   3.845
 8872SOL     OW27514   1.954   4.354   4.429
 8872SOL    HW127515   1.995   4.329   4.517
 8872SOL    HW227516   2.012   4.321   4.354
 8873SOL     OW27517   6.818   5.778   2.869
 8873SOL    HW127518   6.836   5.750   2.775
 8873SOL    HW227519   6.830   5.877   2.878
 8874SOL     OW27520   1.780   0.155   1.191
 8874SOL    HW127521   1.796   0.196   1.281
 8874SOL    HW227522   1.853   0.091   1.169
 8875SOL     OW27523   1.145   2.826   4.517
 8875SOL    HW127524   1.133   2.738   4.561
 8875SOL    HW227525   1.191   2.889   4.580
 8876SOL     OW27526   6.816   0.429   4.377
 8876SOL    HW127527   6.786   0.502   4.439
 8876SOL    HW227528   6.739   0.368   4.359
 8877SOL     OW27529   2.807   0.516   4.317
 8877SOL    HW127530   2.867   0.445   4.281
 8877SOL    HW227531   2.839   0.542   4.408
 8878SOL     OW27532   0.412   5.108   0.911
 8878SOL    HW127533   0.396   5.037   0.843
 8878SOL    HW227534   0.369   5.082   0.997
 8879SOL     OW27535   5.174   5.473   0.701
 8879SOL    HW127536   5.246   5.492   0.767
 8879SOL    HW227537   5.088   5.512   0.734
 8880SOL     OW27538   0.383   5.626   4.575
 8880SOL    HW127539   0.370   5.536   4.616
 8880SOL    HW227540   0.298   5.655   4.530
 8881SOL     OW27541   6.460   0.678   3.426
 8881SOL    HW127542   6.401   0.612   3.379
 8881SOL    HW227543   6.405   0.733   3.489
 8882SOL     OW27544   5.310   0.871   0.053
 8882SOL    HW127545   5.369   0.945   0.087
 8882SOL    HW227546   5.347   0.783   0.082
 8883SOL     OW27547   0.318   1.012   6.063
 8883SOL    HW127548   0.267   1.088   6.024
 8883SOL    HW227549   0.414   1.018   6.035
 8884SOL     OW27550   5.998   6.444   6.667
 8884SOL    HW127551   5.936   6.517   6.639
 8884SOL    HW227552   6.071   6.434   6.599
 8885SOL     OW27553   6.470   3.838   1.666
 8885SOL    HW127554   6.418   3.754   1.683
 8885SOL    HW227555   6.435   3.882   1.584
 8886SOL     OW27556   2.494   5.903   5.330
 8886SOL    HW127557   2.584   5.947   5.324
 8886SOL    HW227558   2.437   5.955   5.395
 8887SOL     OW27559   2.885   1.134   0.756
 8887SOL    HW127560   2.856   1.230   0.762
 8887SOL    HW227561   2.893   1.096   0.848
 8888SOL     OW27562   1.042   1.942   0.967
 8888SOL    HW127563   0.998   1.875   1.026
 8888SOL    HW227564   1.138   1.917   0.953
 8889SOL     OW27565   5.648   6.783   5.005
 8889SOL    HW127566   5.725   6.824   5.053
 8889SOL    HW227567   5.571   6.772   5.068
 8890SOL     OW27568   6.444   5.922   4.809
 8890SOL    HW127569   6.541   5.906   4.831
 8890SOL    HW227570   6.406   5.840   4.767
 8891SOL     OW27571   6.064   2.956   6.542
 8891SOL    HW127572   6.084   3.025   6.611
 8891SOL    HW227573   6.018   2.878   6.585
 8892SOL     OW27574   3.192   6.905   3.249
 8892SOL    HW127575   3.284   6.904   3.210
 8892SOL    HW227576   3.125   6.881   3.179
 8893SOL     OW27577   0.526   0.992   1.796
 8893SOL    HW127578   0.551   0.912   1.851
 8893SOL    HW227579   0.479   0.962   1.713
 8894SOL     OW27580   3.935   3.168   6.099
 8894SOL    HW127581   3.844   3.210   6.098
 8894SOL    HW227582   3.987   3.201   6.177
 8895SOL     OW27583   0.223   0.342   1.910
 8895SOL    HW127584   0.204   0.419   1.849
 8895SOL    HW227585   0.270   0.375   1.992
 8896SOL     OW27586   0.756   3.525   5.299
 8896SOL    HW127587   0.778   3.453   5.364
 8896SOL    HW227588   0.661   3.516   5.270
 8897SOL     OW27589   1.556   1.580   1.935
 8897SOL    HW127590   1.513   1.497   1.899
 8897SOL    HW227591   1.631   1.608   1.876
 8898SOL     OW27592   6.231   3.019   4.851
 8898SOL    HW127593   6.155   2.957   4.830
 8898SOL    HW227594   6.200   3.113   4.846
 8899SOL     OW27595   2.193   4.044   6.656
 8899SOL    HW127596   2.248   3.960   6.656
 8899SOL    HW227597   2.159   4.062   6.748
 8900SOL     OW27598   5.511   3.283   3.012
 8900SOL    HW127599   5.525   3.353   3.081
 8900SOL    HW227600   5.413   3.277   2.991
 8901SOL     OW27601   2.252   0.772   3.106
 8901SOL    HW127602   2.260   0.778   3.205
 8901SOL    HW227603   2.238   0.864   3.068
 8902SOL     OW27604   2.933   5.858   6.247
 8902SOL    HW127605   3.024   5.819   6.259
 8902SOL    HW227606   2.935   5.956   6.269
 8903SOL     OW27607   2.374   1.543   3.610
 8903SOL    HW127608   2.394   1.450   3.579
 8903SOL    HW227609   2.384   1.548   3.709
 8904SOL     OW27610   0.001   5.083   3.552
 8904SOL    HW127611   6.939   5.056   3.599
 8904SOL    HW227612   0.003   5.183   3.544
 8905SOL     OW27613   2.202   3.448   5.192
 8905SOL    HW127614   2.145   3.461   5.273
 8905SOL    HW227615   2.237   3.536   5.161
 8906SOL     OW27616   6.730   0.266   6.822
 8906SOL    HW127617   6.818   0.255   6.776
 8906SOL    HW227618   6.737   0.338   6.890
 8907SOL     OW27619   3.376   2.277   5.345
 8907SOL    HW127620   3.342   2.239   5.431
 8907SOL    HW227621   3.306   2.335   5.304
 8908SOL     OW27622   1.566   2.819   0.619
 8908SOL    HW127623   1.556   2.918   0.624
 8908SOL    HW227624   1.625   2.788   0.693
 8909SOL     OW27625   2.566   0.457   4.944
 8909SOL    HW127626   2.524   0.473   5.033
 8909SOL    HW227627   2.597   0.544   4.907
 8910SOL     OW27628   2.328   3.104   5.880
 8910SOL    HW127629   2.386   3.144   5.808
 8910SOL    HW227630   2.384   3.084   5.960
 8911SOL     OW27631   3.810   2.082   4.592
 8911SOL    HW127632   3.764   2.094   4.504
 8911SOL    HW227633   3.745   2.099   4.666
 8912SOL     OW27634   3.973   1.270   6.530
 8912SOL    HW127635   4.069   1.297   6.527
 8912SOL    HW227636   3.922   1.319   6.460
 8913SOL     OW27637   5.302   4.210   1.696
 8913SOL    HW127638   5.286   4.141   1.626
 8913SOL    HW227639   5.228   4.277   1.694
 8914SOL     OW27640   4.211   1.482   5.568
 8914SOL    HW127641   4.130   1.426   5.589
 8914SOL    HW227642   4.228   1.545   5.644
 8915SOL     OW27643   1.454   2.507   3.856
 8915SOL    HW127644   1.461   2.477   3.951
 8915SOL    HW227645   1.504   2.593   3.844
 8916SOL     OW27646   0.153   3.714   1.678
 8916SOL    HW127647   0.251   3.734   1.688
 8916SOL    HW227648   0.140   3.646   1.606
 8917SOL     OW27649   5.982   5.122   6.613
 8917SOL    HW127650   6.010   5.203   6.563
 8917SOL    HW227651   6.029   5.118   6.701
 8918SOL     OW27652   6.501   6.430   0.125
 8918SOL    HW127653   6.453   6.454   0.210
 8918SOL    HW227654   6.434   6.401   0.056
 8919SOL     OW27655   4.149   3.648   0.728
 8919SOL    HW127656   4.179   3.731   0.775
 8919SOL    HW227657   4.211   3.573   0.750
 8920SOL     OW27658   6.497   5.970   6.382
 8920SOL    HW127659   6.441   5.932   6.308
 8920SOL    HW227660   6.529   6.061   6.357
 8921SOL     OW27661   1.231   1.457   3.082
 8921SOL    HW127662   1.250   1.370   3.036
 8921SOL    HW227663   1.317   1.506   3.098
 8922SOL     OW27664   2.230   5.274   0.715
 8922SOL    HW127665   2.311   5.222   0.688
 8922SOL    HW227666   2.224   5.357   0.660
 8923SOL     OW27667   1.964   3.761   6.641
 8923SOL    HW127668   1.985   3.762   6.739
 8923SOL    HW227669   2.032   3.706   6.593
 8924SOL     OW27670   2.719   5.472   5.460
 8924SOL    HW127671   2.742   5.556   5.509
 8924SOL    HW227672   2.620   5.466   5.448
 8925SOL     OW27673   0.657   0.600   2.626
 8925SOL    HW127674   0.655   0.507   2.591
 8925SOL    HW227675   0.725   0.606   2.699
 8926SOL     OW27676   5.828   2.279   1.799
 8926SOL    HW127677   5.865   2.225   1.875
 8926SOL    HW227678   5.764   2.223   1.746
 8927SOL     OW27679   2.749   2.298   4.924
 8927SOL    HW127680   2.693   2.350   4.989
 8927SOL    HW227681   2.821   2.250   4.973
 8928SOL     OW27682   0.037   1.059   5.344
 8928SOL    HW127683   0.011   1.092   5.253
 8928SOL    HW227684   0.135   1.039   5.345
 8929SOL     OW27685   0.189   3.282   3.844
 8929SOL    HW127686   0.269   3.241   3.888
 8929SOL    HW227687   0.204   3.379   3.830
 8930SOL     OW27688   1.645   5.398   5.294
 8930SOL    HW127689   1.676   5.467   5.228
 8930SOL    HW227690   1.712   5.324   5.298
 8931SOL     OW27691   4.309   2.658   0.909
 8931SOL    HW127692   4.263   2.570   0.922
 8931SOL    HW227693   4.270   2.704   0.828
 8932SOL     OW27694   5.245   6.911   6.268
 8932SOL    HW127695   5.268   6.825   6.223
 8932SOL    HW227696   5.318   6.935   6.332
 8933SOL     OW27697   1.009   1.084   5.183
 8933SOL    HW127698   1.059   1.013   5.134
 8933SOL    HW227699   0.917   1.050   5.204
 8934SOL     OW27700   3.305   5.165   2.531
 8934SOL    HW127701   3.311   5.066   2.527
 8934SOL    HW227702   3.392   5.203   2.562
 8935SOL     OW27703   4.916   3.311   2.486
 8935SOL    HW127704   4.927   3.355   2.397
 8935SOL    HW227705   4.866   3.225   2.475
 8936SOL     OW27706   0.787   3.517   0.852
 8936SOL    HW127707   0.784   3.597   0.792
 8936SOL    HW227708   0.746   3.540   0.940
 8937SOL     OW27709   0.560   0.487   3.851
 8937SOL    HW127710   0.587   0.543   3.772
 8937SOL    HW227711   0.641   0.463   3.904
 8938SOL     OW27712   5.907   0.455   0.547
 8938SOL    HW127713   5.885   0.435   0.642
 8938SOL    HW227714   6.006   0.463   0.536
 8939SOL     OW27715   6.512   3.022   4.904
 8939SOL    HW127716   6.412   3.028   4.908
 8939SOL    HW227717   6.540   3.003   4.810
 8940SOL     OW27718   6.285   2.758   0.344
 8940SOL    HW127719   6.315   2.681   0.402
 8940SOL    HW227720   6.313   2.844   0.387
 8941SOL     OW27721   4.894   2.098   2.042
 8941SOL    HW127722   4.880   2.149   1.957
 8941SOL    HW227723   4.927   2.006   2.021
 8942SOL     OW27724   6.703   4.533   4.042
 8942SOL    HW127725   6.653   4.609   4.085
 8942SOL    HW227726   6.793   4.565   4.013
 8943SOL     OW27727   4.207   3.999   0.362
 8943SOL    HW127728   4.196   3.914   0.412
 8943SOL    HW227729   4.119   4.028   0.325
 8944SOL     OW27730   4.715   4.672   4.417
 8944SOL    HW127731   4.723   4.709   4.509
 8944SOL    HW227732   4.626   4.629   4.405
 8945SOL     OW27733   6.297   3.359   5.360
 8945SOL    HW127734   6.314   3.300   5.281
 8945SOL    HW227735   6.206   3.340   5.397
 8946SOL     OW27736   4.542   0.622   4.559
 8946SOL    HW127737   4.503   0.583   4.643
 8946SOL    HW227738   4.609   0.559   4.521
 8947SOL     OW27739   1.131   4.659   6.814
 8947SOL    HW127740   1.049   4.674   6.870
 8947SOL    HW227741   1.170   4.747   6.788
 8948SOL     OW27742   6.510   5.998   4.227
 8948SOL    HW127743   6.463   6.049   4.298
 8948SOL    HW227744   6.604   6.031   4.218
 8949SOL     OW27745   3.929   6.287   0.233
 8949SOL    HW127746   4.006   6.223   0.237
 8949SOL    HW227747   3.922   6.335   0.320
 8950SOL     OW27748   4.961   3.995   1.096
 8950SOL    HW127749   4.958   3.934   1.175
 8950SOL    HW227750   4.964   4.090   1.126
 8951SOL     OW27751   2.434   0.963   3.972
 8951SOL    HW127752   2.439   0.872   3.931
 8951SOL    HW227753   2.471   0.960   4.065
 8952SOL     OW27754   2.292   4.910   3.591
 8952SOL    HW127755   2.205   4.868   3.566
 8952SOL    HW227756   2.305   4.994   3.538
 8953SOL     OW27757   2.586   5.088   1.978
 8953SOL    HW127758   2.554   5.045   1.893
 8953SOL    HW227759   2.600   5.185   1.963
 8954SOL     OW27760   1.288   5.647   4.153
 8954SOL    HW127761   1.385   5.623   4.159
 8954SOL    HW227762   1.255   5.628   4.061
 8955SOL     OW27763   6.436   3.080   2.683
 8955SOL    HW127764   6.380   3.101   2.763
 8955SOL    HW227765   6.437   2.981   2.667
 8956SOL     OW27766   0.518   6.930   6.670
 8956SOL    HW127767   0.556   7.006   6.618
 8956SOL    HW227768   0.482   6.963   6.757
 8957SOL     OW27769   1.616   5.595   2.163
 8957SOL    HW127770   1.602   5.645   2.077
 8957SOL    HW227771   1.676   5.518   2.147
 8958SOL     OW27772   1.461   3.371   5.407
 8958SOL    HW127773   1.400   3.439   5.365
 8958SOL    HW227774   1.406   3.298   5.448
 8959SOL     OW27775   0.900   3.445   2.077
 8959SOL    HW127776   0.827   3.502   2.116
 8959SOL    HW227777   0.881   3.429   1.980
 8960SOL     OW27778   6.543   3.863   3.924
 8960SOL    HW127779   6.545   3.898   3.831
 8960SOL    HW227780   6.508   3.934   3.986
 8961SOL     OW27781   3.042   6.891   4.086
 8961SOL    HW127782   2.997   6.978   4.107
 8961SOL    HW227783   3.140   6.899   4.104
 8962SOL     OW27784   1.204   6.020   1.368
 8962SOL    HW127785   1.238   5.927   1.352
 8962SOL    HW227786   1.175   6.060   1.282
 8963SOL     OW27787   3.593   5.577   4.321
 8963SOL    HW127788   3.594   5.578   4.421
 8963SOL    HW227789   3.538   5.500   4.289
 8964SOL     OW27790   5.720   4.003   2.978
 8964SOL    HW127791   5.735   3.962   3.067
 8964SOL    HW227792   5.716   3.932   2.908
 8965SOL     OW27793   4.029   4.705   0.743
 8965SOL    HW127794   3.938   4.679   0.773
 8965SOL    HW227795   4.087   4.724   0.823
 8966SOL     OW27796   6.197   5.285   5.947
 8966SOL    HW127797   6.124   5.340   5.906
 8966SOL    HW227798   6.284   5.307   5.905
 8967SOL     OW27799   3.679   1.051   2.958
 8967SOL    HW127800   3.601   1.061   3.019
 8967SOL    HW227801   3.717   0.959   2.966
 8968SOL     OW27802   2.272   4.618   1.566
 8968SOL    HW127803   2.369   4.635   1.550
 8968SOL    HW227804   2.250   4.637   1.662
 8969SOL     OW27805   0.435   6.609   3.214
 8969SOL    HW127806   0.496   6.597   3.292
 8969SOL    HW227807   0.373   6.686   3.231
 8970SOL     OW27808   1.098   1.711   5.835
 8970SOL    HW127809   1.078   1.700   5.738
 8970SOL    HW227810   1.158   1.790   5.849
 8971SOL     OW27811   4.377   6.482   0.966
 8971SOL    HW127812   4.469   6.520   0.963
 8971SOL    HW227813   4.316   6.535   0.907
 8972SOL     OW27814   5.532   5.311   0.312
 8972SOL    HW127815   5.599   5.307   0.238
 8972SOL    HW227816   5.539   5.229   0.368
 8973SOL     OW27817   0.687   2.654   2.160
 8973SOL    HW127818   0.715   2.678   2.067
 8973SOL    HW227819   0.729   2.718   2.225
 8974SOL     OW27820   2.244   4.051   4.502
 8974SOL    HW127821   2.171   3.991   4.469
 8974SOL    HW227822   2.312   3.996   4.551
 8975SOL     OW27823   0.508   0.435   6.657
 8975SOL    HW127824   0.556   0.523   6.655
 8975SOL    HW227825   0.565   0.368   6.705
 8976SOL     OW27826   5.946   6.190   1.210
 8976SOL    HW127827   6.021   6.128   1.231
 8976SOL    HW227828   5.980   6.284   1.205
 8977SOL     OW27829   6.830   5.348   6.212
 8977SOL    HW127830   6.891   5.348   6.291
 8977SOL    HW227831   6.838   5.260   6.164
 8978SOL     OW27832   6.127   6.174   5.052
 8978SOL    HW127833   6.202   6.115   5.079
 8978SOL    HW227834   6.164   6.261   5.017
 8979SOL     OW27835   0.847   5.392   6.160
 8979SOL    HW127836   0.776   5.362   6.097
 8979SOL    HW227837   0.936   5.392   6.114
 8980SOL     OW27838   4.331   1.746   5.714
 8980SOL    HW127839   4.360   1.826   5.765
 8980SOL    HW227840   4.364   1.752   5.619
 8981SOL     OW27841   4.269   2.014   6.101
 8981SOL    HW127842   4.231   1.946   6.164
 8981SOL    HW227843   4.195   2.071   6.065
 8982SOL     OW27844   6.562   0.919   2.169
 8982SOL    HW127845   6.468   0.941   2.142
 8982SOL    HW227846   6.587   0.829   2.132
 8983SOL     OW27847   1.072   5.114   2.058
 8983SOL    HW127848   1.099   5.139   1.965
 8983SOL    HW227849   0.978   5.145   2.075
 8984SOL     OW27850   5.871   0.447   4.339
 8984SOL    HW127851   5.901   0.525   4.284
 8984SOL    HW227852   5.834   0.376   4.279
 8985SOL     OW27853   4.661   1.837   0.515
 8985SOL    HW127854   4.624   1.756   0.471
 8985SOL    HW227855   4.731   1.879   0.457
 8986SOL     OW27856   6.195   4.423   1.943
 8986SOL    HW127857   6.105   4.439   1.901
 8986SOL    HW227858   6.266   4.434   1.873
 8987SOL     OW27859   2.468   0.252   1.422
 8987SOL    HW127860   2.542   0.297   1.472
 8987SOL    HW227861   2.412   0.198   1.486
 8988SOL     OW27862   2.231   5.764   0.867
 8988SOL    HW127863   2.284   5.686   0.899
 8988SOL    HW227864   2.140   5.734   0.839
 8989SOL     OW27865   4.994   2.580   2.730
 8989SOL    HW127866   5.015   2.660   2.787
 8989SOL    HW227867   4.994   2.498   2.787
 8990SOL     OW27868   3.352   6.042   0.580
 8990SOL    HW127869   3.439   6.091   0.575
 8990SOL    HW227870   3.277   6.108   0.586
 8991SOL     OW27871   1.944   2.495   0.904
 8991SOL    HW127872   1.938   2.593   0.922
 8991SOL    HW227873   1.990   2.479   0.817
 8992SOL     OW27874   0.441   2.889   0.295
 8992SOL    HW127875   0.412   2.929   0.382
 8992SOL    HW227876   0.361   2.873   0.237
 8993SOL     OW27877   5.147   2.035   3.777
 8993SOL    HW127878   5.098   1.948   3.780
 8993SOL    HW227879   5.243   2.019   3.756
 8994SOL     OW27880   1.796   5.505   3.898
 8994SOL    HW127881   1.810   5.409   3.922
 8994SOL    HW227882   1.837   5.563   3.968
 8995SOL     OW27883   1.184   2.804   5.000
 8995SOL    HW127884   1.094   2.768   4.976
 8995SOL    HW227885   1.174   2.872   5.072
 8996SOL     OW27886   0.455   3.882   1.149
 8996SOL    HW127887   0.455   3.966   1.204
 8996SOL    HW227888   0.537   3.880   1.092
 8997SOL     OW27889   4.858   1.193   6.290
 8997SOL    HW127890   4.952   1.173   6.320
 8997SOL    HW227891   4.795   1.128   6.333
 8998SOL     OW27892   1.184   2.575   5.517
 8998SOL    HW127893   1.207   2.590   5.421
 8998SOL    HW227894   1.175   2.664   5.563
 8999SOL     OW27895   4.672   1.578   6.467
 8999SOL    HW127896   4.741   1.506   6.459
 8999SOL    HW227897   4.610   1.557   6.543
 9000SOL     OW27898   3.029   3.780   6.782
 9000SOL    HW127899   3.028   3.760   6.880
 9000SOL    HW227900   3.030   3.694   6.730
 9001SOL     OW27901   1.908   4.707   3.470
 9001SOL    HW127902   1.814   4.738   3.459
 9001SOL    HW227903   1.921   4.671   3.563
 9002SOL     OW27904   6.336   5.043   5.787
 9002SOL    HW127905   6.314   5.059   5.691
 9002SOL    HW227906   6.315   4.948   5.810
 9003SOL     OW27907   6.357   2.551   0.494
 9003SOL    HW127908   6.364   2.578   0.590
 9003SOL    HW227909   6.345   2.451   0.488
 9004SOL     OW27910   5.211   6.672   1.276
 9004SOL    HW127911   5.268   6.682   1.195
 9004SOL    HW227912   5.269   6.653   1.356
 9005SOL     OW27913   4.694   1.985   3.804
 9005SOL    HW127914   4.634   2.024   3.874
 9005SOL    HW227915   4.734   1.900   3.838
 9006SOL     OW27916   1.788   5.184   1.285
 9006SOL    HW127917   1.758   5.241   1.209
 9006SOL    HW227918   1.768   5.088   1.265
 9007SOL     OW27919   2.904   5.090   3.786
 9007SOL    HW127920   2.950   5.029   3.850
 9007SOL    HW227921   2.970   5.126   3.720
 9008SOL     OW27922   6.889   4.447   1.992
 9008SOL    HW127923   6.973   4.393   1.988
 9008SOL    HW227924   6.837   4.420   2.073
 9009SOL     OW27925   2.345   0.101   1.179
 9009SOL    HW127926   2.394   0.160   1.244
 9009SOL    HW227927   2.408   0.073   1.107
 9010SOL     OW27928   0.882   6.717   4.704
 9010SOL    HW127929   0.943   6.646   4.668
 9010SOL    HW227930   0.795   6.675   4.731
 9011SOL     OW27931   3.982   2.272   1.079
 9011SOL    HW127932   3.917   2.207   1.041
 9011SOL    HW227933   3.957   2.292   1.174
 9012SOL     OW27934   0.957   4.925   1.329
 9012SOL    HW127935   0.876   4.869   1.348
 9012SOL    HW227936   0.981   4.918   1.232
 9013SOL     OW27937   6.627   5.745   4.334
 9013SOL    HW127938   6.679   5.749   4.419
 9013SOL    HW227939   6.552   5.811   4.337
 9014SOL     OW27940   0.971   1.460   0.076
 9014SOL    HW127941   0.990   1.378   0.021
 9014SOL    HW227942   1.036   1.532   0.053
 9015SOL     OW27943   0.405   0.997   6.419
 9015SOL    HW127944   0.493   1.002   6.372
 9015SOL    HW227945   0.348   1.075   6.391
 9016SOL     OW27946   6.824   6.253   6.063
 9016SOL    HW127947   6.761   6.228   5.990
 9016SOL    HW227948   6.906   6.195   6.058
 9017SOL     OW27949   5.837   1.641   3.995
 9017SOL    HW127950   5.753   1.614   3.948
 9017SOL    HW227951   5.836   1.740   4.011
 9018SOL     OW27952   3.667   0.550   4.818
 9018SOL    HW127953   3.704   0.615   4.752
 9018SOL    HW227954   3.741   0.519   4.878
 9019SOL     OW27955   2.668   6.463   6.857
 9019SOL    HW127956   2.766   6.485   6.862
 9019SOL    HW227957   2.622   6.499   6.937
 9020SOL     OW27958   1.809   4.234   2.587
 9020SOL    HW127959   1.879   4.290   2.543
 9020SOL    HW227960   1.740   4.293   2.628
 9021SOL     OW27961   7.017   6.068   4.256
 9021SOL    HW127962   6.952   6.016   4.312
 9021SOL    HW227963   0.069   6.008   4.225
 9022SOL     OW27964   2.759   0.360   0.132
 9022SOL    HW127965   2.783   0.424   0.059
 9022SOL    HW227966   2.663   0.372   0.156
 9023SOL     OW27967   3.200   3.228   3.746
 9023SOL    HW127968   3.235   3.135   3.735
 9023SOL    HW227969   3.262   3.292   3.702
 9024SOL     OW27970   1.525   6.167   5.966
 9024SOL    HW127971   1.548   6.088   6.023
 9024SOL    HW227972   1.483   6.136   5.881
 9025SOL     OW27973   6.536   5.188   1.683
 9025SOL    HW127974   6.523   5.100   1.636
 9025SOL    HW227975   6.555   5.259   1.615
 9026SOL     OW27976   3.803   3.069   4.481
 9026SOL    HW127977   3.778   3.006   4.408
 9026SOL    HW227978   3.754   3.044   4.565
 9027SOL     OW27979   2.823   2.342   3.010
 9027SOL    HW127980   2.799   2.429   2.967
 9027SOL    HW227981   2.796   2.344   3.106
 9028SOL     OW27982   2.359   4.352   5.949
 9028SOL    HW127983   2.299   4.272   5.936
 9028SOL    HW227984   2.321   4.411   6.020
 9029SOL     OW27985   4.271   5.383   4.259
 9029SOL    HW127986   4.314   5.296   4.284
 9029SOL    HW227987   4.307   5.414   4.171
 9030SOL     OW27988   2.192   1.017   2.623
 9030SOL    HW127989   2.270   1.044   2.680
 9030SOL    HW227990   2.179   1.085   2.550
 9031SOL     OW27991   2.614   6.064   5.953
 9031SOL    HW127992   2.629   6.073   6.052
 9031SOL    HW227993   2.586   6.152   5.915
 9032SOL     OW27994   2.471   2.504   1.514
 9032SOL    HW127995   2.540   2.441   1.549
 9032SOL    HW227996   2.499   2.598   1.535
 9033SOL     OW27997   2.113   3.653   4.448
 9033SOL    HW127998   2.143   3.583   4.384
 9033SOL    HW227999   2.121   3.618   4.542
 9034SOL     OW28000   2.922   6.720   5.022
 9034SOL    HW128001   2.896   6.785   4.950
 9034SOL    HW228002   2.954   6.635   4.980
 9035SOL     OW28003   0.001   6.890   4.799
 9035SOL    HW128004   6.983   6.982   4.807
 9035SOL    HW228005   0.100   6.896   4.810
 9036SOL     OW28006   1.788   2.509   5.246
 9036SOL    HW128007   1.815   2.605   5.233
 9036SOL    HW228008   1.688   2.503   5.244
 9037SOL     OW28009   2.247   3.860   6.026
 9037SOL    HW128010   2.224   3.808   5.944
 9037SOL    HW228011   2.191   3.828   6.102
 9038SOL     OW28012   5.265   0.702   5.971
 9038SOL    HW128013   5.280   0.603   5.971
 9038SOL    HW228014   5.176   0.721   5.931
 9039SOL     OW28015   1.783   4.720   5.381
 9039SOL    HW128016   1.731   4.753   5.302
 9039SOL    HW228017   1.728   4.653   5.431
 9040SOL     OW28018   3.172   1.177   2.489
 9040SOL    HW128019   3.102   1.210   2.425
 9040SOL    HW228020   3.142   1.193   2.583
 9041SOL     OW28021   0.426   2.161   1.944
 9041SOL    HW128022   0.369   2.092   1.991
 9041SOL    HW228023   0.492   2.199   2.009
 9042SOL     OW28024   2.427   5.808   3.066
 9042SOL    HW128025   2.458   5.719   3.101
 9042SOL    HW228026   2.462   5.821   2.974
 9043SOL     OW28027   1.463   2.239   6.135
 9043SOL    HW128028   1.471   2.191   6.047
 9043SOL    HW228029   1.504   2.330   6.127
 9044SOL     OW28030   5.903   0.480   0.823
 9044SOL    HW128031   5.986   0.497   0.876
 9044SOL    HW228032   5.833   0.547   0.849
 9045SOL     OW28033   3.572   0.299   3.295
 9045SOL    HW128034   3.603   0.365   3.363
 9045SOL    HW228035   3.502   0.342   3.237
 9046SOL     OW28036   3.540   4.466   5.312
 9046SOL    HW128037   3.468   4.532   5.335
 9046SOL    HW228038   3.500   4.384   5.272
 9047SOL     OW28039   1.743   4.339   5.029
 9047SOL    HW128040   1.797   4.341   5.113
 9047SOL    HW228041   1.696   4.426   5.017
 9048SOL     OW28042   1.360   3.933   5.667
 9048SOL    HW128043   1.269   3.930   5.626
 9048SOL    HW228044   1.379   4.025   5.701
 9049SOL     OW28045   5.269   6.297   6.323
 9049SOL    HW128046   5.325   6.220   6.354
 9049SOL    HW228047   5.179   6.294   6.367
 9050SOL     OW28048   0.692   5.303   0.037
 9050SOL    HW128049   0.656   5.220   0.082
 9050SOL    HW228050   0.616   5.364   0.016
 9051SOL     OW28051   4.835   6.385   0.770
 9051SOL    HW128052   4.781   6.468   0.752
 9051SOL    HW228053   4.798   6.338   0.850
 9052SOL     OW28054   2.898   4.790   4.599
 9052SOL    HW128055   2.889   4.742   4.511
 9052SOL    HW228056   2.846   4.741   4.669
 9053SOL     OW28057   2.046   2.853   3.891
 9053SOL    HW128058   2.042   2.917   3.814
 9053SOL    HW228059   1.965   2.793   3.889
 9054SOL     OW28060   1.759   0.722   1.545
 9054SOL    HW128061   1.753   0.750   1.641
 9054SOL    HW228062   1.836   0.659   1.534
 9055SOL     OW28063   0.546   2.854   3.803
 9055SOL    HW128064   0.556   2.813   3.894
 9055SOL    HW228065   0.623   2.827   3.745
 9056SOL     OW28066   5.777   0.130   1.770
 9056SOL    HW128067   5.710   0.075   1.820
 9056SOL    HW228068   5.731   0.207   1.726
 9057SOL     OW28069   5.951   5.248   6.996
 9057SOL    HW128070   5.986   5.166   6.950
 9057SOL    HW228071   5.967   5.328   6.939
 9058SOL     OW28072   1.977   2.360   4.524
 9058SOL    HW128073   1.933   2.296   4.587
 9058SOL    HW228074   1.952   2.454   4.548
 9059SOL     OW28075   6.103   1.314   3.732
 9059SOL    HW128076   6.007   1.338   3.749
 9059SOL    HW228077   6.162   1.382   3.774
 9060SOL     OW28078   6.324   3.410   1.908
 9060SOL    HW128079   6.419   3.384   1.891
 9060SOL    HW228080   6.322   3.498   1.955
 9061SOL     OW28081   4.533   5.536   3.125
 9061SOL    HW128082   4.440   5.498   3.129
 9061SOL    HW228083   4.569   5.546   3.217
 9062SOL     OW28084   1.373   4.716   2.047
 9062SOL    HW128085   1.422   4.799   2.022
 9062SOL    HW228086   1.420   4.670   2.122
 9063SOL     OW28087   3.016   1.824   2.656
 9063SOL    HW128088   3.082   1.763   2.700
 9063SOL    HW228089   2.923   1.795   2.678
 9064SOL     OW28090   6.339   4.322   3.933
 9064SOL    HW128091   6.246   4.355   3.948
 9064SOL    HW228092   6.387   4.384   3.870
 9065SOL     OW28093   2.787   6.343   5.212
 9065SOL    HW128094   2.822   6.272   5.152
 9065SOL    HW228095   2.726   6.404   5.160
 9066SOL     OW28096   6.634   6.727   6.430
 9066SOL    HW128097   6.653   6.630   6.443
 9066SOL    HW228098   6.719   6.776   6.416
 9067SOL     OW28099   6.657   6.315   4.484
 9067SOL    HW128100   6.740   6.320   4.539
 9067SOL    HW228101   6.640   6.403   4.440
 9068SOL     OW28102   4.690   0.327   5.050
 9068SOL    HW128103   4.640   0.379   4.980
 9068SOL    HW228104   4.669   0.364   5.140
 9069SOL     OW28105   4.712   2.535   2.053
 9069SOL    HW128106   4.802   2.555   2.091
 9069SOL    HW228107   4.643   2.592   2.098
 9070SOL     OW28108   1.751   2.196   6.266
 9070SOL    HW128109   1.829   2.212   6.205
 9070SOL    HW228110   1.680   2.264   6.249
 9071SOL     OW28111   4.463   1.086   5.880
 9071SOL    HW128112   4.509   1.097   5.968
 9071SOL    HW228113   4.465   1.172   5.830
 9072SOL     OW28114   5.175   6.806   2.067
 9072SOL    HW128115   5.104   6.844   2.007
 9072SOL    HW228116   5.261   6.799   2.017
 9073SOL     OW28117   4.254   0.010   0.490
 9073SOL    HW128118   4.331   6.982   0.531
 9073SOL    HW228119   4.250   7.010   0.392
 9074SOL     OW28120   1.563   0.547   1.310
 9074SOL    HW128121   1.662   0.554   1.322
 9074SOL    HW228122   1.519   0.631   1.344
 9075SOL     OW28123   0.027   0.872   2.531
 9075SOL    HW128124   0.115   0.879   2.484
 9075SOL    HW228125   0.009   0.776   2.555
 9076SOL     OW28126   4.888   1.356   3.950
 9076SOL    HW128127   4.830   1.436   3.934
 9076SOL    HW228128   4.973   1.385   3.995
 9077SOL     OW28129   4.984   1.533   6.437
 9077SOL    HW128130   4.957   1.611   6.493
 9077SOL    HW228131   5.046   1.564   6.364
 9078SOL     OW28132   5.514   5.087   6.466
 9078SOL    HW128133   5.575   5.011   6.444
 9078SOL    HW228134   5.551   5.172   6.429
 9079SOL     OW28135   1.607   0.580   4.839
 9079SOL    HW128136   1.530   0.560   4.778
 9079SOL    HW228137   1.688   0.602   4.785
 9080SOL     OW28138   6.013   3.125   0.264
 9080SOL    HW128139   5.930   3.158   0.217
 9080SOL    HW228140   6.093   3.170   0.225
 9081SOL     OW28141   4.010   1.708   1.266
 9081SOL    HW128142   3.935   1.719   1.330
 9081SOL    HW228143   3.996   1.766   1.186
 9082SOL     OW28144   2.316   6.694   5.209
 9082SOL    HW128145   2.262   6.739   5.280
 9082SOL    HW228146   2.391   6.644   5.252
 9083SOL     OW28147   4.818   4.497   6.456
 9083SOL    HW128148   4.776   4.582   6.488
 9083SOL    HW228149   4.888   4.517   6.388
 9084SOL     OW28150   0.475   2.335   5.483
 9084SOL    HW128151   0.478   2.235   5.486
 9084SOL    HW228152   0.489   2.372   5.574
 9085SOL     OW28153   3.082   5.506   0.895
 9085SOL    HW128154   3.040   5.594   0.919
 9085SOL    HW228155   3.099   5.503   0.797
 9086SOL     OW28156   6.147   4.162   0.982
 9086SOL    HW128157   6.054   4.180   0.948
 9086SOL    HW228158   6.173   4.068   0.960
 9087SOL     OW28159   5.852   3.229   2.964
 9087SOL    HW128160   5.921   3.181   3.018
 9087SOL    HW228161   5.804   3.163   2.905
 9088SOL     OW28162   5.733   6.611   2.137
 9088SOL    HW128163   5.789   6.535   2.103
 9088SOL    HW228164   5.793   6.686   2.166
 9089SOL     OW28165   4.295   5.563   4.644
 9089SOL    HW128166   4.324   5.584   4.737
 9089SOL    HW228167   4.214   5.505   4.646
 9090SOL     OW28168   4.919   5.986   5.201
 9090SOL    HW128169   4.890   6.046   5.126
 9090SOL    HW228170   4.980   5.916   5.165
 9091SOL     OW28171   3.153   2.727   0.383
 9091SOL    HW128172   3.093   2.675   0.323
 9091SOL    HW228173   3.170   2.676   0.467
 9092SOL     OW28174   1.720   0.599   6.071
 9092SOL    HW128175   1.690   0.525   6.010
 9092SOL    HW228176   1.688   0.581   6.164
 9093SOL     OW28177   1.634   6.049   6.747
 9093SOL    HW128178   1.594   5.987   6.679
 9093SOL    HW228179   1.597   6.026   6.837
 9094SOL     OW28180   0.475   5.798   2.530
 9094SOL    HW128181   0.378   5.796   2.555
 9094SOL    HW228182   0.495   5.724   2.467
 9095SOL     OW28183   5.481   3.882   6.422
 9095SOL    HW128184   5.522   3.899   6.333
 9095SOL    HW228185   5.470   3.968   6.471
 9096SOL     OW28186   5.498   3.462   2.314
 9096SOL    HW128187   5.443   3.459   2.231
 9096SOL    HW228188   5.590   3.495   2.292
 9097SOL     OW28189   0.458   3.619   0.341
 9097SOL    HW128190   0.478   3.534   0.291
 9097SOL    HW228191   0.369   3.654   0.311
 9098SOL     OW28192   3.539   3.011   0.942
 9098SOL    HW128193   3.502   3.034   1.032
 9098SOL    HW228194   3.621   2.955   0.952
 9099SOL     OW28195   2.953   3.444   0.757
 9099SOL    HW128196   3.031   3.396   0.716
 9099SOL    HW228197   2.869   3.396   0.733
 9100SOL     OW28198   0.603   2.259   2.151
 9100SOL    HW128199   0.617   2.163   2.178
 9100SOL    HW228200   0.692   2.305   2.148
 9101SOL     OW28201   1.900   3.061   2.511
 9101SOL    HW128202   1.988   3.057   2.558
 9101SOL    HW228203   1.894   2.986   2.445
 9102SOL     OW28204   3.606   6.408   1.943
 9102SOL    HW128205   3.563   6.342   1.881
 9102SOL    HW228206   3.671   6.361   2.002
 9103SOL     OW28207   6.969   3.512   0.380
 9103SOL    HW128208   0.008   3.433   0.369
 9103SOL    HW228209   0.000   3.591   0.411
 9104SOL     OW28210   3.953   6.156   2.198
 9104SOL    HW128211   4.014   6.167   2.277
 9104SOL    HW228212   4.006   6.123   2.120
 9105SOL     OW28213   1.661   0.670   0.028
 9105SOL    HW128214   1.665   0.769   0.039
 9105SOL    HW228215   1.674   0.647   6.953
 9106SOL     OW28216   5.681   3.965   6.995
 9106SOL    HW128217   5.770   3.932   0.003
 9106SOL    HW228218   5.668   4.060   0.005
 9107SOL     OW28219   4.218   0.146   6.140
 9107SOL    HW128220   4.209   0.243   6.119
 9107SOL    HW228221   4.134   0.098   6.113
 9108SOL     OW28222   4.674   4.401   5.804
 9108SOL    HW128223   4.630   4.489   5.819
 9108SOL    HW228224   4.627   4.352   5.730
 9109SOL     OW28225   1.428   2.489   2.751
 9109SOL    HW128226   1.502   2.555   2.739
 9109SOL    HW228227   1.384   2.472   2.663
 9110SOL     OW28228   2.059   4.397   4.069
 9110SOL    HW128229   2.088   4.343   4.148
 9110SOL    HW228230   2.117   4.478   4.061
 9111SOL     OW28231   4.401   3.358   0.510
 9111SOL    HW128232   4.396   3.306   0.426
 9111SOL    HW228233   4.465   3.434   0.499
 9112SOL     OW28234   0.079   4.272   4.588
 9112SOL    HW128235   0.134   4.308   4.663
 9112SOL    HW228236   0.007   4.212   4.624
 9113SOL     OW28237   4.615   6.568   0.708
 9113SOL    HW128238   4.579   6.477   0.684
 9113SOL    HW228239   4.624   6.622   0.624
 9114SOL     OW28240   1.474   4.984   1.954
 9114SOL    HW128241   1.538   4.982   1.877
 9114SOL    HW228242   1.396   5.043   1.931
 9115SOL     OW28243   1.035   5.833   5.185
 9115SOL    HW128244   0.968   5.852   5.257
 9115SOL    HW228245   0.988   5.805   5.102
 9116SOL     OW28246   6.413   2.016   0.575
 9116SOL    HW128247   6.445   1.922   0.588
 9116SOL    HW228248   6.483   2.080   0.604
 9117SOL     OW28249   5.702   2.709   0.040
 9117SOL    HW128250   5.793   2.711   7.020
 9117SOL    HW228251   5.646   2.783   0.003
 9118SOL     OW28252   6.174   5.774   0.630
 9118SOL    HW128253   6.110   5.749   0.703
 9118SOL    HW228254   6.261   5.729   0.646
 9119SOL     OW28255   5.278   1.177   2.848
 9119SOL    HW128256   5.264   1.137   2.938
 9119SOL    HW228257   5.375   1.200   2.837
 9120SOL     OW28258   5.462   3.172   5.836
 9120SOL    HW128259   5.364   3.149   5.829
 9120SOL    HW228260   5.506   3.157   5.748
 9121SOL     OW28261   1.374   2.767   6.687
 9121SOL    HW128262   1.300   2.711   6.649
 9121SOL    HW228263   1.414   2.719   6.765
 9122SOL     OW28264   1.955   3.091   1.755
 9122SOL    HW128265   1.933   3.147   1.834
 9122SOL    HW228266   1.910   3.128   1.673
 9123SOL     OW28267   3.726   0.237   4.348
 9123SOL    HW128268   3.650   0.235   4.414
 9123SOL    HW228269   3.697   0.286   4.265
 9124SOL     OW28270   5.976   6.836   5.564
 9124SOL    HW128271   6.062   6.795   5.597
 9124SOL    HW228272   5.899   6.782   5.597
 9125SOL     OW28273   5.034   3.628   2.692
 9125SOL    HW128274   5.058   3.722   2.716
 9125SOL    HW228275   5.115   3.570   2.701
 9126SOL     OW28276   5.626   2.420   2.262
 9126SOL    HW128277   5.655   2.340   2.209
 9126SOL    HW228278   5.707   2.475   2.284
 9127SOL     OW28279   6.071   0.881   6.078
 9127SOL    HW128280   6.090   0.922   6.167
 9127SOL    HW228281   6.019   0.796   6.090
 9128SOL     OW28282   4.074   1.953   5.053
 9128SOL    HW128283   4.124   2.040   5.054
 9128SOL    HW228284   3.975   1.972   5.058
 9129SOL     OW28285   1.211   2.699   1.046
 9129SOL    HW128286   1.296   2.703   0.993
 9129SOL    HW228287   1.230   2.724   1.141
 9130SOL     OW28288   6.684   3.230   0.436
 9130SOL    HW128289   6.691   3.131   0.445
 9130SOL    HW228290   6.710   3.257   0.344
 9131SOL     OW28291   0.286   3.754   5.882
 9131SOL    HW128292   0.364   3.814   5.901
 9131SOL    HW228293   0.305   3.662   5.916
 9132SOL     OW28294   0.502   4.961   4.628
 9132SOL    HW128295   0.519   4.864   4.612
 9132SOL    HW228296   0.502   5.010   4.541
 9133SOL     OW28297   2.991   5.902   1.418
 9133SOL    HW128298   2.973   5.807   1.444
 9133SOL    HW228299   3.088   5.912   1.396
 9134SOL     OW28300   3.430   6.123   0.069
 9134SOL    HW128301   3.439   6.063   0.148
 9134SOL    HW228302   3.510   6.184   0.064
 9135SOL     OW28303   6.670   6.145   2.180
 9135SOL    HW128304   6.704   6.185   2.095
 9135SOL    HW228305   6.733   6.166   2.255
 9136SOL     OW28306   5.225   4.936   5.564
 9136SOL    HW128307   5.297   4.950   5.633
 9136SOL    HW228308   5.156   5.008   5.574
 9137SOL     OW28309   5.008   1.962   1.260
 9137SOL    HW128310   5.002   2.061   1.249
 9137SOL    HW228311   4.995   1.918   1.171
 9138SOL     OW28312   6.293   5.226   5.550
 9138SOL    HW128313   6.276   5.132   5.521
 9138SOL    HW228314   6.367   5.264   5.494
 9139SOL     OW28315   2.358   1.806   4.683
 9139SOL    HW128316   2.345   1.711   4.711
 9139SOL    HW228317   2.380   1.810   4.586
 9140SOL     OW28318   6.227   3.159   2.480
 9140SOL    HW128319   6.313   3.108   2.478
 9140SOL    HW228320   6.163   3.114   2.542
 9141SOL     OW28321   5.561   0.388   6.553
 9141SOL    HW128322   5.590   0.306   6.604
 9141SOL    HW228323   5.553   0.366   6.456
 9142SOL     OW28324   0.556   2.379   0.263
 9142SOL    HW128325   0.578   2.474   0.241
 9142SOL    HW228326   0.461   2.360   0.239
 9143SOL     OW28327   5.139   3.260   1.319
 9143SOL    HW128328   5.188   3.322   1.381
 9143SOL    HW228329   5.043   3.287   1.314
 9144SOL     OW28330   2.450   5.395   5.414
 9144SOL    HW128331   2.382   5.444   5.359
 9144SOL    HW228332   2.421   5.300   5.426
 9145SOL     OW28333   6.566   5.464   0.012
 9145SOL    HW128334   6.637   5.405   6.996
 9145SOL    HW228335   6.496   5.408   0.056
 9146SOL     OW28336   5.483   2.342   2.757
 9146SOL    HW128337   5.491   2.278   2.680
 9146SOL    HW228338   5.426   2.420   2.730
 9147SOL     OW28339   5.963   0.466   3.941
 9147SOL    HW128340   6.057   0.493   3.964
 9147SOL    HW228341   5.962   0.422   3.851
 9148SOL     OW28342   4.808   6.744   0.519
 9148SOL    HW128343   4.722   6.726   0.472
 9148SOL    HW228344   4.883   6.749   0.452
 9149SOL     OW28345   5.128   3.174   3.556
 9149SOL    HW128346   5.135   3.114   3.635
 9149SOL    HW228347   5.216   3.220   3.541
 9150SOL     OW28348   3.143   5.357   2.644
 9150SOL    HW128349   3.134   5.360   2.744
 9150SOL    HW228350   3.223   5.302   2.619
 9151SOL     OW28351   1.383   4.374   3.958
 9151SOL    HW128352   1.475   4.413   3.952
 9151SOL    HW228353   1.317   4.438   3.918
 9152SOL     OW28354   2.384   4.828   4.908
 9152SOL    HW128355   2.402   4.736   4.871
 9152SOL    HW228356   2.359   4.820   5.005
 9153SOL     OW28357   1.002   2.874   1.045
 9153SOL    HW128358   1.084   2.819   1.058
 9153SOL    HW228359   1.018   2.966   1.082
 9154SOL     OW28360   4.411   5.139   6.329
 9154SOL    HW128361   4.462   5.140   6.415
 9154SOL    HW228362   4.457   5.077   6.265
 9155SOL     OW28363   1.022   3.189   1.397
 9155SOL    HW128364   1.012   3.216   1.301
 9155SOL    HW228365   1.103   3.132   1.408
 9156SOL     OW28366   1.524   2.504   0.552
 9156SOL    HW128367   1.603   2.510   0.491
 9156SOL    HW228368   1.451   2.562   0.516
 9157SOL     OW28369   6.163   4.490   6.534
 9157SOL    HW128370   6.156   4.405   6.586
 9157SOL    HW228371   6.240   4.544   6.566
 9158SOL     OW28372   5.605   3.655   4.395
 9158SOL    HW128373   5.576   3.745   4.362
 9158SOL    HW228374   5.611   3.591   4.318
 9159SOL     OW28375   1.666   0.228   2.694
 9159SOL    HW128376   1.684   0.290   2.770
 9159SOL    HW228377   1.630   0.279   2.616
 9160SOL     OW28378   6.236   0.458   4.895
 9160SOL    HW128379   6.154   0.420   4.851
 9160SOL    HW228380   6.314   0.450   4.833
 9161SOL     OW28381   4.827   4.249   4.998
 9161SOL    HW128382   4.775   4.333   4.984
 9161SOL    HW228383   4.840   4.204   4.909
 9162SOL     OW28384   4.815   1.073   4.442
 9162SOL    HW128385   4.753   1.013   4.492
 9162SOL    HW228386   4.796   1.066   4.344
 9163SOL     OW28387   1.966   3.208   4.463
 9163SOL    HW128388   1.956   3.122   4.412
 9163SOL    HW228389   1.993   3.188   4.557
 9164SOL     OW28390   2.453   0.895   6.754
 9164SOL    HW128391   2.462   0.972   6.691
 9164SOL    HW228392   2.544   0.863   6.780
 9165SOL     OW28393   5.613   2.101   4.902
 9165SOL    HW128394   5.697   2.098   4.848
 9165SOL    HW228395   5.602   2.015   4.952
 9166SOL     OW28396   4.136   6.061   0.967
 9166SOL    HW128397   4.125   6.146   1.018
 9166SOL    HW228398   4.047   6.032   0.930
 9167SOL     OW28399   2.113   2.901   6.977
 9167SOL    HW128400   2.203   2.919   7.016
 9167SOL    HW228401   2.109   2.935   6.883
 9168SOL     OW28402   0.365   0.504   6.433
 9168SOL    HW128403   0.421   0.494   6.515
 9168SOL    HW228404   0.289   0.438   6.435
 9169SOL     OW28405   6.115   1.617   5.129
 9169SOL    HW128406   6.181   1.541   5.131
 9169SOL    HW228407   6.043   1.600   5.196
 9170SOL     OW28408   1.266   5.173   6.778
 9170SOL    HW128409   1.271   5.261   6.731
 9170SOL    HW228410   1.358   5.139   6.796
 9171SOL     OW28411   3.991   5.232   0.618
 9171SOL    HW128412   3.896   5.227   0.647
 9171SOL    HW228413   4.005   5.316   0.566
 9172SOL     OW28414   3.363   0.714   4.407
 9172SOL    HW128415   3.444   0.656   4.400
 9172SOL    HW228416   3.281   0.658   4.402
 9173SOL     OW28417   6.507   3.709   4.900
 9173SOL    HW128418   6.458   3.634   4.855
 9173SOL    HW228419   6.605   3.693   4.895
 9174SOL     OW28420   5.844   4.118   1.939
 9174SOL    HW128421   5.933   4.128   1.984
 9174SOL    HW228422   5.858   4.122   1.840
 9175SOL     OW28423   0.391   0.180   4.459
 9175SOL    HW128424   0.299   0.141   4.452
 9175SOL    HW228425   0.455   0.122   4.409
 9176SOL     OW28426   3.067   1.225   5.371
 9176SOL    HW128427   3.131   1.176   5.430
 9176SOL    HW228428   2.999   1.161   5.336
 9177SOL     OW28429   0.541   5.050   4.869
 9177SOL    HW128430   0.486   5.134   4.872
 9177SOL    HW228431   0.548   5.018   4.774
 9178SOL     OW28432   1.980   5.504   0.386
 9178SOL    HW128433   1.968   5.436   0.313
 9178SOL    HW228434   1.927   5.586   0.363
 9179SOL     OW28435   2.782   5.363   4.633
 9179SOL    HW128436   2.696   5.316   4.613
 9179SOL    HW228437   2.821   5.327   4.718
 9180SOL     OW28438   6.294   2.406   2.929
 9180SOL    HW128439   6.223   2.387   2.997
 9180SOL    HW228440   6.270   2.363   2.843
 9181SOL     OW28441   4.347   2.254   4.733
 9181SOL    HW128442   4.351   2.283   4.637
 9181SOL    HW228443   4.257   2.213   4.751
 9182SOL     OW28444   2.306   0.120   2.304
 9182SOL    HW128445   2.360   0.203   2.294
 9182SOL    HW228446   2.366   0.040   2.301
 9183SOL     OW28447   5.023   5.803   0.710
 9183SOL    HW128448   5.113   5.842   0.689
 9183SOL    HW228449   4.977   5.859   0.779
 9184SOL     OW28450   4.764   1.558   0.637
 9184SOL    HW128451   4.813   1.644   0.648
 9184SOL    HW228452   4.817   1.496   0.579
 9185SOL     OW28453   4.248   6.678   4.373
 9185SOL    HW128454   4.200   6.763   4.348
 9185SOL    HW228455   4.188   6.600   4.358
 9186SOL     OW28456   5.930   6.344   4.345
 9186SOL    HW128457   5.904   6.421   4.287
 9186SOL    HW228458   5.980   6.277   4.291
 9187SOL     OW28459   2.704   1.849   0.997
 9187SOL    HW128460   2.753   1.936   0.999
 9187SOL    HW228461   2.680   1.827   0.902
 9188SOL     OW28462   1.392   6.740   1.674
 9188SOL    HW128463   1.421   6.675   1.604
 9188SOL    HW228464   1.430   6.831   1.652
 9189SOL     OW28465   4.737   6.102   1.692
 9189SOL    HW128466   4.830   6.128   1.715
 9189SOL    HW228467   4.733   6.072   1.596
 9190SOL     OW28468   2.747   4.603   6.260
 9190SOL    HW128469   2.679   4.539   6.296
 9190SOL    HW228470   2.723   4.696   6.288
 9191SOL     OW28471   6.748   2.532   5.363
 9191SOL    HW128472   6.816   2.547   5.292
 9191SOL    HW228473   6.669   2.484   5.325
 9192SOL     OW28474   0.975   3.388   6.510
 9192SOL    HW128475   0.911   3.410   6.584
 9192SOL    HW228476   0.977   3.463   6.444
 9193SOL     OW28477   4.917   4.248   6.829
 9193SOL    HW128478   4.973   4.264   6.747
 9193SOL    HW228479   4.957   4.173   6.882
 9194SOL     OW28480   2.855   0.555   3.562
 9194SOL    HW128481   2.807   0.496   3.497
 9194SOL    HW228482   2.949   0.524   3.573
 9195SOL     OW28483   1.835   1.522   3.588
 9195SOL    HW128484   1.841   1.582   3.668
 9195SOL    HW228485   1.923   1.522   3.541
 9196SOL     OW28486   4.622   6.865   2.913
 9196SOL    HW128487   4.528   6.878   2.882
 9196SOL    HW228488   4.661   6.784   2.871
 9197SOL     OW28489   1.636   4.965   1.713
 9197SOL    HW128490   1.702   5.011   1.654
 9197SOL    HW228491   1.545   4.970   1.672
 9198SOL     OW28492   6.530   4.825   6.718
 9198SOL    HW128493   6.444   4.875   6.725
 9198SOL    HW228494   6.587   4.866   6.647
 9199SOL     OW28495   1.151   4.405   6.050
 9199SOL    HW128496   1.074   4.456   6.086
 9199SOL    HW228497   1.220   4.393   6.121
 9200SOL     OW28498   2.582   6.925   0.035
 9200SOL    HW128499   2.655   6.878   7.006
 9200SOL    HW228500   2.614   7.017   0.060
 9201SOL     OW28501   0.467   2.533   0.882
 9201SOL    HW128502   0.408   2.461   0.845
 9201SOL    HW228503   0.558   2.526   0.841
 9202SOL     OW28504   1.156   6.978   2.313
 9202SOL    HW128505   1.181   6.912   2.242
 9202SOL    HW228506   1.057   6.973   2.329
 9203SOL     OW28507   0.931   4.023   6.759
 9203SOL    HW128508   0.888   3.933   6.759
 9203SOL    HW228509   1.029   4.014   6.745
 9204SOL     OW28510   4.909   2.803   6.125
 9204SOL    HW128511   4.893   2.706   6.111
 9204SOL    HW228512   4.892   2.853   6.040
 9205SOL     OW28513   6.124   4.633   3.119
 9205SOL    HW128514   6.067   4.555   3.147
 9205SOL    HW228515   6.083   4.718   3.152
 9206SOL     OW28516   3.694   5.545   2.636
 9206SOL    HW128517   3.765   5.526   2.704
 9206SOL    HW228518   3.689   5.643   2.619
 9207SOL     OW28519   5.079   4.246   6.290
 9207SOL    HW128520   5.145   4.226   6.217
 9207SOL    HW228521   5.062   4.344   6.293
 9208SOL     OW28522   5.874   4.226   3.984
 9208SOL    HW128523   5.804   4.165   3.948
 9208SOL    HW228524   5.831   4.293   4.046
 9209SOL     OW28525   3.780   0.458   6.838
 9209SOL    HW128526   3.807   0.540   6.788
 9209SOL    HW228527   3.702   0.416   6.792
 9210SOL     OW28528   0.098   1.059   2.929
 9210SOL    HW128529   0.135   0.966   2.922
 9210SOL    HW228530   0.075   1.093   2.838
 9211SOL     OW28531   0.535   2.347   5.750
 9211SOL    HW128532   0.534   2.314   5.845
 9211SOL    HW228533   0.629   2.344   5.715
 9212SOL     OW28534   5.211   5.195   4.356
 9212SOL    HW128535   5.223   5.136   4.436
 9212SOL    HW228536   5.299   5.235   4.331
 9213SOL     OW28537   5.084   3.648   5.706
 9213SOL    HW128538   5.080   3.616   5.801
 9213SOL    HW228539   5.180   3.666   5.682
 9214SOL     OW28540   6.460   3.589   6.906
 9214SOL    HW128541   6.502   3.577   6.996
 9214SOL    HW228542   6.514   3.653   6.852
 9215SOL     OW28543   0.792   2.156   1.428
 9215SOL    HW128544   0.694   2.147   1.411
 9215SOL    HW228545   0.843   2.133   1.345
 9216SOL     OW28546   2.750   0.452   2.252
 9216SOL    HW128547   2.769   0.550   2.264
 9216SOL    HW228548   2.830   0.407   2.213
 9217SOL     OW28549   0.802   2.349   6.967
 9217SOL    HW128550   0.710   2.373   6.935
 9217SOL    HW228551   0.795   2.285   0.021
 9218SOL     OW28552   2.053   6.881   0.638
 9218SOL    HW128553   2.054   6.941   0.558
 9218SOL    HW228554   1.988   6.806   0.623
 9219SOL     OW28555   6.526   2.549   1.516
 9219SOL    HW128556   6.498   2.572   1.423
 9219SOL    HW228557   6.471   2.473   1.550
 9220SOL     OW28558   1.478   6.581   1.486
 9220SOL    HW128559   1.472   6.504   1.422
 9220SOL    HW228560   1.517   6.660   1.439
 9221SOL     OW28561   3.082   0.701   3.030
 9221SOL    HW128562   3.153   0.661   2.971
 9221SOL    HW228563   3.107   0.688   3.126
 9222SOL     OW28564   1.911   6.824   6.095
 9222SOL    HW128565   1.817   6.799   6.071
 9222SOL    HW228566   1.931   6.793   6.188
 9223SOL     OW28567   1.002   1.279   3.967
 9223SOL    HW128568   1.052   1.365   3.954
 9223SOL    HW228569   0.913   1.286   3.922
 9224SOL     OW28570   1.481   4.703   5.135
 9224SOL    HW128571   1.546   4.658   5.074
 9224SOL    HW228572   1.389   4.700   5.095
 9225SOL     OW28573   3.073   6.692   5.692
 9225SOL    HW128574   3.087   6.609   5.747
 9225SOL    HW228575   3.119   6.680   5.604
 9226SOL     OW28576   6.127   6.710   1.159
 9226SOL    HW128577   6.213   6.760   1.144
 9226SOL    HW228578   6.060   6.739   1.091
 9227SOL     OW28579   0.782   5.301   0.404
 9227SOL    HW128580   0.696   5.345   0.378
 9227SOL    HW228581   0.822   5.256   0.324
 9228SOL     OW28582   1.331   1.471   5.239
 9228SOL    HW128583   1.312   1.373   5.236
 9228SOL    HW228584   1.322   1.510   5.148
 9229SOL     OW28585   0.889   5.701   4.636
 9229SOL    HW128586   0.872   5.793   4.671
 9229SOL    HW228587   0.936   5.647   4.707
 9230SOL     OW28588   4.721   1.656   3.623
 9230SOL    HW128589   4.761   1.743   3.593
 9230SOL    HW228590   4.645   1.632   3.562
 9231SOL     OW28591   0.498   4.233   4.542
 9231SOL    HW128592   0.576   4.171   4.555
 9231SOL    HW228593   0.525   4.326   4.566
 9232SOL     OW28594   3.479   5.122   0.274
 9232SOL    HW128595   3.523   5.184   0.208
 9232SOL    HW228596   3.507   5.028   0.256
 9233SOL     OW28597   5.659   5.220   1.846
 9233SOL    HW128598   5.733   5.165   1.808
 9233SOL    HW228599   5.651   5.305   1.794
 9234SOL     OW28600   3.779   5.619   5.931
 9234SOL    HW128601   3.872   5.656   5.927
 9234SOL    HW228602   3.754   5.600   6.026
 9235SOL     OW28603   1.928   3.033   3.288
 9235SOL    HW128604   1.913   3.103   3.358
 9235SOL    HW228605   1.993   3.067   3.221
 9236SOL     OW28606   2.752   4.150   5.518
 9236SOL    HW128607   2.690   4.121   5.445
 9236SOL    HW228608   2.725   4.241   5.550
 9237SOL     OW28609   1.936   5.677   4.451
 9237SOL    HW128610   1.937   5.578   4.439
 9237SOL    HW228611   1.852   5.704   4.499
 9238SOL     OW28612   3.766   1.557   0.029
 9238SOL    HW128613   3.852   1.605   0.044
 9238SOL    HW228614   3.764   1.519   6.959
 9239SOL     OW28615   6.726   4.475   0.707
 9239SOL    HW128616   6.802   4.485   0.643
 9239SOL    HW228617   6.647   4.526   0.672
 9240SOL     OW28618   4.674   1.387   1.417
 9240SOL    HW128619   4.607   1.375   1.491
 9240SOL    HW228620   4.651   1.469   1.365
 9241SOL     OW28621   0.577   4.588   5.612
 9241SOL    HW128622   0.530   4.615   5.528
 9241SOL    HW228623   0.663   4.639   5.620
 9242SOL     OW28624   0.243   5.259   0.328
 9242SOL    HW128625   0.277   5.204   0.404
 9242SOL    HW228626   0.315   5.322   0.297
 9243SOL     OW28627   5.930   6.413   2.073
 9243SOL    HW128628   5.985   6.472   2.014
 9243SOL    HW228629   5.909   6.328   2.025
 9244SOL     OW28630   4.242   5.459   6.701
 9244SOL    HW128631   4.244   5.556   6.677
 9244SOL    HW228632   4.159   5.417   6.663
 9245SOL     OW28633   1.499   4.667   3.063
 9245SOL    HW128634   1.598   4.676   3.064
 9245SOL    HW228635   1.458   4.737   3.123
 9246SOL     OW28636   0.279   4.801   2.678
 9246SOL    HW128637   0.372   4.829   2.654
 9246SOL    HW228638   0.279   4.704   2.704
 9247SOL     OW28639   1.327   7.011   2.949
 9247SOL    HW128640   1.259   6.983   2.881
 9247SOL    HW228641   1.281   0.034   3.026
 9248SOL     OW28642   1.541   2.434   5.117
 9248SOL    HW128643   1.492   2.517   5.088
 9248SOL    HW228644   1.475   2.361   5.135
 9249SOL     OW28645   4.901   3.867   6.965
 9249SOL    HW128646   4.942   3.944   7.014
 9249SOL    HW228647   4.827   3.829   7.020
 9250SOL     OW28648   5.859   3.171   4.774
 9250SOL    HW128649   5.817   3.180   4.864
 9250SOL    HW228650   5.791   3.186   4.703
 9251SOL     OW28651   4.124   2.282   3.274
 9251SOL    HW128652   4.215   2.281   3.233
 9251SOL    HW228653   4.070   2.356   3.234
 9252SOL     OW28654   5.554   0.313   4.253
 9252SOL    HW128655   5.478   0.316   4.319
 9252SOL    HW228656   5.595   0.222   4.254
 9253SOL     OW28657   6.123   6.530   5.784
 9253SOL    HW128658   6.037   6.532   5.733
 9253SOL    HW228659   6.196   6.496   5.726
 9254SOL     OW28660   6.111   4.592   2.828
 9254SOL    HW128661   6.168   4.528   2.775
 9254SOL    HW228662   6.129   4.580   2.925
 9255SOL     OW28663   5.053   4.170   0.672
 9255SOL    HW128664   4.992   4.202   0.745
 9255SOL    HW228665   5.083   4.077   0.694
 9256SOL     OW28666   4.313   6.704   2.592
 9256SOL    HW128667   4.289   6.709   2.689
 9256SOL    HW228668   4.244   6.649   2.544
 9257SOL     OW28669   0.824   3.922   3.007
 9257SOL    HW128670   0.844   3.836   2.961
 9257SOL    HW228671   0.872   3.997   2.961
 9258SOL     OW28672   2.903   3.518   3.693
 9258SOL    HW128673   2.964   3.540   3.768
 9258SOL    HW228674   2.808   3.529   3.723
 9259SOL     OW28675   1.121   2.336   0.453
 9259SOL    HW128676   1.089   2.404   0.387
 9259SOL    HW228677   1.110   2.373   0.546
 9260SOL     OW28678   5.055   1.646   5.722
 9260SOL    HW128679   5.029   1.668   5.628
 9260SOL    HW228680   5.151   1.617   5.724
 9261SOL     OW28681   4.496   0.476   6.259
 9261SOL    HW128682   4.548   0.429   6.187
 9261SOL    HW228683   4.459   0.409   6.323
 9262SOL     OW28684   6.875   3.298   5.463
 9262SOL    HW128685   6.813   3.376   5.453
 9262SOL    HW228686   6.863   3.236   5.385
 9263SOL     OW28687   5.863   5.243   1.649
 9263SOL    HW128688   5.863   5.343   1.660
 9263SOL    HW228689   5.951   5.213   1.613
 9264SOL     OW28690   5.662   4.183   0.230
 9264SOL    HW128691   5.634   4.089   0.250
 9264SOL    HW228692   5.625   4.210   0.141
 9265SOL     OW28693   3.270   1.760   6.763
 9265SOL    HW128694   3.265   1.662   6.747
 9265SOL    HW228695   3.297   1.806   6.678
 9266SOL     OW28696   1.915   6.456   2.114
 9266SOL    HW128697   1.969   6.510   2.178
 9266SOL    HW228698   1.873   6.378   2.161
 9267SOL     OW28699   0.621   3.710   5.710
 9267SOL    HW128700   0.566   3.670   5.637
 9267SOL    HW228701   0.605   3.809   5.714
 9268SOL     OW28702   1.471   4.788   1.326
 9268SOL    HW128703   1.549   4.740   1.365
 9268SOL    HW228704   1.391   4.728   1.325
 9269SOL     OW28705   3.333   1.824   6.115
 9269SOL    HW128706   3.253   1.883   6.125
 9269SOL    HW228707   3.406   1.874   6.067
 9270SOL     OW28708   4.901   6.739   6.082
 9270SOL    HW128709   4.840   6.797   6.136
 9270SOL    HW228710   4.976   6.706   6.139
 9271SOL     OW28711   1.592   5.975   7.000
 9271SOL    HW128712   1.636   5.889   6.977
 9271SOL    HW228713   1.515   5.958   0.040
 9272SOL     OW28714   1.619   5.530   5.530
 9272SOL    HW128715   1.631   5.526   5.430
 9272SOL    HW228716   1.601   5.625   5.557
 9273SOL     OW28717   5.229   5.751   3.853
 9273SOL    HW128718   5.232   5.667   3.906
 9273SOL    HW228719   5.191   5.825   3.910
 9274SOL     OW28720   6.770   2.426   0.325
 9274SOL    HW128721   6.677   2.393   0.338
 9274SOL    HW228722   6.816   2.433   0.413
 9275SOL     OW28723   6.977   2.004   0.330
 9275SOL    HW128724   7.007   1.933   0.266
 9275SOL    HW228725   0.020   2.010   0.406
 9276SOL     OW28726   2.129   4.511   2.715
 9276SOL    HW128727   2.170   4.446   2.780
 9276SOL    HW228728   2.193   4.530   2.642
 9277SOL     OW28729   5.446   2.983   0.347
 9277SOL    HW128730   5.397   2.897   0.349
 9277SOL    HW228731   5.447   3.019   0.253
 9278SOL     OW28732   1.357   0.326   4.962
 9278SOL    HW128733   1.385   0.331   4.867
 9278SOL    HW228734   1.404   0.397   5.015
 9279SOL     OW28735   4.638   0.548   2.100
 9279SOL    HW128736   4.557   0.492   2.117
 9279SOL    HW228737   4.662   0.543   2.004
 9280SOL     OW28738   1.524   1.263   2.614
 9280SOL    HW128739   1.604   1.288   2.559
 9280SOL    HW228740   1.469   1.196   2.565
 9281SOL     OW28741   3.090   4.541   1.189
 9281SOL    HW128742   3.072   4.637   1.171
 9281SOL    HW228743   3.134   4.531   1.278
 9282SOL     OW28744   4.990   1.572   5.193
 9282SOL    HW128745   4.903   1.523   5.190
 9282SOL    HW228746   4.989   1.638   5.269
 9283SOL     OW28747   5.925   0.354   3.650
 9283SOL    HW128748   6.022   0.374   3.636
 9283SOL    HW228749   5.897   0.280   3.589
 9284SOL     OW28750   3.202   4.813   5.892
 9284SOL    HW128751   3.112   4.834   5.855
 9284SOL    HW228752   3.262   4.892   5.879
 9285SOL     OW28753   5.659   2.844   1.189
 9285SOL    HW128754   5.605   2.764   1.215
 9285SOL    HW228755   5.747   2.842   1.235
 9286SOL     OW28756   5.366   6.527   6.447
 9286SOL    HW128757   5.405   6.609   6.405
 9286SOL    HW228758   5.343   6.461   6.375
 9287SOL     OW28759   3.239   5.305   7.001
 9287SOL    HW128760   3.236   5.217   6.954
 9287SOL    HW228761   3.334   5.327   0.004
 9288SOL     OW28762   3.955   1.352   4.126
 9288SOL    HW128763   3.938   1.291   4.049
 9288SOL    HW228764   4.030   1.315   4.182
 9289SOL     OW28765   3.531   1.912   2.646
 9289SOL    HW128766   3.571   1.831   2.603
 9289SOL    HW228767   3.602   1.962   2.695
 9290SOL     OW28768   4.762   1.592   3.907
 9290SOL    HW128769   4.677   1.602   3.958
 9290SOL    HW228770   4.745   1.608   3.810
 9291SOL     OW28771   2.315   0.102   4.316
 9291SOL    HW128772   2.225   0.065   4.340
 9291SOL    HW228773   2.326   0.193   4.357
 9292SOL     OW28774   0.824   3.442   6.742
 9292SOL    HW128775   0.884   3.474   6.815
 9292SOL    HW228776   0.760   3.515   6.716
 9293SOL     OW28777   5.835   4.146   6.843
 9293SOL    HW128778   5.783   4.227   6.817
 9293SOL    HW228779   5.872   4.158   6.935
 9294SOL     OW28780   3.356   6.842   5.054
 9294SOL    HW128781   3.356   6.823   4.956
 9294SOL    HW228782   3.299   6.922   5.072
 9295SOL     OW28783   5.412   2.715   4.794
 9295SOL    HW128784   5.417   2.618   4.770
 9295SOL    HW228785   5.317   2.739   4.814
 9296SOL     OW28786   0.798   6.721   6.451
 9296SOL    HW128787   0.768   6.719   6.356
 9296SOL    HW228788   0.894   6.751   6.456
 9297SOL     OW28789   6.222   1.163   0.538
 9297SOL    HW128790   6.174   1.154   0.626
 9297SOL    HW228791   6.178   1.235   0.484
 9298SOL     OW28792   1.847   0.530   4.458
 9298SOL    HW128793   1.752   0.531   4.426
 9298SOL    HW228794   1.900   0.598   4.408
 9299SOL     OW28795   0.534   2.341   4.166
 9299SOL    HW128796   0.578   2.273   4.108
 9299SOL    HW228797   0.591   2.359   4.246
 9300SOL     OW28798   0.926   4.298   5.610
 9300SOL    HW128799   0.883   4.212   5.584
 9300SOL    HW228800   0.978   4.335   5.533
 9301SOL     OW28801   4.953   4.162   3.389
 9301SOL    HW128802   5.007   4.245   3.373
 9301SOL    HW228803   5.009   4.095   3.438
 9302SOL     OW28804   2.204   3.030   4.557
 9302SOL    HW128805   2.173   3.105   4.616
 9302SOL    HW228806   2.279   2.981   4.603
 9303SOL     OW28807   3.890   5.957   0.312
 9303SOL    HW128808   3.808   5.971   0.369
 9303SOL    HW228809   3.941   5.878   0.347
 9304SOL     OW28810   4.797   4.496   1.736
 9304SOL    HW128811   4.704   4.486   1.701
 9304SOL    HW228812   4.806   4.446   1.822
 9305SOL     OW28813   3.620   1.274   1.885
 9305SOL    HW128814   3.644   1.177   1.872
 9305SOL    HW228815   3.599   1.290   1.981
 9306SOL     OW28816   0.283   4.334   4.766
 9306SOL    HW128817   0.309   4.429   4.779
 9306SOL    HW228818   0.352   4.287   4.710
 9307SOL     OW28819   1.205   3.578   0.979
 9307SOL    HW128820   1.155   3.532   1.052
 9307SOL    HW228821   1.232   3.669   1.011
 9308SOL     OW28822   1.602   4.078   1.004
 9308SOL    HW128823   1.586   4.017   0.926
 9308SOL    HW228824   1.537   4.057   1.076
 9309SOL     OW28825   3.659   4.808   5.641
 9309SOL    HW128826   3.587   4.740   5.654
 9309SOL    HW228827   3.670   4.861   5.725
 9310SOL     OW28828   4.360   5.692   5.703
 9310SOL    HW128829   4.305   5.613   5.729
 9310SOL    HW228830   4.440   5.699   5.763
 9311SOL     OW28831   4.630   5.197   1.832
 9311SOL    HW128832   4.724   5.163   1.824
 9311SOL    HW228833   4.570   5.122   1.860
 9312SOL     OW28834   1.248   3.026   1.395
 9312SOL    HW128835   1.299   3.013   1.480
 9312SOL    HW228836   1.312   3.043   1.320
 9313SOL     OW28837   6.901   0.580   0.937
 9313SOL    HW128838   6.848   0.664   0.948
 9313SOL    HW228839   6.955   0.585   0.853
 9314SOL     OW28840   4.624   6.035   6.040
 9314SOL    HW128841   4.565   6.107   6.004
 9314SOL    HW228842   4.578   5.947   6.031
 9315SOL     OW28843   6.510   0.961   5.260
 9315SOL    HW128844   6.460   0.941   5.344
 9315SOL    HW228845   6.480   0.898   5.188
 9316SOL     OW28846   4.752   5.840   5.336
 9316SOL    HW128847   4.686   5.893   5.389
 9316SOL    HW228848   4.805   5.902   5.278
 9317SOL     OW28849   6.514   4.850   3.226
 9317SOL    HW128850   6.467   4.926   3.270
 9317SOL    HW228851   6.473   4.763   3.256
 9318SOL     OW28852   6.216   0.776   5.851
 9318SOL    HW128853   6.134   0.804   5.900
 9318SOL    HW228854   6.196   0.768   5.753
 9319SOL     OW28855   1.029   3.112   0.262
 9319SOL    HW128856   0.929   3.104   0.257
 9319SOL    HW228857   1.069   3.080   0.176
 9320SOL     OW28858   3.848   1.119   6.035
 9320SOL    HW128859   3.859   1.083   6.128
 9320SOL    HW228860   3.938   1.133   5.994
 9321SOL     OW28861   5.994   0.049   3.258
 9321SOL    HW128862   5.924   0.031   3.190
 9321SOL    HW228863   6.083   0.022   3.222
 9322SOL     OW28864   1.052   4.919   6.484
 9322SOL    HW128865   1.095   4.866   6.411
 9322SOL    HW228866   0.955   4.894   6.490
 9323SOL     OW28867   1.357   0.561   5.196
 9323SOL    HW128868   1.260   0.538   5.191
 9323SOL    HW228869   1.368   0.652   5.235
 9324SOL     OW28870   1.372   4.916   0.708
 9324SOL    HW128871   1.328   4.987   0.763
 9324SOL    HW228872   1.468   4.907   0.734
 9325SOL     OW28873   4.899   0.891   6.901
 9325SOL    HW128874   4.826   0.829   6.874
 9325SOL    HW228875   4.987   0.856   6.869
 9326SOL     OW28876   1.974   6.593   1.048
 9326SOL    HW128877   2.027   6.630   0.971
 9326SOL    HW228878   1.903   6.658   1.073
 9327SOL     OW28879   5.182   6.849   2.765
 9327SOL    HW128880   5.152   6.924   2.823
 9327SOL    HW228881   5.117   6.835   2.691
 9328SOL     OW28882   3.462   0.567   5.464
 9328SOL    HW128883   3.388   0.512   5.427
 9328SOL    HW228884   3.509   0.614   5.390
 9329SOL     OW28885   6.259   4.002   1.822
 9329SOL    HW128886   6.351   3.971   1.845
 9329SOL    HW228887   6.223   4.058   1.897
 9330SOL     OW28888   6.692   6.645   6.809
 9330SOL    HW128889   6.785   6.675   6.788
 9330SOL    HW228890   6.638   6.644   6.725
 9331SOL     OW28891   1.550   1.051   6.512
 9331SOL    HW128892   1.483   0.994   6.560
 9331SOL    HW228893   1.511   1.142   6.498
 9332SOL     OW28894   4.250   3.977   1.719
 9332SOL    HW128895   4.311   4.052   1.746
 9332SOL    HW228896   4.158   3.996   1.752
 9333SOL     OW28897   4.083   4.009   1.470
 9333SOL    HW128898   4.087   3.936   1.401
 9333SOL    HW228899   4.151   3.992   1.540
 9334SOL     OW28900   5.159   5.524   4.006
 9334SOL    HW128901   5.059   5.529   4.007
 9334SOL    HW228902   5.195   5.551   4.096
 9335SOL     OW28903   0.730   1.386   6.007
 9335SOL    HW128904   0.715   1.469   6.060
 9335SOL    HW228905   0.684   1.309   6.053
 9336SOL     OW28906   2.492   5.015   5.509
 9336SOL    HW128907   2.497   4.929   5.559
 9336SOL    HW228908   2.449   5.084   5.567
 9337SOL     OW28909   5.218   1.725   3.885
 9337SOL    HW128910   5.137   1.741   3.829
 9337SOL    HW228911   5.298   1.761   3.838
 9338SOL     OW28912   4.205   0.442   2.031
 9338SOL    HW128913   4.252   0.415   1.946
 9338SOL    HW228914   4.160   0.530   2.017
 9339SOL     OW28915   5.811   0.157   1.455
 9339SOL    HW128916   5.751   0.219   1.505
 9339SOL    HW228917   5.906   0.180   1.474
 9340SOL     OW28918   5.456   3.545   3.972
 9340SOL    HW128919   5.418   3.590   4.053
 9340SOL    HW228920   5.556   3.547   3.978
 9341SOL     OW28921   0.003   6.078   0.261
 9341SOL    HW128922   6.971   6.086   0.177
 9341SOL    HW228923   0.093   6.040   0.238
 9342SOL     OW28924   1.481   6.922   3.475
 9342SOL    HW128925   1.509   6.832   3.510
 9342SOL    HW228926   1.419   6.965   3.541
 9343SOL     OW28927   6.019   4.203   2.539
 9343SOL    HW128928   6.020   4.136   2.614
 9343SOL    HW228929   5.929   4.247   2.535
 9344SOL     OW28930   4.664   6.370   2.076
 9344SOL    HW128931   4.622   6.360   1.985
 9344SOL    HW228932   4.763   6.376   2.066
 9345SOL     OW28933   6.473   4.222   2.337
 9345SOL    HW128934   6.461   4.209   2.436
 9345SOL    HW228935   6.409   4.292   2.305
 9346SOL     OW28936   6.296   0.879   1.283
 9346SOL    HW128937   6.214   0.822   1.279
 9346SOL    HW228938   6.278   0.962   1.335
 9347SOL     OW28939   1.038   4.027   0.417
 9347SOL    HW128940   0.969   4.049   0.347
 9347SOL    HW228941   1.104   3.962   0.380
 9348SOL     OW28942   3.742   5.999   2.134
 9348SOL    HW128943   3.810   6.063   2.170
 9348SOL    HW228944   3.745   5.999   2.035
 9349SOL     OW28945   0.612   6.492   2.908
 9349SOL    HW128946   0.592   6.401   2.871
 9349SOL    HW228947   0.553   6.559   2.864
 9350SOL     OW28948   6.945   3.642   5.558
 9350SOL    HW128949   6.872   3.678   5.500
 9350SOL    HW228950   0.011   3.650   5.511
 9351SOL     OW28951   2.725   0.564   6.717
 9351SOL    HW128952   2.649   0.499   6.720
 9351SOL    HW228953   2.752   0.580   6.622
 9352SOL     OW28954   3.228   2.084   6.838
 9352SOL    HW128955   3.295   2.107   6.766
 9352SOL    HW228956   3.136   2.088   6.800
 9353SOL     OW28957   0.294   4.919   0.704
 9353SOL    HW128958   0.261   5.000   0.656
 9353SOL    HW228959   0.357   4.868   0.645
 9354SOL     OW28960   6.318   1.937   6.296
 9354SOL    HW128961   6.282   1.866   6.236
 9354SOL    HW228962   6.337   2.020   6.243
 9355SOL     OW28963   0.423   2.201   4.840
 9355SOL    HW128964   0.429   2.251   4.753
 9355SOL    HW228965   0.514   2.195   4.881
 9356SOL     OW28966   4.556   0.281   1.939
 9356SOL    HW128967   4.525   0.294   2.034
 9356SOL    HW228968   4.497   0.333   1.877
 9357SOL     OW28969   1.293   3.614   6.391
 9357SOL    HW128970   1.292   3.590   6.294
 9357SOL    HW228971   1.256   3.538   6.445
 9358SOL     OW28972   0.075   4.101   2.337
 9358SOL    HW128973   0.120   4.189   2.352
 9358SOL    HW228974   0.086   4.043   2.417
 9359SOL     OW28975   1.308   4.730   0.202
 9359SOL    HW128976   1.322   4.794   0.126
 9359SOL    HW228977   1.387   4.669   0.209
 9360SOL     OW28978   1.898   5.041   6.425
 9360SOL    HW128979   1.973   5.036   6.359
 9360SOL    HW228980   1.834   5.113   6.397
 9361SOL     OW28981   1.724   4.910   3.305
 9361SOL    HW128982   1.625   4.916   3.306
 9361SOL    HW228983   1.762   5.002   3.291
 9362SOL     OW28984   0.768   1.057   2.711
 9362SOL    HW128985   0.686   1.104   2.679
 9362SOL    HW228986   0.839   1.063   2.641
 9363SOL     OW28987   3.417   5.189   2.017
 9363SOL    HW128988   3.365   5.212   1.934
 9363SOL    HW228989   3.409   5.264   2.083
 9364SOL     OW28990   2.390   2.281   6.855
 9364SOL    HW128991   2.333   2.349   6.902
 9364SOL    HW228992   2.453   2.240   6.921
 9365SOL     OW28993   3.088   1.855   3.608
 9365SOL    HW128994   3.022   1.915   3.653
 9365SOL    HW228995   3.052   1.762   3.607
 9366SOL     OW28996   3.095   5.455   0.191
 9366SOL    HW128997   3.162   5.417   0.128
 9366SOL    HW228998   3.059   5.541   0.154
 9367SOL     OW28999   6.465   0.259   1.335
 9367SOL    HW129000   6.418   0.221   1.255
 9367SOL    HW229001   6.455   0.359   1.335
 9368SOL     OW29002   3.636   6.673   1.950
 9368SOL    HW129003   3.612   6.576   1.949
 9368SOL    HW229004   3.734   6.684   1.934
 9369SOL     OW29005   6.915   6.357   4.623
 9369SOL    HW129006   6.898   6.439   4.679
 9369SOL    HW229007   6.982   6.379   4.552
 9370SOL     OW29008   5.401   6.822   4.004
 9370SOL    HW129009   5.411   6.739   4.058
 9370SOL    HW229010   5.490   6.850   3.967
 9371SOL     OW29011   2.640   5.986   0.731
 9371SOL    HW129012   2.695   5.999   0.813
 9371SOL    HW229013   2.685   6.031   0.653
 9372SOL     OW29014   5.309   0.244   1.591
 9372SOL    HW129015   5.362   0.318   1.633
 9372SOL    HW229016   5.298   0.170   1.657
 9373SOL     OW29017   5.459   2.114   0.755
 9373SOL    HW129018   5.538   2.072   0.798
 9373SOL    HW229019   5.376   2.090   0.806
 9374SOL     OW29020   7.006   3.402   5.718
 9374SOL    HW129021   6.971   3.433   5.630
 9374SOL    HW229022   6.976   3.464   5.790
 9375SOL     OW29023   6.939   1.586   0.756
 9375SOL    HW129024   0.011   1.614   0.777
 9375SOL    HW229025   6.940   1.515   0.686
 9376SOL     OW29026   2.624   3.884   1.671
 9376SOL    HW129027   2.576   3.855   1.588
 9376SOL    HW229028   2.576   3.849   1.751
 9377SOL     OW29029   1.783   4.738   3.101
 9377SOL    HW129030   1.730   4.791   3.167
 9377SOL    HW229031   1.877   4.731   3.133
 9378SOL     OW29032   3.398   1.094   3.735
 9378SOL    HW129033   3.381   1.008   3.687
 9378SOL    HW229034   3.352   1.091   3.824
 9379SOL     OW29035   5.297   0.067   4.860
 9379SOL    HW129036   5.217   0.126   4.856
 9379SOL    HW229037   5.284   7.011   4.798
 9380SOL     OW29038   3.586   5.474   5.790
 9380SOL    HW129039   3.658   5.503   5.854
 9380SOL    HW229040   3.577   5.543   5.718
 9381SOL     OW29041   5.314   2.909   5.396
 9381SOL    HW129042   5.361   2.827   5.430
 9381SOL    HW229043   5.381   2.969   5.351
 9382SOL     OW29044   3.679   1.029   3.759
 9382SOL    HW129045   3.584   1.061   3.755
 9382SOL    HW229046   3.736   1.087   3.702
 9383SOL     OW29047   4.913   4.307   4.497
 9383SOL    HW129048   4.945   4.390   4.450
 9383SOL    HW229049   4.814   4.313   4.510
 9384SOL     OW29050   3.433   6.864   1.856
 9384SOL    HW129051   3.439   6.946   1.912
 9384SOL    HW229052   3.511   6.804   1.876
 9385SOL     OW29053   4.352   1.612   4.330
 9385SOL    HW129054   4.309   1.553   4.399
 9385SOL    HW229055   4.442   1.575   4.307
 9386SOL     OW29056   2.827   5.605   5.231
 9386SOL    HW129057   2.923   5.577   5.226
 9386SOL    HW229058   2.777   5.541   5.289
 9387SOL     OW29059   3.383   2.304   0.574
 9387SOL    HW129060   3.314   2.241   0.609
 9387SOL    HW229061   3.402   2.374   0.642
 9388SOL     OW29062   1.785   6.536   2.947
 9388SOL    HW129063   1.704   6.479   2.953
 9388SOL    HW229064   1.848   6.512   3.021
 9389SOL     OW29065   3.331   6.004   2.902
 9389SOL    HW129066   3.235   5.991   2.877
 9389SOL    HW229067   3.345   6.100   2.929
 9390SOL     OW29068   6.045   5.093   5.824
 9390SOL    HW129069   6.038   5.154   5.745
 9390SOL    HW229070   6.129   5.113   5.874
 9391SOL     OW29071   0.467   0.790   4.822
 9391SOL    HW129072   0.531   0.852   4.776
 9391SOL    HW229073   0.441   0.716   4.760
 9392SOL     OW29074   4.705   4.221   3.840
 9392SOL    HW129075   4.608   4.243   3.843
 9392SOL    HW229076   4.728   4.159   3.915
 9393SOL     OW29077   3.147   0.039   5.945
 9393SOL    HW129078   3.135   0.005   5.852
 9393SOL    HW229079   3.058   0.049   5.989
 9394SOL     OW29080   5.870   0.560   1.409
 9394SOL    HW129081   5.878   0.511   1.322
 9394SOL    HW229082   5.828   0.649   1.394
 9395SOL     OW29083   2.429   1.498   0.649
 9395SOL    HW129084   2.461   1.403   0.641
 9395SOL    HW229085   2.386   1.511   0.739
 9396SOL     OW29086   2.249   4.819   5.188
 9396SOL    HW129087   2.235   4.875   5.270
 9396SOL    HW229088   2.186   4.847   5.116
 9397SOL     OW29089   2.864   6.677   5.534
 9397SOL    HW129090   2.923   6.696   5.613
 9397SOL    HW229091   2.919   6.678   5.451
 9398SOL     OW29092   6.031   1.568   5.757
 9398SOL    HW129093   6.070   1.501   5.821
 9398SOL    HW229094   6.097   1.588   5.685
 9399SOL     OW29095   1.073   2.516   4.279
 9399SOL    HW129096   1.154   2.547   4.229
 9399SOL    HW229097   0.994   2.569   4.249
 9400SOL     OW29098   4.895   0.214   0.200
 9400SOL    HW129099   4.964   0.253   0.140
 9400SOL    HW229100   4.804   0.243   0.170
 9401SOL     OW29101   0.080   2.530   1.656
 9401SOL    HW129102   0.170   2.568   1.676
 9401SOL    HW229103   0.009   2.591   1.690
 9402SOL     OW29104   1.429   4.564   3.485
 9402SOL    HW129105   1.435   4.561   3.386
 9402SOL    HW229106   1.377   4.646   3.512
 9403SOL     OW29107   0.115   1.609   2.580
 9403SOL    HW129108   0.171   1.527   2.592
 9403SOL    HW229109   0.155   1.667   2.510
 9404SOL     OW29110   0.278   2.025   1.239
 9404SOL    HW129111   0.207   2.014   1.309
 9404SOL    HW229112   0.238   2.018   1.148
 9405SOL     OW29113   0.852   4.330   4.563
 9405SOL    HW129114   0.888   4.276   4.487
 9405SOL    HW229115   0.812   4.414   4.528
 9406SOL     OW29116   1.227   2.908   6.887
 9406SOL    HW129117   1.260   2.868   6.973
 9406SOL    HW229118   1.283   2.875   6.811
 9407SOL     OW29119   2.829   5.138   4.869
 9407SOL    HW129120   2.870   5.055   4.907
 9407SOL    HW229121   2.743   5.114   4.823
 9408SOL     OW29122   0.133   2.437   5.937
 9408SOL    HW129123   0.206   2.501   5.959
 9408SOL    HW229124   0.051   2.488   5.910
 9409SOL     OW29125   6.512   5.520   2.523
 9409SOL    HW129126   6.580   5.557   2.459
 9409SOL    HW229127   6.469   5.439   2.483
 9410SOL     OW29128   4.725   1.116   1.672
 9410SOL    HW129129   4.726   1.083   1.767
 9410SOL    HW229130   4.783   1.197   1.665
 9411SOL     OW29131   3.238   3.650   2.808
 9411SOL    HW129132   3.321   3.698   2.838
 9411SOL    HW229133   3.171   3.717   2.777
 9412SOL     OW29134   1.126   0.509   1.594
 9412SOL    HW129135   1.060   0.581   1.616
 9412SOL    HW229136   1.163   0.471   1.679
 9413SOL     OW29137   4.774   4.735   4.837
 9413SOL    HW129138   4.733   4.780   4.759
 9413SOL    HW229139   4.874   4.736   4.828
 9414SOL     OW29140   2.889   2.195   4.467
 9414SOL    HW129141   2.860   2.250   4.545
 9414SOL    HW229142   2.858   2.237   4.382
 9415SOL     OW29143   3.024   6.986   1.961
 9415SOL    HW129144   3.016   0.064   1.954
 9415SOL    HW229145   3.080   6.952   1.886
 9416SOL     OW29146   0.330   0.842   5.040
 9416SOL    HW129147   0.258   0.775   5.060
 9416SOL    HW229148   0.366   0.826   4.949
 9417SOL     OW29149   3.182   6.207   1.616
 9417SOL    HW129150   3.277   6.194   1.588
 9417SOL    HW229151   3.158   6.304   1.607
 9418SOL     OW29152   2.779   1.685   2.666
 9418SOL    HW129153   2.752   1.661   2.760
 9418SOL    HW229154   2.697   1.691   2.609
 9419SOL     OW29155   2.669   3.073   6.461
 9419SOL    HW129156   2.719   3.135   6.401
 9419SOL    HW229157   2.660   3.113   6.552
 9420SOL     OW29158   5.943   4.813   0.445
 9420SOL    HW129159   6.007   4.791   0.519
 9420SOL    HW229160   5.849   4.807   0.479
 9421SOL     OW29161   3.007   5.513   4.369
 9421SOL    HW129162   3.033   5.601   4.329
 9421SOL    HW229163   2.911   5.494   4.346
 9422SOL     OW29164   2.598   6.308   4.169
 9422SOL    HW129165   2.659   6.228   4.165
 9422SOL    HW229166   2.596   6.343   4.262
 9423SOL     OW29167   4.115   6.303   2.791
 9423SOL    HW129168   4.043   6.348   2.738
 9423SOL    HW229169   4.188   6.274   2.729
 9424SOL     OW29170   5.297   1.675   4.661
 9424SOL    HW129171   5.256   1.695   4.750
 9424SOL    HW229172   5.230   1.694   4.589
 9425SOL     OW29173   6.060   4.985   1.475
 9425SOL    HW129174   6.067   5.071   1.525
 9425SOL    HW229175   5.973   4.940   1.497
 9426SOL     OW29176   1.723   1.500   6.012
 9426SOL    HW129177   1.705   1.597   5.992
 9426SOL    HW229178   1.755   1.454   5.929
 9427SOL     OW29179   2.164   5.913   3.133
 9427SOL    HW129180   2.256   5.925   3.097
 9427SOL    HW229181   2.100   5.898   3.058
 9428SOL     OW29182   6.726   6.595   0.330
 9428SOL    HW129183   6.658   6.650   0.281
 9428SOL    HW229184   6.799   6.569   0.267
 9429SOL     OW29185   1.664   2.043   3.751
 9429SOL    HW129186   1.705   2.038   3.660
 9429SOL    HW229187   1.722   2.098   3.811
 9430SOL     OW29188   0.346   2.456   4.370
 9430SOL    HW129189   0.406   2.415   4.301
 9430SOL    HW229190   0.251   2.445   4.343
 9431SOL     OW29191   6.750   4.349   0.957
 9431SOL    HW129192   6.725   4.391   0.870
 9431SOL    HW229193   6.845   4.320   0.953
 9432SOL     OW29194   6.549   1.738   4.115
 9432SOL    HW129195   6.529   1.692   4.028
 9432SOL    HW229196   6.629   1.796   4.104
 9433SOL     OW29197   4.155   5.723   3.111
 9433SOL    HW129198   4.058   5.731   3.090
 9433SOL    HW229199   4.209   5.770   3.041
 9434SOL     OW29200   5.817   5.340   3.610
 9434SOL    HW129201   5.739   5.283   3.584
 9434SOL    HW229202   5.784   5.428   3.644
 9435SOL     OW29203   0.256   2.011   2.079
 9435SOL    HW129204   0.293   1.938   2.136
 9435SOL    HW229205   0.160   2.025   2.102
 9436SOL     OW29206   1.359   1.193   2.320
 9436SOL    HW129207   1.296   1.181   2.243
 9436SOL    HW229208   1.439   1.134   2.306
 9437SOL     OW29209   0.895   5.326   3.547
 9437SOL    HW129210   0.853   5.294   3.632
 9437SOL    HW229211   0.844   5.406   3.514
 9438SOL     OW29212   1.229   6.970   1.943
 9438SOL    HW129213   1.241   6.872   1.930
 9438SOL    HW229214   1.204   7.013   1.856
 9439SOL     OW29215   0.251   3.046   0.860
 9439SOL    HW129216   0.304   3.130   0.875
 9439SOL    HW229217   0.296   2.969   0.905
 9440SOL     OW29218   2.458   4.542   3.414
 9440SOL    HW129219   2.542   4.591   3.393
 9440SOL    HW229220   2.399   4.542   3.333
 9441SOL     OW29221   6.588   5.840   5.544
 9441SOL    HW129222   6.519   5.890   5.596
 9441SOL    HW229223   6.555   5.747   5.526
 9442SOL     OW29224   4.647   3.692   1.311
 9442SOL    HW129225   4.624   3.788   1.296
 9442SOL    HW229226   4.576   3.634   1.271
 9443SOL     OW29227   2.517   5.860   1.444
 9443SOL    HW129228   2.434   5.915   1.435
 9443SOL    HW229229   2.589   5.915   1.487
 9444SOL     OW29230   1.898   3.765   0.903
 9444SOL    HW129231   1.843   3.693   0.862
 9444SOL    HW229232   1.869   3.854   0.866
 9445SOL     OW29233   6.509   2.226   3.595
 9445SOL    HW129234   6.544   2.297   3.535
 9445SOL    HW229235   6.520   2.137   3.552
 9446SOL     OW29236   6.583   4.768   4.155
 9446SOL    HW129237   6.631   4.849   4.123
 9446SOL    HW229238   6.588   4.764   4.255
 9447SOL     OW29239   4.734   5.067   2.691
 9447SOL    HW129240   4.810   5.130   2.706
 9447SOL    HW229241   4.664   5.112   2.634
 9448SOL     OW29242   6.268   6.961   5.991
 9448SOL    HW129243   6.257   7.001   5.899
 9448SOL    HW229244   6.301   0.010   6.054
 9449SOL     OW29245   5.265   6.539   0.238
 9449SOL    HW129246   5.230   6.555   0.146
 9449SOL    HW229247   5.218   6.460   0.279
 9450SOL     OW29248   1.639   5.300   4.174
 9450SOL    HW129249   1.708   5.298   4.102
 9450SOL    HW229250   1.622   5.207   4.206
 9451SOL     OW29251   4.060   5.707   5.884
 9451SOL    HW129252   4.088   5.662   5.800
 9451SOL    HW229253   4.109   5.794   5.893
 9452SOL     OW29254   0.469   4.180   0.480
 9452SOL    HW129255   0.549   4.215   0.431
 9452SOL    HW229256   0.446   4.089   0.444
 9453SOL     OW29257   2.980   4.930   3.206
 9453SOL    HW129258   2.988   5.011   3.147
 9453SOL    HW229259   2.947   4.958   3.296
 9454SOL     OW29260   4.609   3.947   0.792
 9454SOL    HW129261   4.587   3.893   0.712
 9454SOL    HW229262   4.677   3.899   0.848
 9455SOL     OW29263   2.556   1.968   2.327
 9455SOL    HW129264   2.558   2.052   2.380
 9455SOL    HW229265   2.650   1.939   2.307
 9456SOL     OW29266   6.278   4.003   2.243
 9456SOL    HW129267   6.193   3.952   2.232
 9456SOL    HW229268   6.257   4.099   2.264
 9457SOL     OW29269   1.109   5.122   4.535
 9457SOL    HW129270   1.135   5.127   4.439
 9457SOL    HW229271   1.135   5.208   4.581
 9458SOL     OW29272   0.076   4.254   0.477
 9458SOL    HW129273   0.074   4.247   0.377
 9458SOL    HW229274   0.121   4.173   0.515
 9459SOL     OW29275   5.157   4.192   3.697
 9459SOL    HW129276   5.153   4.240   3.609
 9459SOL    HW229277   5.165   4.094   3.681
 9460SOL     OW29278   1.693   3.519   4.765
 9460SOL    HW129279   1.774   3.490   4.815
 9460SOL    HW229280   1.721   3.571   4.684
 9461SOL     OW29281   1.035   1.282   0.902
 9461SOL    HW129282   1.016   1.327   0.815
 9461SOL    HW229283   1.069   1.350   0.968
 9462SOL     OW29284   1.629   2.772   3.536
 9462SOL    HW129285   1.725   2.792   3.520
 9462SOL    HW229286   1.572   2.846   3.499
 9463SOL     OW29287   5.431   6.705   1.433
 9463SOL    HW129288   5.490   6.639   1.480
 9463SOL    HW229289   5.459   6.798   1.458
 9464SOL     OW29290   6.267   0.274   1.848
 9464SOL    HW129291   6.259   0.202   1.916
 9464SOL    HW229292   6.320   0.241   1.770
 9465SOL     OW29293   0.363   4.110   1.636
 9465SOL    HW129294   0.335   4.169   1.712
 9465SOL    HW229295   0.283   4.070   1.593
 9466SOL     OW29296   4.494   5.739   6.485
 9466SOL    HW129297   4.489   5.642   6.461
 9466SOL    HW229298   4.503   5.748   6.585
 9467SOL     OW29299   1.671   2.593   0.773
 9467SOL    HW129300   1.614   2.565   0.695
 9467SOL    HW229301   1.763   2.557   0.761
 9468SOL     OW29302   6.473   3.248   6.605
 9468SOL    HW129303   6.384   3.284   6.634
 9468SOL    HW229304   6.545   3.309   6.637
 9469SOL     OW29305   0.138   6.327   0.663
 9469SOL    HW129306   0.065   6.301   0.600
 9469SOL    HW229307   0.225   6.287   0.633
 9470SOL     OW29308   4.658   3.764   0.081
 9470SOL    HW129309   4.583   3.830   0.088
 9470SOL    HW229310   4.621   3.671   0.080
 9471SOL     OW29311   5.692   2.459   5.364
 9471SOL    HW129312   5.661   2.479   5.457
 9471SOL    HW229313   5.665   2.534   5.303
 9472SOL     OW29314   1.316   4.356   6.256
 9472SOL    HW129315   1.400   4.330   6.209
 9472SOL    HW229316   1.338   4.390   6.347
 9473SOL     OW29317   3.158   3.544   6.715
 9473SOL    HW129318   3.204   3.531   6.803
 9473SOL    HW229319   3.217   3.512   6.641
 9474SOL     OW29320   6.178   3.032   1.573
 9474SOL    HW129321   6.201   3.096   1.500
 9474SOL    HW229322   6.083   3.003   1.563
 9475SOL     OW29323   4.173   3.546   6.731
 9475SOL    HW129324   4.265   3.548   6.692
 9475SOL    HW229325   4.134   3.638   6.730
 9476SOL     OW29326   3.585   3.965   5.765
 9476SOL    HW129327   3.585   3.896   5.693
 9476SOL    HW229328   3.670   3.959   5.817
 9477SOL     OW29329   1.474   3.490   0.937
 9477SOL    HW129330   1.384   3.531   0.953
 9477SOL    HW229331   1.463   3.395   0.908
 9478SOL     OW29332   4.551   2.919   1.028
 9478SOL    HW129333   4.457   2.939   1.055
 9478SOL    HW229334   4.614   2.945   1.101
 9479SOL     OW29335   3.890   0.517   1.533
 9479SOL    HW129336   3.974   0.534   1.583
 9479SOL    HW229337   3.885   0.577   1.453
 9480SOL     OW29338   5.661   5.759   6.887
 9480SOL    HW129339   5.678   5.661   6.878
 9480SOL    HW229340   5.601   5.775   6.965
 9481SOL     OW29341   5.023   2.317   3.150
 9481SOL    HW129342   5.055   2.222   3.147
 9481SOL    HW229343   4.991   2.344   3.060
 9482SOL     OW29344   6.199   6.898   1.386
 9482SOL    HW129345   6.174   6.995   1.391
 9482SOL    HW229346   6.131   6.849   1.333
 9483SOL     OW29347   1.567   0.475   6.389
 9483SOL    HW129348   1.498   0.441   6.453
 9483SOL    HW229349   1.560   0.575   6.382
 9484SOL     OW29350   2.397   0.400   4.208
 9484SOL    HW129351   2.370   0.496   4.212
 9484SOL    HW229352   2.393   0.368   4.113
 9485SOL     OW29353   5.870   1.810   1.313
 9485SOL    HW129354   5.920   1.809   1.400
 9485SOL    HW229355   5.850   1.904   1.288
 9486SOL     OW29356   5.056   5.593   1.043
 9486SOL    HW129357   4.997   5.674   1.043
 9486SOL    HW229358   5.136   5.610   0.987
 9487SOL     OW29359   3.316   3.372   4.635
 9487SOL    HW129360   3.232   3.324   4.610
 9487SOL    HW229361   3.385   3.305   4.664
 9488SOL     OW29362   2.229   1.419   1.073
 9488SOL    HW129363   2.144   1.457   1.037
 9488SOL    HW229364   2.239   1.444   1.170
 9489SOL     OW29365   5.418   4.261   1.387
 9489SOL    HW129366   5.497   4.318   1.365
 9489SOL    HW229367   5.398   4.200   1.311
 9490SOL     OW29368   6.925   5.934   3.743
 9490SOL    HW129369   7.013   5.946   3.789
 9490SOL    HW229370   6.939   5.883   3.659
 9491SOL     OW29371   5.797   5.611   4.513
 9491SOL    HW129372   5.758   5.703   4.514
 9491SOL    HW229373   5.876   5.609   4.452
 9492SOL     OW29374   4.511   3.413   5.564
 9492SOL    HW129375   4.572   3.338   5.538
 9492SOL    HW229376   4.422   3.376   5.591
 9493SOL     OW29377   2.908   5.706   3.346
 9493SOL    HW129378   2.892   5.737   3.440
 9493SOL    HW229379   2.869   5.772   3.282
 9494SOL     OW29380   5.923   2.935   2.356
 9494SOL    HW129381   5.948   2.966   2.448
 9494SOL    HW229382   5.824   2.947   2.343
 9495SOL     OW29383   6.816   1.258   2.260
 9495SOL    HW129384   6.813   1.219   2.352
 9495SOL    HW229385   6.864   1.345   2.262
 9496SOL     OW29386   4.472   2.174   2.216
 9496SOL    HW129387   4.400   2.232   2.177
 9496SOL    HW229388   4.440   2.079   2.220
 9497SOL     OW29389   5.904   5.908   5.369
 9497SOL    HW129390   5.923   5.882   5.464
 9497SOL    HW229391   5.809   5.886   5.347
 9498SOL     OW29392   6.828   4.713   5.202
 9498SOL    HW129393   6.890   4.702   5.280
 9498SOL    HW229394   6.855   4.650   5.129
 9499SOL     OW29395   0.033   5.994   4.947
 9499SOL    HW129396   6.973   5.940   4.926
 9499SOL    HW229397   0.045   6.066   4.879
 9500SOL     OW29398   3.744   6.203   1.339
 9500SOL    HW129399   3.744   6.154   1.251
 9500SOL    HW229400   3.837   6.205   1.375
 9501SOL     OW29401   1.456   1.396   4.228
 9501SOL    HW129402   1.455   1.494   4.206
 9501SOL    HW229403   1.540   1.374   4.278
 9502SOL     OW29404   6.216   4.165   4.348
 9502SOL    HW129405   6.314   4.147   4.333
 9502SOL    HW229406   6.167   4.156   4.261
 9503SOL     OW29407   0.286   2.339   0.799
 9503SOL    HW129408   0.193   2.302   0.795
 9503SOL    HW229409   0.340   2.285   0.864
 9504SOL     OW29410   6.845   4.257   1.640
 9504SOL    HW129411   6.882   4.260   1.547
 9504SOL    HW229412   6.778   4.183   1.647
 9505SOL     OW29413   4.949   4.704   5.551
 9505SOL    HW129414   4.907   4.773   5.611
 9505SOL    HW229415   4.914   4.716   5.459
 9506SOL     OW29416   2.390   2.609   0.257
 9506SOL    HW129417   2.416   2.629   0.163
 9506SOL    HW229418   2.332   2.683   0.292
 9507SOL     OW29419   6.307   0.673   0.902
 9507SOL    HW129420   6.379   0.736   0.874
 9507SOL    HW229421   6.335   0.579   0.880
 9508SOL     OW29422   5.756   1.881   2.527
 9508SOL    HW129423   5.846   1.926   2.531
 9508SOL    HW229424   5.758   1.797   2.581
 9509SOL     OW29425   6.777   0.044   3.288
 9509SOL    HW129426   6.755   0.011   3.197
 9509SOL    HW229427   6.794   6.988   3.349
 9510SOL     OW29428   1.010   3.742   3.311
 9510SOL    HW129429   0.977   3.749   3.405
 9510SOL    HW229430   1.008   3.832   3.267
 9511SOL     OW29431   0.910   0.924   1.938
 9511SOL    HW129432   0.986   0.859   1.934
 9511SOL    HW229433   0.927   0.999   1.873
 9512SOL     OW29434   6.900   2.413   1.466
 9512SOL    HW129435   6.986   2.407   1.518
 9512SOL    HW229436   6.831   2.355   1.510
 9513SOL     OW29437   2.954   4.966   5.872
 9513SOL    HW129438   2.909   5.017   5.799
 9513SOL    HW229439   2.955   5.021   5.956
 9514SOL     OW29440   2.718   3.828   6.792
 9514SOL    HW129441   2.789   3.878   6.841
 9514SOL    HW229442   2.748   3.734   6.776
 9515SOL     OW29443   2.030   4.948   3.428
 9515SOL    HW129444   2.105   5.013   3.412
 9515SOL    HW229445   2.008   4.944   3.525
 9516SOL     OW29446   5.428   4.624   0.724
 9516SOL    HW129447   5.375   4.540   0.714
 9516SOL    HW229448   5.512   4.605   0.774
 9517SOL     OW29449   1.487   4.364   0.809
 9517SOL    HW129450   1.455   4.324   0.723
 9517SOL    HW229451   1.585   4.347   0.819
 9518SOL     OW29452   2.750   1.652   0.118
 9518SOL    HW129453   2.712   1.731   0.070
 9518SOL    HW229454   2.818   1.683   0.185
 9519SOL     OW29455   2.050   2.402   5.583
 9519SOL    HW129456   2.143   2.389   5.615
 9519SOL    HW229457   1.987   2.399   5.661
 9520SOL     OW29458   2.939   0.371   2.514
 9520SOL    HW129459   3.037   0.363   2.531
 9520SOL    HW229460   2.919   0.350   2.418
 9521SOL     OW29461   5.499   5.864   3.235
 9521SOL    HW129462   5.583   5.813   3.217
 9521SOL    HW229463   5.507   5.916   3.319
 9522SOL     OW29464   3.581   5.802   1.178
 9522SOL    HW129465   3.531   5.882   1.210
 9522SOL    HW229466   3.589   5.736   1.252
 9523SOL     OW29467   3.133   5.316   4.227
 9523SOL    HW129468   3.134   5.312   4.127
 9523SOL    HW229469   3.066   5.384   4.257
 9524SOL     OW29470   4.347   3.092   1.259
 9524SOL    HW129471   4.310   3.126   1.173
 9524SOL    HW229472   4.303   3.005   1.282
 9525SOL     OW29473   1.991   1.501   6.152
 9525SOL    HW129474   2.026   1.592   6.175
 9525SOL    HW229475   1.906   1.510   6.101
 9526SOL     OW29476   5.758   5.743   3.171
 9526SOL    HW129477   5.837   5.744   3.109
 9526SOL    HW229478   5.749   5.652   3.212
 9527SOL     OW29479   1.228   1.068   2.072
 9527SOL    HW129480   1.208   1.072   1.974
 9527SOL    HW229481   1.144   1.051   2.123
 9528SOL     OW29482   6.433   0.582   0.512
 9528SOL    HW129483   6.448   0.569   0.414
 9528SOL    HW229484   6.349   0.634   0.526
 9529SOL     OW29485   1.229   2.607   6.140
 9529SOL    HW129486   1.321   2.568   6.141
 9529SOL    HW229487   1.167   2.547   6.090
 9530SOL     OW29488   1.546   3.172   3.100
 9530SOL    HW129489   1.571   3.262   3.134
 9530SOL    HW229490   1.629   3.124   3.069
 9531SOL     OW29491   3.995   6.014   3.120
 9531SOL    HW129492   4.093   6.013   3.102
 9531SOL    HW229493   3.948   6.056   3.042
 9532SOL     OW29494   1.586   5.722   1.578
 9532SOL    HW129495   1.626   5.801   1.530
 9532SOL    HW229496   1.614   5.638   1.533
 9533SOL     OW29497   0.331   1.631   5.197
 9533SOL    HW129498   0.262   1.579   5.147
 9533SOL    HW229499   0.410   1.647   5.138
 9534SOL     OW29500   5.224   3.410   5.210
 9534SOL    HW129501   5.204   3.335   5.274
 9534SOL    HW229502   5.139   3.438   5.165
 9535SOL     OW29503   2.643   1.128   5.360
 9535SOL    HW129504   2.611   1.203   5.417
 9535SOL    HW229505   2.606   1.041   5.394
 9536SOL     OW29506   2.039   5.986   5.649
 9536SOL    HW129507   1.975   5.917   5.684
 9536SOL    HW229508   2.105   6.009   5.721
 9537SOL     OW29509   3.180   0.747   2.655
 9537SOL    HW129510   3.083   0.766   2.666
 9537SOL    HW229511   3.216   0.799   2.578
 9538SOL     OW29512   6.667   1.184   4.264
 9538SOL    HW129513   6.727   1.153   4.190
 9538SOL    HW229514   6.702   1.149   4.351
 9539SOL     OW29515   2.147   4.550   6.140
 9539SOL    HW129516   2.222   4.617   6.145
 9539SOL    HW229517   2.180   4.461   6.172
 9540SOL     OW29518   4.585   4.409   5.502
 9540SOL    HW129519   4.684   4.401   5.488
 9540SOL    HW229520   4.562   4.505   5.520
 9541SOL     OW29521   1.597   2.085   5.058
 9541SOL    HW129522   1.643   2.036   4.984
 9541SOL    HW229523   1.663   2.104   5.131
 9542SOL     OW29524   4.982   3.413   5.033
 9542SOL    HW129525   4.920   3.490   5.053
 9542SOL    HW229526   4.928   3.332   5.013
 9543SOL     OW29527   4.603   0.906   4.539
 9543SOL    HW129528   4.571   0.816   4.507
 9543SOL    HW229529   4.574   0.920   4.633
 9544SOL     OW29530   5.857   0.240   2.078
 9544SOL    HW129531   5.841   0.245   2.176
 9544SOL    HW229532   5.795   0.174   2.036
 9545SOL     OW29533   6.673   6.338   3.238
 9545SOL    HW129534   6.663   6.240   3.252
 9545SOL    HW229535   6.582   6.380   3.229
 9546SOL     OW29536   3.100   3.983   6.392
 9546SOL    HW129537   3.094   3.926   6.310
 9546SOL    HW229538   3.196   3.997   6.417
 9547SOL     OW29539   2.127   6.415   4.284
 9547SOL    HW129540   2.223   6.392   4.268
 9547SOL    HW229541   2.119   6.470   4.367
 9548SOL     OW29542   6.260   5.163   4.967
 9548SOL    HW129543   6.172   5.148   4.923
 9548SOL    HW229544   6.316   5.081   4.959
 9549SOL     OW29545   3.578   5.643   0.969
 9549SOL    HW129546   3.482   5.630   0.944
 9549SOL    HW229547   3.584   5.690   1.057
 9550SOL     OW29548   0.269   1.181   6.779
 9550SOL    HW129549   0.282   1.139   6.869
 9550SOL    HW229550   0.219   1.118   6.720
 9551SOL     OW29551   0.243   0.114   5.046
 9551SOL    HW129552   0.285   0.197   5.082
 9551SOL    HW229553   0.198   0.064   5.120
 9552SOL     OW29554   1.428   6.663   3.096
 9552SOL    HW129555   1.373   6.662   3.012
 9552SOL    HW229556   1.384   6.722   3.163
 9553SOL     OW29557   6.216   4.682   0.009
 9553SOL    HW129558   6.164   4.712   0.089
 9553SOL    HW229559   6.161   4.696   6.949
 9554SOL     OW29560   2.627   0.596   1.915
 9554SOL    HW129561   2.528   0.610   1.907
 9554SOL    HW229562   2.648   0.559   2.006
 9555SOL     OW29563   6.506   2.187   1.399
 9555SOL    HW129564   6.441   2.231   1.461
 9555SOL    HW229565   6.495   2.223   1.307
 9556SOL     OW29566   2.817   1.515   1.310
 9556SOL    HW129567   2.720   1.501   1.290
 9556SOL    HW229568   2.863   1.426   1.318
 9557SOL     OW29569   6.413   0.445   3.100
 9557SOL    HW129570   6.478   0.481   3.166
 9557SOL    HW229571   6.462   0.394   3.029
 9558SOL     OW29572   0.130   5.042   3.064
 9558SOL    HW129573   0.128   5.045   3.164
 9558SOL    HW229574   0.204   4.983   3.034
 9559SOL     OW29575   0.642   3.723   1.868
 9559SOL    HW129576   0.676   3.808   1.829
 9559SOL    HW229577   0.592   3.742   1.953
 9560SOL     OW29578   2.533   1.468   2.576
 9560SOL    HW129579   2.604   1.501   2.514
 9560SOL    HW229580   2.542   1.369   2.587
 9561SOL     OW29581   3.209   6.327   0.941
 9561SOL    HW129582   3.208   6.228   0.930
 9561SOL    HW229583   3.234   6.350   1.035
 9562SOL     OW29584   4.142   5.328   3.926
 9562SOL    HW129585   4.209   5.374   3.984
 9562SOL    HW229586   4.049   5.357   3.952
 9563SOL     OW29587   6.942   6.708   6.756
 9563SOL    HW129588   6.999   6.692   6.676
 9563SOL    HW229589   7.000   6.730   6.834
 9564SOL     OW29590   2.825   6.845   6.498
 9564SOL    HW129591   2.865   6.772   6.442
 9564SOL    HW229592   2.823   6.817   6.594
 9565SOL     OW29593   4.022   5.757   4.677
 9565SOL    HW129594   4.066   5.668   4.661
 9565SOL    HW229595   4.017   5.774   4.775
 9566SOL     OW29596   3.542   4.801   6.593
 9566SOL    HW129597   3.572   4.819   6.499
 9566SOL    HW229598   3.545   4.702   6.610
 9567SOL     OW29599   5.724   6.024   6.567
 9567SOL    HW129600   5.627   6.022   6.541
 9567SOL    HW229601   5.770   6.099   6.518
 9568SOL     OW29602   5.249   3.737   6.426
 9568SOL    HW129603   5.335   3.788   6.419
 9568SOL    HW229604   5.175   3.800   6.448
 9569SOL     OW29605   6.465   1.355   0.123
 9569SOL    HW129606   6.488   1.258   0.131
 9569SOL    HW229607   6.370   1.364   0.094
 9570SOL     OW29608   0.167   1.610   0.804
 9570SOL    HW129609   0.222   1.638   0.883
 9570SOL    HW229610   0.217   1.540   0.752
 9571SOL     OW29611   2.528   4.093   0.298
 9571SOL    HW129612   2.596   4.122   0.230
 9571SOL    HW229613   2.524   4.160   0.372
 9572SOL     OW29614   1.245   4.434   0.901
 9572SOL    HW129615   1.219   4.511   0.842
 9572SOL    HW229616   1.335   4.401   0.874
 9573SOL     OW29617   0.821   0.940   6.716
 9573SOL    HW129618   0.726   0.963   6.694
 9573SOL    HW229619   0.840   0.963   6.811
 9574SOL     OW29620   3.752   3.767   5.629
 9574SOL    HW129621   3.687   3.813   5.568
 9574SOL    HW229622   3.831   3.826   5.644
 9575SOL     OW29623   5.703   0.878   1.945
 9575SOL    HW129624   5.716   0.946   1.873
 9575SOL    HW229625   5.719   0.786   1.908
 9576SOL     OW29626   3.151   1.260   4.126
 9576SOL    HW129627   3.136   1.353   4.158
 9576SOL    HW229628   3.078   1.201   4.159
 9577SOL     OW29629   0.183   6.734   2.482
 9577SOL    HW129630   0.196   6.780   2.570
 9577SOL    HW229631   0.174   6.802   2.410
 9578SOL     OW29632   6.122   2.647   2.242
 9578SOL    HW129633   6.191   2.645   2.170
 9578SOL    HW229634   6.165   2.674   2.328
 9579SOL     OW29635   1.592   0.201   1.572
 9579SOL    HW129636   1.531   0.279   1.583
 9579SOL    HW229637   1.559   0.144   1.496
 9580SOL     OW29638   4.709   3.745   0.430
 9580SOL    HW129639   4.702   3.724   0.333
 9580SOL    HW229640   4.762   3.829   0.442
 9581SOL     OW29641   0.966   5.303   5.839
 9581SOL    HW129642   1.035   5.319   5.909
 9581SOL    HW229643   0.908   5.384   5.829
 9582SOL     OW29644   4.260   4.735   4.359
 9582SOL    HW129645   4.164   4.756   4.375
 9582SOL    HW229646   4.276   4.718   4.262
 9583SOL     OW29647   2.212   3.779   1.914
 9583SOL    HW129648   2.120   3.779   1.873
 9583SOL    HW229649   2.220   3.703   1.978
 9584SOL     OW29650   6.326   5.019   6.696
 9584SOL    HW129651   6.384   5.084   6.647
 9584SOL    HW229652   6.292   4.950   6.631
 9585SOL     OW29653   5.826   6.906   2.752
 9585SOL    HW129654   5.768   6.956   2.687
 9585SOL    HW229655   5.768   6.865   2.823
 9586SOL     OW29656   5.411   3.010   3.703
 9586SOL    HW129657   5.325   2.960   3.691
 9586SOL    HW229658   5.414   3.087   3.640
 9587SOL     OW29659   6.067   0.041   1.750
 9587SOL    HW129660   6.089   0.040   1.848
 9587SOL    HW229661   5.972   0.067   1.738
 9588SOL     OW29662   0.039   0.756   1.480
 9588SOL    HW129663   7.020   0.837   1.522
 9588SOL    HW229664   7.011   0.734   1.395
 9589SOL     OW29665   2.237   6.722   5.588
 9589SOL    HW129666   2.137   6.733   5.586
 9589SOL    HW229667   2.260   6.631   5.622
 9590SOL     OW29668   0.439   3.912   2.839
 9590SOL    HW129669   0.473   3.994   2.792
 9590SOL    HW229670   0.497   3.834   2.816
 9591SOL     OW29671   2.389   6.445   1.243
 9591SOL    HW129672   2.335   6.363   1.262
 9591SOL    HW229673   2.411   6.491   1.329
 9592SOL     OW29674   4.211   5.566   2.676
 9592SOL    HW129675   4.192   5.485   2.732
 9592SOL    HW229676   4.298   5.606   2.705
 9593SOL     OW29677   6.342   2.983   4.446
 9593SOL    HW129678   6.438   3.011   4.448
 9593SOL    HW229679   6.285   3.057   4.480
 9594SOL     OW29680   6.713   6.862   2.547
 9594SOL    HW129681   6.616   6.848   2.527
 9594SOL    HW229682   6.735   6.822   2.635
 9595SOL     OW29683   1.556   5.563   4.152
 9595SOL    HW129684   1.561   5.463   4.149
 9595SOL    HW229685   1.641   5.602   4.118
 9596SOL     OW29686   6.561   6.057   5.250
 9596SOL    HW129687   6.623   6.135   5.257
 9596SOL    HW229688   6.604   5.976   5.289
 9597SOL     OW29689   0.819   4.439   1.535
 9597SOL    HW129690   0.793   4.489   1.453
 9597SOL    HW229691   0.808   4.497   1.615
 9598SOL     OW29692   0.374   4.294   6.122
 9598SOL    HW129693   0.415   4.384   6.136
 9598SOL    HW229694   0.422   4.245   6.049
 9599SOL     OW29695   4.130   0.318   5.295
 9599SOL    HW129696   4.165   0.362   5.212
 9599SOL    HW229697   4.199   0.255   5.331
 9600SOL     OW29698   0.937   0.565   5.580
 9600SOL    HW129699   1.013   0.502   5.597
 9600SOL    HW229700   0.971   0.658   5.571
 9601SOL     OW29701   0.555   4.836   5.999
 9601SOL    HW129702   0.649   4.800   5.993
 9601SOL    HW229703   0.492   4.771   5.957
 9602SOL     OW29704   0.126   4.993   6.442
 9602SOL    HW129705   0.090   5.066   6.384
 9602SOL    HW229706   0.175   5.032   6.519
 9603SOL     OW29707   2.091   5.952   4.119
 9603SOL    HW129708   2.168   6.014   4.109
 9603SOL    HW229709   2.006   6.004   4.128
 9604SOL     OW29710   4.680   1.336   6.865
 9604SOL    HW129711   4.650   1.291   6.949
 9604SOL    HW229712   4.735   1.272   6.812
 9605SOL     OW29713   2.063   5.750   6.062
 9605SOL    HW129714   2.139   5.750   5.998
 9605SOL    HW229715   2.005   5.830   6.045
 9606SOL     OW29716   0.352   5.785   3.386
 9606SOL    HW129717   0.333   5.819   3.478
 9606SOL    HW229718   0.303   5.841   3.319
 9607SOL     OW29719   0.897   1.390   2.620
 9607SOL    HW129720   0.908   1.328   2.542
 9607SOL    HW229721   0.941   1.478   2.600
 9608SOL     OW29722   0.053   0.073   2.609
 9608SOL    HW129723   0.069   0.123   2.694
 9608SOL    HW229724   0.128   0.091   2.545
 9609SOL     OW29725   2.331   4.347   4.966
 9609SOL    HW129726   2.243   4.380   4.932
 9609SOL    HW229727   2.337   4.249   4.953
 9610SOL     OW29728   2.331   1.883   6.047
 9610SOL    HW129729   2.231   1.881   6.040
 9610SOL    HW229730   2.361   1.815   6.114
 9611SOL     OW29731   6.715   0.801   0.943
 9611SOL    HW129732   6.786   0.870   0.959
 9611SOL    HW229733   6.625   0.845   0.940
 9612SOL     OW29734   5.637   3.300   0.875
 9612SOL    HW129735   5.598   3.230   0.935
 9612SOL    HW229736   5.595   3.388   0.896
 9613SOL     OW29737   6.247   6.787   5.329
 9613SOL    HW129738   6.317   6.765   5.261
 9613SOL    HW229739   6.290   6.801   5.418
 9614SOL     OW29740   3.585   3.735   2.172
 9614SOL    HW129741   3.648   3.706   2.244
 9614SOL    HW229742   3.587   3.669   2.097
 9615SOL     OW29743   0.923   6.293   2.664
 9615SOL    HW129744   0.878   6.209   2.635
 9615SOL    HW229745   1.013   6.272   2.703
 9616SOL     OW29746   3.410   2.383   1.015
 9616SOL    HW129747   3.366   2.396   0.927
 9616SOL    HW229748   3.413   2.470   1.065
 9617SOL     OW29749   1.378   2.898   3.746
 9617SOL    HW129750   1.356   2.929   3.838
 9617SOL    HW229751   1.363   2.799   3.740
 9618SOL     OW29752   3.895   6.409   6.112
 9618SOL    HW129753   3.881   6.310   6.108
 9618SOL    HW229754   3.807   6.454   6.129
 9619SOL     OW29755   2.235   5.758   0.266
 9619SOL    HW129756   2.172   5.790   0.195
 9619SOL    HW229757   2.197   5.779   0.356
 9620SOL     OW29758   3.236   0.621   0.027
 9620SOL    HW129759   3.256   0.597   6.954
 9620SOL    HW229760   3.257   0.718   0.042
 9621SOL     OW29761   0.326   1.164   2.437
 9621SOL    HW129762   0.316   1.092   2.367
 9621SOL    HW229763   0.361   1.247   2.394
 9622SOL     OW29764   5.449   0.706   6.757
 9622SOL    HW129765   5.542   0.723   6.789
 9622SOL    HW229766   5.452   0.656   6.671
 9623SOL     OW29767   5.146   5.811   6.299
 9623SOL    HW129768   5.091   5.872   6.243
 9623SOL    HW229769   5.148   5.845   6.393
 9624SOL     OW29770   4.827   5.877   4.923
 9624SOL    HW129771   4.816   5.903   4.827
 9624SOL    HW229772   4.744   5.831   4.955
 9625SOL     OW29773   5.280   4.470   6.650
 9625SOL    HW129774   5.289   4.490   6.748
 9625SOL    HW229775   5.195   4.419   6.634
 9626SOL     OW29776   1.926   4.617   5.678
 9626SOL    HW129777   1.870   4.659   5.750
 9626SOL    HW229778   1.919   4.671   5.595
 9627SOL     OW29779   1.432   5.302   6.201
 9627SOL    HW129780   1.385   5.232   6.147
 9627SOL    HW229781   1.415   5.287   6.298
 9628SOL     OW29782   5.949   3.938   6.694
 9628SOL    HW129783   5.898   4.002   6.751
 9628SOL    HW229784   5.886   3.878   6.646
 9629SOL     OW29785   0.214   5.943   2.685
 9629SOL    HW129786   0.212   6.037   2.717
 9629SOL    HW229787   0.255   5.884   2.754
 9630SOL     OW29788   6.644   6.576   5.728
 9630SOL    HW129789   6.550   6.576   5.695
 9630SOL    HW229790   6.698   6.509   5.676
 9631SOL     OW29791   4.079   1.136   0.706
 9631SOL    HW129792   4.167   1.167   0.671
 9631SOL    HW229793   4.074   1.153   0.804
 9632SOL     OW29794   3.263   5.654   1.178
 9632SOL    HW129795   3.261   5.633   1.080
 9632SOL    HW229796   3.177   5.626   1.220
 9633SOL     OW29797   4.069   3.129   2.162
 9633SOL    HW129798   4.160   3.120   2.122
 9633SOL    HW229799   4.005   3.070   2.113
 9634SOL     OW29800   5.326   4.945   2.871
 9634SOL    HW129801   5.337   4.895   2.785
 9634SOL    HW229802   5.416   4.964   2.910
 9635SOL     OW29803   1.129   3.779   4.221
 9635SOL    HW129804   1.213   3.811   4.178
 9635SOL    HW229805   1.137   3.791   4.320
 9636SOL     OW29806   4.464   2.104   5.560
 9636SOL    HW129807   4.421   2.079   5.646
 9636SOL    HW229808   4.562   2.118   5.574
 9637SOL     OW29809   2.202   3.113   0.860
 9637SOL    HW129810   2.249   3.142   0.943
 9637SOL    HW229811   2.103   3.117   0.876
 9638SOL     OW29812   0.353   3.935   6.515
 9638SOL    HW129813   0.363   3.877   6.434
 9638SOL    HW229814   0.410   4.017   6.505
 9639SOL     OW29815   4.428   2.043   1.701
 9639SOL    HW129816   4.514   2.074   1.740
 9639SOL    HW229817   4.420   2.075   1.607
 9640SOL     OW29818   4.090   0.924   2.561
 9640SOL    HW129819   4.104   0.982   2.641
 9640SOL    HW229820   4.148   0.954   2.486
 9641SOL     OW29821   5.720   4.921   2.435
 9641SOL    HW129822   5.639   4.863   2.434
 9641SOL    HW229823   5.696   5.012   2.468
 9642SOL     OW29824   1.602   0.083   3.689
 9642SOL    HW129825   1.557   0.058   3.775
 9642SOL    HW229826   1.557   0.037   3.613
 9643SOL     OW29827   4.883   3.616   4.028
 9643SOL    HW129828   4.891   3.655   3.936
 9643SOL    HW229829   4.882   3.516   4.022
 9644SOL     OW29830   1.287   6.332   5.340
 9644SOL    HW129831   1.374   6.285   5.355
 9644SOL    HW229832   1.282   6.412   5.400
 9645SOL     OW29833   1.566   5.517   6.109
 9645SOL    HW129834   1.526   5.426   6.123
 9645SOL    HW229835   1.664   5.508   6.091
 9646SOL     OW29836   2.791   6.784   4.717
 9646SOL    HW129837   2.723   6.836   4.769
 9646SOL    HW229838   2.777   6.801   4.619
 9647SOL     OW29839   6.509   6.277   3.578
 9647SOL    HW129840   6.451   6.284   3.659
 9647SOL    HW229841   6.592   6.227   3.602
 9648SOL     OW29842   5.270   2.048   1.693
 9648SOL    HW129843   5.199   2.023   1.628
 9648SOL    HW229844   5.347   2.088   1.644
 9649SOL     OW29845   2.521   3.542   0.318
 9649SOL    HW129846   2.544   3.527   0.222
 9649SOL    HW229847   2.554   3.633   0.346
 9650SOL     OW29848   6.435   4.378   4.188
 9650SOL    HW129849   6.357   4.418   4.235
 9650SOL    HW229850   6.409   4.352   4.096
 9651SOL     OW29851   2.829   1.446   6.949
 9651SOL    HW129852   2.798   1.509   7.020
 9651SOL    HW229853   2.800   1.353   6.972
 9652SOL     OW29854   0.552   4.132   0.770
 9652SOL    HW129855   0.510   4.120   0.680
 9652SOL    HW229856   0.600   4.048   0.796
 9653SOL     OW29857   4.696   4.102   6.124
 9653SOL    HW129858   4.675   4.007   6.101
 9653SOL    HW229859   4.626   4.162   6.086
 9654SOL     OW29860   4.133   3.355   3.646
 9654SOL    HW129861   4.192   3.275   3.658
 9654SOL    HW229862   4.144   3.391   3.554
 9655SOL     OW29863   5.972   0.755   1.601
 9655SOL    HW129864   5.907   0.736   1.674
 9655SOL    HW229865   5.977   0.677   1.539
 9656SOL     OW29866   5.472   3.487   0.734
 9656SOL    HW129867   5.378   3.504   0.764
 9656SOL    HW229868   5.472   3.427   0.654
 9657SOL     OW29869   5.516   3.710   3.357
 9657SOL    HW129870   5.464   3.780   3.309
 9657SOL    HW229871   5.574   3.753   3.426
 9658SOL     OW29872   4.317   1.600   2.901
 9658SOL    HW129873   4.239   1.657   2.876
 9658SOL    HW229874   4.401   1.639   2.864
 9659SOL     OW29875   3.686   2.279   0.859
 9659SOL    HW129876   3.723   2.361   0.904
 9659SOL    HW229877   3.601   2.253   0.904
 9660SOL     OW29878   0.682   6.028   0.500
 9660SOL    HW129879   0.757   5.978   0.458
 9660SOL    HW229880   0.696   6.033   0.599
 9661SOL     OW29881   5.149   5.180   1.417
 9661SOL    HW129882   5.055   5.162   1.389
 9661SOL    HW229883   5.155   5.273   1.453
 9662SOL     OW29884   5.490   4.870   0.299
 9662SOL    HW129885   5.546   4.862   0.381
 9662SOL    HW229886   5.410   4.927   0.319
 9663SOL     OW29887   0.908   4.249   3.628
 9663SOL    HW129888   0.895   4.242   3.529
 9663SOL    HW229889   0.841   4.313   3.665
 9664SOL     OW29890   5.259   3.502   3.557
 9664SOL    HW129891   5.271   3.467   3.464
 9664SOL    HW229892   5.274   3.601   3.558
 9665SOL     OW29893   6.583   6.779   6.139
 9665SOL    HW129894   6.660   6.842   6.130
 9665SOL    HW229895   6.609   6.702   6.196
 9666SOL     OW29896   6.321   4.614   1.427
 9666SOL    HW129897   6.294   4.519   1.442
 9666SOL    HW229898   6.420   4.622   1.436
 9667SOL     OW29899   4.020   5.707   0.814
 9667SOL    HW129900   3.927   5.681   0.841
 9667SOL    HW229901   4.063   5.631   0.766
 9668SOL     OW29902   1.063   6.601   5.593
 9668SOL    HW129903   1.059   6.504   5.619
 9668SOL    HW229904   1.146   6.618   5.540
 9669SOL     OW29905   2.650   7.011   1.108
 9669SOL    HW129906   2.679   7.012   1.204
 9669SOL    HW229907   2.602   6.925   1.089
 9670SOL     OW29908   0.554   0.386   5.986
 9670SOL    HW129909   0.558   0.287   6.004
 9670SOL    HW229910   0.501   0.403   5.903
 9671SOL     OW29911   1.183   5.080   0.042
 9671SOL    HW129912   1.189   5.140   6.984
 9671SOL    HW229913   1.232   4.995   0.023
 9672SOL     OW29914   0.489   4.249   3.302
 9672SOL    HW129915   0.535   4.193   3.233
 9672SOL    HW229916   0.451   4.331   3.258
 9673SOL     OW29917   3.483   4.323   1.554
 9673SOL    HW129918   3.554   4.267   1.596
 9673SOL    HW229919   3.393   4.284   1.574
 9674SOL     OW29920   3.657   6.745   2.755
 9674SOL    HW129921   3.728   6.778   2.693
 9674SOL    HW229922   3.582   6.706   2.702
 9675SOL     OW29923   5.118   3.984   0.847
 9675SOL    HW129924   5.022   3.980   0.874
 9675SOL    HW229925   5.149   3.892   0.822
 9676SOL     OW29926   1.220   2.237   6.258
 9676SOL    HW129927   1.311   2.248   6.219
 9676SOL    HW229928   1.210   2.301   6.335
 9677SOL     OW29929   6.071   5.299   0.215
 9677SOL    HW129930   6.043   5.272   0.123
 9677SOL    HW229931   6.076   5.217   0.273
 9678SOL     OW29932   3.287   3.732   4.387
 9678SOL    HW129933   3.190   3.754   4.394
 9678SOL    HW229934   3.322   3.706   4.477
 9679SOL     OW29935   3.011   2.010   4.339
 9679SOL    HW129936   2.955   1.984   4.260
 9679SOL    HW229937   2.963   2.080   4.391
 9680SOL     OW29938   4.941   6.531   4.557
 9680SOL    HW129939   4.854   6.537   4.508
 9680SOL    HW229940   5.007   6.593   4.514
 9681SOL     OW29941   2.480   1.142   1.306
 9681SOL    HW129942   2.527   1.068   1.257
 9681SOL    HW229943   2.392   1.160   1.263
 9682SOL     OW29944   5.426   5.389   4.310
 9682SOL    HW129945   5.452   5.453   4.382
 9682SOL    HW229946   5.506   5.337   4.280
 9683SOL     OW29947   1.681   6.377   0.921
 9683SOL    HW129948   1.613   6.416   0.984
 9683SOL    HW229949   1.638   6.362   0.832
 9684SOL     OW29950   1.083   3.875   5.305
 9684SOL    HW129951   1.036   3.801   5.256
 9684SOL    HW229952   1.164   3.838   5.351
 9685SOL     OW29953   4.520   3.633   0.707
 9685SOL    HW129954   4.541   3.667   0.616
 9685SOL    HW229955   4.442   3.571   0.702
 9686SOL     OW29956   6.815   2.306   6.669
 9686SOL    HW129957   6.840   2.382   6.729
 9686SOL    HW229958   6.894   2.283   6.612
 9687SOL     OW29959   6.403   6.656   0.948
 9687SOL    HW129960   6.437   6.731   1.005
 9687SOL    HW229961   6.404   6.571   1.000
 9688SOL     OW29962   1.322   4.704   1.003
 9688SOL    HW129963   1.416   4.669   1.004
 9688SOL    HW229964   1.279   4.680   0.916
 9689SOL     OW29965   1.007   5.603   6.237
 9689SOL    HW129966   0.954   5.539   6.181
 9689SOL    HW229967   1.070   5.552   6.296
 9690SOL     OW29968   4.601   5.244   5.191
 9690SOL    HW129969   4.639   5.329   5.154
 9690SOL    HW229970   4.663   5.168   5.173
 9691SOL     OW29971   3.549   4.060   2.249
 9691SOL    HW129972   3.628   4.062   2.311
 9691SOL    HW229973   3.470   4.023   2.296
 9692SOL     OW29974   4.706   5.198   0.142
 9692SOL    HW129975   4.621   5.155   0.172
 9692SOL    HW229976   4.781   5.132   0.147
 9693SOL     OW29977   5.691   4.140   4.235
 9693SOL    HW129978   5.636   4.148   4.318
 9693SOL    HW229979   5.772   4.085   4.253
 9694SOL     OW29980   2.922   0.210   2.000
 9694SOL    HW129981   2.937   0.215   2.099
 9694SOL    HW229982   2.825   0.194   1.982
 9695SOL     OW29983   0.153   3.761   3.162
 9695SOL    HW129984   0.243   3.796   3.189
 9695SOL    HW229985   0.150   3.662   3.176
 9696SOL     OW29986   6.023   1.505   3.285
 9696SOL    HW129987   5.940   1.511   3.228
 9696SOL    HW229988   6.102   1.489   3.226
 9697SOL     OW29989   6.885   6.112   0.029
 9697SOL    HW129990   6.873   6.021   7.011
 9697SOL    HW229991   6.824   6.176   7.004
 9698SOL     OW29992   5.783   3.395   6.459
 9698SOL    HW129993   5.719   3.433   6.392
 9698SOL    HW229994   5.861   3.356   6.412
 9699SOL     OW29995   0.881   5.552   0.036
 9699SOL    HW129996   0.969   5.582   7.021
 9699SOL    HW229997   0.876   5.452   0.031
 9700SOL     OW29998   6.387   6.378   3.795
 9700SOL    HW129999   6.447   6.458   3.785
 9700SOL    HW230000   6.325   6.393   3.872
 9701SOL     OW30001   4.853   3.250   6.726
 9701SOL    HW130002   4.875   3.171   6.668
 9701SOL    HW230003   4.756   3.275   6.713
 9702SOL     OW30004   3.522   2.982   0.546
 9702SOL    HW130005   3.602   3.030   0.511
 9702SOL    HW230006   3.550   2.897   0.589
 9703SOL     OW30007   6.100   3.977   4.502
 9703SOL    HW130008   6.137   3.993   4.594
 9703SOL    HW230009   6.143   4.039   4.437
 9704SOL     OW30010   3.218   4.871   2.909
 9704SOL    HW130011   3.129   4.834   2.883
 9704SOL    HW230012   3.241   4.842   3.001
 9705SOL     OW30013   6.071   4.146   5.186
 9705SOL    HW130014   6.112   4.121   5.099
 9705SOL    HW230015   6.037   4.240   5.183
 9706SOL     OW30016   1.602   1.900   1.675
 9706SOL    HW130017   1.679   1.914   1.737
 9706SOL    HW230018   1.532   1.846   1.721
 9707SOL     OW30019   5.751   4.925   1.936
 9707SOL    HW130020   5.652   4.933   1.931
 9707SOL    HW230021   5.777   4.875   2.019
 9708SOL     OW30022   1.697   1.339   2.348
 9708SOL    HW130023   1.795   1.356   2.362
 9708SOL    HW230024   1.661   1.409   2.286
 9709SOL     OW30025   5.434   3.450   2.045
 9709SOL    HW130026   5.347   3.483   2.009
 9709SOL    HW230027   5.509   3.496   1.997
 9710SOL     OW30028   6.406   0.325   6.746
 9710SOL    HW130029   6.492   0.277   6.731
 9710SOL    HW230030   6.344   0.268   6.800
 9711SOL     OW30031   4.190   6.388   5.760
 9711SOL    HW130032   4.144   6.450   5.696
 9711SOL    HW230033   4.251   6.442   5.819
 9712SOL     OW30034   6.017   3.175   0.744
 9712SOL    HW130035   6.015   3.097   0.681
 9712SOL    HW230036   6.077   3.154   0.821
 9713SOL     OW30037   2.279   6.654   2.927
 9713SOL    HW130038   2.196   6.608   2.897
 9713SOL    HW230039   2.335   6.589   2.979
 9714SOL     OW30040   4.058   5.425   4.667
 9714SOL    HW130041   3.968   5.468   4.672
 9714SOL    HW230042   4.063   5.349   4.732
 9715SOL     OW30043   6.630   4.796   1.431
 9715SOL    HW130044   6.609   4.740   1.351
 9715SOL    HW230045   6.719   4.839   1.419
 9716SOL     OW30046   3.945   4.344   6.601
 9716SOL    HW130047   4.031   4.295   6.584
 9716SOL    HW230048   3.936   4.362   6.699
 9717SOL     OW30049   5.014   6.502   6.480
 9717SOL    HW130050   5.026   6.557   6.562
 9717SOL    HW230051   4.984   6.410   6.505
 9718SOL     OW30052   3.993   1.876   0.550
 9718SOL    HW130053   3.928   1.950   0.567
 9718SOL    HW230054   4.086   1.911   0.553
 9719SOL     OW30055   5.120   6.813   5.580
 9719SOL    HW130056   5.157   6.788   5.669
 9719SOL    HW230057   5.151   6.905   5.555
 9720SOL     OW30058   1.408   3.760   2.836
 9720SOL    HW130059   1.508   3.755   2.835
 9720SOL    HW230060   1.370   3.668   2.820
 9721SOL     OW30061   0.620   1.505   0.369
 9721SOL    HW130062   0.592   1.574   0.436
 9721SOL    HW230063   0.555   1.429   0.370
 9722SOL     OW30064   3.655   2.121   5.317
 9722SOL    HW130065   3.560   2.150   5.307
 9722SOL    HW230066   3.706   2.189   5.370
 9723SOL     OW30067   5.812   4.737   4.806
 9723SOL    HW130068   5.783   4.679   4.882
 9723SOL    HW230069   5.769   4.827   4.813
 9724SOL     OW30070   2.108   5.248   6.529
 9724SOL    HW130071   2.039   5.176   6.540
 9724SOL    HW230072   2.138   5.279   6.619
 9725SOL     OW30073   3.871   5.604   4.921
 9725SOL    HW130074   3.844   5.530   4.859
 9725SOL    HW230075   3.954   5.578   4.971
 9726SOL     OW30076   4.990   0.895   4.121
 9726SOL    HW130077   4.929   0.970   4.147
 9726SOL    HW230078   5.039   0.920   4.037
 9727SOL     OW30079   0.815   2.739   0.130
 9727SOL    HW130080   0.849   2.828   0.100
 9727SOL    HW230081   0.849   2.668   0.069
 9728SOL     OW30082   6.188   1.738   6.134
 9728SOL    HW130083   6.182   1.647   6.176
 9728SOL    HW230084   6.154   1.733   6.040
 9729SOL     OW30085   1.597   3.766   4.092
 9729SOL    HW130086   1.619   3.736   3.999
 9729SOL    HW230087   1.682   3.777   4.145
 9730SOL     OW30088   0.769   4.081   4.115
 9730SOL    HW130089   0.837   4.012   4.089
 9730SOL    HW230090   0.698   4.038   4.172
 9731SOL     OW30091   5.441   4.615   1.880
 9731SOL    HW130092   5.496   4.545   1.835
 9731SOL    HW230093   5.357   4.630   1.827
 9732SOL     OW30094   0.544   3.302   1.804
 9732SOL    HW130095   0.529   3.209   1.839
 9732SOL    HW230096   0.495   3.368   1.861
 9733SOL     OW30097   6.150   5.632   1.861
 9733SOL    HW130098   6.139   5.684   1.776
 9733SOL    HW230099   6.168   5.695   1.937
 9734SOL     OW30100   6.415   6.684   6.950
 9734SOL    HW130101   6.499   6.630   6.956
 9734SOL    HW230102   6.338   6.624   6.930
 9735SOL     OW30103   1.589   2.447   3.381
 9735SOL    HW130104   1.503   2.479   3.419
 9735SOL    HW230105   1.659   2.446   3.453
 9736SOL     OW30106   4.818   1.978   6.205
 9736SOL    HW130107   4.753   2.013   6.273
 9736SOL    HW230108   4.908   2.016   6.223
 9737SOL     OW30109   5.722   2.200   2.949
 9737SOL    HW130110   5.744   2.264   2.875
 9737SOL    HW230111   5.788   2.213   3.023
 9738SOL     OW30112   2.159   6.684   0.849
 9738SOL    HW130113   2.146   6.758   0.783
 9738SOL    HW230114   2.202   6.606   0.804
 9739SOL     OW30115   4.448   6.030   6.869
 9739SOL    HW130116   4.476   5.963   6.799
 9739SOL    HW230117   4.385   6.096   6.828
 9740SOL     OW30118   5.507   0.428   2.256
 9740SOL    HW130119   5.458   0.506   2.218
 9740SOL    HW230120   5.491   0.424   2.355
 9741SOL     OW30121   2.694   0.895   4.031
 9741SOL    HW130122   2.650   0.881   4.119
 9741SOL    HW230123   2.667   0.821   3.968
 9742SOL     OW30124   4.480   0.863   6.984
 9742SOL    HW130125   4.421   0.942   6.964
 9742SOL    HW230126   4.566   0.895   0.002
 9743SOL     OW30127   0.498   3.294   3.464
 9743SOL    HW130128   0.536   3.235   3.535
 9743SOL    HW230129   0.494   3.245   3.377
 9744SOL     OW30130   2.348   6.864   2.600
 9744SOL    HW130131   2.308   6.772   2.605
 9744SOL    HW230132   2.299   6.925   2.662
 9745SOL     OW30133   5.389   2.423   6.316
 9745SOL    HW130134   5.446   2.363   6.372
 9745SOL    HW230135   5.448   2.483   6.262
 9746SOL     OW30136   5.178   6.644   0.005
 9746SOL    HW130137   5.204   6.741   0.003
 9746SOL    HW230138   5.082   6.635   7.002
 9747SOL     OW30139   2.655   1.993   1.521
 9747SOL    HW130140   2.753   1.975   1.528
 9747SOL    HW230141   2.640   2.092   1.524
 9748SOL     OW30142   0.281   0.284   3.043
 9748SOL    HW130143   0.262   0.300   3.139
 9748SOL    HW230144   0.343   0.355   3.009
 9749SOL     OW30145   0.641   2.008   2.275
 9749SOL    HW130146   0.714   2.015   2.343
 9749SOL    HW230147   0.552   2.010   2.321
 9750SOL     OW30148   6.007   4.641   4.131
 9750SOL    HW130149   6.033   4.657   4.226
 9750SOL    HW230150   6.044   4.714   4.074
 9751SOL     OW30151   2.388   0.338   0.948
 9751SOL    HW130152   2.403   0.391   0.864
 9751SOL    HW230153   2.323   0.265   0.929
 9752SOL     OW30154   3.987   2.520   6.825
 9752SOL    HW130155   3.964   2.567   6.740
 9752SOL    HW230156   3.929   2.554   6.899
 9753SOL     OW30157   0.904   5.576   5.867
 9753SOL    HW130158   0.929   5.670   5.892
 9753SOL    HW230159   0.929   5.559   5.772
 9754SOL     OW30160   3.994   7.000   0.513
 9754SOL    HW130161   4.093   6.987   0.513
 9754SOL    HW230162   3.959   6.986   0.606
 9755SOL     OW30163   2.956   4.124   5.201
 9755SOL    HW130164   2.985   4.134   5.106
 9755SOL    HW230165   2.999   4.194   5.257
 9756SOL     OW30166   5.599   1.944   6.151
 9756SOL    HW130167   5.687   1.953   6.197
 9756SOL    HW230168   5.541   1.880   6.201
 9757SOL     OW30169   5.163   4.759   4.123
 9757SOL    HW130170   5.177   4.713   4.211
 9757SOL    HW230171   5.194   4.853   4.130
 9758SOL     OW30172   0.991   1.334   6.638
 9758SOL    HW130173   1.030   1.382   6.717
 9758SOL    HW230174   0.999   1.392   6.557
 9759SOL     OW30175   0.707   1.480   6.977
 9759SOL    HW130176   0.713   1.419   6.898
 9759SOL    HW230177   0.797   1.487   7.021
 9760SOL     OW30178   5.147   2.472   0.112
 9760SOL    HW130179   5.061   2.491   0.158
 9760SOL    HW230180   5.130   2.452   0.015
 9761SOL     OW30181   1.214   1.559   1.958
 9761SOL    HW130182   1.244   1.479   1.906
 9761SOL    HW230183   1.199   1.636   1.896
 9762SOL     OW30184   3.191   1.673   4.714
 9762SOL    HW130185   3.249   1.592   4.722
 9762SOL    HW230186   3.190   1.705   4.620
 9763SOL     OW30187   6.392   1.193   3.206
 9763SOL    HW130188   6.321   1.127   3.183
 9763SOL    HW230189   6.478   1.165   3.164
 9764SOL     OW30190   6.467   2.143   2.837
 9764SOL    HW130191   6.405   2.189   2.774
 9764SOL    HW230192   6.544   2.103   2.787
 9765SOL     OW30193   6.626   1.270   2.821
 9765SOL    HW130194   6.578   1.186   2.795
 9765SOL    HW230195   6.635   1.275   2.920
 9766SOL     OW30196   1.853   6.885   3.402
 9766SOL    HW130197   1.925   6.913   3.338
 9766SOL    HW230198   1.769   6.867   3.352
 9767SOL     OW30199   1.945   2.889   4.946
 9767SOL    HW130200   1.911   2.959   5.009
 9767SOL    HW230201   2.039   2.866   4.970
 9768SOL     OW30202   5.536   2.252   1.056
 9768SOL    HW130203   5.502   2.158   1.046
 9768SOL    HW230204   5.479   2.313   1.001
 9769SOL     OW30205   3.493   0.580   5.038
 9769SOL    HW130206   3.518   0.569   4.942
 9769SOL    HW230207   3.482   0.677   5.060
 9770SOL     OW30208   3.550   1.682   5.420
 9770SOL    HW130209   3.617   1.755   5.425
 9770SOL    HW230210   3.566   1.626   5.339
 9771SOL     OW30211   2.179   6.975   1.690
 9771SOL    HW130212   2.243   6.948   1.762
 9771SOL    HW230213   2.145   6.893   1.644
 9772SOL     OW30214   1.768   6.624   1.957
 9772SOL    HW130215   1.739   6.593   1.867
 9772SOL    HW230216   1.813   6.548   2.006
 9773SOL     OW30217   5.788   4.731   3.634
 9773SOL    HW130218   5.784   4.708   3.537
 9773SOL    HW230219   5.738   4.816   3.651
 9774SOL     OW30220   0.702   4.393   3.740
 9774SOL    HW130221   0.614   4.368   3.700
 9774SOL    HW230222   0.722   4.333   3.818
 9775SOL     OW30223   2.881   0.492   3.155
 9775SOL    HW130224   2.866   0.588   3.180
 9775SOL    HW230225   2.895   0.485   3.056
 9776SOL     OW30226   1.226   4.737   6.073
 9776SOL    HW130227   1.287   4.675   6.023
 9776SOL    HW230228   1.211   4.703   6.165
 9777SOL     OW30229   5.109   6.291   0.329
 9777SOL    HW130230   5.151   6.205   0.357
 9777SOL    HW230231   5.086   6.346   0.410
 9778SOL     OW30232   0.358   1.933   4.749
 9778SOL    HW130233   0.404   2.016   4.781
 9778SOL    HW230234   0.294   1.902   4.819
 9779SOL     OW30235   0.798   2.492   4.035
 9779SOL    HW130236   0.787   2.448   3.946
 9779SOL    HW230237   0.738   2.448   4.102
 9780SOL     OW30238   1.984   1.502   0.984
 9780SOL    HW130239   1.985   1.443   0.904
 9780SOL    HW230240   1.979   1.597   0.956
 9781SOL     OW30241   2.085   3.613   4.738
 9781SOL    HW130242   2.154   3.672   4.780
 9781SOL    HW230243   2.030   3.570   4.809
 9782SOL     OW30244   0.498   1.883   0.933
 9782SOL    HW130245   0.482   1.838   1.021
 9782SOL    HW230246   0.596   1.898   0.921
 9783SOL     OW30247   4.370   1.781   3.581
 9783SOL    HW130248   4.420   1.714   3.525
 9783SOL    HW230249   4.352   1.742   3.671
 9784SOL     OW30250   3.362   0.971   6.061
 9784SOL    HW130251   3.325   1.054   6.019
 9784SOL    HW230252   3.458   0.961   6.034
 9785SOL     OW30253   6.183   2.251   5.341
 9785SOL    HW130254   6.121   2.172   5.339
 9785SOL    HW230255   6.209   2.271   5.435
 9786SOL     OW30256   2.800   4.419   0.514
 9786SOL    HW130257   2.723   4.467   0.555
 9786SOL    HW230258   2.809   4.328   0.556
 9787SOL     OW30259   4.059   3.747   4.496
 9787SOL    HW130260   4.006   3.824   4.462
 9787SOL    HW230261   4.079   3.684   4.422
 9788SOL     OW30262   1.163   6.131   1.956
 9788SOL    HW130263   1.211   6.137   1.869
 9788SOL    HW230264   1.143   6.035   1.977
 9789SOL     OW30265   2.810   0.097   0.161
 9789SOL    HW130266   2.900   0.073   0.124
 9789SOL    HW230267   2.808   0.194   0.184
 9790SOL     OW30268   6.364   4.477   6.219
 9790SOL    HW130269   6.348   4.462   6.317
 9790SOL    HW230270   6.296   4.540   6.184
 9791SOL     OW30271   0.927   0.338   0.414
 9791SOL    HW130272   0.923   0.438   0.411
 9791SOL    HW230273   0.868   0.305   0.488
 9792SOL     OW30274   3.916   5.006   1.052
 9792SOL    HW130275   3.964   4.993   0.965
 9792SOL    HW230276   3.887   5.101   1.061
 9793SOL     OW30277   4.116   0.127   1.729
 9793SOL    HW130278   4.045   0.105   1.797
 9793SOL    HW230279   4.158   0.042   1.697
 9794SOL     OW30280   5.273   4.189   5.054
 9794SOL    HW130281   5.341   4.150   5.116
 9794SOL    HW230282   5.249   4.122   4.984
 9795SOL     OW30283   1.221   3.135   4.211
 9795SOL    HW130284   1.192   3.207   4.275
 9795SOL    HW230285   1.298   3.085   4.250
 9796SOL     OW30286   3.425   4.011   3.775
 9796SOL    HW130287   3.512   4.025   3.822
 9796SOL    HW230288   3.397   3.916   3.784
 9797SOL     OW30289   2.138   6.219   0.421
 9797SOL    HW130290   2.117   6.203   0.518
 9797SOL    HW230291   2.200   6.297   0.413
 9798SOL     OW30292   2.037   1.752   0.824
 9798SOL    HW130293   1.993   1.821   0.881
 9798SOL    HW230294   2.136   1.754   0.840
 9799SOL     OW30295   3.299   4.227   6.083
 9799SOL    HW130296   3.322   4.182   5.997
 9799SOL    HW230297   3.287   4.158   6.154
 9800SOL     OW30298   5.633   4.090   3.963
 9800SOL    HW130299   5.558   4.152   3.941
 9800SOL    HW230300   5.653   4.096   4.061
 9801SOL     OW30301   5.125   4.718   0.461
 9801SOL    HW130302   5.192   4.741   0.391
 9801SOL    HW230303   5.132   4.783   0.537
 9802SOL     OW30304   4.187   4.815   0.548
 9802SOL    HW130305   4.129   4.765   0.612
 9802SOL    HW230306   4.259   4.754   0.515
 9803SOL     OW30307   1.856   3.570   6.117
 9803SOL    HW130308   1.928   3.508   6.149
 9803SOL    HW230309   1.772   3.519   6.100
 9804SOL     OW30310   0.222   5.944   3.160
 9804SOL    HW130311   0.176   5.865   3.199
 9804SOL    HW230312   0.155   6.018   3.146
 9805SOL     OW30313   1.138   0.042   3.341
 9805SOL    HW130314   1.144   0.085   3.431
 9805SOL    HW230315   1.164   6.967   3.348
 9806SOL     OW30316   2.476   2.388   6.304
 9806SOL    HW130317   2.392   2.348   6.267
 9806SOL    HW230318   2.490   2.357   6.398
 9807SOL     OW30319   3.139   3.033   2.216
 9807SOL    HW130320   3.190   3.107   2.171
 9807SOL    HW230321   3.188   3.005   2.299
 9808SOL     OW30322   3.705   5.543   4.044
 9808SOL    HW130323   3.610   5.552   4.074
 9808SOL    HW230324   3.711   5.565   3.947
 9809SOL     OW30325   1.159   3.599   0.431
 9809SOL    HW130326   1.224   3.580   0.505
 9809SOL    HW230327   1.154   3.520   0.370
 9810SOL     OW30328   2.963   2.131   5.029
 9810SOL    HW130329   3.010   2.044   5.045
 9810SOL    HW230330   3.028   2.206   5.043
 9811SOL     OW30331   6.063   3.968   3.529
 9811SOL    HW130332   6.009   3.887   3.552
 9811SOL    HW230333   6.033   4.045   3.586
 9812SOL     OW30334   3.170   0.881   4.593
 9812SOL    HW130335   3.257   0.892   4.642
 9812SOL    HW230336   3.188   0.856   4.498
 9813SOL     OW30337   5.723   2.097   0.905
 9813SOL    HW130338   5.675   2.154   0.972
 9813SOL    HW230339   5.738   2.150   0.821
 9814SOL     OW30340   5.135   1.266   6.805
 9814SOL    HW130341   5.232   1.241   6.811
 9814SOL    HW230342   5.107   1.310   6.890
 9815SOL     OW30343   4.826   2.477   4.317
 9815SOL    HW130344   4.838   2.494   4.220
 9815SOL    HW230345   4.914   2.449   4.357
 9816SOL     OW30346   1.032   0.603   6.234
 9816SOL    HW130347   1.105   0.646   6.287
 9816SOL    HW230348   1.072   0.550   6.159
 9817SOL     OW30349   0.648   6.942   3.178
 9817SOL    HW130350   0.712   6.901   3.113
 9817SOL    HW230351   0.560   6.894   3.173
 9818SOL     OW30352   6.338   2.100   4.904
 9818SOL    HW130353   6.377   2.161   4.836
 9818SOL    HW230354   6.334   2.007   4.867
 9819SOL     OW30355   4.559   2.536   3.225
 9819SOL    HW130356   4.533   2.630   3.247
 9819SOL    HW230357   4.601   2.494   3.306
 9820SOL     OW30358   3.635   3.277   6.386
 9820SOL    HW130359   3.682   3.221   6.454
 9820SOL    HW230360   3.590   3.354   6.431
 9821SOL     OW30361   5.267   0.574   6.456
 9821SOL    HW130362   5.229   0.666   6.439
 9821SOL    HW230363   5.364   0.573   6.433
 9822SOL     OW30364   0.981   6.775   3.209
 9822SOL    HW130365   0.895   6.725   3.198
 9822SOL    HW230366   1.056   6.709   3.217
 9823SOL     OW30367   3.839   0.046   1.344
 9823SOL    HW130368   3.840   0.123   1.408
 9823SOL    HW230369   3.797   6.988   1.387
 9824SOL     OW30370   2.218   4.087   5.876
 9824SOL    HW130371   2.215   4.022   5.952
 9824SOL    HW230372   2.159   4.054   5.802
 9825SOL     OW30373   3.102   5.527   5.219
 9825SOL    HW130374   3.188   5.573   5.194
 9825SOL    HW230375   3.122   5.434   5.249
 9826SOL     OW30376   4.947   5.940   6.114
 9826SOL    HW130377   4.862   5.992   6.120
 9826SOL    HW230378   4.928   5.845   6.089
 9827SOL     OW30379   2.154   4.207   4.292
 9827SOL    HW130380   2.221   4.187   4.220
 9827SOL    HW230381   2.173   4.151   4.372
 9828SOL     OW30382   2.956   2.746   6.508
 9828SOL    HW130383   2.878   2.719   6.452
 9828SOL    HW230384   3.011   2.813   6.458
 9829SOL     OW30385   3.010   6.744   0.925
 9829SOL    HW130386   3.062   6.735   0.839
 9829SOL    HW230387   2.928   6.688   0.920
 9830SOL     OW30388   5.440   2.506   1.598
 9830SOL    HW130389   5.341   2.505   1.612
 9830SOL    HW230390   5.475   2.413   1.602
 9831SOL     OW30391   1.723   6.062   1.062
 9831SOL    HW130392   1.738   6.158   1.040
 9831SOL    HW230393   1.632   6.050   1.102
 9832SOL     OW30394   5.027   5.131   2.374
 9832SOL    HW130395   5.092   5.161   2.304
 9832SOL    HW230396   4.981   5.210   2.414
 9833SOL     OW30397   3.321   3.019   4.834
 9833SOL    HW130398   3.330   2.981   4.927
 9833SOL    HW230399   3.228   3.051   4.820
 9834SOL     OW30400   3.025   3.975   5.817
 9834SOL    HW130401   3.024   4.069   5.852
 9834SOL    HW230402   2.932   3.947   5.793
 9835SOL     OW30403   3.853   2.374   5.804
 9835SOL    HW130404   3.802   2.390   5.888
 9835SOL    HW230405   3.858   2.459   5.752
 9836SOL     OW30406   6.109   4.429   3.663
 9836SOL    HW130407   6.196   4.410   3.618
 9836SOL    HW230408   6.119   4.416   3.762
 9837SOL     OW30409   2.348   0.280   2.656
 9837SOL    HW130410   2.439   0.313   2.631
 9837SOL    HW230411   2.280   0.326   2.599
 9838SOL     OW30412   0.642   6.967   6.307
 9838SOL    HW130413   0.642   6.975   6.407
 9838SOL    HW230414   0.626   6.872   6.281
 9839SOL     OW30415   5.973   1.228   3.172
 9839SOL    HW130416   6.060   1.183   3.154
 9839SOL    HW230417   5.984   1.294   3.246
 9840SOL     OW30418   0.589   1.052   1.287
 9840SOL    HW130419   0.667   0.992   1.273
 9840SOL    HW230420   0.529   1.050   1.208
 9841SOL     OW30421   1.073   4.585   4.853
 9841SOL    HW130422   1.151   4.629   4.898
 9841SOL    HW230423   1.105   4.505   4.803
 9842SOL     OW30424   3.439   4.159   3.510
 9842SOL    HW130425   3.386   4.120   3.435
 9842SOL    HW230426   3.437   4.096   3.588
 9843SOL     OW30427   6.435   1.946   2.044
 9843SOL    HW130428   6.336   1.933   2.036
 9843SOL    HW230429   6.459   2.039   2.017
 9844SOL     OW30430   5.214   0.562   2.446
 9844SOL    HW130431   5.193   0.478   2.497
 9844SOL    HW230432   5.241   0.634   2.510
 9845SOL     OW30433   2.646   1.526   4.660
 9845SOL    HW130434   2.599   1.499   4.744
 9845SOL    HW230435   2.711   1.455   4.634
 9846SOL     OW30436   4.054   3.171   2.436
 9846SOL    HW130437   4.150   3.166   2.465
 9846SOL    HW230438   4.048   3.148   2.339
 9847SOL     OW30439   3.496   2.707   5.492
 9847SOL    HW130440   3.561   2.739   5.560
 9847SOL    HW230441   3.494   2.607   5.492
 9848SOL     OW30442   3.286   2.384   6.252
 9848SOL    HW130443   3.214   2.441   6.290
 9848SOL    HW230444   3.336   2.435   6.182
 9849SOL     OW30445   6.096   0.519   0.049
 9849SOL    HW130446   6.061   0.565   0.131
 9849SOL    HW230447   6.112   0.586   6.999
 9850SOL     OW30448   5.742   6.180   2.799
 9850SOL    HW130449   5.790   6.129   2.727
 9850SOL    HW230450   5.801   6.252   2.834
 9851SOL     OW30451   4.730   2.155   5.667
 9851SOL    HW130452   4.829   2.142   5.663
 9851SOL    HW230453   4.694   2.112   5.750
 9852SOL     OW30454   4.237   1.999   3.018
 9852SOL    HW130455   4.219   1.927   3.085
 9852SOL    HW230456   4.335   2.013   3.010
 9853SOL     OW30457   4.973   3.994   3.015
 9853SOL    HW130458   4.933   4.054   3.084
 9853SOL    HW230459   4.969   3.899   3.045
 9854SOL     OW30460   6.751   5.392   4.918
 9854SOL    HW130461   6.715   5.387   4.824
 9854SOL    HW230462   6.845   5.424   4.915
 9855SOL     OW30463   2.281   4.229   2.135
 9855SOL    HW130464   2.295   4.182   2.048
 9855SOL    HW230465   2.201   4.288   2.129
 9856SOL     OW30466   5.020   4.151   0.052
 9856SOL    HW130467   5.019   4.250   0.064
 9856SOL    HW230468   4.981   4.107   0.133
 9857SOL     OW30469   4.363   1.935   4.388
 9857SOL    HW130470   4.433   2.005   4.380
 9857SOL    HW230471   4.400   1.847   4.357
 9858SOL     OW30472   0.098   1.079   1.180
 9858SOL    HW130473   0.079   1.134   1.262
 9858SOL    HW230474   0.190   1.040   1.186
 9859SOL     OW30475   6.169   0.134   1.162
 9859SOL    HW130476   6.078   0.140   1.121
 9859SOL    HW230477   6.161   0.143   1.261
 9860SOL     OW30478   6.668   0.929   2.806
 9860SOL    HW130479   6.721   0.930   2.891
 9860SOL    HW230480   6.574   0.901   2.826
 9861SOL     OW30481   3.115   6.979   2.986
 9861SOL    HW130482   3.137   6.888   2.952
 9861SOL    HW230483   3.058   0.005   2.919
 9862SOL     OW30484   2.560   4.824   0.393
 9862SOL    HW130485   2.503   4.883   0.336
 9862SOL    HW230486   2.656   4.850   0.381
 9863SOL     OW30487   3.007   0.281   3.206
 9863SOL    HW130488   2.962   0.370   3.207
 9863SOL    HW230489   3.102   0.292   3.235
 9864SOL     OW30490   3.716   6.087   3.903
 9864SOL    HW130491   3.719   6.014   3.972
 9864SOL    HW230492   3.688   6.172   3.946
 9865SOL     OW30493   1.650   1.060   3.831
 9865SOL    HW130494   1.591   1.016   3.899
 9865SOL    HW230495   1.680   1.149   3.867
 9866SOL     OW30496   5.436   4.214   5.292
 9866SOL    HW130497   5.401   4.302   5.324
 9866SOL    HW230498   5.536   4.214   5.296
 9867SOL     OW30499   5.894   0.438   1.170
 9867SOL    HW130500   5.936   0.459   1.082
 9867SOL    HW230501   5.812   0.383   1.156
 9868SOL     OW30502   1.145   4.141   5.286
 9868SOL    HW130503   1.072   4.190   5.238
 9868SOL    HW230504   1.129   4.042   5.279
 9869SOL     OW30505   1.805   3.406   2.046
 9869SOL    HW130506   1.841   3.496   2.024
 9869SOL    HW230507   1.818   3.388   2.144
 9870SOL     OW30508   4.576   5.937   2.616
 9870SOL    HW130509   4.629   5.945   2.700
 9870SOL    HW230510   4.635   5.947   2.537
 9871SOL     OW30511   0.988   0.069   5.689
 9871SOL    HW130512   0.956   0.100   5.600
 9871SOL    HW230513   1.068   0.010   5.677
 9872SOL     OW30514   3.279   5.055   4.235
 9872SOL    HW130515   3.201   5.001   4.265
 9872SOL    HW230516   3.254   5.152   4.231
 9873SOL     OW30517   2.836   2.483   1.241
 9873SOL    HW130518   2.891   2.402   1.261
 9873SOL    HW230519   2.841   2.547   1.317
 9874SOL     OW30520   0.751   3.616   4.007
 9874SOL    HW130521   0.740   3.524   3.970
 9874SOL    HW230522   0.781   3.678   3.935
 9875SOL     OW30523   6.886   6.802   2.209
 9875SOL    HW130524   6.801   6.852   2.231
 9875SOL    HW230525   6.863   6.715   2.165
 9876SOL     OW30526   6.149   0.909   2.380
 9876SOL    HW130527   6.221   0.842   2.400
 9876SOL    HW230528   6.064   0.880   2.423
 9877SOL     OW30529   0.354   5.614   3.146
 9877SOL    HW130530   0.267   5.636   3.102
 9877SOL    HW230531   0.358   5.658   3.236
 9878SOL     OW30532   2.803   5.411   4.934
 9878SOL    HW130533   2.878   5.476   4.928
 9878SOL    HW230534   2.808   5.361   5.020
 9879SOL     OW30535   5.877   5.449   3.948
 9879SOL    HW130536   5.927   5.522   3.902
 9879SOL    HW230537   5.908   5.361   3.913
 9880SOL     OW30538   2.821   1.365   5.592
 9880SOL    HW130539   2.870   1.393   5.509
 9880SOL    HW230540   2.872   1.396   5.673
 9881SOL     OW30541   1.935   1.245   4.811
 9881SOL    HW130542   1.986   1.172   4.856
 9881SOL    HW230543   1.841   1.216   4.795
 9882SOL     OW30544   1.195   2.223   4.179
 9882SOL    HW130545   1.199   2.266   4.269
 9882SOL    HW230546   1.279   2.170   4.164
 9883SOL     OW30547   1.877   5.388   0.119
 9883SOL    HW130548   1.905   5.475   0.079
 9883SOL    HW230549   1.791   5.358   0.076
 9884SOL     OW30550   4.180   1.744   3.143
 9884SOL    HW130551   4.197   1.646   3.157
 9884SOL    HW230552   4.222   1.796   3.217
 9885SOL     OW30553   6.857   3.038   5.723
 9885SOL    HW130554   6.947   3.077   5.704
 9885SOL    HW230555   6.803   3.033   5.639
 9886SOL     OW30556   0.712   3.975   1.476
 9886SOL    HW130557   0.788   4.038   1.486
 9886SOL    HW230558   0.744   3.889   1.436
 9887SOL     OW30559   3.815   0.559   6.213
 9887SOL    HW130560   3.859   0.472   6.188
 9887SOL    HW230561   3.715   0.548   6.210
 9888SOL     OW30562   6.119   4.174   2.011
 9888SOL    HW130563   6.100   4.192   2.107
 9888SOL    HW230564   6.133   4.260   1.962
 9889SOL     OW30565   0.287   5.541   1.752
 9889SOL    HW130566   0.214   5.523   1.818
 9889SOL    HW230567   0.367   5.486   1.774
 9890SOL     OW30568   1.452   1.753   0.400
 9890SOL    HW130569   1.366   1.799   0.421
 9890SOL    HW230570   1.529   1.808   0.434
 9891SOL     OW30571   5.400   2.754   1.881
 9891SOL    HW130572   5.368   2.849   1.883
 9891SOL    HW230573   5.400   2.717   1.974
 9892SOL     OW30574   6.897   4.948   0.763
 9892SOL    HW130575   6.946   4.946   0.675
 9892SOL    HW230576   6.953   4.994   0.831
 9893SOL     OW30577   1.093   6.949   1.202
 9893SOL    HW130578   1.125   6.855   1.208
 9893SOL    HW230579   1.043   6.962   1.116
 9894SOL     OW30580   2.576   2.777   1.581
 9894SOL    HW130581   2.495   2.764   1.638
 9894SOL    HW230582   2.657   2.786   1.639
 9895SOL     OW30583   6.876   3.657   5.181
 9895SOL    HW130584   6.910   3.747   5.153
 9895SOL    HW230585   6.816   3.668   5.260
 9896SOL     OW30586   6.162   0.647   6.864
 9896SOL    HW130587   6.144   0.724   6.801
 9896SOL    HW230588   6.125   0.563   6.825
 9897SOL     OW30589   5.953   5.717   2.977
 9897SOL    HW130590   5.986   5.807   3.004
 9897SOL    HW230591   5.935   5.716   2.878
 9898SOL     OW30592   1.493   6.194   4.105
 9898SOL    HW130593   1.534   6.156   4.023
 9898SOL    HW230594   1.393   6.189   4.099
 9899SOL     OW30595   0.876   5.873   6.941
 9899SOL    HW130596   0.890   5.803   7.011
 9899SOL    HW230597   0.956   5.934   6.938
 9900SOL     OW30598   1.941   3.551   3.667
 9900SOL    HW130599   1.982   3.582   3.753
 9900SOL    HW230600   1.988   3.594   3.590
 9901SOL     OW30601   2.930   0.269   6.263
 9901SOL    HW130602   2.952   0.209   6.186
 9901SOL    HW230603   2.990   0.349   6.262
 9902SOL     OW30604   3.193   4.839   0.738
 9902SOL    HW130605   3.251   4.795   0.806
 9902SOL    HW230606   3.237   4.923   0.705
 9903SOL     OW30607   5.169   1.516   2.462
 9903SOL    HW130608   5.135   1.496   2.370
 9903SOL    HW230609   5.093   1.539   2.522
 9904SOL     OW30610   1.224   4.271   6.527
 9904SOL    HW130611   1.317   4.244   6.552
 9904SOL    HW230612   1.181   4.318   6.605
 9905SOL     OW30613   2.428   6.902   6.309
 9905SOL    HW130614   2.376   6.848   6.376
 9905SOL    HW230615   2.402   6.998   6.317
 9906SOL     OW30616   2.482   3.577   1.679
 9906SOL    HW130617   2.435   3.551   1.764
 9906SOL    HW230618   2.434   3.653   1.636
 9907SOL     OW30619   6.455   0.547   1.373
 9907SOL    HW130620   6.362   0.537   1.339
 9907SOL    HW230621   6.515   0.576   1.298
 9908SOL     OW30622   5.661   1.830   4.965
 9908SOL    HW130623   5.611   1.757   4.918
 9908SOL    HW230624   5.724   1.789   5.032
 9909SOL     OW30625   4.413   0.585   3.374
 9909SOL    HW130626   4.360   0.511   3.416
 9909SOL    HW230627   4.364   0.620   3.294
 9910SOL     OW30628   1.444   4.578   2.793
 9910SOL    HW130629   1.391   4.623   2.722
 9910SOL    HW230630   1.429   4.623   2.880
 9911SOL     OW30631   2.874   5.815   2.337
 9911SOL    HW130632   2.922   5.838   2.253
 9911SOL    HW230633   2.785   5.775   2.315
 9912SOL     OW30634   4.148   0.631   1.316
 9912SOL    HW130635   4.116   0.718   1.354
 9912SOL    HW230636   4.242   0.641   1.284
 9913SOL     OW30637   5.992   3.979   1.392
 9913SOL    HW130638   6.029   3.960   1.301
 9913SOL    HW230639   6.065   4.012   1.452
 9914SOL     OW30640   5.481   1.446   4.689
 9914SOL    HW130641   5.458   1.374   4.755
 9914SOL    HW230642   5.403   1.507   4.679
 9915SOL     OW30643   4.828   0.356   3.441
 9915SOL    HW130644   4.790   0.281   3.496
 9915SOL    HW230645   4.880   0.418   3.501
 9916SOL     OW30646   2.346   2.715   2.970
 9916SOL    HW130647   2.289   2.769   3.033
 9916SOL    HW230648   2.357   2.765   2.884
 9917SOL     OW30649   5.593   4.387   6.774
 9917SOL    HW130650   5.523   4.437   6.724
 9917SOL    HW230651   5.610   4.432   6.862
 9918SOL     OW30652   3.502   1.508   3.300
 9918SOL    HW130653   3.480   1.523   3.397
 9918SOL    HW230654   3.592   1.547   3.280
 9919SOL     OW30655   6.864   5.260   1.689
 9919SOL    HW130656   6.850   5.179   1.632
 9919SOL    HW230657   6.962   5.278   1.697
 9920SOL     OW30658   4.749   1.452   2.200
 9920SOL    HW130659   4.664   1.400   2.193
 9920SOL    HW230660   4.815   1.419   2.133
 9921SOL     OW30661   4.304   6.950   5.464
 9921SOL    HW130662   4.377   6.988   5.521
 9921SOL    HW230663   4.232   7.018   5.451
 9922SOL     OW30664   2.948   4.270   0.334
 9922SOL    HW130665   2.973   4.198   0.399
 9922SOL    HW230666   2.914   4.349   0.385
 9923SOL     OW30667   5.110   5.038   6.590
 9923SOL    HW130668   5.121   5.097   6.510
 9923SOL    HW230669   5.043   5.077   6.652
 9924SOL     OW30670   6.290   2.041   4.537
 9924SOL    HW130671   6.356   2.070   4.468
 9924SOL    HW230672   6.307   1.946   4.562
 9925SOL     OW30673   6.683   3.289   4.249
 9925SOL    HW130674   6.710   3.207   4.198
 9925SOL    HW230675   6.763   3.346   4.265
 9926SOL     OW30676   4.282   2.374   0.887
 9926SOL    HW130677   4.325   2.309   0.949
 9926SOL    HW230678   4.203   2.331   0.843
 9927SOL     OW30679   0.034   6.722   0.250
 9927SOL    HW130680   0.066   6.751   0.341
 9927SOL    HW230681   6.985   6.785   0.219
 9928SOL     OW30682   4.926   4.245   2.594
 9928SOL    HW130683   4.866   4.323   2.576
 9928SOL    HW230684   5.022   4.274   2.590
 9929SOL     OW30685   3.168   4.594   5.578
 9929SOL    HW130686   3.091   4.658   5.567
 9929SOL    HW230687   3.133   4.501   5.589
 9930SOL     OW30688   6.489   6.412   4.921
 9930SOL    HW130689   6.460   6.423   5.016
 9930SOL    HW230690   6.432   6.344   4.876
 9931SOL     OW30691   0.421   5.438   4.030
 9931SOL    HW130692   0.442   5.487   3.945
 9931SOL    HW230693   0.487   5.463   4.100
 9932SOL     OW30694   3.064   4.049   6.738
 9932SOL    HW130695   3.087   3.954   6.717
 9932SOL    HW230696   3.088   4.068   6.833
 9933SOL     OW30697   0.069   5.723   3.262
 9933SOL    HW130698   0.005   5.666   3.314
 9933SOL    HW230699   0.102   5.672   3.182
 9934SOL     OW30700   6.178   2.264   5.724
 9934SOL    HW130701   6.263   2.287   5.771
 9934SOL    HW230702   6.176   2.167   5.702
 9935SOL     OW30703   2.684   6.697   6.698
 9935SOL    HW130704   2.674   6.614   6.754
 9935SOL    HW230705   2.595   6.724   6.661
 9936SOL     OW30706   6.671   5.237   6.883
 9936SOL    HW130707   6.748   5.233   6.946
 9936SOL    HW230708   6.704   5.241   6.789
 9937SOL     OW30709   6.501   1.416   1.157
 9937SOL    HW130710   6.468   1.502   1.196
 9937SOL    HW230711   6.423   1.362   1.126
 9938SOL     OW30712   6.675   4.498   2.888
 9938SOL    HW130713   6.735   4.578   2.884
 9938SOL    HW230714   6.584   4.526   2.917
 9939SOL     OW30715   4.471   2.211   1.014
 9939SOL    HW130716   4.516   2.251   0.934
 9939SOL    HW230717   4.511   2.249   1.097
 9940SOL     OW30718   1.229   0.636   1.358
 9940SOL    HW130719   1.212   0.562   1.423
 9940SOL    HW230720   1.225   0.599   1.264
 9941SOL     OW30721   3.164   3.664   5.419
 9941SOL    HW130722   3.200   3.725   5.489
 9941SOL    HW230723   3.184   3.702   5.328
 9942SOL     OW30724   2.507   5.362   2.694
 9942SOL    HW130725   2.477   5.390   2.785
 9942SOL    HW230726   2.477   5.268   2.677
 9943SOL     OW30727   0.573   4.319   5.617
 9943SOL    HW130728   0.636   4.277   5.551
 9943SOL    HW230729   0.581   4.419   5.611
 9944SOL     OW30730   1.802   4.612   6.532
 9944SOL    HW130731   1.720   4.560   6.553
 9944SOL    HW230732   1.798   4.645   6.438
 9945SOL     OW30733   5.952   5.594   6.546
 9945SOL    HW130734   5.895   5.667   6.585
 9945SOL    HW230735   6.047   5.625   6.542
 9946SOL     OW30736   5.249   0.778   3.702
 9946SOL    HW130737   5.347   0.782   3.683
 9946SOL    HW230738   5.199   0.791   3.616
 9947SOL     OW30739   1.753   2.227   4.683
 9947SOL    HW130740   1.763   2.128   4.679
 9947SOL    HW230741   1.735   2.255   4.778
 9948SOL     OW30742   5.816   4.211   4.613
 9948SOL    HW130743   5.740   4.272   4.634
 9948SOL    HW230744   5.780   4.123   4.582
 9949SOL     OW30745   6.466   4.573   4.680
 9949SOL    HW130746   6.538   4.577   4.611
 9949SOL    HW230747   6.394   4.638   4.657
 9950SOL     OW30748   5.640   5.790   5.337
 9950SOL    HW130749   5.581   5.752   5.265
 9950SOL    HW230750   5.590   5.860   5.387
 9951SOL     OW30751   0.069   1.040   4.092
 9951SOL    HW130752   0.030   1.029   4.183
 9951SOL    HW230753   0.025   0.976   4.029
 9952SOL     OW30754   1.045   3.923   0.692
 9952SOL    HW130755   1.013   3.984   0.765
 9952SOL    HW230756   1.033   3.968   0.603
 9953SOL     OW30757   5.764   2.750   4.846
 9953SOL    HW130758   5.695   2.815   4.879
 9953SOL    HW230759   5.793   2.777   4.754
 9954SOL     OW30760   6.295   0.944   6.615
 9954SOL    HW130761   6.273   1.033   6.654
 9954SOL    HW230762   6.360   0.955   6.539
 9955SOL     OW30763   6.449   3.451   5.550
 9955SOL    HW130764   6.375   3.438   5.615
 9955SOL    HW230765   6.415   3.436   5.457
 9956SOL     OW30766   1.511   0.018   2.459
 9956SOL    HW130767   1.533   6.947   2.426
 9956SOL    HW230768   1.492   0.015   2.557
 9957SOL     OW30769   5.088   5.901   2.556
 9957SOL    HW130770   5.062   5.988   2.598
 9957SOL    HW230771   5.187   5.890   2.560
 9958SOL     OW30772   3.532   5.566   0.182
 9958SOL    HW130773   3.461   5.633   0.157
 9958SOL    HW230774   3.590   5.604   0.254
 9959SOL     OW30775   4.066   3.662   5.273
 9959SOL    HW130776   4.119   3.607   5.209
 9959SOL    HW230777   4.097   3.757   5.268
 9960SOL     OW30778   6.946   0.512   1.746
 9960SOL    HW130779   6.913   0.526   1.840
 9960SOL    HW230780   0.014   0.555   1.736
 9961SOL     OW30781   1.371   5.029   4.666
 9961SOL    HW130782   1.446   5.068   4.719
 9961SOL    HW230783   1.329   5.101   4.611
 9962SOL     OW30784   6.240   6.142   2.885
 9962SOL    HW130785   6.307   6.070   2.867
 9962SOL    HW230786   6.158   6.102   2.927
 9963SOL     OW30787   2.890   3.331   6.581
 9963SOL    HW130788   2.947   3.250   6.594
 9963SOL    HW230789   2.916   3.377   6.496
 9964SOL     OW30790   5.093   4.461   5.399
 9964SOL    HW130791   5.014   4.401   5.406
 9964SOL    HW230792   5.087   4.533   5.468
 9965SOL     OW30793   3.764   6.552   5.798
 9965SOL    HW130794   3.808   6.604   5.871
 9965SOL    HW230795   3.814   6.467   5.783
 9966SOL     OW30796   2.063   6.033   2.235
 9966SOL    HW130797   2.102   5.980   2.311
 9966SOL    HW230798   2.117   6.018   2.153
 9967SOL     OW30799   0.189   0.115   2.221
 9967SOL    HW130800   0.143   0.204   2.221
 9967SOL    HW230801   0.260   0.116   2.151
 9968SOL     OW30802   3.274   3.977   0.856
 9968SOL    HW130803   3.313   3.980   0.948
 9968SOL    HW230804   3.191   4.033   0.853
 9969SOL     OW30805   1.617   3.145   2.792
 9969SOL    HW130806   1.621   3.177   2.698
 9969SOL    HW230807   1.522   3.142   2.823
 9970SOL     OW30808   5.212   3.937   2.518
 9970SOL    HW130809   5.273   3.867   2.481
 9970SOL    HW230810   5.259   3.986   2.591
 9971SOL     OW30811   2.181   5.557   1.477
 9971SOL    HW130812   2.197   5.460   1.496
 9971SOL    HW230813   2.126   5.566   1.394
 9972SOL     OW30814   4.627   5.231   1.522
 9972SOL    HW130815   4.606   5.196   1.613
 9972SOL    HW230816   4.641   5.330   1.527
 9973SOL     OW30817   4.823   1.889   4.169
 9973SOL    HW130818   4.881   1.971   4.161
 9973SOL    HW230819   4.761   1.900   4.246
 9974SOL     OW30820   0.613   3.088   3.006
 9974SOL    HW130821   0.606   3.014   2.939
 9974SOL    HW230822   0.608   3.176   2.960
 9975SOL     OW30823   6.401   4.465   0.060
 9975SOL    HW130824   6.454   4.472   0.144
 9975SOL    HW230825   6.338   4.542   0.053
 9976SOL     OW30826   0.453   6.346   5.660
 9976SOL    HW130827   0.462   6.293   5.744
 9976SOL    HW230828   0.440   6.284   5.582
 9977SOL     OW30829   6.945   5.242   5.558
 9977SOL    HW130830   6.942   5.145   5.533
 9977SOL    HW230831   0.016   5.268   5.582
 9978SOL     OW30832   0.311   2.193   4.101
 9978SOL    HW130833   0.259   2.207   4.186
 9978SOL    HW230834   0.378   2.266   4.091
 9979SOL     OW30835   6.567   5.246   5.420
 9979SOL    HW130836   6.581   5.299   5.336
 9979SOL    HW230837   6.594   5.151   5.405
 9980SOL     OW30838   1.807   0.805   5.755
 9980SOL    HW130839   1.899   0.808   5.792
 9980SOL    HW230840   1.748   0.870   5.805
 9981SOL     OW30841   2.369   1.813   2.177
 9981SOL    HW130842   2.402   1.888   2.234
 9981SOL    HW230843   2.438   1.791   2.108
 9982SOL     OW30844   6.756   6.393   4.154
 9982SOL    HW130845   6.736   6.415   4.249
 9982SOL    HW230846   6.854   6.383   4.142
 9983SOL     OW30847   6.727   2.596   2.794
 9983SOL    HW130848   6.755   2.531   2.864
 9983SOL    HW230849   6.764   2.568   2.705
 9984SOL     OW30850   2.021   0.893   6.938
 9984SOL    HW130851   1.924   0.891   6.912
 9984SOL    HW230852   2.030   0.869   0.013
 9985SOL     OW30853   1.571   1.144   0.602
 9985SOL    HW130854   1.473   1.157   0.620
 9985SOL    HW230855   1.622   1.220   0.642
 9986SOL     OW30856   5.501   4.115   5.830
 9986SOL    HW130857   5.579   4.056   5.847
 9986SOL    HW230858   5.509   4.199   5.885
 9987SOL     OW30859   0.027   3.299   4.066
 9987SOL    HW130860   0.095   3.308   3.992
 9987SOL    HW230861   6.975   3.365   4.051
 9988SOL     OW30862   6.804   5.721   4.125
 9988SOL    HW130863   6.743   5.740   4.202
 9988SOL    HW230864   6.784   5.784   4.050
 9989SOL     OW30865   6.194   3.727   3.399
 9989SOL    HW130866   6.285   3.734   3.359
 9989SOL    HW230867   6.127   3.709   3.326
 9990SOL     OW30868   2.367   5.458   1.740
 9990SOL    HW130869   2.316   5.429   1.659
 9990SOL    HW230870   2.377   5.557   1.738
 9991SOL     OW30871   2.111   2.261   3.316
 9991SOL    HW130872   2.123   2.360   3.325
 9991SOL    HW230873   2.091   2.239   3.221
 9992SOL     OW30874   5.705   5.337   0.110
 9992SOL    HW130875   5.684   5.404   0.038
 9992SOL    HW230876   5.794   5.295   0.092
 9993SOL     OW30877   3.013   0.701   0.409
 9993SOL    HW130878   2.955   0.637   0.460
 9993SOL    HW230879   3.084   0.650   0.362
 9994SOL     OW30880   5.952   4.387   3.263
 9994SOL    HW130881   6.043   4.350   3.280
 9994SOL    HW230882   5.883   4.320   3.289
 9995SOL     OW30883   4.717   0.869   2.970
 9995SOL    HW130884   4.711   0.963   3.005
 9995SOL    HW230885   4.770   0.813   3.034
 9996SOL     OW30886   3.106   3.334   1.133
 9996SOL    HW130887   3.205   3.327   1.144
 9996SOL    HW230888   3.074   3.261   1.073
 9997SOL     OW30889   3.549   1.705   0.113
 9997SOL    HW130890   3.643   1.676   0.100
 9997SOL    HW230891   3.528   1.781   0.052
 9998SOL     OW30892   5.886   4.833   5.945
 9998SOL    HW130893   5.930   4.824   5.856
 9998SOL    HW230894   5.898   4.926   5.979
 9999SOL     OW30895   6.243   3.406   5.709
 9999SOL    HW130896   6.146   3.425   5.694
 9999SOL    HW230897   6.253   3.343   5.786
10000SOL     OW30898   0.182   4.338   6.652
10000SOL    HW130899   0.240   4.416   6.678
10000SOL    HW230900   0.228   4.253   6.678
10001SOL     OW30901   4.927   6.880   1.937
10001SOL    HW130902   4.849   6.875   1.999
10001SOL    HW230903   4.934   6.973   1.899
10002SOL     OW30904   1.519   0.539   3.132
10002SOL    HW130905   1.504   0.577   3.041
10002SOL    HW230906   1.469   0.594   3.199
10003SOL     OW30907   3.853   1.464   3.436
10003SOL    HW130908   3.831   1.510   3.522
10003SOL    HW230909   3.796   1.502   3.363
10004SOL     OW30910   6.407   2.261   4.689
10004SOL    HW130911   6.503   2.239   4.674
10004SOL    HW230912   6.349   2.195   4.641
10005SOL     OW30913   5.045   0.435   4.661
10005SOL    HW130914   5.093   0.484   4.588
10005SOL    HW230915   5.047   0.491   4.744
10006SOL     OW30916   4.860   5.462   4.053
10006SOL    HW130917   4.903   5.412   4.128
10006SOL    HW230918   4.785   5.518   4.089
10007SOL     OW30919   6.933   4.632   5.833
10007SOL    HW130920   6.878   4.714   5.821
10007SOL    HW230921   6.918   4.594   5.924
10008SOL     OW30922   3.811   1.506   4.314
10008SOL    HW130923   3.711   1.512   4.305
10008SOL    HW230924   3.848   1.451   4.239
10009SOL     OW30925   2.006   3.998   1.657
10009SOL    HW130926   2.054   3.969   1.575
10009SOL    HW230927   1.947   3.924   1.690
10010SOL     OW30928   2.097   0.617   5.619
10010SOL    HW130929   2.096   0.657   5.527
10010SOL    HW230930   2.164   0.543   5.622
10011SOL     OW30931   5.923   1.028   5.816
10011SOL    HW130932   5.839   0.980   5.792
10011SOL    HW230933   5.985   0.964   5.862
10012SOL     OW30934   5.734   1.187   3.485
10012SOL    HW130935   5.748   1.157   3.391
10012SOL    HW230936   5.659   1.134   3.526
10013SOL     OW30937   0.213   1.397   3.454
10013SOL    HW130938   0.237   1.304   3.482
10013SOL    HW230939   0.292   1.441   3.412
10014SOL     OW30940   6.675   4.026   0.885
10014SOL    HW130941   6.764   3.981   0.893
10014SOL    HW230942   6.682   4.120   0.919
10015SOL     OW30943   1.948   5.035   0.408
10015SOL    HW130944   1.952   5.070   0.314
10015SOL    HW230945   1.976   5.107   0.472
10016SOL     OW30946   1.319   0.945   6.204
10016SOL    HW130947   1.408   0.986   6.185
10016SOL    HW230948   1.300   0.951   6.302
10017SOL     OW30949   2.928   1.830   2.986
10017SOL    HW130950   2.877   1.915   2.975
10017SOL    HW230951   2.869   1.753   2.961
10018SOL     OW30952   4.790   0.301   6.528
10018SOL    HW130953   4.816   0.381   6.474
10018SOL    HW230954   4.755   0.331   6.617
10019SOL     OW30955   0.024   1.614   3.150
10019SOL    HW130956   6.979   1.653   3.213
10019SOL    HW230957   7.002   1.596   3.062
10020SOL     OW30958   1.828   2.300   1.075
10020SOL    HW130959   1.866   2.210   1.097
10020SOL    HW230960   1.895   2.352   1.022
10021SOL     OW30961   0.488   2.264   1.532
10021SOL    HW130962   0.525   2.356   1.543
10021SOL    HW230963   0.409   2.252   1.593
10022SOL     OW30964   2.256   1.202   5.779
10022SOL    HW130965   2.334   1.180   5.838
10022SOL    HW230966   2.208   1.282   5.816
10023SOL     OW30967   0.267   4.992   1.120
10023SOL    HW130968   0.269   4.895   1.096
10023SOL    HW230969   0.186   5.010   1.177
10024SOL     OW30970   2.063   6.553   2.361
10024SOL    HW130971   2.093   6.458   2.352
10024SOL    HW230972   1.987   6.558   2.426
10025SOL     OW30973   1.419   0.900   0.155
10025SOL    HW130974   1.495   0.945   0.107
10025SOL    HW230975   1.450   0.811   0.190
10026SOL     OW30976   5.116   6.455   3.789
10026SOL    HW130977   5.139   6.460   3.692
10026SOL    HW230978   5.079   6.543   3.819
10027SOL     OW30979   6.816   3.888   4.058
10027SOL    HW130980   6.754   3.947   4.006
10027SOL    HW230981   6.833   3.927   4.148
10028SOL     OW30982   0.895   0.240   2.503
10028SOL    HW130983   0.973   0.302   2.496
10028SOL    HW230984   0.890   0.183   2.421
10029SOL     OW30985   4.684   1.806   4.744
10029SOL    HW130986   4.636   1.866   4.808
10029SOL    HW230987   4.623   1.731   4.717
10030SOL     OW30988   1.784   0.518   3.347
10030SOL    HW130989   1.766   0.427   3.383
10030SOL    HW230990   1.704   0.577   3.363
10031SOL     OW30991   5.408   4.578   5.003
10031SOL    HW130992   5.354   4.513   5.056
10031SOL    HW230993   5.496   4.593   5.049
10032SOL     OW30994   3.246   0.955   5.258
10032SOL    HW130995   3.230   0.857   5.259
10032SOL    HW230996   3.248   0.990   5.352
10033SOL     OW30997   6.646   2.948   4.687
10033SOL    HW130998   6.626   2.958   4.590
10033SOL    HW230999   6.743   2.925   4.699
10034SOL     OW31000   3.222   0.428   4.359
10034SOL    HW131001   3.266   0.338   4.366
10034SOL    HW231002   3.201   0.461   4.451
10035SOL     OW31003   6.759   5.492   1.615
10035SOL    HW131004   6.787   5.410   1.665
10035SOL    HW231005   6.683   5.470   1.554
10036SOL     OW31006   6.335   2.289   0.874
10036SOL    HW131007   6.387   2.207   0.895
10036SOL    HW231008   6.268   2.269   0.802
10037SOL     OW31009   6.796   1.813   7.020
10037SOL    HW131010   6.757   1.777   6.936
10037SOL    HW231011   6.815   1.738   0.062
10038SOL     OW31012   5.821   6.967   0.225
10038SOL    HW131013   5.887   7.001   0.292
10038SOL    HW231014   5.785   0.022   0.172
10039SOL     OW31015   3.440   0.865   3.586
10039SOL    HW131016   3.470   0.883   3.492
10039SOL    HW231017   3.342   0.850   3.588
10040SOL     OW31018   5.793   5.260   6.735
10040SOL    HW131019   5.865   5.205   6.693
10040SOL    HW231020   5.719   5.200   6.766
10041SOL     OW31021   3.414   6.169   6.680
10041SOL    HW131022   3.418   6.262   6.716
10041SOL    HW231023   3.409   6.104   6.756
10042SOL     OW31024   6.977   1.775   3.997
10042SOL    HW131025   0.028   1.714   4.029
10042SOL    HW231026   6.958   1.756   3.900
10043SOL     OW31027   6.291   1.839   5.100
10043SOL    HW131028   6.247   1.751   5.122
10043SOL    HW231029   6.338   1.831   5.012
10044SOL     OW31030   2.446   2.877   5.620
10044SOL    HW131031   2.522   2.828   5.576
10044SOL    HW231032   2.477   2.967   5.649
10045SOL     OW31033   4.144   0.893   1.469
10045SOL    HW131034   4.047   0.870   1.458
10045SOL    HW231035   4.173   0.954   1.395
10046SOL     OW31036   2.155   3.969   1.208
10046SOL    HW131037   2.151   3.956   1.109
10046SOL    HW231038   2.138   4.065   1.230
10047SOL     OW31039   0.819   3.049   6.239
10047SOL    HW131040   0.898   3.053   6.301
10047SOL    HW231041   0.775   3.139   6.234
10048SOL     OW31042   0.062   6.532   3.119
10048SOL    HW131043   0.120   6.456   3.091
10048SOL    HW231044   0.066   6.542   3.219
10049SOL     OW31045   0.916   1.693   6.074
10049SOL    HW131046   0.978   1.728   6.004
10049SOL    HW231047   0.956   1.708   6.165
10050SOL     OW31048   5.471   3.494   5.283
10050SOL    HW131049   5.379   3.464   5.306
10050SOL    HW231050   5.536   3.459   5.351
10051SOL     OW31051   0.740   4.245   4.896
10051SOL    HW131052   0.748   4.222   4.799
10051SOL    HW231053   0.658   4.202   4.934
10052SOL     OW31054   1.540   1.338   3.121
10052SOL    HW131055   1.531   1.290   3.033
10052SOL    HW231056   1.574   1.274   3.190
10053SOL     OW31057   4.933   5.025   4.060
10053SOL    HW131058   4.845   4.997   4.022
10053SOL    HW231059   4.952   4.973   4.143
10054SOL     OW31060   5.518   4.286   4.891
10054SOL    HW131061   5.440   4.262   4.948
10054SOL    HW231062   5.526   4.221   4.816
10055SOL     OW31063   6.790   2.840   6.951
10055SOL    HW131064   6.710   2.900   6.959
10055SOL    HW231065   6.824   2.816   0.020
10056SOL     OW31066   5.180   3.492   3.019
10056SOL    HW131067   5.081   3.490   3.027
10056SOL    HW231068   5.207   3.456   2.929
10057SOL     OW31069   5.890   3.819   5.755
10057SOL    HW131070   5.921   3.896   5.699
10057SOL    HW231071   5.962   3.793   5.820
10058SOL     OW31072   6.754   2.897   4.231
10058SOL    HW131073   6.831   2.846   4.270
10058SOL    HW231074   6.786   2.954   4.155
10059SOL     OW31075   5.983   1.494   0.888
10059SOL    HW131076   5.904   1.441   0.917
10059SOL    HW231077   6.054   1.433   0.854
10060SOL     OW31078   2.625   1.661   2.389
10060SOL    HW131079   2.533   1.700   2.380
10060SOL    HW231080   2.692   1.728   2.358
10061SOL     OW31081   4.201   1.199   3.706
10061SOL    HW131082   4.294   1.227   3.683
10061SOL    HW231083   4.137   1.270   3.678
10062SOL     OW31084   0.374   0.001   4.073
10062SOL    HW131085   0.280   6.992   4.060
10062SOL    HW231086   0.383   0.096   4.044
10063SOL     OW31087   2.186   2.174   4.164
10063SOL    HW131088   2.103   2.193   4.217
10063SOL    HW231089   2.263   2.223   4.204
10064SOL     OW31090   3.775   6.023   0.019
10064SOL    HW131091   3.758   6.083   0.098
10064SOL    HW231092   3.841   6.067   6.980
10065SOL     OW31093   1.529   0.821   1.365
10065SOL    HW131094   1.452   0.865   1.411
10065SOL    HW231095   1.596   0.792   1.434
10066SOL     OW31096   0.044   3.470   5.132
10066SOL    HW131097   0.126   3.488   5.187
10066SOL    HW231098   6.998   3.541   5.150
10067SOL     OW31099   0.723   3.196   6.721
10067SOL    HW131100   0.775   3.279   6.700
10067SOL    HW231101   0.690   3.155   6.636
10068SOL     OW31102   1.793   3.357   2.795
10068SOL    HW131103   1.716   3.309   2.838
10068SOL    HW231104   1.759   3.412   2.719
10069SOL     OW31105   3.667   5.084   1.852
10069SOL    HW131106   3.733   5.133   1.909
10069SOL    HW231107   3.575   5.096   1.891
10070SOL     OW31108   2.721   5.790   4.437
10070SOL    HW131109   2.791   5.727   4.473
10070SOL    HW231110   2.685   5.845   4.512
10071SOL     OW31111   0.342   6.370   4.159
10071SOL    HW131112   0.308   6.460   4.188
10071SOL    HW231113   0.299   6.344   4.073
10072SOL     OW31114   0.280   1.409   2.657
10072SOL    HW131115   0.354   1.386   2.594
10072SOL    HW231116   0.226   1.327   2.675
10073SOL     OW31117   6.163   2.844   3.689
10073SOL    HW131118   6.150   2.900   3.771
10073SOL    HW231119   6.259   2.844   3.663
10074SOL     OW31120   1.681   5.108   0.469
10074SOL    HW131121   1.773   5.096   0.431
10074SOL    HW231122   1.613   5.075   0.403
10075SOL     OW31123   2.048   1.475   2.348
10075SOL    HW131124   2.148   1.482   2.356
10075SOL    HW231125   2.006   1.498   2.435
10076SOL     OW31126   4.798   5.293   2.933
10076SOL    HW131127   4.867   5.276   2.863
10076SOL    HW231128   4.842   5.318   3.019
10077SOL     OW31129   6.250   3.360   0.329
10077SOL    HW131130   6.346   3.375   0.352
10077SOL    HW231131   6.244   3.288   0.259
10078SOL     OW31132   6.790   6.457   4.960
10078SOL    HW131133   6.801   6.534   4.897
10078SOL    HW231134   6.699   6.417   4.947
10079SOL     OW31135   5.749   2.759   3.339
10079SOL    HW131136   5.664   2.809   3.351
10079SOL    HW231137   5.806   2.771   3.421
10080SOL     OW31138   5.591   0.974   6.073
10080SOL    HW131139   5.585   0.893   6.016
10080SOL    HW231140   5.504   0.988   6.121
10081SOL     OW31141   1.477   1.304   6.435
10081SOL    HW131142   1.560   1.318   6.380
10081SOL    HW231143   1.471   1.376   6.504
10082SOL     OW31144   1.204   4.924   2.859
10082SOL    HW131145   1.119   4.879   2.884
10082SOL    HW231146   1.241   4.883   2.776
10083SOL     OW31147   3.544   4.970   3.813
10083SOL    HW131148   3.450   4.984   3.783
10083SOL    HW231149   3.545   4.939   3.908
10084SOL     OW31150   0.793   0.499   5.359
10084SOL    HW131151   0.826   0.544   5.442
10084SOL    HW231152   0.795   0.400   5.372
10085SOL     OW31153   3.774   6.617   6.934
10085SOL    HW131154   3.763   6.521   6.909
10085SOL    HW231155   3.686   6.664   6.929
10086SOL     OW31156   6.555   6.705   1.926
10086SOL    HW131157   6.471   6.674   1.881
10086SOL    HW231158   6.566   6.655   2.012
10087SOL     OW31159   0.747   6.732   4.233
10087SOL    HW131160   0.784   6.825   4.240
10087SOL    HW231161   0.762   6.685   4.320
10088SOL     OW31162   0.327   2.552   0.042
10088SOL    HW131163   0.237   2.595   0.041
10088SOL    HW231164   0.358   2.542   0.136
10089SOL     OW31165   4.289   1.952   2.142
10089SOL    HW131166   4.222   2.020   2.172
10089SOL    HW231167   4.268   1.863   2.184
10090SOL     OW31168   0.924   5.213   1.448
10090SOL    HW131169   0.846   5.157   1.478
10090SOL    HW231170   1.004   5.155   1.436
10091SOL     OW31171   6.550   5.442   6.153
10091SOL    HW131172   6.631   5.389   6.178
10091SOL    HW231173   6.567   5.539   6.171
10092SOL     OW31174   0.619   3.288   5.749
10092SOL    HW131175   0.602   3.271   5.652
10092SOL    HW231176   0.597   3.383   5.771
10093SOL     OW31177   5.339   3.703   5.601
10093SOL    HW131178   5.324   3.800   5.620
10093SOL    HW231179   5.435   3.680   5.614
10094SOL     OW31180   3.172   0.090   1.137
10094SOL    HW131181   3.112   0.012   1.152
10094SOL    HW231182   3.122   0.163   1.091
10095SOL     OW31183   5.176   2.558   5.415
10095SOL    HW131184   5.093   2.560   5.360
10095SOL    HW231185   5.220   2.649   5.413
10096SOL     OW31186   4.781   0.864   2.539
10096SOL    HW131187   4.773   0.957   2.576
10096SOL    HW231188   4.817   0.803   2.610
10097SOL     OW31189   2.074   1.371   5.893
10097SOL    HW131190   2.011   1.415   5.830
10097SOL    HW231191   2.053   1.400   5.987
10098SOL     OW31192   3.138   5.419   4.586
10098SOL    HW131193   3.124   5.327   4.622
10098SOL    HW231194   3.079   5.433   4.507
10099SOL     OW31195   6.532   4.032   1.949
10099SOL    HW131196   6.511   4.130   1.961
10099SOL    HW231197   6.592   4.020   1.871
10100SOL     OW31198   5.368   5.346   5.250
10100SOL    HW131199   5.326   5.259   5.276
10100SOL    HW231200   5.299   5.419   5.253
10101SOL     OW31201   0.901   2.532   1.536
10101SOL    HW131202   0.983   2.590   1.542
10101SOL    HW231203   0.852   2.553   1.452
10102SOL     OW31204   5.969   6.542   0.706
10102SOL    HW131205   6.068   6.540   0.723
10102SOL    HW231206   5.944   6.629   0.664
10103SOL     OW31207   0.586   0.679   5.853
10103SOL    HW131208   0.655   0.608   5.841
10103SOL    HW231209   0.559   0.683   5.949
10104SOL     OW31210   2.225   0.422   5.777
10104SOL    HW131211   2.132   0.427   5.812
10104SOL    HW231212   2.277   0.354   5.829
10105SOL     OW31213   3.190   1.535   5.944
10105SOL    HW131214   3.132   1.596   5.890
10105SOL    HW231215   3.272   1.511   5.891
10106SOL     OW31216   4.875   6.174   1.234
10106SOL    HW131217   4.845   6.097   1.291
10106SOL    HW231218   4.973   6.163   1.214
10107SOL     OW31219   5.381   4.550   6.386
10107SOL    HW131220   5.354   4.519   6.477
10107SOL    HW231221   5.350   4.644   6.373
10108SOL     OW31222   1.445   3.203   0.793
10108SOL    HW131223   1.489   3.174   0.708
10108SOL    HW231224   1.348   3.182   0.789
10109SOL     OW31225   0.667   1.133   6.911
10109SOL    HW131226   0.763   1.140   6.939
10109SOL    HW231227   0.609   1.147   6.991
10110SOL     OW31228   4.777   5.631   2.715
10110SOL    HW131229   4.842   5.660   2.786
10110SOL    HW231230   4.716   5.561   2.752
10111SOL     OW31231   1.251   1.993   1.906
10111SOL    HW131232   1.304   2.075   1.926
10111SOL    HW231233   1.188   1.974   1.981
10112SOL     OW31234   6.389   2.849   3.560
10112SOL    HW131235   6.485   2.849   3.588
10112SOL    HW231236   6.377   2.907   3.480
10113SOL     OW31237   4.894   1.152   6.795
10113SOL    HW131238   4.897   1.081   6.865
10113SOL    HW231239   4.986   1.188   6.780
10114SOL     OW31240   4.198   1.473   3.233
10114SOL    HW131241   4.150   1.403   3.285
10114SOL    HW231242   4.194   1.450   3.136
10115SOL     OW31243   3.282   1.211   5.211
10115SOL    HW131244   3.218   1.261   5.269
10115SOL    HW231245   3.254   1.115   5.205
10116SOL     OW31246   6.420   0.732   5.083
10116SOL    HW131247   6.328   0.693   5.086
10116SOL    HW231248   6.486   0.659   5.069
10117SOL     OW31249   6.346   5.260   4.635
10117SOL    HW131250   6.360   5.311   4.720
10117SOL    HW231251   6.377   5.316   4.558
10118SOL     OW31252   3.330   4.884   5.077
10118SOL    HW131253   3.358   4.858   4.985
10118SOL    HW231254   3.303   4.802   5.128
10119SOL     OW31255   0.124   4.957   4.452
10119SOL    HW131256   0.074   4.999   4.376
10119SOL    HW231257   0.182   4.884   4.417
10120SOL     OW31258   1.774   3.120   2.024
10120SOL    HW131259   1.705   3.087   1.960
10120SOL    HW231260   1.775   3.220   2.024
10121SOL     OW31261   6.203   4.409   0.897
10121SOL    HW131262   6.195   4.331   0.959
10121SOL    HW231263   6.238   4.488   0.946
10122SOL     OW31264   0.283   1.810   3.684
10122SOL    HW131265   0.368   1.859   3.704
10122SOL    HW231266   0.288   1.718   3.723
10123SOL     OW31267   5.669   6.210   1.205
10123SOL    HW131268   5.767   6.194   1.193
10123SOL    HW231269   5.631   6.252   1.123
10124SOL     OW31270   1.040   4.562   2.742
10124SOL    HW131271   1.040   4.627   2.666
10124SOL    HW231272   0.949   4.519   2.748
10125SOL     OW31273   1.420   2.287   0.146
10125SOL    HW131274   1.472   2.210   0.108
10125SOL    HW231275   1.479   2.368   0.149
10126SOL     OW31276   6.045   0.383   6.788
10126SOL    HW131277   5.947   0.402   6.796
10126SOL    HW231278   6.067   0.300   6.839
10127SOL     OW31279   2.327   5.076   6.398
10127SOL    HW131280   2.293   4.988   6.430
10127SOL    HW231281   2.321   5.143   6.472
10128SOL     OW31282   3.497   0.532   0.389
10128SOL    HW131283   3.399   0.517   0.379
10128SOL    HW231284   3.544   0.444   0.386
10129SOL     OW31285   6.307   1.428   3.864
10129SOL    HW131286   6.306   1.527   3.846
10129SOL    HW231287   6.365   1.409   3.943
10130SOL     OW31288   1.661   2.539   2.321
10130SOL    HW131289   1.619   2.464   2.371
10130SOL    HW231290   1.736   2.577   2.374
10131SOL     OW31291   1.948   0.778   4.381
10131SOL    HW131292   1.915   0.808   4.292
10131SOL    HW231293   2.044   0.803   4.392
10132SOL     OW31294   6.862   0.974   2.973
10132SOL    HW131295   6.893   0.890   2.929
10132SOL    HW231296   6.940   1.034   2.990
10133SOL     OW31297   4.686   5.825   0.751
10133SOL    HW131298   4.614   5.763   0.720
10133SOL    HW231299   4.649   5.917   0.761
10134SOL     OW31300   5.718   0.722   2.237
10134SOL    HW131301   5.780   0.796   2.209
10134SOL    HW231302   5.718   0.650   2.167
10135SOL     OW31303   5.615   0.023   3.475
10135SOL    HW131304   5.576   6.964   3.432
10135SOL    HW231305   5.555   0.055   3.548
10136SOL     OW31306   4.572   1.916   2.759
10136SOL    HW131307   4.629   1.842   2.796
10136SOL    HW231308   4.626   1.971   2.695
10137SOL     OW31309   6.892   5.829   5.787
10137SOL    HW131310   6.943   5.807   5.870
10137SOL    HW231311   6.822   5.897   5.807
10138SOL     OW31312   5.440   1.333   0.209
10138SOL    HW131313   5.506   1.406   0.195
10138SOL    HW231314   5.385   1.353   0.290
10139SOL     OW31315   3.435   3.602   5.396
10139SOL    HW131316   3.349   3.558   5.371
10139SOL    HW231317   3.510   3.537   5.383
10140SOL     OW31318   6.948   5.477   5.944
10140SOL    HW131319   6.920   5.441   6.033
10140SOL    HW231320   6.882   5.547   5.915
10141SOL     OW31321   2.827   1.553   3.990
10141SOL    HW131322   2.769   1.555   3.909
10141SOL    HW231323   2.889   1.631   3.989
10142SOL     OW31324   6.069   6.160   4.150
10142SOL    HW131325   5.981   6.151   4.104
10142SOL    HW231326   6.115   6.071   4.152
10143SOL     OW31327   5.699   2.984   0.461
10143SOL    HW131328   5.618   2.999   0.404
10143SOL    HW231329   5.707   3.058   0.528
10144SOL     OW31330   3.584   6.119   5.145
10144SOL    HW131331   3.516   6.187   5.117
10144SOL    HW231332   3.644   6.097   5.068
10145SOL     OW31333   5.289   5.878   0.606
10145SOL    HW131334   5.327   5.793   0.569
10145SOL    HW231335   5.326   5.956   0.556
10146SOL     OW31336   0.523   3.106   4.202
10146SOL    HW131337   0.602   3.162   4.228
10146SOL    HW231338   0.440   3.145   4.242
10147SOL     OW31339   4.744   5.932   6.506
10147SOL    HW131340   4.731   5.837   6.479
10147SOL    HW231341   4.826   5.940   6.562
10148SOL     OW31342   0.627   5.074   6.605
10148SOL    HW131343   0.693   5.056   6.532
10148SOL    HW231344   0.667   5.135   6.673
10149SOL     OW31345   4.729   4.202   0.725
10149SOL    HW131346   4.678   4.116   0.732
10149SOL    HW231347   4.672   4.278   0.757
10150SOL     OW31348   4.888   4.089   0.292
10150SOL    HW131349   4.854   4.020   0.357
10150SOL    HW231350   4.894   4.177   0.337
10151SOL     OW31351   6.575   0.101   5.604
10151SOL    HW131352   6.494   0.159   5.608
10151SOL    HW231353   6.549   0.005   5.618
10152SOL     OW31354   5.517   6.591   2.682
10152SOL    HW131355   5.556   6.518   2.738
10152SOL    HW231356   5.556   6.587   2.590
10153SOL     OW31357   5.580   4.623   3.928
10153SOL    HW131358   5.612   4.566   3.852
10153SOL    HW231359   5.484   4.648   3.913
10154SOL     OW31360   4.531   5.137   5.431
10154SOL    HW131361   4.435   5.111   5.417
10154SOL    HW231362   4.566   5.182   5.349
10155SOL     OW31363   4.334   2.007   5.809
10155SOL    HW131364   4.319   2.020   5.907
10155SOL    HW231365   4.246   2.005   5.762
10156SOL     OW31366   4.728   0.759   0.999
10156SOL    HW131367   4.713   0.722   1.091
10156SOL    HW231368   4.773   0.848   1.006
10157SOL     OW31369   0.158   3.186   1.240
10157SOL    HW131370   0.233   3.205   1.177
10157SOL    HW231371   0.186   3.113   1.303
10158SOL     OW31372   5.864   6.204   1.868
10158SOL    HW131373   5.797   6.195   1.794
10158SOL    HW231374   5.956   6.198   1.831
10159SOL     OW31375   3.513   3.331   3.050
10159SOL    HW131376   3.433   3.384   3.023
10159SOL    HW231377   3.548   3.366   3.137
10160SOL     OW31378   2.280   4.214   3.247
10160SOL    HW131379   2.322   4.279   3.183
10160SOL    HW231380   2.249   4.133   3.197
10161SOL     OW31381   4.519   4.247   5.984
10161SOL    HW131382   4.553   4.236   5.890
10161SOL    HW231383   4.441   4.310   5.984
10162SOL     OW31384   1.319   3.928   2.621
10162SOL    HW131385   1.276   4.006   2.666
10162SOL    HW231386   1.396   3.895   2.677
10163SOL     OW31387   0.683   6.128   5.252
10163SOL    HW131388   0.653   6.188   5.178
10163SOL    HW231389   0.733   6.050   5.214
10164SOL     OW31390   0.048   3.080   3.137
10164SOL    HW131391   7.002   3.130   3.192
10164SOL    HW231392   0.123   3.050   3.197
10165SOL     OW31393   6.399   3.631   4.059
10165SOL    HW131394   6.431   3.539   4.035
10165SOL    HW231395   6.424   3.695   3.987
10166SOL     OW31396   1.278   1.837   0.855
10166SOL    HW131397   1.352   1.812   0.918
10166SOL    HW231398   1.307   1.913   0.798
10167SOL     OW31399   1.161   6.508   6.678
10167SOL    HW131400   1.064   6.485   6.682
10167SOL    HW231401   1.172   6.607   6.689
10168SOL     OW31402   5.405   1.163   0.555
10168SOL    HW131403   5.387   1.251   0.512
10168SOL    HW231404   5.372   1.089   0.496
10169SOL     OW31405   6.636   3.226   3.200
10169SOL    HW131406   6.663   3.133   3.172
10169SOL    HW231407   6.619   3.281   3.118
10170SOL     OW31408   6.288   6.070   6.697
10170SOL    HW131409   6.251   6.126   6.771
10170SOL    HW231410   6.236   5.985   6.691
10171SOL     OW31411   1.879   3.243   5.473
10171SOL    HW131412   1.964   3.195   5.451
10171SOL    HW231413   1.889   3.340   5.451
10172SOL     OW31414   6.426   0.198   3.496
10172SOL    HW131415   6.518   0.177   3.463
10172SOL    HW231416   6.396   0.128   3.561
10173SOL     OW31417   3.400   5.030   6.587
10173SOL    HW131418   3.335   4.996   6.654
10173SOL    HW231419   3.473   4.963   6.574
10174SOL     OW31420   4.558   6.433   2.344
10174SOL    HW131421   4.462   6.406   2.338
10174SOL    HW231422   4.600   6.427   2.253
10175SOL     OW31423   0.158   2.049   3.932
10175SOL    HW131424   0.183   2.100   4.014
10175SOL    HW231425   0.097   1.975   3.957
10176SOL     OW31426   6.298   3.043   5.625
10176SOL    HW131427   6.229   3.054   5.696
10176SOL    HW231428   6.374   3.106   5.642
10177SOL     OW31429   2.082   0.927   2.050
10177SOL    HW131430   2.103   0.835   2.082
10177SOL    HW231431   2.126   0.994   2.110
10178SOL     OW31432   1.357   1.370   0.036
10178SOL    HW131433   1.426   1.440   0.017
10178SOL    HW231434   1.357   1.349   0.134
10179SOL     OW31435   0.229   4.364   1.089
10179SOL    HW131436   0.241   4.446   1.034
10179SOL    HW231437   0.284   4.290   1.051
10180SOL     OW31438   3.321   6.993   5.476
10180SOL    HW131439   3.325   0.069   5.454
10180SOL    HW231440   3.403   6.947   5.443
10181SOL     OW31441   6.955   3.870   1.263
10181SOL    HW131442   6.995   3.809   1.194
10181SOL    HW231443   6.869   3.831   1.296
10182SOL     OW31444   5.104   1.067   0.117
10182SOL    HW131445   5.172   1.000   0.087
10182SOL    HW231446   5.094   1.137   0.046
10183SOL     OW31447   6.274   2.151   6.031
10183SOL    HW131448   6.275   2.058   5.993
10183SOL    HW231449   6.357   2.199   6.002
10184SOL     OW31450   5.866   3.572   6.075
10184SOL    HW131451   5.865   3.472   6.073
10184SOL    HW231452   5.887   3.602   6.168
10185SOL     OW31453   3.691   5.818   2.559
10185SOL    HW131454   3.676   5.882   2.484
10185SOL    HW231455   3.616   5.825   2.625
10186SOL     OW31456   4.859   3.765   6.079
10186SOL    HW131457   4.830   3.710   6.158
10186SOL    HW231458   4.943   3.727   6.041
10187SOL     OW31459   2.730   4.890   6.359
10187SOL    HW131460   2.659   4.919   6.422
10187SOL    HW231461   2.746   4.961   6.290
10188SOL     OW31462   2.768   6.952   0.369
10188SOL    HW131463   2.766   7.006   0.285
10188SOL    HW231464   2.692   6.979   0.428
10189SOL     OW31465   1.025   1.526   6.442
10189SOL    HW131466   1.110   1.545   6.490
10189SOL    HW231467   1.045   1.473   6.359
10190SOL     OW31468   3.270   4.821   1.643
10190SOL    HW131469   3.337   4.754   1.609
10190SOL    HW231470   3.211   4.777   1.711
10191SOL     OW31471   5.454   6.005   6.516
10191SOL    HW131472   5.377   6.059   6.550
10191SOL    HW231473   5.445   5.911   6.548
10192SOL     OW31474   2.305   1.937   4.909
10192SOL    HW131475   2.290   1.915   4.813
10192SOL    HW231476   2.403   1.946   4.926
10193SOL     OW31477   4.034   3.771   3.078
10193SOL    HW131478   4.002   3.852   3.030
10193SOL    HW231479   4.063   3.702   3.012
10194SOL     OW31480   3.688   0.319   4.063
10194SOL    HW131481   3.700   0.263   3.981
10194SOL    HW231482   3.592   0.320   4.089
10195SOL     OW31483   5.199   0.196   2.175
10195SOL    HW131484   5.199   0.139   2.258
10195SOL    HW231485   5.107   0.198   2.136
10196SOL     OW31486   5.472   1.465   3.037
10196SOL    HW131487   5.491   1.545   3.094
10196SOL    HW231488   5.374   1.459   3.019
10197SOL     OW31489   6.317   0.675   2.373
10197SOL    HW131490   6.302   0.604   2.304
10197SOL    HW231491   6.290   0.640   2.462
10198SOL     OW31492   3.113   6.488   1.626
10198SOL    HW131493   3.050   6.452   1.694
10198SOL    HW231494   3.189   6.533   1.672
10199SOL     OW31495   0.915   1.773   6.726
10199SOL    HW131496   0.851   1.729   6.663
10199SOL    HW231497   0.864   1.830   6.790
10200SOL     OW31498   4.906   4.257   5.353
10200SOL    HW131499   4.882   4.275   5.449
10200SOL    HW231500   4.987   4.199   5.349
10201SOL     OW31501   0.919   5.708   2.353
10201SOL    HW131502   0.913   5.787   2.291
10201SOL    HW231503   0.891   5.625   2.304
10202SOL     OW31504   1.023   3.604   1.685
10202SOL    HW131505   0.939   3.570   1.727
10202SOL    HW231506   1.095   3.609   1.755
10203SOL     OW31507   2.146   3.121   2.267
10203SOL    HW131508   2.151   3.030   2.225
10203SOL    HW231509   2.232   3.169   2.254
10204SOL     OW31510   3.129   4.753   5.200
10204SOL    HW131511   3.107   4.818   5.272
10204SOL    HW231512   3.054   4.687   5.190
10205SOL     OW31513   5.695   1.790   3.589
10205SOL    HW131514   5.701   1.775   3.490
10205SOL    HW231515   5.786   1.788   3.629
10206SOL     OW31516   5.960   6.756   6.126
10206SOL    HW131517   5.920   6.671   6.091
10206SOL    HW231518   6.056   6.740   6.150
10207SOL     OW31519   2.809   1.189   2.912
10207SOL    HW131520   2.725   1.181   2.965
10207SOL    HW231521   2.871   1.114   2.936
10208SOL     OW31522   5.642   4.946   5.578
10208SOL    HW131523   5.737   4.974   5.592
10208SOL    HW231524   5.639   4.865   5.521
10209SOL     OW31525   0.005   0.518   6.323
10209SOL    HW131526   0.016   0.601   6.377
10209SOL    HW231527   6.930   0.493   6.319
10210SOL     OW31528   6.027   6.878   2.386
10210SOL    HW131529   6.017   6.852   2.290
10210SOL    HW231530   5.967   6.821   2.442
10211SOL     OW31531   3.936   6.299   5.494
10211SOL    HW131532   3.924   6.290   5.593
10211SOL    HW231533   3.971   6.213   5.457
10212SOL     OW31534   0.733   1.273   3.882
10212SOL    HW131535   0.653   1.278   3.941
10212SOL    HW231536   0.713   1.214   3.804
10213SOL     OW31537   5.783   1.773   3.315
10213SOL    HW131538   5.855   1.843   3.317
10213SOL    HW231539   5.799   1.712   3.237
10214SOL     OW31540   6.278   1.026   2.125
10214SOL    HW131541   6.251   1.008   2.219
10214SOL    HW231542   6.209   1.085   2.082
10215SOL     OW31543   3.738   3.497   6.040
10215SOL    HW131544   3.738   3.399   6.059
10215SOL    HW231545   3.784   3.546   6.114
10216SOL     OW31546   5.935   0.102   1.010
10216SOL    HW131547   5.926   0.140   0.918
10216SOL    HW231548   5.848   0.111   1.059
10217SOL     OW31549   2.793   2.333   3.962
10217SOL    HW131550   2.841   2.324   3.874
10217SOL    HW231551   2.704   2.289   3.956
10218SOL     OW31552   2.112   0.802   0.809
10218SOL    HW131553   2.180   0.792   0.882
10218SOL    HW231554   2.088   0.712   0.773
10219SOL     OW31555   0.465   2.513   1.969
10219SOL    HW131556   0.538   2.464   2.015
10219SOL    HW231557   0.435   2.590   2.026
10220SOL     OW31558   4.363   2.093   1.421
10220SOL    HW131559   4.370   2.184   1.382
10220SOL    HW231560   4.281   2.047   1.385
10221SOL     OW31561   2.979   0.902   5.606
10221SOL    HW131562   3.045   0.827   5.602
10221SOL    HW231563   2.961   0.935   5.513
10222SOL     OW31564   1.562   4.373   5.275
10222SOL    HW131565   1.496   4.318   5.328
10222SOL    HW231566   1.553   4.351   5.178
10223SOL     OW31567   1.631   4.817   6.745
10223SOL    HW131568   1.632   4.844   6.842
10223SOL    HW231569   1.725   4.813   6.711
10224SOL     OW31570   0.846   0.285   4.252
10224SOL    HW131571   0.933   0.327   4.226
10224SOL    HW231572   0.775   0.355   4.252
10225SOL     OW31573   6.795   6.092   4.676
10225SOL    HW131574   6.790   6.022   4.747
10225SOL    HW231575   6.853   6.168   4.707
10226SOL     OW31576   2.688   1.219   6.738
10226SOL    HW131577   2.676   1.255   6.645
10226SOL    HW231578   2.611   1.246   6.795
10227SOL     OW31579   4.628   4.303   0.351
10227SOL    HW131580   4.720   4.290   0.389
10227SOL    HW231581   4.635   4.348   0.262
10228SOL     OW31582   0.573   5.222   2.847
10228SOL    HW131583   0.641   5.157   2.812
10228SOL    HW231584   0.481   5.188   2.827
10229SOL     OW31585   0.835   0.280   3.442
10229SOL    HW131586   0.863   0.189   3.411
10229SOL    HW231587   0.825   0.341   3.363
10230SOL     OW31588   6.209   6.833   3.637
10230SOL    HW131589   6.116   6.870   3.636
10230SOL    HW231590   6.253   6.850   3.549
10231SOL     OW31591   6.098   6.854   4.789
10231SOL    HW131592   6.126   6.772   4.739
10231SOL    HW231593   6.169   6.924   4.781
10232SOL     OW31594   3.550   0.893   4.098
10232SOL    HW131595   3.508   0.977   4.063
10232SOL    HW231596   3.498   0.814   4.065
10233SOL     OW31597   4.107   3.016   5.964
10233SOL    HW131598   4.039   3.076   6.005
10233SOL    HW231599   4.071   2.922   5.962
10234SOL     OW31600   5.069   0.247   0.883
10234SOL    HW131601   4.999   0.277   0.818
10234SOL    HW231602   5.152   0.301   0.870
10235SOL     OW31603   4.769   1.575   7.008
10235SOL    HW131604   4.832   1.525   0.046
10235SOL    HW231605   4.736   1.515   6.936
10236SOL     OW31606   2.213   6.610   1.637
10236SOL    HW131607   2.268   6.681   1.594
10236SOL    HW231608   2.135   6.652   1.684
10237SOL     OW31609   6.484   4.287   2.010
10237SOL    HW131610   6.447   4.331   1.928
10237SOL    HW231611   6.419   4.297   2.085
10238SOL     OW31612   3.751   4.651   5.300
10238SOL    HW131613   3.673   4.592   5.318
10238SOL    HW231614   3.836   4.599   5.311
10239SOL     OW31615   0.365   4.139   5.318
10239SOL    HW131616   0.378   4.100   5.227
10239SOL    HW231617   0.364   4.239   5.311
10240SOL     OW31618   1.191   4.558   2.999
10240SOL    HW131619   1.168   4.467   3.035
10240SOL    HW231620   1.156   4.566   2.906
10241SOL     OW31621   0.660   1.339   2.451
10241SOL    HW131622   0.639   1.339   2.549
10241SOL    HW231623   0.726   1.266   2.431
10242SOL     OW31624   0.063   1.293   5.643
10242SOL    HW131625   7.018   1.228   5.606
10242SOL    HW231626   0.087   1.360   5.573
10243SOL     OW31627   0.536   5.356   1.439
10243SOL    HW131628   0.556   5.446   1.401
10243SOL    HW231629   0.617   5.320   1.485
10244SOL     OW31630   2.521   5.048   7.016
10244SOL    HW131631   2.538   4.959   6.973
10244SOL    HW231632   2.607   5.086   0.027
10245SOL     OW31633   1.561   3.285   6.881
10245SOL    HW131634   1.594   3.379   6.889
10245SOL    HW231635   1.634   3.222   6.906
10246SOL     OW31636   3.023   3.743   4.642
10246SOL    HW131637   2.980   3.743   4.732
10246SOL    HW231638   3.044   3.837   4.615
10247SOL     OW31639   0.143   5.351   5.700
10247SOL    HW131640   0.235   5.316   5.718
10247SOL    HW231641   0.084   5.334   5.779
10248SOL     OW31642   2.986   0.275   2.280
10248SOL    HW131643   2.968   0.178   2.298
10248SOL    HW231644   3.085   0.292   2.283
10249SOL     OW31645   4.503   0.137   5.603
10249SOL    HW131646   4.537   0.045   5.624
10249SOL    HW231647   4.558   0.205   5.652
10250SOL     OW31648   6.261   1.102   1.477
10250SOL    HW131649   6.189   1.059   1.532
10250SOL    HW231650   6.349   1.092   1.524
10251SOL     OW31651   2.742   2.825   6.313
10251SOL    HW131652   2.686   2.893   6.361
10251SOL    HW231653   2.682   2.753   6.278
10252SOL     OW31654   6.228   6.545   0.767
10252SOL    HW131655   6.268   6.578   0.853
10252SOL    HW231656   6.280   6.466   0.734
10253SOL     OW31657   4.651   4.890   0.277
10253SOL    HW131658   4.749   4.907   0.287
10253SOL    HW231659   4.600   4.972   0.303
10254SOL     OW31660   3.042   1.656   5.046
10254SOL    HW131661   3.111   1.720   5.012
10254SOL    HW231662   2.997   1.611   4.969
10255SOL     OW31663   2.012   6.401   1.861
10255SOL    HW131664   2.106   6.371   1.876
10255SOL    HW231665   1.972   6.428   1.949
10256SOL     OW31666   4.949   0.253   0.469
10256SOL    HW131667   5.019   0.322   0.488
10256SOL    HW231668   4.941   0.241   0.370
10257SOL     OW31669   1.260   5.300   5.337
10257SOL    HW131670   1.203   5.380   5.358
10257SOL    HW231671   1.316   5.320   5.257
10258SOL     OW31672   4.777   6.287   3.472
10258SOL    HW131673   4.751   6.382   3.455
10258SOL    HW231674   4.739   6.257   3.560
10259SOL     OW31675   6.880   4.770   4.009
10259SOL    HW131676   6.972   4.734   4.026
10259SOL    HW231677   6.823   4.755   4.090
10260SOL     OW31678   0.778   6.578   3.167
10260SOL    HW131679   0.701   6.530   3.208
10260SOL    HW231680   0.771   6.573   3.067
10261SOL     OW31681   6.880   5.711   2.599
10261SOL    HW131682   6.974   5.720   2.568
10261SOL    HW231683   6.822   5.684   2.522
10262SOL     OW31684   3.382   5.035   4.515
10262SOL    HW131685   3.322   5.045   4.436
10262SOL    HW231686   3.424   5.124   4.536
10263SOL     OW31687   4.976   2.146   0.015
10263SOL    HW131688   5.034   2.088   0.072
10263SOL    HW231689   4.968   2.105   6.946
10264SOL     OW31690   5.823   1.376   6.334
10264SOL    HW131691   5.834   1.280   6.361
10264SOL    HW231692   5.726   1.394   6.318
10265SOL     OW31693   3.391   1.686   3.078
10265SOL    HW131694   3.402   1.587   3.069
10265SOL    HW231695   3.462   1.733   3.025
10266SOL     OW31696   3.825   3.934   6.395
10266SOL    HW131697   3.734   3.895   6.375
10266SOL    HW231698   3.814   4.028   6.429
10267SOL     OW31699   6.778   1.741   0.366
10267SOL    HW131700   6.821   1.713   0.280
10267SOL    HW231701   6.693   1.790   0.346
10268SOL     OW31702   5.576   6.036   1.384
10268SOL    HW131703   5.598   6.078   1.296
10268SOL    HW231704   5.491   5.984   1.376
10269SOL     OW31705   2.543   1.999   5.848
10269SOL    HW131706   2.515   2.014   5.943
10269SOL    HW231707   2.469   2.025   5.787
10270SOL     OW31708   2.092   6.144   0.688
10270SOL    HW131709   2.017   6.121   0.750
10270SOL    HW231710   2.169   6.082   0.705
10271SOL     OW31711   3.363   3.597   0.589
10271SOL    HW131712   3.351   3.595   0.490
10271SOL    HW231713   3.281   3.637   0.631
10272SOL     OW31714   1.273   0.945   4.304
10272SOL    HW131715   1.325   1.005   4.243
10272SOL    HW231716   1.238   0.998   4.381
10273SOL     OW31717   3.510   5.762   4.149
10273SOL    HW131718   3.411   5.758   4.153
10273SOL    HW231719   3.549   5.694   4.212
10274SOL     OW31720   1.483   5.259   5.489
10274SOL    HW131721   1.547   5.335   5.482
10274SOL    HW231722   1.402   5.278   5.433
10275SOL     OW31723   0.883   6.319   3.119
10275SOL    HW131724   0.849   6.234   3.078
10275SOL    HW231725   0.805   6.378   3.142
10276SOL     OW31726   0.016   5.785   6.003
10276SOL    HW131727   0.114   5.765   5.999
10276SOL    HW231728   6.997   5.734   6.079
10277SOL     OW31729   2.760   6.558   3.848
10277SOL    HW131730   2.852   6.596   3.860
10277SOL    HW231731   2.693   6.628   3.872
10278SOL     OW31732   6.707   0.805   6.548
10278SOL    HW131733   6.607   0.802   6.554
10278SOL    HW231734   6.738   0.748   6.472
10279SOL     OW31735   3.297   6.868   4.214
10279SOL    HW131736   3.304   6.783   4.265
10279SOL    HW231737   3.388   6.904   4.196
10280SOL     OW31738   2.124   4.627   0.920
10280SOL    HW131739   2.034   4.634   0.876
10280SOL    HW231740   2.123   4.680   1.004
10281SOL     OW31741   4.694   1.533   3.048
10281SOL    HW131742   4.767   1.522   2.980
10281SOL    HW231743   4.721   1.488   3.133
10282SOL     OW31744   0.423   2.497   3.759
10282SOL    HW131745   0.362   2.420   3.781
10282SOL    HW231746   0.510   2.485   3.806
10283SOL     OW31747   0.939   3.159   1.142
10283SOL    HW131748   0.846   3.129   1.162
10283SOL    HW231749   0.947   3.180   1.044
10284SOL     OW31750   5.290   3.724   4.917
10284SOL    HW131751   5.268   3.743   5.013
10284SOL    HW231752   5.389   3.717   4.907
10285SOL     OW31753   4.850   0.112   1.400
10285SOL    HW131754   4.937   0.070   1.425
10285SOL    HW231755   4.819   0.074   1.312
10286SOL     OW31756   3.665   1.340   2.951
10286SOL    HW131757   3.584   1.348   3.009
10286SOL    HW231758   3.655   1.260   2.891
10287SOL     OW31759   1.261   6.705   1.913
10287SOL    HW131760   1.303   6.717   1.823
10287SOL    HW231761   1.255   6.608   1.935
10288SOL     OW31762   5.061   5.529   3.193
10288SOL    HW131763   4.962   5.540   3.181
10288SOL    HW231764   5.104   5.620   3.194
10289SOL     OW31765   3.194   1.515   1.720
10289SOL    HW131766   3.196   1.469   1.631
10289SOL    HW231767   3.111   1.490   1.769
10290SOL     OW31768   4.111   3.404   2.649
10290SOL    HW131769   4.119   3.357   2.737
10290SOL    HW231770   4.040   3.361   2.595
10291SOL     OW31771   3.741   0.896   3.513
10291SOL    HW131772   3.694   0.959   3.575
10291SOL    HW231773   3.754   0.941   3.424
10292SOL     OW31774   0.293   2.207   5.084
10292SOL    HW131775   0.339   2.224   4.997
10292SOL    HW231776   0.333   2.126   5.127
10293SOL     OW31777   1.760   5.861   2.785
10293SOL    HW131778   1.780   5.827   2.693
10293SOL    HW231779   1.765   5.785   2.850
10294SOL     OW31780   4.975   2.342   2.864
10294SOL    HW131781   4.973   2.276   2.789
10294SOL    HW231782   4.882   2.367   2.890
10295SOL     OW31783   6.740   4.769   5.547
10295SOL    HW131784   6.666   4.705   5.528
10295SOL    HW231785   6.828   4.723   5.536
10296SOL     OW31786   5.885   4.388   5.982
10296SOL    HW131787   5.849   4.481   5.990
10296SOL    HW231788   5.954   4.373   6.053
10297SOL     OW31789   2.374   6.426   4.061
10297SOL    HW131790   2.373   6.518   4.099
10297SOL    HW231791   2.446   6.372   4.103
10298SOL     OW31792   4.973   3.894   3.283
10298SOL    HW131793   4.894   3.955   3.275
10298SOL    HW231794   4.943   3.807   3.323
10299SOL     OW31795   4.756   4.042   3.247
10299SOL    HW131796   4.815   4.123   3.256
10299SOL    HW231797   4.668   4.060   3.290
10300SOL     OW31798   1.522   3.320   1.541
10300SOL    HW131799   1.506   3.359   1.450
10300SOL    HW231800   1.556   3.392   1.603
10301SOL     OW31801   5.836   1.419   3.611
10301SOL    HW131802   5.877   1.498   3.567
10301SOL    HW231803   5.823   1.346   3.544
10302SOL     OW31804   1.426   6.495   2.852
10302SOL    HW131805   1.470   6.468   2.938
10302SOL    HW231806   1.360   6.567   2.869
10303SOL     OW31807   3.669   3.560   1.922
10303SOL    HW131808   3.675   3.645   1.870
10303SOL    HW231809   3.756   3.510   1.915
10304SOL     OW31810   6.803   6.619   3.915
10304SOL    HW131811   6.815   6.538   3.973
10304SOL    HW231812   6.706   6.640   3.906
10305SOL     OW31813   1.912   5.686   0.037
10305SOL    HW131814   1.898   5.753   0.109
10305SOL    HW231815   1.982   5.720   6.995
10306SOL     OW31816   4.554   5.791   0.108
10306SOL    HW131817   4.472   5.736   0.096
10306SOL    HW231818   4.623   5.739   0.158
10307SOL     OW31819   1.378   0.737   5.400
10307SOL    HW131820   1.470   0.703   5.418
10307SOL    HW231821   1.325   0.735   5.484
10308SOL     OW31822   3.268   5.164   3.264
10308SOL    HW131823   3.356   5.204   3.289
10308SOL    HW231824   3.216   5.144   3.347
10309SOL     OW31825   5.697   6.427   3.165
10309SOL    HW131826   5.786   6.431   3.210
10309SOL    HW231827   5.660   6.334   3.172
10310SOL     OW31828   2.951   3.787   2.412
10310SOL    HW131829   2.901   3.705   2.441
10310SOL    HW231830   2.994   3.770   2.324
10311SOL     OW31831   0.350   5.983   0.835
10311SOL    HW131832   0.412   5.912   0.867
10311SOL    HW231833   0.366   6.067   0.887
10312SOL     OW31834   3.701   4.839   0.703
10312SOL    HW131835   3.640   4.909   0.739
10312SOL    HW231836   3.781   4.883   0.660
10313SOL     OW31837   4.854   0.110   2.433
10313SOL    HW131838   4.774   0.060   2.466
10313SOL    HW231839   4.838   0.208   2.440
10314SOL     OW31840   6.382   0.417   0.837
10314SOL    HW131841   6.429   0.386   0.754
10314SOL    HW231842   6.319   0.345   0.868
10315SOL     OW31843   6.670   6.110   5.701
10315SOL    HW131844   6.726   6.161   5.636
10315SOL    HW231845   6.574   6.111   5.670
10316SOL     OW31846   0.086   3.623   4.841
10316SOL    HW131847   0.138   3.543   4.867
10316SOL    HW231848   7.020   3.595   4.801
10317SOL     OW31849   4.058   5.096   6.170
10317SOL    HW131850   3.994   5.160   6.129
10317SOL    HW231851   4.016   5.005   6.174
10318SOL     OW31852   6.359   5.092   1.090
10318SOL    HW131853   6.405   5.008   1.060
10318SOL    HW231854   6.366   5.162   1.019
10319SOL     OW31855   0.333   4.562   3.801
10319SOL    HW131856   0.290   4.472   3.809
10319SOL    HW231857   0.285   4.615   3.732
10320SOL     OW31858   0.843   6.273   0.703
10320SOL    HW131859   0.900   6.310   0.631
10320SOL    HW231860   0.751   6.311   0.697
10321SOL     OW31861   4.610   5.859   4.631
10321SOL    HW131862   4.544   5.929   4.661
10321SOL    HW231863   4.700   5.902   4.618
10322SOL     OW31864   6.547   5.424   0.975
10322SOL    HW131865   6.483   5.481   1.027
10322SOL    HW231866   6.615   5.483   0.931
10323SOL     OW31867   6.039   3.132   6.304
10323SOL    HW131868   6.113   3.198   6.305
10323SOL    HW231869   6.045   3.074   6.385
10324SOL     OW31870   3.055   3.121   3.986
10324SOL    HW131871   3.117   3.085   3.917
10324SOL    HW231872   2.966   3.139   3.946
10325SOL     OW31873   6.750   3.514   3.351
10325SOL    HW131874   6.735   3.604   3.310
10325SOL    HW231875   6.842   3.482   3.328
10326SOL     OW31876   4.892   3.072   0.011
10326SOL    HW131877   4.905   3.061   6.934
10326SOL    HW231878   4.962   3.133   0.048
10327SOL     OW31879   1.250   1.210   2.976
10327SOL    HW131880   1.234   1.127   3.030
10327SOL    HW231881   1.342   1.208   2.938
10328SOL     OW31882   6.266   3.559   2.424
10328SOL    HW131883   6.212   3.501   2.484
10328SOL    HW231884   6.305   3.635   2.477
10329SOL     OW31885   3.358   0.729   2.868
10329SOL    HW131886   3.330   0.683   2.784
10329SOL    HW231887   3.312   0.817   2.875
10330SOL     OW31888   3.492   5.357   2.635
10330SOL    HW131889   3.509   5.325   2.728
10330SOL    HW231890   3.554   5.432   2.613
10331SOL     OW31891   5.399   0.541   3.782
10331SOL    HW131892   5.475   0.479   3.768
10331SOL    HW231893   5.414   0.594   3.865
10332SOL     OW31894   0.116   2.020   0.550
10332SOL    HW131895   0.185   2.020   0.623
10332SOL    HW231896   0.048   2.091   0.569
10333SOL     OW31897   5.777   5.047   4.652
10333SOL    HW131898   5.835   5.039   4.571
10333SOL    HW231899   5.827   5.098   4.723
10334SOL     OW31900   2.094   5.004   4.380
10334SOL    HW131901   2.179   4.952   4.392
10334SOL    HW231902   2.072   5.051   4.466
10335SOL     OW31903   2.617   5.471   0.312
10335SOL    HW131904   2.538   5.480   0.251
10335SOL    HW231905   2.612   5.385   0.362
10336SOL     OW31906   4.478   6.930   2.023
10336SOL    HW131907   4.507   6.951   2.116
10336SOL    HW231908   4.539   6.976   1.958
10337SOL     OW31909   0.131   5.216   4.792
10337SOL    HW131910   0.150   5.290   4.727
10337SOL    HW231911   0.173   5.132   4.760
10338SOL     OW31912   3.080   6.688   2.060
10338SOL    HW131913   3.165   6.640   2.042
10338SOL    HW231914   3.080   6.775   2.011
10339SOL     OW31915   2.961   5.917   1.119
10339SOL    HW131916   3.037   5.965   1.163
10339SOL    HW231917   2.903   5.876   1.189
10340SOL     OW31918   2.424   6.083   0.197
10340SOL    HW131919   2.348   6.146   0.180
10340SOL    HW231920   2.407   6.034   0.283
10341SOL     OW31921   2.009   1.931   2.052
10341SOL    HW131922   2.034   1.967   1.962
10341SOL    HW231923   2.054   1.986   2.123
10342SOL     OW31924   2.295   0.142   5.614
10342SOL    HW131925   2.349   0.075   5.563
10342SOL    HW231926   2.339   0.232   5.608
10343SOL     OW31927   2.750   3.858   6.140
10343SOL    HW131928   2.785   3.856   6.233
10343SOL    HW231929   2.741   3.952   6.109
10344SOL     OW31930   4.223   3.602   5.024
10344SOL    HW131931   4.161   3.653   4.963
10344SOL    HW231932   4.305   3.657   5.041
10345SOL     OW31933   2.361   1.565   6.796
10345SOL    HW131934   2.435   1.507   6.830
10345SOL    HW231935   2.339   1.539   6.702
10346SOL     OW31936   5.217   6.912   0.015
10346SOL    HW131937   5.214   7.001   0.060
10346SOL    HW231938   5.187   6.921   6.942
10347SOL     OW31939   5.545   2.024   1.340
10347SOL    HW131940   5.639   2.057   1.352
10347SOL    HW231941   5.484   2.101   1.322
10348SOL     OW31942   5.972   1.199   6.726
10348SOL    HW131943   5.947   1.294   6.712
10348SOL    HW231944   5.942   1.145   6.648
10349SOL     OW31945   6.252   1.264   1.061
10349SOL    HW131946   6.188   1.265   1.137
10349SOL    HW231947   6.303   1.178   1.061
10350SOL     OW31948   3.247   5.774   4.221
10350SOL    HW131949   3.154   5.805   4.202
10350SOL    HW231950   3.265   5.780   4.319
10351SOL     OW31951   5.991   5.558   5.364
10351SOL    HW131952   6.050   5.499   5.418
10351SOL    HW231953   6.036   5.579   5.277
10352SOL     OW31954   5.433   1.733   6.902
10352SOL    HW131955   5.472   1.798   6.968
10352SOL    HW231956   5.364   1.676   6.947
10353SOL     OW31957   0.754   2.873   3.169
10353SOL    HW131958   0.725   2.958   3.125
10353SOL    HW231959   0.743   2.881   3.268
10354SOL     OW31960   0.039   3.767   0.443
10354SOL    HW131961   0.079   3.783   0.533
10354SOL    HW231962   0.037   3.854   0.392
10355SOL     OW31963   1.490   0.694   0.665
10355SOL    HW131964   1.400   0.735   0.682
10355SOL    HW231965   1.562   0.760   0.688
10356SOL     OW31966   6.631   3.597   0.105
10356SOL    HW131967   6.608   3.546   0.188
10356SOL    HW231968   6.622   3.695   0.123
10357SOL     OW31969   1.407   2.422   6.745
10357SOL    HW131970   1.320   2.381   6.773
10357SOL    HW231971   1.397   2.463   6.654
10358SOL     OW31972   1.156   2.566   2.810
10358SOL    HW131973   1.252   2.541   2.796
10358SOL    HW231974   1.147   2.616   2.896
10359SOL     OW31975   5.177   1.744   2.813
10359SOL    HW131976   5.095   1.800   2.822
10359SOL    HW231977   5.253   1.800   2.781
10360SOL     OW31978   5.242   5.332   3.123
10360SOL    HW131979   5.251   5.333   3.024
10360SOL    HW231980   5.171   5.397   3.151
10361SOL     OW31981   1.460   1.358   1.820
10361SOL    HW131982   1.377   1.322   1.776
10361SOL    HW231983   1.535   1.359   1.753
10362SOL     OW31984   0.838   4.907   1.847
10362SOL    HW131985   0.820   4.983   1.785
10362SOL    HW231986   0.929   4.870   1.829
10363SOL     OW31987   5.058   3.145   0.828
10363SOL    HW131988   5.022   3.053   0.844
10363SOL    HW231989   5.146   3.154   0.875
10364SOL     OW31990   5.140   4.925   1.349
10364SOL    HW131991   5.167   5.020   1.365
10364SOL    HW231992   5.100   4.916   1.258
10365SOL     OW31993   5.881   5.283   0.599
10365SOL    HW131994   5.918   5.361   0.549
10365SOL    HW231995   5.904   5.291   0.696
10366SOL     OW31996   3.804   6.658   3.166
10366SOL    HW131997   3.848   6.737   3.124
10366SOL    HW231998   3.710   6.651   3.134
10367SOL     OW31999   6.174   1.549   1.382
10367SOL    HW132000   6.210   1.496   1.460
10367SOL    HW232001   6.245   1.611   1.348
10368SOL     OW32002   1.984   0.525   1.726
10368SOL    HW132003   1.889   0.498   1.741
10368SOL    HW232004   2.003   0.608   1.779
10369SOL     OW32005   2.917   6.504   4.872
10369SOL    HW132006   2.882   6.539   4.785
10369SOL    HW232007   2.914   6.404   4.871
10370SOL     OW32008   0.264   2.014   4.461
10370SOL    HW132009   0.340   2.074   4.439
10370SOL    HW232010   0.293   1.947   4.530
10371SOL     OW32011   3.417   6.032   3.322
10371SOL    HW132012   3.441   6.127   3.302
10371SOL    HW232013   3.320   6.026   3.343
10372SOL     OW32014   2.622   0.473   1.572
10372SOL    HW132015   2.699   0.522   1.530
10372SOL    HW232016   2.554   0.540   1.603
10373SOL     OW32017   6.857   1.692   5.848
10373SOL    HW132018   6.842   1.722   5.754
10373SOL    HW232019   6.949   1.652   5.856
10374SOL     OW32020   3.342   6.857   4.737
10374SOL    HW132021   3.414   6.802   4.695
10374SOL    HW232022   3.253   6.818   4.714
10375SOL     OW32023   3.651   2.847   6.927
10375SOL    HW132024   3.642   2.748   6.914
10375SOL    HW232025   3.580   2.894   6.874
10376SOL     OW32026   1.453   6.061   2.871
10376SOL    HW132027   1.456   6.156   2.841
10376SOL    HW232028   1.534   6.040   2.924
10377SOL     OW32029   0.347   1.546   1.846
10377SOL    HW132030   0.352   1.630   1.791
10377SOL    HW232031   0.430   1.492   1.830
10378SOL     OW32032   0.033   5.550   5.202
10378SOL    HW132033   0.100   5.476   5.212
10378SOL    HW232034   6.963   5.513   5.215
10379SOL     OW32035   2.550   6.747   3.896
10379SOL    HW132036   2.461   6.751   3.942
10379SOL    HW232037   2.577   6.840   3.869
10380SOL     OW32038   1.651   2.692   4.674
10380SOL    HW132039   1.569   2.635   4.669
10380SOL    HW232040   1.651   2.757   4.597
10381SOL     OW32041   4.224   4.350   1.654
10381SOL    HW132042   4.275   4.302   1.726
10381SOL    HW232043   4.232   4.300   1.568
10382SOL     OW32044   3.123   4.923   2.070
10382SOL    HW132045   3.218   4.929   2.102
10382SOL    HW232046   3.067   4.880   2.140
10383SOL     OW32047   1.666   4.881   7.010
10383SOL    HW132048   1.645   4.936   0.069
10383SOL    HW232049   1.739   4.816   0.010
10384SOL     OW32050   6.334   6.260   0.935
10384SOL    HW132051   6.380   6.177   0.967
10384SOL    HW232052   6.365   6.281   0.842
10385SOL     OW32053   3.275   5.260   6.110
10385SOL    HW132054   3.284   5.178   6.168
10385SOL    HW232055   3.194   5.311   6.139
10386SOL     OW32056   0.146   0.997   6.628
10386SOL    HW132057   0.217   0.928   6.644
10386SOL    HW232058   0.056   0.957   6.645
10387SOL     OW32059   5.067   2.659   3.306
10387SOL    HW132060   5.045   2.716   3.385
10387SOL    HW232061   5.020   2.571   3.314
10388SOL     OW32062   2.874   0.589   5.826
10388SOL    HW132063   2.814   0.549   5.895
10388SOL    HW232064   2.821   0.654   5.771
10389SOL     OW32065   6.521   3.858   0.160
10389SOL    HW132066   6.520   3.841   0.258
10389SOL    HW232067   6.427   3.871   0.127
10390SOL     OW32068   2.108   2.065   0.775
10390SOL    HW132069   2.120   2.161   0.750
10390SOL    HW232070   2.193   2.015   0.758
10391SOL     OW32071   0.749   5.830   3.472
10391SOL    HW132072   0.686   5.907   3.465
10391SOL    HW232073   0.817   5.836   3.400
10392SOL     OW32074   6.823   5.136   4.923
10392SOL    HW132075   6.768   5.217   4.907
10392SOL    HW232076   6.894   5.129   4.852
10393SOL     OW32077   2.078   3.891   4.323
10393SOL    HW132078   2.089   3.822   4.395
10393SOL    HW232079   2.135   3.866   4.245
10394SOL     OW32080   2.821   6.133   4.084
10394SOL    HW132081   2.905   6.138   4.031
10394SOL    HW232082   2.840   6.157   4.180
10395SOL     OW32083   0.210   6.588   1.650
10395SOL    HW132084   0.122   6.631   1.670
10395SOL    HW232085   0.280   6.624   1.711
10396SOL     OW32086   3.538   1.963   4.117
10396SOL    HW132087   3.601   1.936   4.044
10396SOL    HW232088   3.491   2.047   4.092
10397SOL     OW32089   3.261   2.048   3.110
10397SOL    HW132090   3.277   1.988   3.188
10397SOL    HW232091   3.348   2.067   3.064
10398SOL     OW32092   6.781   2.973   0.875
10398SOL    HW132093   6.776   2.913   0.955
10398SOL    HW232094   6.853   3.041   0.888
10399SOL     OW32095   5.359   2.304   3.087
10399SOL    HW132096   5.386   2.217   3.127
10399SOL    HW232097   5.441   2.355   3.061
10400SOL     OW32098   3.987   6.957   0.235
10400SOL    HW132099   3.986   6.976   0.334
10400SOL    HW232100   3.894   6.961   0.199
10401SOL     OW32101   6.059   0.836   3.954
10401SOL    HW132102   6.063   0.898   3.876
10401SOL    HW232103   6.056   0.741   3.923
10402SOL     OW32104   6.403   3.200   5.128
10402SOL    HW132105   6.412   3.101   5.144
10402SOL    HW232106   6.493   3.243   5.134
10403SOL     OW32107   3.844   1.237   3.637
10403SOL    HW132108   3.930   1.278   3.668
10403SOL    HW232109   3.807   1.291   3.562
10404SOL     OW32110   6.503   6.725   5.136
10404SOL    HW132111   6.559   6.805   5.156
10404SOL    HW232112   6.529   6.687   5.047
10405SOL     OW32113   0.240   1.922   5.575
10405SOL    HW132114   0.248   1.837   5.628
10405SOL    HW232115   0.194   1.991   5.631
10406SOL     OW32116   2.901   5.280   2.562
10406SOL    HW132117   2.819   5.336   2.554
10406SOL    HW232118   2.977   5.336   2.596
10407SOL     OW32119   3.485   6.604   5.882
10407SOL    HW132120   3.496   6.665   5.960
10407SOL    HW232121   3.548   6.632   5.809
10408SOL     OW32122   4.705   0.076   0.923
10408SOL    HW132123   4.746   0.069   1.013
10408SOL    HW232124   4.752   0.014   0.860
10409SOL     OW32125   0.325   4.709   1.125
10409SOL    HW132126   0.378   4.656   1.191
10409SOL    HW232127   0.358   4.691   1.033
10410SOL     OW32128   5.070   1.328   0.028
10410SOL    HW132129   4.997   1.363   0.087
10410SOL    HW232130   5.159   1.357   0.063
10411SOL     OW32131   3.954   6.621   3.657
10411SOL    HW132132   3.917   6.606   3.565
10411SOL    HW232133   4.000   6.538   3.688
10412SOL     OW32134   6.965   0.851   0.650
10412SOL    HW132135   6.957   0.946   0.679
10412SOL    HW232136   6.874   0.809   0.648
10413SOL     OW32137   6.064   2.752   0.761
10413SOL    HW132138   6.112   2.808   0.692
10413SOL    HW232139   6.130   2.721   0.830
10414SOL     OW32140   3.937   4.166   5.471
10414SOL    HW132141   3.841   4.186   5.452
10414SOL    HW232142   3.993   4.194   5.394
10415SOL     OW32143   0.254   3.842   4.252
10415SOL    HW132144   0.220   3.869   4.162
10415SOL    HW232145   0.276   3.924   4.305
10416SOL     OW32146   6.549   0.711   3.762
10416SOL    HW132147   6.459   0.701   3.718
10416SOL    HW232148   6.619   0.724   3.692
10417SOL     OW32149   3.591   5.168   4.294
10417SOL    HW132150   3.507   5.222   4.289
10417SOL    HW232151   3.573   5.085   4.349
10418SOL     OW32152   0.224   4.730   6.490
10418SOL    HW132153   0.235   4.656   6.557
10418SOL    HW232154   0.174   4.806   6.533
10419SOL     OW32155   0.996   0.044   6.396
10419SOL    HW132156   0.995   0.069   6.300
10419SOL    HW232157   0.975   0.125   6.452
10420SOL     OW32158   0.160   3.896   2.903
10420SOL    HW132159   0.254   3.906   2.871
10420SOL    HW232160   0.153   3.816   2.962
10421SOL     OW32161   6.889   1.773   3.736
10421SOL    HW132162   6.945   1.854   3.721
10421SOL    HW232163   6.889   1.717   3.653
10422SOL     OW32164   6.008   3.105   5.677
10422SOL    HW132165   6.023   3.143   5.586
10422SOL    HW232166   6.007   3.179   5.744
10423SOL     OW32167   5.258   5.014   4.591
10423SOL    HW132168   5.242   4.985   4.685
10423SOL    HW232169   5.338   4.967   4.555
10424SOL     OW32170   6.010   3.010   0.512
10424SOL    HW132171   5.953   2.932   0.489
10424SOL    HW232172   6.035   3.060   0.429
10425SOL     OW32173   1.465   0.018   2.079
10425SOL    HW132174   1.387   0.002   2.018
10425SOL    HW232175   1.432   0.057   2.165
10426SOL     OW32176   0.105   4.721   0.758
10426SOL    HW132177   0.169   4.791   0.728
10426SOL    HW232178   0.019   4.765   0.787
10427SOL     OW32179   3.533   0.985   6.882
10427SOL    HW132180   3.576   1.075   6.876
10427SOL    HW232181   3.446   0.993   6.931
10428SOL     OW32182   2.880   1.295   3.902
10428SOL    HW132183   2.963   1.270   3.853
10428SOL    HW232184   2.892   1.383   3.947
10429SOL     OW32185   0.075   5.356   0.904
10429SOL    HW132186   0.164   5.375   0.861
10429SOL    HW232187   0.050   5.432   0.963
10430SOL     OW32188   4.330   6.416   3.555
10430SOL    HW132189   4.387   6.408   3.636
10430SOL    HW232190   4.236   6.388   3.576
10431SOL     OW32191   3.302   5.808   4.471
10431SOL    HW132192   3.293   5.727   4.530
10431SOL    HW232193   3.369   5.871   4.510
10432SOL     OW32194   6.128   6.959   4.425
10432SOL    HW132195   6.046   6.961   4.481
10432SOL    HW232196   6.128   6.877   4.368
10433SOL     OW32197   1.544   0.104   1.336
10433SOL    HW132198   1.619   0.108   1.269
10433SOL    HW232199   1.467   0.055   1.296
10434SOL     OW32200   3.995   0.233   3.474
10434SOL    HW132201   4.003   0.136   3.500
10434SOL    HW232202   4.084   0.267   3.445
10435SOL     OW32203   6.510   6.983   4.640
10435SOL    HW132204   6.506   0.058   4.664
10435SOL    HW232205   6.460   6.967   4.555
10436SOL     OW32206   0.868   4.890   5.957
10436SOL    HW132207   0.817   4.935   5.883
10436SOL    HW232208   0.910   4.806   5.922
10437SOL     OW32209   6.036   4.818   5.734
10437SOL    HW132210   6.058   4.914   5.750
10437SOL    HW232211   6.113   4.761   5.765
10438SOL     OW32212   5.801   6.008   0.365
10438SOL    HW132213   5.879   5.945   0.373
10438SOL    HW232214   5.738   5.992   0.441
10439SOL     OW32215   3.995   1.412   6.038
10439SOL    HW132216   3.931   1.336   6.049
10439SOL    HW232217   3.982   1.453   5.948
10440SOL     OW32218   1.945   6.425   0.338
10440SOL    HW132219   2.038   6.448   0.309
10440SOL    HW232220   1.947   6.390   0.432
10441SOL     OW32221   4.459   1.510   0.001
10441SOL    HW132222   4.379   1.466   0.043
10441SOL    HW232223   4.533   1.444   7.016
10442SOL     OW32224   3.632   6.320   5.941
10442SOL    HW132225   3.537   6.301   5.916
10442SOL    HW232226   3.665   6.399   5.889
10443SOL     OW32227   4.910   3.952   4.876
10443SOL    HW132228   4.920   3.875   4.814
10443SOL    HW232229   4.858   4.025   4.832
10444SOL     OW32230   3.929   6.240   4.448
10444SOL    HW132231   3.908   6.335   4.472
10444SOL    HW232232   3.843   6.189   4.440
10445SOL     OW32233   0.852   5.555   4.123
10445SOL    HW132234   0.768   5.549   4.178
10445SOL    HW232235   0.926   5.592   4.179
10446SOL     OW32236   1.080   3.183   5.956
10446SOL    HW132237   1.156   3.118   5.947
10446SOL    HW232238   1.101   3.247   6.031
10447SOL     OW32239   6.420   1.608   1.933
10447SOL    HW132240   6.481   1.531   1.950
10447SOL    HW232241   6.437   1.680   2.000
10448SOL     OW32242   4.056   2.531   1.515
10448SOL    HW132243   3.995   2.497   1.587
10448SOL    HW232244   4.062   2.631   1.521
10449SOL     OW32245   2.449   5.434   4.654
10449SOL    HW132246   2.452   5.459   4.751
10449SOL    HW232247   2.468   5.515   4.598
10450SOL     OW32248   0.516   2.293   0.543
10450SOL    HW132249   0.460   2.243   0.476
10450SOL    HW232250   0.548   2.379   0.501
10451SOL     OW32251   1.881   5.057   3.040
10451SOL    HW132252   1.800   5.069   3.097
10451SOL    HW232253   1.920   4.966   3.057
10452SOL     OW32254   5.983   3.486   3.522
10452SOL    HW132255   6.051   3.528   3.581
10452SOL    HW232256   5.965   3.392   3.552
10453SOL     OW32257   5.437   5.999   1.728
10453SOL    HW132258   5.454   5.968   1.822
10453SOL    HW232259   5.374   6.077   1.730
10454SOL     OW32260   5.108   2.742   1.242
10454SOL    HW132261   5.145   2.691   1.320
10454SOL    HW232262   5.176   2.808   1.210
10455SOL     OW32263   0.034   4.813   2.574
10455SOL    HW132264   0.121   4.815   2.622
10455SOL    HW232265   0.048   4.836   2.478
10456SOL     OW32266   3.238   5.974   1.786
10456SOL    HW132267   3.205   6.066   1.764
10456SOL    HW232268   3.235   5.961   1.885
10457SOL     OW32269   3.714   2.904   3.031
10457SOL    HW132270   3.730   2.808   3.011
10457SOL    HW232271   3.793   2.958   3.003
10458SOL     OW32272   0.258   0.508   0.038
10458SOL    HW132273   0.185   0.566   0.003
10458SOL    HW232274   0.227   0.462   0.121
10459SOL     OW32275   5.243   5.283   2.857
10459SOL    HW132276   5.212   5.352   2.792
10459SOL    HW232277   5.224   5.191   2.821
10460SOL     OW32278   2.176   5.801   1.192
10460SOL    HW132279   2.201   5.833   1.101
10460SOL    HW232280   2.188   5.875   1.258
10461SOL     OW32281   1.305   6.008   5.476
10461SOL    HW132282   1.230   6.051   5.426
10461SOL    HW232283   1.293   5.908   5.473
10462SOL     OW32284   5.162   1.862   2.478
10462SOL    HW132285   5.197   1.937   2.422
10462SOL    HW232286   5.105   1.803   2.422
10463SOL     OW32287   3.658   3.253   5.722
10463SOL    HW132288   3.677   3.349   5.743
10463SOL    HW232289   3.710   3.194   5.785
10464SOL     OW32290   5.399   0.244   0.597
10464SOL    HW132291   5.481   0.253   0.653
10464SOL    HW232292   5.405   0.159   0.543
10465SOL     OW32293   6.356   6.951   0.630
10465SOL    HW132294   6.350   0.006   0.567
10465SOL    HW232295   6.281   6.957   0.696
10466SOL     OW32296   4.164   4.997   5.166
10466SOL    HW132297   4.247   4.953   5.133
10466SOL    HW232298   4.091   4.929   5.173
10467SOL     OW32299   1.192   2.045   5.528
10467SOL    HW132300   1.198   2.145   5.520
10467SOL    HW232301   1.283   2.006   5.516
10468SOL     OW32302   3.197   5.742   3.395
10468SOL    HW132303   3.247   5.782   3.472
10468SOL    HW232304   3.107   5.786   3.388
10469SOL     OW32305   3.685   3.722   0.631
10469SOL    HW132306   3.662   3.721   0.533
10469SOL    HW232307   3.601   3.726   0.685
10470SOL     OW32308   2.155   1.934   2.482
10470SOL    HW132309   2.209   2.008   2.521
10470SOL    HW232310   2.070   1.924   2.533
10471SOL     OW32311   2.377   3.416   1.136
10471SOL    HW132312   2.396   3.437   1.232
10471SOL    HW232313   2.396   3.497   1.081
10472SOL     OW32314   3.425   6.136   1.508
10472SOL    HW132315   3.414   6.096   1.417
10472SOL    HW232316   3.514   6.110   1.546
10473SOL     OW32317   5.360   0.065   0.844
10473SOL    HW132318   5.368   0.127   0.766
10473SOL    HW232319   5.273   0.017   0.840
10474SOL     OW32320   4.881   0.710   4.593
10474SOL    HW132321   4.806   0.771   4.619
10474SOL    HW232322   4.926   0.746   4.511
10475SOL     OW32323   5.067   6.761   1.517
10475SOL    HW132324   5.106   6.740   1.428
10475SOL    HW232325   5.067   6.860   1.531
10476SOL     OW32326   0.152   5.473   6.448
10476SOL    HW132327   0.153   5.556   6.503
10476SOL    HW232328   0.076   5.414   6.478
10477SOL     OW32329   5.939   2.978   5.021
10477SOL    HW132330   5.883   3.017   4.948
10477SOL    HW232331   5.923   2.880   5.027
10478SOL     OW32332   0.534   0.483   0.036
10478SOL    HW132333   0.437   0.466   0.018
10478SOL    HW232334   0.589   0.449   6.982
10479SOL     OW32335   1.117   2.289   1.418
10479SOL    HW132336   1.087   2.258   1.328
10479SOL    HW232337   1.048   2.264   1.486
10480SOL     OW32338   5.519   0.448   1.072
10480SOL    HW132339   5.423   0.448   1.043
10480SOL    HW232340   5.550   0.543   1.082
10481SOL     OW32341   3.075   1.121   4.773
10481SOL    HW132342   3.033   1.058   4.708
10481SOL    HW232343   3.088   1.075   4.860
10482SOL     OW32344   0.853   5.884   4.205
10482SOL    HW132345   0.873   5.801   4.256
10482SOL    HW232346   0.912   5.959   4.237
10483SOL     OW32347   6.779   5.154   0.248
10483SOL    HW132348   6.797   5.153   0.346
10483SOL    HW232349   6.681   5.146   0.232
10484SOL     OW32350   6.969   0.155   0.622
10484SOL    HW132351   6.971   0.117   0.529
10484SOL    HW232352   6.953   0.081   0.688
10485SOL     OW32353   3.785   3.667   3.123
10485SOL    HW132354   3.876   3.708   3.131
10485SOL    HW232355   3.719   3.737   3.099
10486SOL     OW32356   5.887   0.534   6.132
10486SOL    HW132357   5.853   0.623   6.103
10486SOL    HW232358   5.835   0.503   6.212
10487SOL     OW32359   4.552   1.684   1.405
10487SOL    HW132360   4.600   1.722   1.484
10487SOL    HW232361   4.474   1.630   1.437
10488SOL     OW32362   1.409   2.119   5.868
10488SOL    HW132363   1.345   2.044   5.852
10488SOL    HW232364   1.488   2.107   5.808
10489SOL     OW32365   5.755   5.582   3.695
10489SOL    HW132366   5.841   5.630   3.682
10489SOL    HW232367   5.701   5.628   3.766
10490SOL     OW32368   5.837   0.233   0.426
10490SOL    HW132369   5.889   0.249   0.343
10490SOL    HW232370   5.856   0.306   0.492
10491SOL     OW32371   1.757   2.882   6.408
10491SOL    HW132372   1.738   2.940   6.329
10491SOL    HW232373   1.704   2.915   6.487
10492SOL     OW32374   3.556   6.225   0.562
10492SOL    HW132375   3.537   6.238   0.659
10492SOL    HW232376   3.504   6.292   0.509
10493SOL     OW32377   3.778   5.576   0.796
10493SOL    HW132378   3.696   5.599   0.848
10493SOL    HW232379   3.816   5.490   0.829
10494SOL     OW32380   0.618   5.135   5.990
10494SOL    HW132381   0.585   5.052   5.943
10494SOL    HW232382   0.575   5.143   6.079
10495SOL     OW32383   6.539   6.014   0.120
10495SOL    HW132384   6.489   5.935   0.155
10495SOL    HW232385   6.553   6.080   0.194
10496SOL     OW32386   6.786   3.957   5.133
10496SOL    HW132387   6.713   4.006   5.181
10496SOL    HW232388   6.830   4.018   5.068
10497SOL     OW32389   1.185   0.104   1.714
10497SOL    HW132390   1.111   0.084   1.649
10497SOL    HW232391   1.256   0.157   1.668
10498SOL     OW32392   5.163   6.216   1.219
10498SOL    HW132393   5.232   6.144   1.229
10498SOL    HW232394   5.204   6.304   1.242
10499SOL     OW32395   6.078   5.802   1.171
10499SOL    HW132396   6.076   5.713   1.216
10499SOL    HW232397   5.987   5.824   1.137
10500SOL     OW32398   5.107   3.522   4.810
10500SOL    HW132399   5.070   3.475   4.891
10500SOL    HW232400   5.179   3.585   4.839
10501SOL     OW32401   2.254   5.802   2.444
10501SOL    HW132402   2.222   5.815   2.538
10501SOL    HW232403   2.231   5.709   2.414
10502SOL     OW32404   2.945   3.331   1.353
10502SOL    HW132405   2.982   3.383   1.430
10502SOL    HW232406   3.003   3.342   1.273
10503SOL     OW32407   6.704   4.004   6.465
10503SOL    HW132408   6.705   4.102   6.449
10503SOL    HW232409   6.639   3.961   6.402
10504SOL     OW32410   1.103   2.814   6.265
10504SOL    HW132411   1.007   2.794   6.285
10504SOL    HW232412   1.149   2.730   6.237
10505SOL     OW32413   6.101   5.845   2.143
10505SOL    HW132414   6.105   5.920   2.208
10505SOL    HW232415   6.180   5.784   2.157
10506SOL     OW32416   0.892   3.676   0.366
10506SOL    HW132417   0.862   3.620   0.288
10506SOL    HW232418   0.990   3.663   0.380
10507SOL     OW32419   2.737   4.775   0.120
10507SOL    HW132420   2.736   4.767   0.021
10507SOL    HW232421   2.801   4.709   0.159
10508SOL     OW32422   1.539   5.181   3.767
10508SOL    HW132423   1.572   5.134   3.685
10508SOL    HW232424   1.582   5.270   3.774
10509SOL     OW32425   5.275   3.579   4.447
10509SOL    HW132426   5.310   3.662   4.491
10509SOL    HW232427   5.187   3.599   4.404
10510SOL     OW32428   5.206   6.400   5.614
10510SOL    HW132429   5.173   6.365   5.527
10510SOL    HW232430   5.133   6.451   5.660
10511SOL     OW32431   3.320   1.164   2.034
10511SOL    HW132432   3.236   1.175   2.087
10511SOL    HW232433   3.361   1.253   2.018
10512SOL     OW32434   4.512   6.739   6.025
10512SOL    HW132435   4.453   6.809   6.066
10512SOL    HW232436   4.575   6.705   6.094
10513SOL     OW32437   6.449   2.668   2.338
10513SOL    HW132438   6.425   2.573   2.356
10513SOL    HW232439   6.459   2.718   2.424
10514SOL     OW32440   1.981   1.954   0.994
10514SOL    HW132441   2.050   2.021   0.965
10514SOL    HW232442   2.012   1.907   1.077
10515SOL     OW32443   2.544   2.206   3.894
10515SOL    HW132444   2.561   2.153   3.977
10515SOL    HW232445   2.449   2.237   3.893
10516SOL     OW32446   2.728   2.018   0.307
10516SOL    HW132447   2.697   2.091   0.246
10516SOL    HW232448   2.669   2.015   0.388
10517SOL     OW32449   1.553   4.024   2.395
10517SOL    HW132450   1.556   4.040   2.494
10517SOL    HW232451   1.465   3.985   2.371
10518SOL     OW32452   0.243   5.038   2.416
10518SOL    HW132453   0.216   5.026   2.321
10518SOL    HW232454   0.333   4.996   2.430
10519SOL     OW32455   3.240   5.113   1.301
10519SOL    HW132456   3.339   5.098   1.311
10519SOL    HW232457   3.190   5.045   1.355
10520SOL     OW32458   6.702   1.936   6.453
10520SOL    HW132459   6.671   1.959   6.546
10520SOL    HW232460   6.752   1.850   6.456
10521SOL     OW32461   6.519   4.234   1.590
10521SOL    HW132462   6.581   4.185   1.651
10521SOL    HW232463   6.563   4.248   1.501
10522SOL     OW32464   0.157   2.264   3.335
10522SOL    HW132465   0.146   2.171   3.299
10522SOL    HW232466   0.244   2.301   3.305
10523SOL     OW32467   0.192   3.861   3.757
10523SOL    HW132468   0.224   3.806   3.680
10523SOL    HW232469   0.130   3.806   3.814
10524SOL     OW32470   0.164   4.898   3.796
10524SOL    HW132471   0.070   4.891   3.763
10524SOL    HW232472   0.179   4.989   3.833
10525SOL     OW32473   4.407   0.199   4.789
10525SOL    HW132474   4.462   0.145   4.853
10525SOL    HW232475   4.455   0.205   4.701
10526SOL     OW32476   0.337   5.910   1.272
10526SOL    HW132477   0.357   5.999   1.313
10526SOL    HW232478   0.289   5.853   1.339
10527SOL     OW32479   0.350   0.718   6.079
10527SOL    HW132480   0.439   0.698   6.120
10527SOL    HW232481   0.343   0.816   6.062
10528SOL     OW32482   0.273   4.475   0.154
10528SOL    HW132483   0.330   4.450   0.076
10528SOL    HW232484   0.236   4.566   0.140
10529SOL     OW32485   1.634   6.116   5.134
10529SOL    HW132486   1.584   6.044   5.183
10529SOL    HW232487   1.717   6.076   5.094
10530SOL     OW32488   1.484   6.268   6.262
10530SOL    HW132489   1.522   6.176   6.250
10530SOL    HW232490   1.390   6.271   6.230
10531SOL     OW32491   2.646   2.448   5.132
10531SOL    HW132492   2.697   2.431   5.217
10531SOL    HW232493   2.601   2.537   5.137
10532SOL     OW32494   5.991   6.975   6.645
10532SOL    HW132495   6.032   6.941   6.561
10532SOL    HW232496   6.017   6.915   6.721
10533SOL     OW32497   2.912   5.796   3.952
10533SOL    HW132498   2.989   5.835   3.902
10533SOL    HW232499   2.826   5.831   3.915
10534SOL     OW32500   0.566   5.539   2.414
10534SOL    HW132501   0.613   5.484   2.483
10534SOL    HW232502   0.506   5.479   2.360
10535SOL     OW32503   2.654   1.201   1.518
10535SOL    HW132504   2.737   1.151   1.546
10535SOL    HW232505   2.613   1.155   1.439
10536SOL     OW32506   4.294   0.187   3.463
10536SOL    HW132507   4.276   0.284   3.445
10536SOL    HW232508   4.327   0.143   3.380
10537SOL     OW32509   4.662   6.548   3.412
10537SOL    HW132510   4.694   6.531   3.319
10537SOL    HW232511   4.568   6.582   3.409
10538SOL     OW32512   5.825   3.608   2.443
10538SOL    HW132513   5.784   3.670   2.376
10538SOL    HW232514   5.875   3.535   2.395
10539SOL     OW32515   6.350   5.746   2.192
10539SOL    HW132516   6.360   5.736   2.093
10539SOL    HW232517   6.436   5.778   2.231
10540SOL     OW32518   2.526   3.732   5.993
10540SOL    HW132519   2.602   3.795   6.005
10540SOL    HW232520   2.440   3.782   5.997
10541SOL     OW32521   3.084   3.127   4.841
10541SOL    HW132522   2.999   3.132   4.893
10541SOL    HW232523   3.065   3.150   4.745
10542SOL     OW32524   6.259   0.203   4.579
10542SOL    HW132525   6.196   0.130   4.555
10542SOL    HW232526   6.215   0.291   4.567
10543SOL     OW32527   6.633   2.398   5.617
10543SOL    HW132528   6.685   2.378   5.700
10543SOL    HW232529   6.692   2.446   5.552
10544SOL     OW32530   1.260   0.632   3.724
10544SOL    HW132531   1.224   0.659   3.635
10544SOL    HW232532   1.215   0.685   3.796
10545SOL     OW32533   1.088   3.271   2.184
10545SOL    HW132534   1.106   3.328   2.264
10545SOL    HW232535   1.011   3.310   2.132
10546SOL     OW32536   2.700   6.501   1.317
10546SOL    HW132537   2.620   6.511   1.376
10546SOL    HW232538   2.778   6.547   1.358
10547SOL     OW32539   4.770   0.480   4.482
10547SOL    HW132540   4.828   0.551   4.522
10547SOL    HW232541   4.817   0.440   4.403
10548SOL     OW32542   0.430   4.812   4.927
10548SOL    HW132543   0.336   4.838   4.952
10548SOL    HW232544   0.482   4.894   4.904
10549SOL     OW32545   0.193   1.711   0.242
10549SOL    HW132546   0.293   1.711   0.243
10549SOL    HW232547   0.158   1.714   0.336
10550SOL     OW32548   3.862   6.550   3.418
10550SOL    HW132549   3.828   6.582   3.330
10550SOL    HW232550   3.836   6.454   3.431
10551SOL     OW32551   2.546   1.981   6.156
10551SOL    HW132552   2.624   1.919   6.166
10551SOL    HW232553   2.470   1.932   6.113
10552SOL     OW32554   2.884   0.988   4.543
10552SOL    HW132555   2.790   1.022   4.547
10552SOL    HW232556   2.912   0.980   4.447
10553SOL     OW32557   0.065   5.082   0.939
10553SOL    HW132558   0.160   5.086   0.969
10553SOL    HW232559   0.034   5.173   0.912
10554SOL     OW32560   5.992   4.566   2.444
10554SOL    HW132561   5.951   4.609   2.525
10554SOL    HW232562   6.086   4.598   2.433
10555SOL     OW32563   2.705   2.273   0.443
10555SOL    HW132564   2.685   2.345   0.510
10555SOL    HW232565   2.679   2.184   0.482
10556SOL     OW32566   2.623   1.420   3.077
10556SOL    HW132567   2.549   1.474   3.117
10556SOL    HW232568   2.598   1.323   3.079
10557SOL     OW32569   1.603   3.609   5.011
10557SOL    HW132570   1.508   3.577   5.011
10557SOL    HW232571   1.642   3.598   4.919
10558SOL     OW32572   3.486   4.592   5.674
10558SOL    HW132573   3.489   4.518   5.740
10558SOL    HW232574   3.408   4.579   5.612
10559SOL     OW32575   3.082   1.167   0.541
10559SOL    HW132576   3.175   1.151   0.573
10559SOL    HW232577   3.019   1.164   0.619
10560SOL     OW32578   4.173   6.036   2.040
10560SOL    HW132579   4.110   6.025   1.963
10560SOL    HW232580   4.241   6.105   2.017
10561SOL     OW32581   4.408   4.724   2.036
10561SOL    HW132582   4.346   4.730   1.958
10561SOL    HW232583   4.366   4.767   2.115
10562SOL     OW32584   2.991   6.389   1.184
10562SOL    HW132585   2.969   6.315   1.247
10562SOL    HW232586   3.089   6.407   1.188
10563SOL     OW32587   0.905   0.151   0.774
10563SOL    HW132588   0.855   0.107   0.700
10563SOL    HW232589   0.911   0.249   0.757
10564SOL     OW32590   6.735   5.138   3.400
10564SOL    HW132591   6.833   5.146   3.382
10564SOL    HW232592   6.686   5.128   3.313
10565SOL     OW32593   6.792   6.976   6.045
10565SOL    HW132594   6.876   6.955   6.095
10565SOL    HW232595   6.799   6.941   5.952
10566SOL     OW32596   2.534   2.333   6.570
10566SOL    HW132597   2.463   2.359   6.636
10566SOL    HW232598   2.622   2.325   6.616
10567SOL     OW32599   1.890   2.217   5.762
10567SOL    HW132600   1.891   2.226   5.861
10567SOL    HW232601   1.954   2.144   5.734
10568SOL     OW32602   5.797   3.264   6.923
10568SOL    HW132603   5.872   3.322   6.891
10568SOL    HW232604   5.773   3.198   6.852
10569SOL     OW32605   5.463   0.600   1.980
10569SOL    HW132606   5.462   0.667   1.906
10569SOL    HW232607   5.423   0.642   2.062
10570SOL     OW32608   1.353   4.906   4.156
10570SOL    HW132609   1.342   4.838   4.084
10570SOL    HW232610   1.366   4.996   4.115
10571SOL     OW32611   0.179   4.239   6.339
10571SOL    HW132612   0.239   4.268   6.264
10571SOL    HW232613   0.182   4.307   6.412
10572SOL     OW32614   6.900   4.599   1.458
10572SOL    HW132615   6.887   4.692   1.422
10572SOL    HW232616   6.889   4.600   1.557
10573SOL     OW32617   5.296   0.698   4.551
10573SOL    HW132618   5.235   0.627   4.516
10573SOL    HW232619   5.354   0.732   4.476
10574SOL     OW32620   6.638   0.567   3.977
10574SOL    HW132621   6.630   0.627   3.897
10574SOL    HW232622   6.581   0.603   4.051
10575SOL     OW32623   5.491   0.298   3.627
10575SOL    HW132624   5.581   0.341   3.633
10575SOL    HW232625   5.432   0.352   3.566
10576SOL     OW32626   1.679   4.814   2.719
10576SOL    HW132627   1.633   4.764   2.792
10576SOL    HW232628   1.683   4.911   2.743
10577SOL     OW32629   3.011   6.072   0.827
10577SOL    HW132630   3.041   6.143   0.763
10577SOL    HW232631   2.930   6.104   0.876
10578SOL     OW32632   5.915   2.238   3.700
10578SOL    HW132633   5.937   2.285   3.786
10578SOL    HW232634   5.888   2.143   3.720
10579SOL     OW32635   2.619   4.169   1.258
10579SOL    HW132636   2.609   4.256   1.306
10579SOL    HW232637   2.653   4.186   1.165
10580SOL     OW32638   6.378   6.944   6.882
10580SOL    HW132639   6.368   6.844   6.880
10580SOL    HW232640   6.434   6.970   6.961
10581SOL     OW32641   5.191   6.333   2.866
10581SOL    HW132642   5.259   6.318   2.937
10581SOL    HW232643   5.211   6.419   2.819
10582SOL     OW32644   5.603   4.388   6.337
10582SOL    HW132645   5.550   4.472   6.343
10582SOL    HW232646   5.591   4.347   6.247
10583SOL     OW32647   2.976   0.304   4.282
10583SOL    HW132648   3.073   0.328   4.286
10583SOL    HW232649   2.951   0.254   4.364
10584SOL     OW32650   6.580   0.543   6.793
10584SOL    HW132651   6.526   0.460   6.779
10584SOL    HW232652   6.540   0.618   6.740
10585SOL     OW32653   1.036   1.777   6.325
10585SOL    HW132654   1.014   1.708   6.394
10585SOL    HW232655   1.034   1.868   6.367
10586SOL     OW32656   4.471   4.867   5.706
10586SOL    HW132657   4.503   4.925   5.781
10586SOL    HW232658   4.465   4.920   5.622
10587SOL     OW32659   0.405   6.004   5.842
10587SOL    HW132660   0.504   6.012   5.832
10587SOL    HW232661   0.367   5.956   5.762
10588SOL     OW32662   1.883   2.615   4.566
10588SOL    HW132663   1.797   2.625   4.616
10588SOL    HW232664   1.958   2.656   4.619
10589SOL     OW32665   5.301   6.082   4.774
10589SOL    HW132666   5.310   6.136   4.858
10589SOL    HW232667   5.287   6.144   4.697
10590SOL     OW32668   0.488   5.732   1.767
10590SOL    HW132669   0.458   5.821   1.733
10590SOL    HW232670   0.420   5.662   1.743
10591SOL     OW32671   1.738   1.248   1.093
10591SOL    HW132672   1.706   1.185   1.164
10591SOL    HW232673   1.828   1.284   1.119
10592SOL     OW32674   5.808   2.555   4.529
10592SOL    HW132675   5.715   2.522   4.546
10592SOL    HW232676   5.873   2.483   4.553
10593SOL     OW32677   1.855   6.424   0.644
10593SOL    HW132678   1.756   6.408   0.644
10593SOL    HW232679   1.902   6.347   0.686
10594SOL     OW32680   3.872   1.053   2.751
10594SOL    HW132681   3.875   0.970   2.695
10594SOL    HW232682   3.787   1.054   2.804
10595SOL     OW32683   5.981   0.868   0.588
10595SOL    HW132684   6.015   0.899   0.500
10595SOL    HW232685   5.901   0.810   0.575
10596SOL     OW32686   4.609   1.777   0.136
10596SOL    HW132687   4.623   1.728   0.050
10596SOL    HW232688   4.616   1.876   0.120
10597SOL     OW32689   2.552   0.659   6.211
10597SOL    HW132690   2.480   0.692   6.272
10597SOL    HW232691   2.637   0.709   6.229
10598SOL     OW32692   2.414   1.745   5.764
10598SOL    HW132693   2.382   1.670   5.822
10598SOL    HW232694   2.429   1.826   5.820
10599SOL     OW32695   6.244   4.158   6.275
10599SOL    HW132696   6.234   4.126   6.370
10599SOL    HW232697   6.192   4.098   6.214
10600SOL     OW32698   3.436   1.103   1.537
10600SOL    HW132699   3.451   1.195   1.573
10600SOL    HW232700   3.500   1.040   1.580
10601SOL     OW32701   0.304   5.895   5.603
10601SOL    HW132702   0.211   5.857   5.603
10601SOL    HW232703   0.320   5.943   5.517
10602SOL     OW32704   0.784   0.545   0.140
10602SOL    HW132705   0.694   0.513   0.110
10602SOL    HW232706   0.851   0.471   0.129
10603SOL     OW32707   4.587   6.305   1.822
10603SOL    HW132708   4.621   6.222   1.778
10603SOL    HW232709   4.621   6.385   1.772
10604SOL     OW32710   0.508   6.086   4.775
10604SOL    HW132711   0.483   6.017   4.843
10604SOL    HW232712   0.427   6.112   4.723
10605SOL     OW32713   1.936   0.269   0.135
10605SOL    HW132714   1.910   0.310   0.222
10605SOL    HW232715   1.976   0.339   0.076
10606SOL     OW32716   6.211   0.831   1.804
10606SOL    HW132717   6.174   0.818   1.713
10606SOL    HW232718   6.181   0.757   1.864
10607SOL     OW32719   4.358   4.478   0.068
10607SOL    HW132720   4.351   4.388   0.109
10607SOL    HW232721   4.279   4.494   0.008
10608SOL     OW32722   6.847   2.844   2.931
10608SOL    HW132723   6.937   2.804   2.950
10608SOL    HW232724   6.782   2.771   2.907
10609SOL     OW32725   2.922   6.464   0.626
10609SOL    HW132726   2.825   6.459   0.651
10609SOL    HW232727   2.964   6.543   0.672
10610SOL     OW32728   6.617   2.488   4.119
10610SOL    HW132729   6.649   2.580   4.096
10610SOL    HW232730   6.540   2.463   4.061
10611SOL     OW32731   2.563   5.514   4.882
10611SOL    HW132732   2.652   5.469   4.895
10611SOL    HW232733   2.569   5.608   4.914
10612SOL     OW32734   5.394   1.145   4.165
10612SOL    HW132735   5.457   1.197   4.107
10612SOL    HW232736   5.408   1.170   4.261
10613SOL     OW32737   5.354   6.087   4.325
10613SOL    HW132738   5.297   6.010   4.296
10613SOL    HW232739   5.296   6.167   4.340
10614SOL     OW32740   5.006   1.395   5.495
10614SOL    HW132741   5.008   1.492   5.468
10614SOL    HW232742   4.927   1.378   5.553
10615SOL     OW32743   3.685   1.154   5.658
10615SOL    HW132744   3.687   1.212   5.577
10615SOL    HW232745   3.651   1.206   5.736
10616SOL     OW32746   2.815   6.262   6.236
10616SOL    HW132747   2.797   6.327   6.162
10616SOL    HW232748   2.888   6.298   6.294
10617SOL     OW32749   2.476   4.144   1.710
10617SOL    HW132750   2.513   4.234   1.685
10617SOL    HW232751   2.538   4.072   1.678
10618SOL     OW32752   0.765   5.408   5.488
10618SOL    HW132753   0.693   5.364   5.540
10618SOL    HW232754   0.739   5.411   5.391
10619SOL     OW32755   0.576   2.290   2.734
10619SOL    HW132756   0.656   2.337   2.773
10619SOL    HW232757   0.584   2.288   2.634
10620SOL     OW32758   1.343   0.021   5.012
10620SOL    HW132759   1.312   0.089   5.079
10620SOL    HW232760   1.289   0.030   4.928
10621SOL     OW32761   1.042   4.291   2.385
10621SOL    HW132762   1.110   4.329   2.448
10621SOL    HW232763   1.076   4.298   2.291
10622SOL     OW32764   4.292   2.812   1.314
10622SOL    HW132765   4.377   2.760   1.324
10622SOL    HW232766   4.230   2.763   1.253
10623SOL     OW32767   6.322   6.005   5.101
10623SOL    HW132768   6.390   6.010   5.174
10623SOL    HW232769   6.369   6.000   5.013
10624SOL     OW32770   0.612   2.576   4.664
10624SOL    HW132771   0.704   2.606   4.636
10624SOL    HW232772   0.572   2.644   4.725
10625SOL     OW32773   0.761   3.102   0.305
10625SOL    HW132774   0.690   3.154   0.353
10625SOL    HW232775   0.723   3.065   0.220
10626SOL     OW32776   3.153   2.996   1.634
10626SOL    HW132777   3.145   2.898   1.652
10626SOL    HW232778   3.087   3.023   1.563
10627SOL     OW32779   5.642   0.966   6.728
10627SOL    HW132780   5.674   0.884   6.776
10627SOL    HW232781   5.663   1.047   6.783
10628SOL     OW32782   3.932   0.322   0.454
10628SOL    HW132783   4.027   0.292   0.458
10628SOL    HW232784   3.917   0.394   0.522
10629SOL     OW32785   3.343   5.161   5.149
10629SOL    HW132786   3.260   5.180   5.201
10629SOL    HW232787   3.344   5.066   5.121
10630SOL     OW32788   5.334   0.989   2.669
10630SOL    HW132789   5.431   0.995   2.643
10630SOL    HW232790   5.307   1.073   2.715
10631SOL     OW32791   4.119   4.764   5.849
10631SOL    HW132792   4.108   4.715   5.762
10631SOL    HW232793   4.114   4.698   5.924
10632SOL     OW32794   4.805   5.868   3.632
10632SOL    HW132795   4.743   5.802   3.675
10632SOL    HW232796   4.899   5.835   3.640
10633SOL     OW32797   2.360   2.707   1.741
10633SOL    HW132798   2.283   2.760   1.778
10633SOL    HW232799   2.382   2.632   1.803
10634SOL     OW32800   1.298   5.779   0.497
10634SOL    HW132801   1.397   5.789   0.485
10634SOL    HW232802   1.265   5.703   0.441
10635SOL     OW32803   2.248   3.599   0.573
10635SOL    HW132804   2.161   3.645   0.588
10635SOL    HW232805   2.261   3.582   0.476
10636SOL     OW32806   6.193   1.358   0.830
10636SOL    HW132807   6.230   1.337   0.921
10636SOL    HW232808   6.265   1.343   0.762
10637SOL     OW32809   2.250   6.217   6.646
10637SOL    HW132810   2.264   6.313   6.622
10637SOL    HW232811   2.324   6.162   6.609
10638SOL     OW32812   6.794   6.506   2.294
10638SOL    HW132813   6.877   6.550   2.328
10638SOL    HW232814   6.790   6.412   2.329
10639SOL     OW32815   2.050   3.482   1.773
10639SOL    HW132816   2.139   3.524   1.760
10639SOL    HW232817   2.058   3.405   1.837
10640SOL     OW32818   4.474   0.715   3.638
10640SOL    HW132819   4.408   0.727   3.712
10640SOL    HW232820   4.427   0.721   3.550
10641SOL     OW32821   2.004   1.266   3.475
10641SOL    HW132822   1.971   1.360   3.461
10641SOL    HW232823   2.069   1.265   3.551
10642SOL     OW32824   5.668   1.872   0.572
10642SOL    HW132825   5.692   1.966   0.594
10642SOL    HW232826   5.717   1.810   0.632
10643SOL     OW32827   2.103   6.100   4.730
10643SOL    HW132828   2.057   6.018   4.764
10643SOL    HW232829   2.054   6.181   4.762
10644SOL     OW32830   6.089   3.229   1.148
10644SOL    HW132831   6.080   3.132   1.125
10644SOL    HW232832   5.999   3.273   1.142
10645SOL     OW32833   2.120   2.946   3.634
10645SOL    HW132834   2.117   3.045   3.648
10645SOL    HW232835   2.212   2.918   3.609
10646SOL     OW32836   5.850   0.655   5.747
10646SOL    HW132837   5.919   0.602   5.698
10646SOL    HW232838   5.799   0.712   5.683
10647SOL     OW32839   3.693   5.522   5.176
10647SOL    HW132840   3.721   5.484   5.088
10647SOL    HW232841   3.722   5.617   5.182
10648SOL     OW32842   6.192   5.704   6.548
10648SOL    HW132843   6.160   5.779   6.491
10648SOL    HW232844   6.291   5.692   6.536
10649SOL     OW32845   1.112   3.128   3.742
10649SOL    HW132846   1.045   3.199   3.759
10649SOL    HW232847   1.149   3.138   3.650
10650SOL     OW32848   0.384   0.447   4.474
10650SOL    HW132849   0.286   0.468   4.478
10650SOL    HW232850   0.398   0.349   4.489
10651SOL     OW32851   5.870   5.929   6.264
10651SOL    HW132852   5.961   5.898   6.289
10651SOL    HW232853   5.843   6.006   6.322
10652SOL     OW32854   1.914   6.539   5.875
10652SOL    HW132855   1.821   6.537   5.840
10652SOL    HW232856   1.970   6.598   5.816
10653SOL     OW32857   3.862   5.973   4.596
10653SOL    HW132858   3.820   5.969   4.505
10653SOL    HW232859   3.921   5.893   4.608
10654SOL     OW32860   4.728   1.149   5.216
10654SOL    HW132861   4.803   1.101   5.261
10654SOL    HW232862   4.704   1.103   5.131
10655SOL     OW32863   1.869   4.610   0.798
10655SOL    HW132864   1.866   4.607   0.699
10655SOL    HW232865   1.814   4.535   0.836
10656SOL     OW32866   6.724   1.273   2.554
10656SOL    HW132867   6.753   1.178   2.565
10656SOL    HW232868   6.658   1.296   2.626
10657SOL     OW32869   6.081   0.904   4.661
10657SOL    HW132870   6.038   0.913   4.751
10657SOL    HW232871   6.012   0.882   4.593
10658SOL     OW32872   6.083   3.824   4.837
10658SOL    HW132873   6.029   3.890   4.785
10658SOL    HW232874   6.181   3.842   4.823
10659SOL     OW32875   1.004   4.492   0.560
10659SOL    HW132876   1.032   4.539   0.476
10659SOL    HW232877   1.042   4.400   0.560
10660SOL     OW32878   6.268   3.755   5.312
10660SOL    HW132879   6.225   3.666   5.327
10660SOL    HW232880   6.354   3.743   5.262
10661SOL     OW32881   1.437   5.529   0.601
10661SOL    HW132882   1.337   5.519   0.600
10661SOL    HW232883   1.478   5.470   0.532
10662SOL     OW32884   3.979   0.877   2.239
10662SOL    HW132885   3.957   0.787   2.276
10662SOL    HW232886   3.897   0.934   2.238
10663SOL     OW32887   0.539   1.722   3.134
10663SOL    HW132888   0.546   1.807   3.187
10663SOL    HW232889   0.443   1.707   3.109
10664SOL     OW32890   0.015   5.418   4.930
10664SOL    HW132891   0.055   5.338   4.886
10664SOL    HW232892   0.082   5.459   4.992
10665SOL     OW32893   2.073   2.627   6.964
10665SOL    HW132894   2.095   2.724   6.975
10665SOL    HW232895   2.055   2.608   6.867
10666SOL     OW32896   3.153   4.022   2.180
10666SOL    HW132897   3.160   4.119   2.157
10666SOL    HW232898   3.208   4.002   2.260
10667SOL     OW32899   4.977   1.676   4.228
10667SOL    HW132900   4.930   1.762   4.210
10667SOL    HW232901   4.911   1.603   4.240
10668SOL     OW32902   3.344   1.329   5.507
10668SOL    HW132903   3.278   1.394   5.469
10668SOL    HW232904   3.434   1.373   5.513
10669SOL     OW32905   5.821   0.728   0.921
10669SOL    HW132906   5.807   0.819   0.882
10669SOL    HW232907   5.919   0.715   0.940
10670SOL     OW32908   5.387   4.856   4.373
10670SOL    HW132909   5.336   4.781   4.415
10670SOL    HW232910   5.336   4.891   4.295
10671SOL     OW32911   1.723   1.650   4.230
10671SOL    HW132912   1.804   1.705   4.252
10671SOL    HW232913   1.642   1.708   4.234
10672SOL     OW32914   6.991   4.292   1.400
10672SOL    HW132915   0.026   4.368   1.368
10672SOL    HW232916   6.935   4.258   1.324
10673SOL     OW32917   1.531   6.850   0.252
10673SOL    HW132918   1.506   6.850   0.349
10673SOL    HW232919   1.570   6.761   0.228
10674SOL     OW32920   3.929   3.964   4.370
10674SOL    HW132921   3.875   3.985   4.288
10674SOL    HW232922   3.891   4.014   4.448
10675SOL     OW32923   2.772   0.566   6.447
10675SOL    HW132924   2.796   0.596   6.354
10675SOL    HW232925   2.747   0.469   6.445
10676SOL     OW32926   0.337   6.169   4.604
10676SOL    HW132927   0.326   6.261   4.567
10676SOL    HW232928   0.290   6.104   4.544
10677SOL     OW32929   1.686   1.078   1.302
10677SOL    HW132930   1.621   1.003   1.312
10677SOL    HW232931   1.753   1.073   1.376
10678SOL     OW32932   4.418   4.746   3.615
10678SOL    HW132933   4.417   4.834   3.661
10678SOL    HW232934   4.507   4.732   3.572
10679SOL     OW32935   3.799   5.823   6.780
10679SOL    HW132936   3.742   5.879   6.719
10679SOL    HW232937   3.872   5.879   6.818
10680SOL     OW32938   3.825   2.147   3.509
10680SOL    HW132939   3.894   2.103   3.450
10680SOL    HW232940   3.754   2.188   3.452
10681SOL     OW32941   6.536   3.756   0.418
10681SOL    HW132942   6.617   3.720   0.464
10681SOL    HW232943   6.458   3.754   0.481
10682SOL     OW32944   0.274   2.673   5.518
10682SOL    HW132945   0.206   2.610   5.481
10682SOL    HW232946   0.267   2.761   5.472
10683SOL     OW32947   4.814   0.907   3.793
10683SOL    HW132948   4.758   0.981   3.756
10683SOL    HW232949   4.906   0.942   3.812
10684SOL     OW32950   4.553   5.434   1.970
10684SOL    HW132951   4.553   5.357   1.907
10684SOL    HW232952   4.619   5.417   2.043
10685SOL     OW32953   0.523   5.625   1.304
10685SOL    HW132954   0.541   5.721   1.325
10685SOL    HW232955   0.571   5.600   1.220
10686SOL     OW32956   1.463   4.026   5.950
10686SOL    HW132957   1.541   3.992   5.898
10686SOL    HW232958   1.443   3.963   6.025
10687SOL     OW32959   6.297   4.364   4.741
10687SOL    HW132960   6.316   4.280   4.690
10687SOL    HW232961   6.366   4.433   4.718
10688SOL     OW32962   6.028   3.122   3.162
10688SOL    HW132963   6.104   3.176   3.199
10688SOL    HW232964   5.985   3.070   3.236
10689SOL     OW32965   6.612   0.654   2.013
10689SOL    HW132966   6.623   0.630   2.110
10689SOL    HW232967   6.671   0.596   1.957
10690SOL     OW32968   0.416   5.007   3.464
10690SOL    HW132969   0.468   5.093   3.472
10690SOL    HW232970   0.444   4.960   3.381
10691SOL     OW32971   1.789   1.945   1.856
10691SOL    HW132972   1.785   2.023   1.918
10691SOL    HW232973   1.840   1.871   1.899
10692SOL     OW32974   2.236   0.561   3.492
10692SOL    HW132975   2.323   0.606   3.472
10692SOL    HW232976   2.164   0.601   3.435
10693SOL     OW32977   1.499   5.954   1.164
10693SOL    HW132978   1.492   5.913   1.073
10693SOL    HW232979   1.448   5.897   1.229
10694SOL     OW32980   5.242   6.122   6.599
10694SOL    HW132981   5.222   6.164   6.688
10694SOL    HW232982   5.159   6.083   6.561
10695SOL     OW32983   1.498   2.762   2.172
10695SOL    HW132984   1.527   2.667   2.183
10695SOL    HW232985   1.575   2.818   2.143
10696SOL     OW32986   6.689   3.892   4.574
10696SOL    HW132987   6.620   3.926   4.509
10696SOL    HW232988   6.665   3.798   4.600
10697SOL     OW32989   0.077   0.525   5.698
10697SOL    HW132990   0.030   0.484   5.620
10697SOL    HW232991   0.112   0.615   5.672
10698SOL     OW32992   4.988   4.731   6.752
10698SOL    HW132993   5.057   4.740   6.824
10698SOL    HW232994   5.028   4.754   6.664
10699SOL     OW32995   3.908   4.828   1.710
10699SOL    HW132996   3.936   4.733   1.696
10699SOL    HW232997   3.970   4.871   1.775
10700SOL     OW32998   5.766   6.169   0.743
10700SOL    HW132999   5.862   6.155   0.718
10700SOL    HW233000   5.751   6.266   0.764
10701SOL     OW33001   2.538   0.122   5.976
10701SOL    HW133002   2.565   0.103   6.070
10701SOL    HW233003   2.589   0.062   5.914
10702SOL     OW33004   5.013   3.429   2.228
10702SOL    HW133005   5.102   3.473   2.245
10702SOL    HW233006   5.000   3.417   2.130
10703SOL     OW33007   2.411   2.609   5.101
10703SOL    HW133008   2.408   2.645   5.194
10703SOL    HW233009   2.406   2.509   5.104
10704SOL     OW33010   6.740   4.987   2.277
10704SOL    HW133011   6.669   4.950   2.217
10704SOL    HW233012   6.817   5.017   2.222
10705SOL     OW33013   6.560   5.097   1.349
10705SOL    HW133014   6.641   5.154   1.362
10705SOL    HW233015   6.535   5.096   1.253
10706SOL     OW33016   3.980   0.004   2.834
10706SOL    HW133017   3.893   0.050   2.815
10706SOL    HW233018   4.005   6.968   2.756
10707SOL     OW33019   0.462   6.025   3.995
10707SOL    HW133020   0.466   6.112   4.045
10707SOL    HW233021   0.548   5.976   4.008
10708SOL     OW33022   3.811   1.432   1.590
10708SOL    HW133023   3.798   1.344   1.635
10708SOL    HW233024   3.745   1.441   1.515
10709SOL     OW33025   5.698   5.343   4.840
10709SOL    HW133026   5.645   5.335   4.755
10709SOL    HW233027   5.638   5.326   4.918
10710SOL     OW33028   6.018   1.159   4.270
10710SOL    HW133029   6.057   1.067   4.280
10710SOL    HW233030   6.074   1.225   4.320
10711SOL     OW33031   2.035   6.620   4.021
10711SOL    HW133032   1.996   6.643   4.110
10711SOL    HW233033   2.009   6.527   3.996
10712SOL     OW33034   3.048   0.872   1.848
10712SOL    HW133035   3.091   0.891   1.936
10712SOL    HW233036   3.111   0.895   1.774
10713SOL     OW33037   0.466   3.531   0.611
10713SOL    HW133038   0.383   3.476   0.615
10713SOL    HW233039   0.482   3.559   0.516
10714SOL     OW33040   4.880   3.839   5.746
10714SOL    HW133041   4.791   3.794   5.745
10714SOL    HW233042   4.952   3.772   5.730
10715SOL     OW33043   4.518   0.027   2.266
10715SOL    HW133044   4.531   0.125   2.253
10715SOL    HW233045   4.505   0.009   2.364
10716SOL     OW33046   5.700   2.164   4.236
10716SOL    HW133047   5.644   2.197   4.312
10716SOL    HW233048   5.737   2.242   4.185
10717SOL     OW33049   1.032   2.196   1.170
10717SOL    HW133050   1.014   2.271   1.106
10717SOL    HW233051   0.996   2.111   1.131
10718SOL     OW33052   1.156   3.818   0.026
10718SOL    HW133053   1.100   3.769   6.981
10718SOL    HW233054   1.196   3.899   7.004
10719SOL     OW33055   0.348   5.782   2.850
10719SOL    HW133056   0.400   5.704   2.817
10719SOL    HW233057   0.403   5.836   2.913
10720SOL     OW33058   0.063   4.369   5.480
10720SOL    HW133059   0.113   4.288   5.448
10720SOL    HW233060   0.090   4.388   5.575
10721SOL     OW33061   5.158   3.790   5.166
10721SOL    HW133062   5.205   3.878   5.175
10721SOL    HW233063   5.184   3.731   5.243
10722SOL     OW33064   1.540   5.291   0.077
10722SOL    HW133065   1.566   5.303   7.003
10722SOL    HW233066   1.552   5.378   0.126
10723SOL     OW33067   0.306   3.034   6.683
10723SOL    HW133068   0.337   3.079   6.766
10723SOL    HW233069   0.372   3.048   6.610
10724SOL     OW33070   6.296   1.047   0.043
10724SOL    HW133071   6.218   1.002   7.021
10724SOL    HW233072   6.275   1.144   0.056
10725SOL     OW33073   1.493   5.662   4.544
10725SOL    HW133074   1.486   5.569   4.507
10725SOL    HW233075   1.402   5.697   4.563
10726SOL     OW33076   5.722   0.578   4.528
10726SOL    HW133077   5.778   0.535   4.457
10726SOL    HW233078   5.627   0.546   4.519
10727SOL     OW33079   0.153   5.552   5.517
10727SOL    HW133080   0.223   5.549   5.445
10727SOL    HW233081   0.168   5.477   5.582
10728SOL     OW33082   1.153   5.942   6.941
10728SOL    HW133083   1.211   5.906   6.868
10728SOL    HW233084   1.172   6.040   6.954
10729SOL     OW33085   4.579   1.643   2.828
10729SOL    HW133086   4.642   1.609   2.898
10729SOL    HW233087   4.605   1.606   2.739
10730SOL     OW33088   1.864   0.931   1.011
10730SOL    HW133089   1.894   0.845   0.971
10730SOL    HW233090   1.772   0.953   0.978
10731SOL     OW33091   3.265   0.416   0.917
10731SOL    HW133092   3.308   0.342   0.865
10731SOL    HW233093   3.323   0.441   0.994
10732SOL     OW33094   6.167   4.506   5.019
10732SOL    HW133095   6.206   4.595   5.040
10732SOL    HW233096   6.197   4.476   4.928
10733SOL     OW33097   6.411   2.016   0.887
10733SOL    HW133098   6.337   1.964   0.930
10733SOL    HW233099   6.467   1.953   0.833
10734SOL     OW33100   1.011   0.363   0.067
10734SOL    HW133101   1.086   0.299   0.084
10734SOL    HW233102   1.000   0.376   6.990
10735SOL     OW33103   0.609   3.099   2.590
10735SOL    HW133104   0.611   3.014   2.538
10735SOL    HW233105   0.694   3.150   2.575
10736SOL     OW33106   0.979   0.929   3.398
10736SOL    HW133107   0.955   0.990   3.473
10736SOL    HW233108   0.896   0.897   3.352
10737SOL     OW33109   1.309   1.285   0.694
10737SOL    HW133110   1.235   1.254   0.753
10737SOL    HW233111   1.275   1.357   0.633
10738SOL     OW33112   2.521   0.682   2.695
10738SOL    HW133113   2.430   0.686   2.737
10738SOL    HW233114   2.516   0.631   2.610
10739SOL     OW33115   1.555   1.592   0.755
10739SOL    HW133116   1.616   1.517   0.732
10739SOL    HW233117   1.606   1.677   0.759
10740SOL     OW33118   0.360   5.250   4.962
10740SOL    HW133119   0.267   5.254   4.924
10740SOL    HW233120   0.356   5.218   5.056
10741SOL     OW33121   5.053   0.242   1.237
10741SOL    HW133122   5.066   0.159   1.183
10741SOL    HW233123   4.991   0.224   1.313
10742SOL     OW33124   5.741   0.137   1.190
10742SOL    HW133125   5.762   0.115   1.285
10742SOL    HW233126   5.644   0.158   1.181
10743SOL     OW33127   2.232   1.266   5.088
10743SOL    HW133128   2.140   1.274   5.127
10743SOL    HW233129   2.292   1.334   5.130
10744SOL     OW33130   3.585   1.273   0.640
10744SOL    HW133131   3.528   1.274   0.722
10744SOL    HW233132   3.593   1.180   0.606
10745SOL     OW33133   0.322   5.942   6.545
10745SOL    HW133134   0.416   5.950   6.511
10745SOL    HW233135   0.322   5.940   6.645
10746SOL     OW33136   2.356   4.999   1.151
10746SOL    HW133137   2.368   4.955   1.239
10746SOL    HW233138   2.429   5.067   1.138
10747SOL     OW33139   3.657   1.196   4.254
10747SOL    HW133140   3.734   1.180   4.192
10747SOL    HW233141   3.631   1.292   4.251
10748SOL     OW33142   5.423   0.917   1.090
10748SOL    HW133143   5.355   0.906   1.018
10748SOL    HW233144   5.380   0.954   1.172
10749SOL     OW33145   0.601   5.205   3.487
10749SOL    HW133146   0.651   5.151   3.556
10749SOL    HW233147   0.640   5.297   3.483
10750SOL     OW33148   4.438   6.326   4.206
10750SOL    HW133149   4.506   6.253   4.195
10750SOL    HW233150   4.357   6.305   4.152
10751SOL     OW33151   1.653   4.879   4.642
10751SOL    HW133152   1.733   4.927   4.678
10751SOL    HW233153   1.580   4.880   4.710
10752SOL     OW33154   6.359   4.194   5.932
10752SOL    HW133155   6.331   4.273   5.987
10752SOL    HW233156   6.431   4.222   5.868
10753SOL     OW33157   4.957   4.999   4.689
10753SOL    HW133158   4.890   5.008   4.763
10753SOL    HW233159   4.984   5.090   4.658
10754SOL     OW33160   0.560   0.561   3.270
10754SOL    HW133161   0.636   0.499   3.249
10754SOL    HW233162   0.559   0.636   3.204
10755SOL     OW33163   6.997   0.957   0.179
10755SOL    HW133164   6.958   0.865   0.188
10755SOL    HW233165   6.992   0.985   0.083
10756SOL     OW33166   6.445   4.804   0.033
10756SOL    HW133167   6.356   4.759   0.024
10756SOL    HW233168   6.431   4.903   0.044
10757SOL     OW33169   2.270   3.250   0.289
10757SOL    HW133170   2.202   3.195   0.337
10757SOL    HW233171   2.346   3.192   0.261
10758SOL     OW33172   0.971   6.477   4.547
10758SOL    HW133173   1.019   6.443   4.628
10758SOL    HW233174   0.988   6.415   4.470
10759SOL     OW33175   1.678   2.590   1.278
10759SOL    HW133176   1.649   2.571   1.184
10759SOL    HW233177   1.766   2.637   1.276
10760SOL     OW33178   5.558   0.483   2.535
10760SOL    HW133179   5.509   0.396   2.539
10760SOL    HW233180   5.656   0.466   2.539
10761SOL     OW33181   1.118   6.389   5.921
10761SOL    HW133182   1.100   6.378   5.823
10761SOL    HW233183   1.102   6.484   5.948
10762SOL     OW33184   3.706   2.079   4.308
10762SOL    HW133185   3.628   2.037   4.262
10762SOL    HW233186   3.786   2.072   4.249
10763SOL     OW33187   5.547   6.828   2.874
10763SOL    HW133188   5.460   6.870   2.902
10763SOL    HW233189   5.529   6.747   2.819
10764SOL     OW33190   4.524   2.313   6.127
10764SOL    HW133191   4.497   2.320   6.031
10764SOL    HW233192   4.618   2.279   6.132
10765SOL     OW33193   4.899   2.622   0.825
10765SOL    HW133194   4.839   2.597   0.902
10765SOL    HW233195   4.893   2.553   0.754
10766SOL     OW33196   5.480   4.313   0.689
10766SOL    HW133197   5.421   4.233   0.693
10766SOL    HW233198   5.550   4.301   0.618
10767SOL     OW33199   1.673   0.224   0.049
10767SOL    HW133200   1.681   0.177   6.982
10767SOL    HW233201   1.763   0.229   0.092
10768SOL     OW33202   4.803   5.488   1.802
10768SOL    HW133203   4.882   5.428   1.788
10768SOL    HW233204   4.729   5.435   1.844
10769SOL     OW33205   2.494   4.102   5.329
10769SOL    HW133206   2.426   4.050   5.278
10769SOL    HW233207   2.491   4.198   5.302
10770SOL     OW33208   5.472   0.480   4.538
10770SOL    HW133209   5.380   0.508   4.512
10770SOL    HW233210   5.468   0.388   4.577
10771SOL     OW33211   5.902   6.473   3.356
10771SOL    HW133212   5.990   6.498   3.397
10771SOL    HW233213   5.828   6.504   3.416
10772SOL     OW33214   6.104   6.734   4.298
10772SOL    HW133215   6.136   6.780   4.214
10772SOL    HW233216   6.033   6.668   4.274
10773SOL     OW33217   6.136   5.870   6.332
10773SOL    HW133218   6.208   5.827   6.278
10773SOL    HW233219   6.164   5.964   6.355
10774SOL     OW33220   2.365   1.754   6.325
10774SOL    HW133221   2.434   1.756   6.397
10774SOL    HW233222   2.276   1.777   6.364
10775SOL     OW33223   0.428   4.559   1.908
10775SOL    HW133224   0.437   4.646   1.860
10775SOL    HW233225   0.518   4.514   1.913
10776SOL     OW33226   0.272   0.944   6.941
10776SOL    HW133227   0.345   0.922   7.006
10776SOL    HW233228   0.254   0.865   6.883
10777SOL     OW33229   3.910   5.384   2.449
10777SOL    HW133230   3.828   5.424   2.492
10777SOL    HW233231   3.941   5.306   2.503
10778SOL     OW33232   5.253   0.034   4.244
10778SOL    HW133233   5.301   0.030   4.156
10778SOL    HW233234   5.294   6.989   4.307
10779SOL     OW33235   6.220   3.604   3.681
10779SOL    HW133236   6.173   3.672   3.737
10779SOL    HW233237   6.217   3.633   3.585
10780SOL     OW33238   2.052   0.833   3.666
10780SOL    HW133239   2.029   0.890   3.587
10780SOL    HW233240   1.971   0.818   3.722
10781SOL     OW33241   4.388   0.982   3.978
10781SOL    HW133242   4.368   0.890   3.944
10781SOL    HW233243   4.377   0.983   4.078
10782SOL     OW33244   6.823   1.691   2.232
10782SOL    HW133245   6.751   1.654   2.174
10782SOL    HW233246   6.792   1.778   2.272
10783SOL     OW33247   0.554   2.869   2.414
10783SOL    HW133248   0.544   2.880   2.315
10783SOL    HW233249   0.465   2.849   2.455
10784SOL     OW33250   3.500   0.042   4.233
10784SOL    HW133251   3.534   0.030   4.140
10784SOL    HW233252   3.565   0.001   4.298
10785SOL     OW33253   6.559   4.672   0.626
10785SOL    HW133254   6.588   4.722   0.707
10785SOL    HW233255   6.495   4.729   0.573
10786SOL     OW33256   5.869   4.882   3.285
10786SOL    HW133257   5.866   4.803   3.346
10786SOL    HW233258   5.964   4.902   3.260
10787SOL     OW33259   2.038   1.486   5.607
10787SOL    HW133260   2.039   1.469   5.508
10787SOL    HW233261   2.122   1.450   5.648
10788SOL     OW33262   2.065   4.450   6.424
10788SOL    HW133263   1.985   4.451   6.485
10788SOL    HW233264   2.066   4.533   6.369
10789SOL     OW33265   6.633   2.625   6.610
10789SOL    HW133266   6.554   2.669   6.652
10789SOL    HW233267   6.681   2.691   6.551
10790SOL     OW33268   0.576   0.229   1.626
10790SOL    HW133269   0.626   0.144   1.639
10790SOL    HW233270   0.479   0.215   1.645
10791SOL     OW33271   6.659   6.457   1.541
10791SOL    HW133272   6.599   6.404   1.601
10791SOL    HW233273   6.618   6.461   1.449
10792SOL     OW33274   3.605   3.338   4.626
10792SOL    HW133275   3.550   3.272   4.576
10792SOL    HW233276   3.646   3.293   4.706
10793SOL     OW33277   5.826   2.982   5.432
10793SOL    HW133278   5.826   3.034   5.517
10793SOL    HW233279   5.869   3.038   5.360
10794SOL     OW33280   3.960   3.058   4.126
10794SOL    HW133281   3.877   3.023   4.168
10794SOL    HW233282   4.039   3.037   4.185
10795SOL     OW33283   6.850   4.797   2.714
10795SOL    HW133284   6.891   4.738   2.783
10795SOL    HW233285   6.914   4.810   2.638
10796SOL     OW33286   6.058   0.202   6.220
10796SOL    HW133287   6.112   0.186   6.303
10796SOL    HW233288   6.119   0.203   6.140
10797SOL     OW33289   3.100   2.375   1.426
10797SOL    HW133290   3.125   2.294   1.373
10797SOL    HW233291   3.182   2.413   1.469
10798SOL     OW33292   2.868   0.520   6.946
10798SOL    HW133293   2.934   0.592   6.963
10798SOL    HW233294   2.827   0.532   6.855
10799SOL     OW33295   3.754   1.015   1.956
10799SOL    HW133296   3.696   0.934   1.947
10799SOL    HW233297   3.754   1.045   2.051
10800SOL     OW33298   0.353   6.362   6.439
10800SOL    HW133299   0.341   6.398   6.346
10800SOL    HW233300   0.399   6.431   6.495
10801SOL     OW33301   1.356   0.175   6.876
10801SOL    HW133302   1.372   0.111   6.951
10801SOL    HW233303   1.376   0.268   6.907
10802SOL     OW33304   0.643   0.358   2.510
10802SOL    HW133305   0.736   0.332   2.536
10802SOL    HW233306   0.589   0.276   2.492
10803SOL     OW33307   2.044   5.446   5.843
10803SOL    HW133308   2.107   5.523   5.831
10803SOL    HW233309   2.095   5.364   5.869
10804SOL     OW33310   6.038   3.016   2.606
10804SOL    HW133311   6.052   2.934   2.661
10804SOL    HW233312   5.953   3.061   2.633
10805SOL     OW33313   5.033   6.799   5.864
10805SOL    HW133314   4.991   6.810   5.954
10805SOL    HW233315   5.132   6.810   5.871
10806SOL     OW33316   4.216   4.164   5.602
10806SOL    HW133317   4.193   4.069   5.625
10806SOL    HW233318   4.132   4.216   5.587
10807SOL     OW33319   1.769   0.041   3.123
10807SOL    HW133320   1.738   7.005   3.047
10807SOL    HW233321   1.689   0.072   3.175
10808SOL     OW33322   0.179   3.186   6.484
10808SOL    HW133323   0.122   3.105   6.472
10808SOL    HW233324   0.227   3.180   6.571
10809SOL     OW33325   2.436   4.472   3.689
10809SOL    HW133326   2.403   4.545   3.628
10809SOL    HW233327   2.494   4.409   3.637
10810SOL     OW33328   0.903   0.736   3.765
10810SOL    HW133329   0.853   0.813   3.726
10810SOL    HW233330   0.843   0.656   3.768
10811SOL     OW33331   3.958   4.717   5.561
10811SOL    HW133332   3.865   4.752   5.553
10811SOL    HW233333   4.023   4.792   5.544
10812SOL     OW33334   0.153   3.770   0.678
10812SOL    HW133335   0.171   3.800   0.772
10812SOL    HW233336   0.126   3.674   0.678
10813SOL     OW33337   0.878   3.430   5.988
10813SOL    HW133338   0.920   3.516   6.017
10813SOL    HW233339   0.933   3.353   6.019
10814SOL     OW33340   1.226   6.863   6.229
10814SOL    HW133341   1.161   6.833   6.299
10814SOL    HW233342   1.255   6.956   6.250
10815SOL     OW33343   5.468   3.209   3.540
10815SOL    HW133344   5.548   3.200   3.481
10815SOL    HW233345   5.479   3.289   3.600
10816SOL     OW33346   3.205   3.439   2.367
10816SOL    HW133347   3.138   3.465   2.436
10816SOL    HW233348   3.216   3.513   2.301
10817SOL     OW33349   3.821   0.655   3.569
10817SOL    HW133350   3.781   0.742   3.539
10817SOL    HW233351   3.775   0.624   3.652
10818SOL     OW33352   4.868   4.422   5.573
10818SOL    HW133353   4.923   4.504   5.589
10818SOL    HW233354   4.840   4.382   5.660
10819SOL     OW33355   6.154   5.103   6.155
10819SOL    HW133356   6.229   5.146   6.205
10819SOL    HW233357   6.146   5.144   6.065
10820SOL     OW33358   0.232   4.963   4.718
10820SOL    HW133359   0.169   4.948   4.642
10820SOL    HW233360   0.325   4.939   4.689
10821SOL     OW33361   4.454   6.772   3.332
10821SOL    HW133362   4.528   6.834   3.308
10821SOL    HW233363   4.369   6.823   3.341
10822SOL     OW33364   5.966   2.153   2.726
10822SOL    HW133365   5.977   2.081   2.795
10822SOL    HW233366   5.972   2.112   2.635
10823SOL     OW33367   0.982   1.073   2.204
10823SOL    HW133368   0.933   1.071   2.117
10823SOL    HW233369   0.931   1.127   2.270
10824SOL     OW33370   0.532   1.175   2.648
10824SOL    HW133371   0.507   1.176   2.745
10824SOL    HW233372   0.464   1.123   2.596
10825SOL     OW33373   2.228   2.143   6.668
10825SOL    HW133374   2.302   2.198   6.706
10825SOL    HW233375   2.206   2.176   6.576
10826SOL     OW33376   0.715   1.589   2.974
10826SOL    HW133377   0.656   1.637   3.040
10826SOL    HW233378   0.806   1.631   2.974
10827SOL     OW33379   0.153   3.192   5.246
10827SOL    HW133380   0.084   3.199   5.174
10827SOL    HW233381   0.109   3.191   5.335
10828SOL     OW33382   1.312   4.530   0.477
10828SOL    HW133383   1.271   4.527   0.386
10828SOL    HW233384   1.390   4.467   0.481
10829SOL     OW33385   4.667   2.597   0.615
10829SOL    HW133386   4.746   2.540   0.639
10829SOL    HW233387   4.642   2.654   0.693
10830SOL     OW33388   4.505   1.624   3.432
10830SOL    HW133389   4.506   1.525   3.424
10830SOL    HW233390   4.501   1.664   3.340
10831SOL     OW33391   2.954   6.624   2.599
10831SOL    HW133392   2.949   6.704   2.659
10831SOL    HW233393   3.025   6.639   2.530
10832SOL     OW33394   0.092   3.635   6.354
10832SOL    HW133395   0.053   3.724   6.380
10832SOL    HW233396   0.029   3.562   6.381
10833SOL     OW33397   0.699   1.191   1.631
10833SOL    HW133398   0.637   1.214   1.556
10833SOL    HW233399   0.649   1.139   1.701
10834SOL     OW33400   6.383   1.658   0.538
10834SOL    HW133401   6.401   1.564   0.508
10834SOL    HW233402   6.351   1.712   0.460
10835SOL     OW33403   6.334   2.266   0.062
10835SOL    HW133404   6.364   2.353   0.101
10835SOL    HW233405   6.275   2.219   0.128
10836SOL     OW33406   6.748   1.904   4.077
10836SOL    HW133407   6.843   1.888   4.051
10836SOL    HW233408   6.709   1.973   4.017
10837SOL     OW33409   6.868   5.090   1.155
10837SOL    HW133410   6.952   5.098   1.101
10837SOL    HW233411   6.790   5.115   1.098
10838SOL     OW33412   6.758   6.115   4.163
10838SOL    HW133413   6.850   6.080   4.181
10838SOL    HW233414   6.762   6.213   4.146
10839SOL     OW33415   4.317   3.430   0.780
10839SOL    HW133416   4.334   3.419   0.683
10839SOL    HW233417   4.352   3.349   0.829
10840SOL     OW33418   3.026   6.427   2.341
10840SOL    HW133419   2.932   6.392   2.341
10840SOL    HW233420   3.025   6.527   2.339
10841SOL     OW33421   6.858   4.290   5.291
10841SOL    HW133422   6.815   4.237   5.365
10841SOL    HW233423   6.955   4.304   5.312
10842SOL     OW33424   4.539   2.345   1.660
10842SOL    HW133425   4.593   2.426   1.683
10842SOL    HW233426   4.442   2.369   1.658
10843SOL     OW33427   1.380   1.177   1.046
10843SOL    HW133428   1.355   1.176   1.143
10843SOL    HW233429   1.415   1.267   1.020
10844SOL     OW33430   0.598   5.161   3.222
10844SOL    HW133431   0.597   5.186   3.319
10844SOL    HW233432   0.563   5.237   3.168
10845SOL     OW33433   4.012   6.096   5.342
10845SOL    HW133434   3.967   6.018   5.298
10845SOL    HW233435   4.034   6.165   5.274
10846SOL     OW33436   5.193   0.743   6.876
10846SOL    HW133437   5.219   0.800   6.953
10846SOL    HW233438   5.266   0.743   6.807
10847SOL     OW33439   3.350   2.541   0.057
10847SOL    HW133440   3.433   2.574   0.012
10847SOL    HW233441   3.374   2.485   0.136
10848SOL     OW33442   1.748   4.214   0.625
10848SOL    HW133443   1.781   4.120   0.618
10848SOL    HW233444   1.771   4.263   0.541
10849SOL     OW33445   2.764   4.710   4.319
10849SOL    HW133446   2.804   4.667   4.239
10849SOL    HW233447   2.770   4.810   4.310
10850SOL     OW33448   3.659   6.163   5.632
10850SOL    HW133449   3.648   6.068   5.601
10850SOL    HW233450   3.604   6.223   5.575
10851SOL     OW33451   3.339   3.559   0.306
10851SOL    HW133452   3.334   3.630   0.235
10851SOL    HW233453   3.249   3.520   0.320
10852SOL     OW33454   1.898   0.413   6.401
10852SOL    HW133455   1.914   0.504   6.362
10852SOL    HW233456   1.800   0.397   6.411
10853SOL     OW33457   1.670   3.186   5.675
10853SOL    HW133458   1.727   3.171   5.595
10853SOL    HW233459   1.638   3.098   5.711
10854SOL     OW33460   4.240   5.157   5.912
10854SOL    HW133461   4.246   5.253   5.885
10854SOL    HW233462   4.315   5.136   5.975
10855SOL     OW33463   4.113   0.619   0.566
10855SOL    HW133464   4.087   0.706   0.607
10855SOL    HW233465   4.209   0.623   0.538
10856SOL     OW33466   5.260   1.031   1.307
10856SOL    HW133467   5.179   1.034   1.249
10856SOL    HW233468   5.259   1.109   1.370
10857SOL     OW33469   1.007   2.322   2.415
10857SOL    HW133470   0.967   2.337   2.505
10857SOL    HW233471   1.038   2.410   2.377
10858SOL     OW33472   1.165   1.130   0.328
10858SOL    HW133473   1.214   1.214   0.302
10858SOL    HW233474   1.138   1.136   0.424
10859SOL     OW33475   1.077   4.792   4.310
10859SOL    HW133476   1.065   4.779   4.409
10859SOL    HW233477   1.173   4.811   4.291
10860SOL     OW33478   0.422   3.272   5.262
10860SOL    HW133479   0.328   3.239   5.264
10860SOL    HW233480   0.484   3.196   5.281
10861SOL     OW33481   3.484   3.714   3.269
10861SOL    HW133482   3.414   3.715   3.341
10861SOL    HW233483   3.531   3.626   3.269
10862SOL     OW33484   2.197   1.030   6.115
10862SOL    HW133485   2.145   1.104   6.157
10862SOL    HW233486   2.288   1.025   6.156
10863SOL     OW33487   2.606   0.628   4.125
10863SOL    HW133488   2.661   0.609   4.206
10863SOL    HW233489   2.601   0.547   4.067
10864SOL     OW33490   2.367   6.371   0.327
10864SOL    HW133491   2.431   6.322   0.387
10864SOL    HW233492   2.404   6.375   0.234
10865SOL     OW33493   6.674   1.263   0.758
10865SOL    HW133494   6.600   1.224   0.702
10865SOL    HW233495   6.635   1.326   0.825
10866SOL     OW33496   5.328   4.301   0.350
10866SOL    HW133497   5.309   4.205   0.367
10866SOL    HW233498   5.273   4.357   0.411
10867SOL     OW33499   3.230   4.161   0.644
10867SOL    HW133500   3.249   4.217   0.724
10867SOL    HW233501   3.311   4.107   0.621
10868SOL     OW33502   5.189   1.247   3.991
10868SOL    HW133503   5.152   1.337   4.013
10868SOL    HW233504   5.263   1.225   4.054
10869NA      NA33505   6.342   2.805   5.290
10870NA      NA33506   4.432   4.411   5.316
10871NA      NA33507   1.779   2.910   1.752
10872NA      NA33508   4.952   3.810   5.066
10873NA      NA33509   4.266   2.455   5.344
10874NA      NA33510   3.655   4.864   1.764
10875NA      NA33511   6.638   4.738   6.917
10876NA      NA33512   3.616   3.539   4.457
10877NA      NA33513   4.629   5.995   0.017
10878NA      NA33514   4.069   6.448   5.016
10879NA      NA33515   6.170   5.184   1.960
10880NA      NA33516   2.114   6.843   3.688
10881NA      NA33517   4.003   5.579   2.370
10882NA      NA33518   3.626   3.920   2.029
   7.02173   7.02173   7.02173
