Generated by trjconv : CNT in water t= 293.00000
33518
    1C        C    1   2.836   2.769   4.745
    1C        C    2   2.889   2.717   4.865
    1C        C    3   2.836   2.769   4.983
    1C        C    4   2.845   2.771   4.257
    1C        C    5   2.895   2.726   4.381
    1C        C    6   2.844   2.773   4.504
    1C        C    7   3.010   2.640   4.621
    1C        C    8   2.893   2.719   4.625
    1C        C    9   3.071   2.606   4.744
    1C        C   10   3.000   2.630   4.864
    1C        C   11   3.177   2.492   4.974
    1C        C   12   3.053   2.556   4.970
    1C        C   13   2.841   2.765   3.767
    1C        C   14   2.895   2.718   3.889
    1C        C   15   2.841   2.766   4.010
    1C        C   16   3.015   2.651   4.133
    1C        C   17   2.893   2.722   4.133
    1C        C   18   3.076   2.614   4.256
    1C        C   19   3.011   2.646   4.377
    1C        C   20   3.204   2.556   4.501
    1C        C   21   3.073   2.609   4.499
    1C        C   22   3.272   2.531   4.622
    1C        C   23   3.201   2.548   4.743
    1C        C   24   3.408   2.484   4.862
    1C        C   25   3.266   2.506   4.863
    1C        C   26   3.486   2.471   4.977
    1C        C   27   2.845   2.766   3.278
    1C        C   28   2.903   2.724   3.399
    1C        C   29   2.851   2.769   3.523
    1C        C   30   3.011   2.635   3.645
    1C        C   31   2.898   2.719   3.646
    1C        C   32   3.075   2.607   3.768
    1C        C   33   3.013   2.639   3.891
    1C        C   34   3.206   2.553   4.014
    1C        C   35   3.075   2.606   4.013
    1C        C   36   3.274   2.532   4.136
    1C        C   37   3.205   2.557   4.257
    1C        C   38   3.412   2.515   4.379
    1C        C   39   3.272   2.534   4.379
    1C        C   40   3.484   2.507   4.500
    1C        C   41   3.411   2.506   4.621
    1C        C   42   3.625   2.486   4.740
    1C        C   43   3.483   2.488   4.742
    1C        C   44   3.703   2.482   4.858
    1C        C   45   3.625   2.479   4.975
    1C        C   46   2.836   2.749   2.790
    1C        C   47   2.894   2.713   2.913
    1C        C   48   2.843   2.762   3.035
    1C        C   49   3.012   2.633   3.160
    1C        C   50   2.897   2.715   3.157
    1C        C   51   3.075   2.600   3.283
    1C        C   52   3.018   2.642   3.405
    1C        C   53   3.207   2.541   3.526
    1C        C   54   3.079   2.600   3.526
    1C        C   55   3.274   2.522   3.649
    1C        C   56   3.204   2.549   3.769
    1C        C   57   3.411   2.507   3.892
    1C        C   58   3.271   2.527   3.892
    1C        C   59   3.482   2.504   4.014
    1C        C   60   3.412   2.501   4.137
    1C        C   61   3.625   2.499   4.257
    1C        C   62   3.483   2.498   4.259
    1C        C   63   3.699   2.500   4.377
    1C        C   64   3.625   2.499   4.498
    1C        C   65   3.834   2.535   4.619
    1C        C   66   3.698   2.496   4.619
    1C        C   67   3.908   2.552   4.738
    1C        C   68   3.839   2.518   4.856
    1C        C   69   4.047   2.585   4.976
    1C        C   70   3.918   2.531   4.971
    1C        C   71   2.823   2.733   2.304
    1C        C   72   2.878   2.688   2.426
    1C        C   73   2.825   2.741   2.546
    1C        C   74   3.000   2.617   2.671
    1C        C   75   2.885   2.699   2.667
    1C        C   76   3.067   2.590   2.792
    1C        C   77   3.008   2.629   2.915
    1C        C   78   3.203   2.546   3.034
    1C        C   79   3.071   2.598   3.037
    1C        C   80   3.270   2.530   3.157
    1C        C   81   3.206   2.549   3.282
    1C        C   82   3.412   2.495   3.400
    1C        C   83   3.273   2.519   3.403
    1C        C   84   3.481   2.491   3.523
    1C        C   85   3.413   2.497   3.646
    1C        C   86   3.622   2.495   3.766
    1C        C   87   3.481   2.495   3.770
    1C        C   88   3.692   2.510   3.888
    1C        C   89   3.623   2.514   4.011
    1C        C   90   3.831   2.543   4.133
    1C        C   91   3.693   2.513   4.134
    1C        C   92   3.897   2.570   4.255
    1C        C   93   3.834   2.540   4.378
    1C        C   94   4.030   2.626   4.496
    1C        C   95   3.902   2.565   4.499
    1C        C   96   4.094   2.663   4.617
    1C        C   97   4.034   2.618   4.737
    1C        C   98   4.189   2.761   4.859
    1C        C   99   4.100   2.649   4.859
    1C        C  100   4.207   2.841   4.972
    1C        C  101   2.821   2.729   2.066
    1C        C  102   2.988   2.589   2.186
    1C        C  103   2.874   2.676   2.185
    1C        C  104   3.058   2.571   2.308
    1C        C  105   2.999   2.614   2.428
    1C        C  106   3.197   2.539   2.549
    1C        C  107   3.061   2.578   2.550
    1C        C  108   3.268   2.520   2.669
    1C        C  109   3.197   2.536   2.790
    1C        C  110   3.407   2.492   2.915
    1C        C  111   3.268   2.518   2.912
    1C        C  112   3.480   2.489   3.036
    1C        C  113   3.408   2.499   3.157
    1C        C  114   3.623   2.497   3.277
    1C        C  115   3.482   2.494   3.277
    1C        C  116   3.693   2.509   3.399
    1C        C  117   3.622   2.500   3.522
    1C        C  118   3.830   2.543   3.643
    1C        C  119   3.693   2.509   3.644
    1C        C  120   3.896   2.565   3.766
    1C        C  121   3.830   2.541   3.889
    1C        C  122   4.024   2.628   4.011
    1C        C  123   3.898   2.563   4.010
    1C        C  124   4.087   2.665   4.132
    1C        C  125   4.023   2.634   4.254
    1C        C  126   4.193   2.763   4.372
    1C        C  127   4.088   2.668   4.375
    1C        C  128   4.240   2.818   4.493
    1C        C  129   4.191   2.765   4.615
    1C        C  130   4.322   2.932   4.738
    1C        C  131   4.236   2.819   4.737
    1C        C  132   4.355   2.999   4.858
    1C        C  133   4.284   2.957   4.972
    1C        C  134   3.169   2.465   2.082
    1C        C  135   3.035   2.506   2.079
    1C        C  136   3.258   2.480   2.190
    1C        C  137   3.191   2.520   2.308
    1C        C  138   3.402   2.481   2.427
    1C        C  139   3.263   2.505   2.428
    1C        C  140   3.478   2.484   2.546
    1C        C  141   3.407   2.495   2.667
    1C        C  142   3.616   2.493   2.787
    1C        C  143   3.475   2.487   2.791
    1C        C  144   3.688   2.505   2.908
    1C        C  145   3.621   2.497   3.033
    1C        C  146   3.830   2.528   3.151
    1C        C  147   3.693   2.495   3.154
    1C        C  148   3.896   2.559   3.272
    1C        C  149   3.830   2.542   3.396
    1C        C  150   4.023   2.623   3.520
    1C        C  151   3.896   2.563   3.519
    1C        C  152   4.085   2.660   3.642
    1C        C  153   4.022   2.627   3.764
    1C        C  154   4.191   2.754   3.885
    1C        C  155   4.080   2.666   3.887
    1C        C  156   4.242   2.807   4.006
    1C        C  157   4.196   2.755   4.128
    1C        C  158   4.335   2.918   4.248
    1C        C  159   4.245   2.809   4.249
    1C        C  160   4.374   2.979   4.369
    1C        C  161   4.326   2.930   4.492
    1C        C  162   4.433   3.111   4.611
    1C        C  163   4.365   2.988   4.615
    1C        C  164   4.463   3.181   4.731
    1C        C  165   4.430   3.118   4.853
    1C        C  166   4.514   3.315   4.971
    1C        C  167   4.471   3.183   4.970
    1C        C  168   3.471   2.430   2.070
    1C        C  169   3.397   2.460   2.186
    1C        C  170   3.613   2.459   2.304
    1C        C  171   3.471   2.462   2.306
    1C        C  172   3.691   2.476   2.422
    1C        C  173   3.619   2.479   2.544
    1C        C  174   3.826   2.528   2.665
    1C        C  175   3.688   2.498   2.666
    1C        C  176   3.890   2.557   2.787
    1C        C  177   3.826   2.532   2.910
    1C        C  178   4.026   2.615   3.029
    1C        C  179   3.899   2.554   3.030
    1C        C  180   4.085   2.653   3.151
    1C        C  181   4.023   2.620   3.274
    1C        C  182   4.193   2.746   3.396
    1C        C  183   4.084   2.657   3.397
    1C        C  184   4.243   2.799   3.517
    1C        C  185   4.194   2.750   3.640
    1C        C  186   4.334   2.909   3.763
    1C        C  187   4.243   2.801   3.762
    1C        C  188   4.370   2.975   3.882
    1C        C  189   4.327   2.920   4.005
    1C        C  190   4.437   3.105   4.127
    1C        C  191   4.372   2.979   4.126
    1C        C  192   4.462   3.173   4.248
    1C        C  193   4.440   3.105   4.370
    1C        C  194   4.499   3.313   4.490
    1C        C  195   4.461   3.177   4.490
    1C        C  196   4.516   3.385   4.610
    1C        C  197   4.506   3.316   4.733
    1C        C  198   4.548   3.532   4.849
    1C        C  199   4.523   3.391   4.853
    1C        C  200   4.579   3.616   4.961
    1C        C  201   3.610   2.412   2.073
    1C        C  202   3.822   2.507   2.180
    1C        C  203   3.689   2.456   2.184
    1C        C  204   3.892   2.541   2.299
    1C        C  205   3.827   2.514   2.421
    1C        C  206   4.017   2.614   2.539
    1C        C  207   3.892   2.548   2.541
    1C        C  208   4.074   2.657   2.661
    1C        C  209   4.017   2.618   2.784
    1C        C  210   4.195   2.738   2.903
    1C        C  211   4.082   2.654   2.905
    1C        C  212   4.245   2.787   3.026
    1C        C  213   4.197   2.740   3.150
    1C        C  214   4.329   2.905   3.271
    1C        C  215   4.246   2.791   3.272
    1C        C  216   4.364   2.969   3.392
    1C        C  217   4.331   2.910   3.517
    1C        C  218   4.421   3.099   3.635
    1C        C  219   4.370   2.967   3.639
    1C        C  220   4.451   3.166   3.756
    1C        C  221   4.430   3.103   3.881
    1C        C  222   4.499   3.303   4.000
    1C        C  223   4.464   3.166   4.002
    1C        C  224   4.505   3.377   4.121
    1C        C  225   4.498   3.309   4.244
    1C        C  226   4.522   3.520   4.363
    1C        C  227   4.516   3.379   4.366
    1C        C  228   4.520   3.595   4.483
    1C        C  229   4.525   3.526   4.606
    1C        C  230   4.511   3.741   4.722
    1C        C  231   4.537   3.601   4.726
    1C        C  232   4.500   3.818   4.839
    1C        C  233   4.550   3.753   4.953
    1C        C  234   4.013   2.604   2.057
    1C        C  235   3.891   2.537   2.061
    1C        C  236   4.081   2.642   2.173
    1C        C  237   4.017   2.609   2.295
    1C        C  238   4.193   2.731   2.418
    1C        C  239   4.079   2.646   2.416
    1C        C  240   4.246   2.782   2.539
    1C        C  241   4.189   2.738   2.660
    1C        C  242   4.328   2.901   2.781
    1C        C  243   4.245   2.787   2.781
    1C        C  244   4.365   2.960   2.904
    1C        C  245   4.328   2.901   3.027
    1C        C  246   4.432   3.089   3.145
    1C        C  247   4.369   2.962   3.148
    1C        C  248   4.455   3.157   3.267
    1C        C  249   4.427   3.095   3.390
    1C        C  250   4.491   3.297   3.510
    1C        C  251   4.448   3.163   3.512
    1C        C  252   4.506   3.367   3.632
    1C        C  253   4.491   3.301   3.756
    1C        C  254   4.523   3.513   3.876
    1C        C  255   4.507   3.372   3.877
    1C        C  256   4.523   3.588   3.996
    1C        C  257   4.515   3.518   4.118
    1C        C  258   4.494   3.729   4.237
    1C        C  259   4.516   3.590   4.240
    1C        C  260   4.476   3.802   4.357
    1C        C  261   4.493   3.733   4.479
    1C        C  262   4.421   3.934   4.601
    1C        C  263   4.479   3.805   4.600
    1C        C  264   4.395   4.007   4.719
    1C        C  265   4.435   3.944   4.839
    1C        C  266   4.318   4.129   4.954
    1C        C  267   4.388   4.009   4.954
    1C        C  268   4.254   2.772   2.060
    1C        C  269   4.191   2.731   2.178
    1C        C  270   4.341   2.888   2.295
    1C        C  271   4.246   2.782   2.298
    1C        C  272   4.377   2.948   2.418
    1C        C  273   4.337   2.890   2.541
    1C        C  274   4.440   3.081   2.661
    1C        C  275   4.377   2.954   2.660
    1C        C  276   4.459   3.150   2.782
    1C        C  277   4.432   3.085   2.904
    1C        C  278   4.499   3.290   3.021
    1C        C  279   4.463   3.153   3.024
    1C        C  280   4.502   3.362   3.142
    1C        C  281   4.485   3.295   3.266
    1C        C  282   4.517   3.506   3.387
    1C        C  283   4.504   3.366   3.387
    1C        C  284   4.509   3.577   3.510
    1C        C  285   4.515   3.508   3.633
    1C        C  286   4.491   3.721   3.748
    1C        C  287   4.518   3.582   3.753
    1C        C  288   4.474   3.792   3.870
    1C        C  289   4.494   3.726   3.993
    1C        C  290   4.426   3.928   4.113
    1C        C  291   4.475   3.796   4.114
    1C        C  292   4.389   3.993   4.233
    1C        C  293   4.422   3.932   4.357
    1C        C  294   4.322   4.121   4.473
    1C        C  295   4.388   3.996   4.478
    1C        C  296   4.276   4.181   4.593
    1C        C  297   4.318   4.126   4.716
    1C        C  298   4.194   4.308   4.831
    1C        C  299   4.279   4.193   4.835
    1C        C  300   4.164   4.396   4.940
    1C        C  301   4.339   2.881   2.057
    1C        C  302   4.463   3.063   2.173
    1C        C  303   4.392   2.939   2.173
    1C        C  304   4.475   3.138   2.294
    1C        C  305   4.445   3.072   2.415
    1C        C  306   4.503   3.278   2.535
    1C        C  307   4.467   3.142   2.536
    1C        C  308   4.507   3.355   2.654
    1C        C  309   4.490   3.288   2.777
    1C        C  310   4.523   3.499   2.895
    1C        C  311   4.511   3.358   2.898
    1C        C  312   4.517   3.569   3.017
    1C        C  313   4.512   3.503   3.142
    1C        C  314   4.483   3.713   3.260
    1C        C  315   4.511   3.575   3.264
    1C        C  316   4.473   3.786   3.381
    1C        C  317   4.490   3.717   3.503
    1C        C  318   4.423   3.919   3.623
    1C        C  319   4.472   3.787   3.625
    1C        C  320   4.395   3.986   3.745
    1C        C  321   4.427   3.925   3.868
    1C        C  322   4.319   4.109   3.985
    1C        C  323   4.395   3.990   3.989
    1C        C  324   4.279   4.170   4.106
    1C        C  325   4.324   4.118   4.229
    1C        C  326   4.186   4.280   4.347
    1C        C  327   4.285   4.179   4.350
    1C        C  328   4.136   4.334   4.468
    1C        C  329   4.184   4.287   4.592
    1C        C  330   4.022   4.437   4.704
    1C        C  331   4.135   4.351   4.709
    1C        C  332   3.969   4.491   4.823
    1C        C  333   4.048   4.474   4.937
    1C        C  334   4.552   3.261   2.060
    1C        C  335   4.528   3.123   2.061
    1C        C  336   4.533   3.344   2.172
    1C        C  337   4.506   3.277   2.293
    1C        C  338   4.511   3.491   2.410
    1C        C  339   4.511   3.350   2.413
    1C        C  340   4.517   3.565   2.529
    1C        C  341   4.518   3.495   2.652
    1C        C  342   4.495   3.708   2.774
    1C        C  343   4.519   3.569   2.773
    1C        C  344   4.475   3.780   2.894
    1C        C  345   4.492   3.708   3.014
    1C        C  346   4.426   3.912   3.134
    1C        C  347   4.473   3.778   3.135
    1C        C  348   4.398   3.981   3.253
    1C        C  349   4.426   3.919   3.377
    1C        C  350   4.321   4.103   3.495
    1C        C  351   4.394   3.982   3.500
    1C        C  352   4.273   4.156   3.617
    1C        C  353   4.318   4.104   3.741
    1C        C  354   4.174   4.262   3.862
    1C        C  355   4.273   4.161   3.862
    1C        C  356   4.120   4.313   3.983
    1C        C  357   4.177   4.267   4.104
    1C        C  358   4.009   4.398   4.225
    1C        C  359   4.125   4.318   4.225
    1C        C  360   3.949   4.443   4.345
    1C        C  361   4.020   4.415   4.464
    1C        C  362   3.823   4.509   4.588
    1C        C  363   3.952   4.452   4.583
    1C        C  364   3.757   4.537   4.710
    1C        C  365   3.836   4.538   4.827
    1C        C  366   3.629   4.595   4.945
    1C        C  367   3.767   4.576   4.943
    1C        C  368   4.501   3.559   2.054
    1C        C  369   4.522   3.485   2.171
    1C        C  370   4.498   3.703   2.286
    1C        C  371   4.513   3.563   2.288
    1C        C  372   4.485   3.776   2.406
    1C        C  373   4.501   3.706   2.528
    1C        C  374   4.426   3.905   2.645
    1C        C  375   4.478   3.774   2.649
    1C        C  376   4.396   3.973   2.765
    1C        C  377   4.426   3.913   2.889
    1C        C  378   4.317   4.093   3.008
    1C        C  379   4.393   3.974   3.012
    1C        C  380   4.277   4.155   3.128
    1C        C  381   4.319   4.098   3.250
    1C        C  382   4.176   4.255   3.373
    1C        C  383   4.277   4.156   3.372
    1C        C  384   4.116   4.298   3.494
    1C        C  385   4.165   4.247   3.616
    1C        C  386   4.001   4.380   3.738
    1C        C  387   4.115   4.298   3.739
    1C        C  388   3.940   4.423   3.858
    1C        C  389   4.002   4.390   3.981
    1C        C  390   3.815   4.486   4.102
    1C        C  391   3.945   4.431   4.104
    1C        C  392   3.748   4.507   4.225
    1C        C  393   3.817   4.491   4.347
    1C        C  394   3.612   4.550   4.470
    1C        C  395   3.751   4.524   4.468
    1C        C  396   3.542   4.558   4.592
    1C        C  397   3.618   4.559   4.712
    1C        C  398   3.407   4.560   4.834
    1C        C  399   3.547   4.578   4.833
    1C        C  400   3.339   4.512   4.947
    1C        C  401   4.501   3.698   2.051
    1C        C  402   4.454   3.913   2.162
    1C        C  403   4.495   3.778   2.166
    1C        C  404   4.413   3.976   2.281
    1C        C  405   4.435   3.908   2.403
    1C        C  406   4.324   4.092   2.521
    1C        C  407   4.395   3.970   2.524
    1C        C  408   4.273   4.144   2.642
    1C        C  409   4.315   4.089   2.765
    1C        C  410   4.175   4.252   2.884
    1C        C  411   4.272   4.149   2.886
    1C        C  412   4.120   4.295   3.006
    1C        C  413   4.173   4.251   3.129
    1C        C  414   3.999   4.372   3.248
    1C        C  415   4.119   4.298   3.251
    1C        C  416   3.936   4.404   3.370
    1C        C  417   3.996   4.373   3.494
    1C        C  418   3.808   4.469   3.614
    1C        C  419   3.937   4.412   3.616
    1C        C  420   3.742   4.496   3.736
    1C        C  421   3.808   4.474   3.859
    1C        C  422   3.605   4.529   3.981
    1C        C  423   3.742   4.496   3.982
    1C        C  424   3.536   4.531   4.105
    1C        C  425   3.608   4.530   4.226
    1C        C  426   3.399   4.547   4.351
    1C        C  427   3.540   4.546   4.349
    1C        C  428   3.328   4.546   4.474
    1C        C  429   3.401   4.553   4.595
    1C        C  430   3.191   4.517   4.717
    1C        C  431   3.330   4.549   4.717
    1C        C  432   3.124   4.488   4.839
    1C        C  433   3.202   4.491   4.956
    1C        C  434   4.383   4.117   2.050
    1C        C  435   4.444   3.991   2.046
    1C        C  436   4.301   4.159   2.159
    1C        C  437   4.335   4.095   2.281
    1C        C  438   4.179   4.247   2.398
    1C        C  439   4.281   4.150   2.400
    1C        C  440   4.120   4.293   2.518
    1C        C  441   4.172   4.244   2.640
    1C        C  442   4.001   4.370   2.763
    1C        C  443   4.120   4.295   2.761
    1C        C  444   3.938   4.409   2.884
    1C        C  445   4.002   4.374   3.005
    1C        C  446   3.806   4.459   3.127
    1C        C  447   3.937   4.407   3.125
    1C        C  448   3.740   4.488   3.248
    1C        C  449   3.809   4.466   3.370
    1C        C  450   3.605   4.528   3.490
    1C        C  451   3.742   4.492   3.491
    1C        C  452   3.537   4.542   3.613
    1C        C  453   3.606   4.533   3.736
    1C        C  454   3.394   4.537   3.861
    1C        C  455   3.535   4.538   3.859
    1C        C  456   3.325   4.536   3.984
    1C        C  457   3.395   4.535   4.107
    1C        C  458   3.189   4.503   4.231
    1C        C  459   3.326   4.538   4.230
    1C        C  460   3.122   4.487   4.355
    1C        C  461   3.191   4.514   4.475
    1C        C  462   2.993   4.433   4.599
    1C        C  463   3.122   4.492   4.597
    1C        C  464   2.930   4.400   4.720
    1C        C  465   2.989   4.441   4.843
    1C        C  466   2.798   4.335   4.956
    1C        C  467   2.904   4.427   4.957
    1C        C  468   4.124   4.288   2.039
    1C        C  469   4.190   4.250   2.156
    1C        C  470   4.005   4.368   2.276
    1C        C  471   4.126   4.294   2.275
    1C        C  472   3.943   4.406   2.397
    1C        C  473   4.003   4.372   2.520
    1C        C  474   3.809   4.462   2.638
    1C        C  475   3.937   4.403   2.641
    1C        C  476   3.743   4.490   2.759
    1C        C  477   3.809   4.466   2.882
    1C        C  478   3.602   4.512   3.005
    1C        C  479   3.741   4.486   3.004
    1C        C  480   3.529   4.522   3.125
    1C        C  481   3.602   4.518   3.246
    1C        C  482   3.392   4.534   3.375
    1C        C  483   3.533   4.532   3.369
    1C        C  484   3.323   4.529   3.498
    1C        C  485   3.396   4.538   3.619
    1C        C  486   3.184   4.503   3.742
    1C        C  487   3.322   4.533   3.739
    1C        C  488   3.120   4.481   3.866
    1C        C  489   3.187   4.504   3.988
    1C        C  490   2.995   4.416   4.111
    1C        C  491   3.119   4.484   4.110
    1C        C  492   2.938   4.380   4.235
    1C        C  493   2.996   4.424   4.356
    1C        C  494   2.825   4.301   4.478
    1C        C  495   2.931   4.395   4.478
    1C        C  496   2.774   4.253   4.601
    1C        C  497   2.818   4.312   4.721
    1C        C  498   2.668   4.159   4.839
    1C        C  499   2.754   4.272   4.840
    1C        C  500   2.596   4.115   4.951
    1C        C  501   4.001   4.353   2.037
    1C        C  502   3.815   4.463   2.155
    1C        C  503   3.943   4.404   2.154
    1C        C  504   3.741   4.480   2.274
    1C        C  505   3.811   4.457   2.394
    1C        C  506   3.602   4.504   2.515
    1C        C  507   3.741   4.479   2.515
    1C        C  508   3.532   4.518   2.637
    1C        C  509   3.603   4.513   2.759
    1C        C  510   3.392   4.528   2.884
    1C        C  511   3.533   4.518   2.882
    1C        C  512   3.318   4.524   3.005
    1C        C  513   3.388   4.530   3.127
    1C        C  514   3.186   4.495   3.251
    1C        C  515   3.322   4.531   3.252
    1C        C  516   3.121   4.469   3.374
    1C        C  517   3.184   4.500   3.496
    1C        C  518   2.996   4.407   3.623
    1C        C  519   3.119   4.477   3.619
    1C        C  520   2.940   4.367   3.747
    1C        C  521   2.998   4.410   3.868
    1C        C  522   2.834   4.277   3.993
    1C        C  523   2.938   4.373   3.990
    1C        C  524   2.784   4.233   4.117
    1C        C  525   2.830   4.288   4.239
    1C        C  526   2.695   4.125   4.361
    1C        C  527   2.778   4.240   4.361
    1C        C  528   2.653   4.069   4.483
    1C        C  529   2.690   4.139   4.601
    1C        C  530   2.581   3.956   4.727
    1C        C  531   2.643   4.084   4.722
    1C        C  532   2.534   3.898   4.847
    1C        C  533   2.527   3.993   4.953
    1C        C  534   3.615   4.554   2.036
    1C        C  535   3.748   4.509   2.041
    1C        C  536   3.532   4.540   2.152
    1C        C  537   3.602   4.508   2.272
    1C        C  538   3.390   4.514   2.397
    1C        C  539   3.531   4.513   2.394
    1C        C  540   3.318   4.510   2.519
    1C        C  541   3.391   4.521   2.639
    1C        C  542   3.185   4.479   2.763
    1C        C  543   3.323   4.512   2.763
    1C        C  544   3.115   4.465   2.885
    1C        C  545   3.180   4.492   3.007
    1C        C  546   2.991   4.404   3.133
    1C        C  547   3.116   4.470   3.131
    1C        C  548   2.934   4.364   3.256
    1C        C  549   2.997   4.401   3.377
    1C        C  550   2.830   4.277   3.504
    1C        C  551   2.937   4.369   3.501
    1C        C  552   2.776   4.230   3.626
    1C        C  553   2.830   4.277   3.747
    1C        C  554   2.698   4.114   3.869
    1C        C  555   2.784   4.226   3.871
    1C        C  556   2.662   4.059   3.994
    1C        C  557   2.699   4.120   4.116
    1C        C  558   2.598   3.935   4.241
    1C        C  559   2.661   4.062   4.239
    1C        C  560   2.569   3.874   4.365
    1C        C  561   2.592   3.942   4.486
    1C        C  562   2.529   3.742   4.615
    1C        C  563   2.565   3.879   4.610
    1C        C  564   2.510   3.675   4.738
    1C        C  565   2.518   3.756   4.855
    1C        C  566   2.534   3.546   4.974
    1C        C  567   2.531   3.685   4.975
    1C        C  568   3.328   4.475   2.036
    1C        C  569   3.393   4.512   2.155
    1C        C  570   3.180   4.471   2.278
    1C        C  571   3.318   4.505   2.275
    1C        C  572   3.112   4.453   2.400
    1C        C  573   3.180   4.482   2.520
    1C        C  574   2.987   4.399   2.645
    1C        C  575   3.112   4.465   2.643
    1C        C  576   2.930   4.357   2.768
    1C        C  577   2.991   4.398   2.889
    1C        C  578   2.824   4.272   3.016
    1C        C  579   2.929   4.366   3.012
    1C        C  580   2.774   4.219   3.137
    1C        C  581   2.826   4.272   3.257
    1C        C  582   2.700   4.109   3.381
    1C        C  583   2.783   4.222   3.382
    1C        C  584   2.665   4.048   3.504
    1C        C  585   2.694   4.115   3.625
    1C        C  586   2.594   3.931   3.752
    1C        C  587   2.652   4.060   3.748
    1C        C  588   2.572   3.866   3.876
    1C        C  589   2.602   3.931   3.997
    1C        C  590   2.532   3.732   4.124
    1C        C  591   2.572   3.868   4.120
    1C        C  592   2.521   3.666   4.248
    1C        C  593   2.532   3.737   4.370
    1C        C  594   2.509   3.529   4.493
    1C        C  595   2.516   3.670   4.494
    1C        C  596   2.516   3.460   4.616
    1C        C  597   2.512   3.533   4.737
    1C        C  598   2.529   3.324   4.858
    1C        C  599   2.521   3.465   4.861
    1C        C  600   2.528   3.247   4.975
    1C        C  601   3.197   4.433   2.045
    1C        C  602   2.979   4.390   2.157
    1C        C  603   3.112   4.442   2.156
    1C        C  604   2.921   4.357   2.283
    1C        C  605   2.982   4.397   2.404
    1C        C  606   2.818   4.264   2.527
    1C        C  607   2.923   4.358   2.526
    1C        C  608   2.774   4.212   2.651
    1C        C  609   2.823   4.266   2.772
    1C        C  610   2.688   4.105   2.892
    1C        C  611   2.773   4.218   2.895
    1C        C  612   2.652   4.046   3.015
    1C        C  613   2.686   4.108   3.138
    1C        C  614   2.585   3.925   3.264
    1C        C  615   2.651   4.051   3.262
    1C        C  616   2.564   3.860   3.388
    1C        C  617   2.600   3.923   3.509
    1C        C  618   2.528   3.725   3.635
    1C        C  619   2.570   3.860   3.632
    1C        C  620   2.516   3.658   3.759
    1C        C  621   2.528   3.731   3.879
    1C        C  622   2.504   3.522   4.006
    1C        C  623   2.517   3.663   4.002
    1C        C  624   2.509   3.451   4.128
    1C        C  625   2.515   3.525   4.248
    1C        C  626   2.536   3.317   4.377
    1C        C  627   2.519   3.457   4.372
    1C        C  628   2.552   3.248   4.499
    1C        C  629   2.537   3.321   4.620
    1C        C  630   2.588   3.112   4.743
    1C        C  631   2.543   3.247   4.740
    1C        C  632   2.609   3.048   4.867
    1C        C  633   2.553   3.110   4.984
    1C        C  634   2.779   4.299   2.053
    1C        C  635   2.889   4.385   2.046
    1C        C  636   2.746   4.226   2.168
    1C        C  637   2.809   4.270   2.286
    1C        C  638   2.670   4.107   2.410
    1C        C  639   2.761   4.215   2.408
    1C        C  640   2.638   4.042   2.531
    1C        C  641   2.689   4.099   2.650
    1C        C  642   2.586   3.915   2.775
    1C        C  643   2.648   4.041   2.773
    1C        C  644   2.562   3.851   2.899
    1C        C  645   2.585   3.921   3.020
    1C        C  646   2.524   3.721   3.145
    1C        C  647   2.558   3.858   3.143
    1C        C  648   2.512   3.653   3.268
    1C        C  649   2.526   3.724   3.390
    1C        C  650   2.509   3.514   3.516
    1C        C  651   2.517   3.655   3.513
    1C        C  652   2.510   3.446   3.640
    1C        C  653   2.508   3.517   3.763
    1C        C  654   2.528   3.308   3.884
    1C        C  655   2.510   3.448   3.886
    1C        C  656   2.548   3.242   4.008
    1C        C  657   2.532   3.311   4.130
    1C        C  658   2.596   3.115   4.255
    1C        C  659   2.544   3.247   4.255
    1C        C  660   2.629   3.053   4.377
    1C        C  661   2.594   3.114   4.500
    1C        C  662   2.709   2.936   4.622
    1C        C  663   2.622   3.047   4.622
    1C        C  664   2.745   2.878   4.746
    1C        C  665   2.691   2.930   4.866
    1C        C  666   2.742   2.871   4.983
    1C        C  667   2.680   4.020   2.052
    1C        C  668   2.681   4.101   2.166
    1C        C  669   2.592   3.909   2.288
    1C        C  670   2.643   4.042   2.288
    1C        C  671   2.558   3.844   2.409
    1C        C  672   2.573   3.917   2.529
    1C        C  673   2.517   3.715   2.657
    1C        C  674   2.557   3.851   2.653
    1C        C  675   2.510   3.643   2.778
    1C        C  676   2.526   3.714   2.899
    1C        C  677   2.490   3.509   3.028
    1C        C  678   2.513   3.649   3.024
    1C        C  679   2.496   3.440   3.151
    1C        C  680   2.500   3.512   3.272
    1C        C  681   2.519   3.301   3.399
    1C        C  682   2.505   3.441   3.395
    1C        C  683   2.540   3.232   3.521
    1C        C  684   2.526   3.306   3.640
    1C        C  685   2.597   3.106   3.765
    1C        C  686   2.547   3.238   3.763
    1C        C  687   2.623   3.044   3.889
    1C        C  688   2.599   3.110   4.012
    1C        C  689   2.706   2.929   4.135
    1C        C  690   2.630   3.048   4.135
    1C        C  691   2.750   2.876   4.258
    1C        C  692   2.702   2.932   4.379
    1C        C  693   2.748   2.876   4.500
    1C        C  694   2.622   3.893   2.052
    1C        C  695   2.530   3.699   2.176
    1C        C  696   2.577   3.832   2.170
    1C        C  697   2.500   3.631   2.297
    1C        C  698   2.518   3.709   2.413
    1C        C  699   2.489   3.501   2.540
    1C        C  700   2.500   3.642   2.537
    1C        C  701   2.505   3.432   2.663
    1C        C  702   2.500   3.503   2.785
    1C        C  703   2.523   3.295   2.910
    1C        C  704   2.496   3.434   2.908
    1C        C  705   2.543   3.230   3.034
    1C        C  706   2.521   3.301   3.154
    1C        C  707   2.589   3.101   3.276
    1C        C  708   2.533   3.231   3.277
    1C        C  709   2.613   3.034   3.398
    1C        C  710   2.580   3.096   3.521
    1C        C  711   2.703   2.924   3.644
    1C        C  712   2.626   3.042   3.643
    1C        C  713   2.752   2.875   3.768
    1C        C  714   2.707   2.930   3.890
    1C        C  715   2.744   2.869   4.012
    1C        C  716   2.448   3.495   2.061
    1C        C  717   2.487   3.630   2.062
    1C        C  718   2.464   3.415   2.178
    1C        C  719   2.476   3.491   2.298
    1C        C  720   2.510   3.286   2.423
    1C        C  721   2.482   3.425   2.422
    1C        C  722   2.535   3.218   2.544
    1C        C  723   2.524   3.292   2.664
    1C        C  724   2.589   3.094   2.788
    1C        C  725   2.538   3.226   2.787
    1C        C  726   2.618   3.030   2.911
    1C        C  727   2.591   3.097   3.032
    1C        C  728   2.702   2.920   3.156
    1C        C  729   2.620   3.035   3.155
    1C        C  730   2.746   2.867   3.279
    1C        C  731   2.702   2.923   3.401
    1C        C  732   2.752   2.871   3.523
    1C        C  733   2.482   3.190   2.068
    1C        C  734   2.483   3.273   2.182
    1C        C  735   2.576   3.080   2.300
    1C        C  736   2.523   3.212   2.303
    1C        C  737   2.604   3.015   2.423
    1C        C  738   2.584   3.085   2.544
    1C        C  739   2.690   2.905   2.667
    1C        C  740   2.614   3.024   2.668
    1C        C  741   2.740   2.854   2.789
    1C        C  742   2.700   2.915   2.909
    1C        C  743   2.745   2.864   3.033
    1C        C  744   2.548   3.068   2.065
    1C        C  745   2.679   2.892   2.183
    1C        C  746   2.607   3.013   2.180
    1C        C  747   2.725   2.836   2.304
    1C        C  748   2.678   2.895   2.423
    1C        C  749   2.732   2.847   2.545
    1C        C  750   2.729   2.833   2.066
    1C        C  751   3.662   2.305   1.984
    1C        O  752   3.722   2.202   2.024
    1C        O  753   3.616   2.287   1.853
    1C        C  754   4.604   3.040   1.965
    1C        O  755   4.553   3.004   1.856
    1C        O  756   4.740   3.067   1.942
    1C        C  757   4.464   4.210   1.968
    1C        O  758   4.487   4.329   2.002
    1C        O  759   4.483   4.176   1.833
    1C        C  760   3.589   4.651   1.928
    1C        O  761   3.642   4.766   1.932
    1C        O  762   3.534   4.622   1.802
    1C        C  763   2.905   4.465   1.922
    1C        O  764   2.882   4.425   1.804
    1C        O  765   2.855   4.596   1.927
    1C        C  766   2.351   3.471   1.952
    1C        O  767   2.396   3.417   1.847
    1C        O  768   2.215   3.501   1.960
    1C        C  769   4.694   3.576   5.044
    1C        O  770   4.673   3.533   5.161
    1C        O  771   4.825   3.551   4.998
    1C        C  772   4.251   4.455   5.045
    1C        O  773   4.229   4.451   5.169
    1C        O  774   4.339   4.559   5.012
    1C        C  775   4.130   2.550   5.094
    1C        O  776   4.180   2.435   5.095
    1C        O  777   4.112   2.592   5.226
    1C        C  778   2.881   4.527   5.064
    1C        O  779   2.809   4.627   5.037
    1C        O  780   2.916   4.523   5.199
    1C        C  781   2.459   3.027   5.063
    1C        O  782   2.348   2.982   5.023
    1C        O  783   2.497   2.981   5.188
    1C        C  784   2.418   3.984   5.054
    1C        O  785   2.303   3.979   5.003
    1C        O  786   2.414   4.052   5.176
    1C        C  787   2.956   2.460   1.963
    1C        O  788   2.997   2.500   1.852
    1C        O  789   2.884   2.341   1.972
    1C        C  790   3.180   2.362   5.045
    1C        O  791   3.141   2.254   4.993
    1C        O  792   3.236   2.350   5.173
    1C        H  793   4.268   3.029   5.049
    1C        H  794   4.182   2.807   5.070
    1C        H  795   4.478   3.129   5.061
    1C        H  796   4.463   3.367   5.050
    1C        H  797   4.554   3.809   5.044
    1C        H  798   4.426   3.976   5.048
    1C        H  799   4.313   4.182   5.047
    1C        H  800   4.043   4.566   4.992
    1C        H  801   3.810   4.552   5.038
    1C        H  802   3.595   4.643   5.034
    1C        H  803   3.396   4.468   5.026
    1C        H  804   3.161   4.534   5.045
    1C        H  805   3.880   2.486   5.060
    1C        H  806   3.661   2.545   5.051
    1C        H  807   2.989   2.535   5.054
    1C        H  808   3.446   2.513   5.067
    1C        H  809   2.884   2.757   5.079
    1C        H  810   2.674   2.850   5.063
    1C        H  811   2.464   3.285   5.052
    1C        H  812   2.568   3.500   5.064
    1C        H  813   2.481   3.722   5.063
    1C        H  814   2.574   4.182   5.031
    1C        H  815   2.733   4.327   5.041
    1C        H  816   2.697   2.856   1.967
    1C        H  817   2.881   2.719   1.978
    1C        H  818   3.208   2.425   1.990
    1C        H  819   3.421   2.449   1.978
    1C        H  820   3.834   2.533   1.970
    1C        H  821   4.057   2.628   1.963
    1C        H  822   4.248   2.713   1.971
    1C        H  823   4.345   2.933   1.963
    1C        H  824   4.589   3.300   1.968
    1C        H  825   4.486   3.506   1.962
    1C        H  826   4.560   3.742   1.973
    1C        H  827   3.811   4.527   1.956
    1C        H  828   3.962   4.378   1.940
    1C        H  829   4.172   4.276   1.944
    1C        H  830   4.509   3.963   1.966
    1C        H  831   2.596   3.859   1.954
    1C        H  832   2.691   4.061   1.953
    1C        H  833   2.705   4.309   1.976
    1C        H  834   3.364   4.496   1.937
    1C        H  835   3.153   4.420   1.948
    1C        H  836   2.577   3.032   1.969
    1C        H  837   2.425   3.223   1.984
    1C        H  838   2.480   3.681   1.969
    2V3OU   H29  839   2.802   3.550   2.996
    2V3OU   C27  840   2.788   3.497   3.094
    2V3OU   H27  841   2.732   3.567   3.161
    2V3OU   H28  842   2.735   3.401   3.074
    2V3OU   O11  843   2.912   3.471   3.161
    2V3OU   C15  844   2.927   3.393   3.273
    2V3OU   C13  845   3.050   3.370   3.339
    2V3OU   C14  846   3.080   3.268   3.430
    2V3OU   C16  847   2.978   3.181   3.467
    2V3OU    H6  848   2.993   3.103   3.544
    2V3OU   C12  849   3.216   3.230   3.476
    2V3OU    O2  850   3.231   3.126   3.543
    2V3OU   C10  851   3.323   3.303   3.407
    2V3OU    C8  852   3.455   3.264   3.428
    2V3OU   O10  853   3.488   3.149   3.493
    2V3OU   H26  854   3.403   3.112   3.520
    2V3OU    C6  855   3.561   3.344   3.377
    2V3OU    C5  856   3.535   3.461   3.306
    2V3OU    C4  857   3.700   3.291   3.380
    2V3OU    H4  858   3.721   3.219   3.464
    2V3OU    H5  859   3.707   3.227   3.287
    2V3OU    C2  860   3.815   3.393   3.375
    2V3OU    O6  861   3.801   3.472   3.494
    2V3OU   H21  862   3.764   3.559   3.474
    2V3OU    C3  863   3.781   3.493   3.264
    2V3OU    H2  864   3.862   3.570   3.254
    2V3OU    H3  865   3.783   3.439   3.166
    2V3OU   C25  866   3.953   3.328   3.363
    2V3OU    O7  867   3.998   3.304   3.251
    2V3OU   C26  868   4.022   3.284   3.491
    2V3OU   H22  869   4.063   3.375   3.543
    2V3OU   H23  870   4.116   3.229   3.466
    2V3OU    O8  871   3.957   3.201   3.584
    2V3OU   H24  872   3.927   3.254   3.659
    2V3OU    C1  873   3.645   3.559   3.280
    2V3OU    H1  874   3.624   3.615   3.184
    2V3OU    O3  875   3.658   3.656   3.384
    2V3OU   C19  876   3.617   3.791   3.361
    2V3OU    H9  877   3.515   3.795   3.313
    2V3OU    O4  878   3.712   3.849   3.275
    2V3OU   C20  879   3.840   3.873   3.333
    2V3OU   H10  880   3.890   3.773   3.348
    2V3OU   C24  881   3.607   3.855   3.500
    2V3OU   H16  882   3.533   3.795   3.559
    2V3OU   H17  883   3.567   3.958   3.481
    2V3OU   C23  884   3.746   3.873   3.561
    2V3OU   H15  885   3.786   3.769   3.586
    2V3OU    N1  886   3.735   3.953   3.682
    2V3OU   H19  887   3.801   3.924   3.751
    2V3OU   H20  888   3.645   3.931   3.720
    2V3OU   C21  889   3.845   3.948   3.467
    2V3OU   H11  890   3.950   3.920   3.498
    2V3OU    O5  891   3.827   4.088   3.465
    2V3OU   H18  892   3.772   4.095   3.545
    2V3OU   C22  893   3.913   3.945   3.221
    2V3OU   H12  894   3.867   4.046   3.207
    2V3OU   H13  895   3.896   3.892   3.124
    2V3OU   H14  896   4.022   3.956   3.248
    2V3OU   C11  897   3.156   3.468   3.315
    2V3OU    O1  898   3.130   3.586   3.284
    2V3OU    C9  899   3.296   3.425   3.338
    2V3OU    C7  900   3.399   3.499   3.283
    2V3OU    O9  901   3.379   3.616   3.212
    2V3OU   H25  902   3.286   3.629   3.186
    2V3OU   C17  903   2.823   3.310   3.321
    2V3OU    H7  904   2.727   3.350   3.289
    2V3OU   C18  905   2.854   3.213   3.415
    2V3OU    H8  906   2.781   3.164   3.482
    3SOL     OW  907   2.749   5.231   6.210
    3SOL    HW1  908   2.689   5.303   6.246
    3SOL    HW2  909   2.746   5.152   6.271
    4SOL     OW  910   6.692   0.497   1.129
    4SOL    HW1  911   6.791   0.499   1.115
    4SOL    HW2  912   6.664   0.579   1.178
    5SOL     OW  913   4.389   2.405   1.939
    5SOL    HW1  914   4.328   2.378   2.013
    5SOL    HW2  915   4.336   2.454   1.869
    6SOL     OW  916   4.112   1.571   1.778
    6SOL    HW1  917   4.054   1.637   1.824
    6SOL    HW2  918   4.081   1.559   1.684
    7SOL     OW  919   0.558   3.861   3.590
    7SOL    HW1  920   0.485   3.870   3.657
    7SOL    HW2  921   0.556   3.939   3.527
    8SOL     OW  922   2.738   1.896   5.559
    8SOL    HW1  923   2.794   1.852   5.630
    8SOL    HW2  924   2.794   1.961   5.508
    9SOL     OW  925   5.316   1.959   5.791
    9SOL    HW1  926   5.258   1.879   5.783
    9SOL    HW2  927   5.400   1.935   5.839
   10SOL     OW  928   2.772   5.220   5.185
   10SOL    HW1  929   2.839   5.185   5.251
   10SOL    HW2  930   2.723   5.297   5.225
   11SOL     OW  931   2.332   1.158   5.583
   11SOL    HW1  932   2.430   1.171   5.570
   11SOL    HW2  933   2.283   1.191   5.503
   12SOL     OW  934   3.031   4.862   3.650
   12SOL    HW1  935   3.095   4.915   3.706
   12SOL    HW2  936   2.962   4.820   3.709
   13SOL     OW  937   3.184   6.530   4.466
   13SOL    HW1  938   3.163   6.539   4.369
   13SOL    HW2  939   3.223   6.616   4.499
   14SOL     OW  940   4.032   4.922   6.435
   14SOL    HW1  941   4.114   4.970   6.467
   14SOL    HW2  942   3.963   4.989   6.406
   15SOL     OW  943   0.598   6.619   1.151
   15SOL    HW1  944   0.509   6.594   1.191
   15SOL    HW2  945   0.583   6.670   1.066
   16SOL     OW  946   5.448   3.406   6.112
   16SOL    HW1  947   5.396   3.331   6.153
   16SOL    HW2  948   5.465   3.386   6.015
   17SOL     OW  949   6.067   6.639   6.600
   17SOL    HW1  950   5.986   6.638   6.541
   17SOL    HW2  951   6.048   6.587   6.683
   18SOL     OW  952   3.287   0.790   5.804
   18SOL    HW1  953   3.241   0.836   5.728
   18SOL    HW2  954   3.385   0.787   5.787
   19SOL     OW  955   0.435   2.205   2.570
   19SOL    HW1  956   0.493   2.124   2.584
   19SOL    HW2  957   0.453   2.272   2.641
   20SOL     OW  958   4.995   1.248   4.935
   20SOL    HW1  959   4.922   1.271   4.871
   20SOL    HW2  960   4.987   1.153   4.962
   21SOL     OW  961   2.860   1.564   2.187
   21SOL    HW1  962   2.894   1.503   2.115
   21SOL    HW2  963   2.847   1.511   2.271
   22SOL     OW  964   0.910   6.164   0.217
   22SOL    HW1  965   0.856   6.225   0.159
   22SOL    HW2  966   1.004   6.197   0.220
   23SOL     OW  967   4.337   5.296   2.311
   23SOL    HW1  968   4.348   5.395   2.314
   23SOL    HW2  969   4.424   5.254   2.283
   24SOL     OW  970   3.051   0.436   2.358
   24SOL    HW1  971   2.987   0.365   2.387
   24SOL    HW2  972   3.130   0.437   2.419
   25SOL     OW  973   2.770   0.297   3.592
   25SOL    HW1  974   2.763   0.298   3.492
   25SOL    HW2  975   2.689   0.253   3.631
   26SOL     OW  976   6.297   1.814   0.360
   26SOL    HW1  977   6.311   1.796   0.457
   26SOL    HW2  978   6.381   1.853   0.322
   27SOL     OW  979   1.668   0.864   2.557
   27SOL    HW1  980   1.568   0.861   2.569
   27SOL    HW2  981   1.706   0.939   2.612
   28SOL     OW  982   1.628   6.938   4.845
   28SOL    HW1  983   1.570   6.865   4.881
   28SOL    HW2  984   1.603   0.008   4.888
   29SOL     OW  985   6.169   1.770   1.477
   29SOL    HW1  986   6.180   1.680   1.435
   29SOL    HW2  987   6.149   1.759   1.574
   30SOL     OW  988   4.281   0.566   3.774
   30SOL    HW1  989   4.285   0.475   3.815
   30SOL    HW2  990   4.365   0.584   3.722
   31SOL     OW  991   0.349   2.444   6.467
   31SOL    HW1  992   0.296   2.437   6.552
   31SOL    HW2  993   0.425   2.508   6.481
   32SOL     OW  994   0.646   1.909   2.846
   32SOL    HW1  995   0.735   1.947   2.872
   32SOL    HW2  996   0.659   1.822   2.799
   33SOL     OW  997   1.108   4.396   5.144
   33SOL    HW1  998   1.119   4.316   5.203
   33SOL    HW2  999   1.011   4.421   5.140
   34SOL     OW 1000   2.506   6.850   4.999
   34SOL    HW1 1001   2.588   6.885   5.045
   34SOL    HW2 1002   2.464   6.780   5.057
   35SOL     OW 1003   5.011   2.794   5.938
   35SOL    HW1 1004   4.943   2.801   5.865
   35SOL    HW2 1005   4.983   2.724   6.004
   36SOL     OW 1006   4.756   2.187   4.387
   36SOL    HW1 1007   4.685   2.148   4.446
   36SOL    HW2 1008   4.837   2.207   4.441
   37SOL     OW 1009   1.795   1.317   5.612
   37SOL    HW1 1010   1.877   1.373   5.596
   37SOL    HW2 1011   1.721   1.376   5.645
   38SOL     OW 1012   1.200   5.276   2.324
   38SOL    HW1 1013   1.263   5.302   2.250
   38SOL    HW2 1014   1.186   5.354   2.384
   39SOL     OW 1015   6.279   4.635   6.451
   39SOL    HW1 1016   6.215   4.587   6.511
   39SOL    HW2 1017   6.299   4.579   6.371
   40SOL     OW 1018   4.316   1.913   0.721
   40SOL    HW1 1019   4.294   1.869   0.808
   40SOL    HW2 1020   4.412   1.895   0.698
   41SOL     OW 1021   6.557   3.489   3.536
   41SOL    HW1 1022   6.504   3.428   3.476
   41SOL    HW2 1023   6.567   3.578   3.492
   42SOL     OW 1024   3.366   5.920   4.542
   42SOL    HW1 1025   3.273   5.887   4.557
   42SOL    HW2 1026   3.430   5.862   4.595
   43SOL     OW 1027   4.637   0.187   5.495
   43SOL    HW1 1028   4.674   0.119   5.558
   43SOL    HW2 1029   4.628   0.275   5.542
   44SOL     OW 1030   4.922   2.225   5.517
   44SOL    HW1 1031   4.995   2.257   5.456
   44SOL    HW2 1032   4.949   2.138   5.558
   45SOL     OW 1033   4.560   4.671   1.162
   45SOL    HW1 1034   4.646   4.644   1.119
   45SOL    HW2 1035   4.488   4.609   1.133
   46SOL     OW 1036   0.751   2.823   4.036
   46SOL    HW1 1037   0.745   2.840   4.134
   46SOL    HW2 1038   0.676   2.868   3.989
   47SOL     OW 1039   4.356   3.971   0.563
   47SOL    HW1 1040   4.370   4.016   0.651
   47SOL    HW2 1041   4.415   3.890   0.558
   48SOL     OW 1042   6.358   2.629   6.374
   48SOL    HW1 1043   6.311   2.639   6.287
   48SOL    HW2 1044   6.291   2.621   6.448
   49SOL     OW 1045   5.982   3.037   2.000
   49SOL    HW1 1046   5.997   3.135   2.013
   49SOL    HW2 1047   6.031   2.986   2.071
   50SOL     OW 1048   5.925   1.112   4.994
   50SOL    HW1 1049   5.911   1.165   5.077
   50SOL    HW2 1050   5.838   1.075   4.962
   51SOL     OW 1051   2.388   6.597   3.116
   51SOL    HW1 1052   2.377   6.668   3.046
   51SOL    HW2 1053   2.390   6.641   3.207
   52SOL     OW 1054   5.788   2.854   1.868
   52SOL    HW1 1055   5.786   2.848   1.768
   52SOL    HW2 1056   5.867   2.908   1.896
   53SOL     OW 1057   4.874   1.646   3.990
   53SOL    HW1 1058   4.931   1.699   3.926
   53SOL    HW2 1059   4.782   1.683   3.991
   54SOL     OW 1060   5.749   6.188   1.277
   54SOL    HW1 1061   5.813   6.215   1.205
   54SOL    HW2 1062   5.737   6.089   1.276
   55SOL     OW 1063   2.337   2.721   4.939
   55SOL    HW1 1064   2.242   2.696   4.920
   55SOL    HW2 1065   2.343   2.819   4.958
   56SOL     OW 1066   0.334   0.949   1.565
   56SOL    HW1 1067   0.287   1.027   1.524
   56SOL    HW2 1068   0.432   0.966   1.568
   57SOL     OW 1069   4.290   1.040   1.669
   57SOL    HW1 1070   4.221   1.111   1.679
   57SOL    HW2 1071   4.296   1.012   1.574
   58SOL     OW 1072   0.751   6.699   5.352
   58SOL    HW1 1073   0.804   6.727   5.432
   58SOL    HW2 1074   0.705   6.779   5.312
   59SOL     OW 1075   6.920   3.224   6.653
   59SOL    HW1 1076   7.014   3.212   6.622
   59SOL    HW2 1077   6.857   3.189   6.584
   60SOL     OW 1078   5.124   2.976   4.242
   60SOL    HW1 1079   5.112   2.891   4.190
   60SOL    HW2 1080   5.098   3.054   4.185
   61SOL     OW 1081   6.418   1.576   4.093
   61SOL    HW1 1082   6.410   1.477   4.085
   61SOL    HW2 1083   6.508   1.606   4.062
   62SOL     OW 1084   1.879   1.108   1.908
   62SOL    HW1 1085   1.790   1.091   1.951
   62SOL    HW2 1086   1.868   1.174   1.833
   63SOL     OW 1087   3.883   0.464   4.294
   63SOL    HW1 1088   3.843   0.495   4.380
   63SOL    HW2 1089   3.964   0.519   4.272
   64SOL     OW 1090   6.928   2.721   6.328
   64SOL    HW1 1091   6.913   2.816   6.300
   64SOL    HW2 1092   6.973   2.671   6.253
   65SOL     OW 1093   0.686   4.803   6.595
   65SOL    HW1 1094   0.713   4.792   6.499
   65SOL    HW2 1095   0.757   4.854   6.644
   66SOL     OW 1096   2.975   0.925   3.343
   66SOL    HW1 1097   3.057   0.878   3.309
   66SOL    HW2 1098   2.994   1.023   3.352
   67SOL     OW 1099   6.821   2.838   5.766
   67SOL    HW1 1100   6.774   2.803   5.685
   67SOL    HW2 1101   6.782   2.796   5.848
   68SOL     OW 1102   0.520   1.542   0.092
   68SOL    HW1 1103   0.453   1.555   0.165
   68SOL    HW2 1104   0.483   1.478   0.024
   69SOL     OW 1105   1.039   2.611   5.357
   69SOL    HW1 1106   0.972   2.571   5.294
   69SOL    HW2 1107   1.129   2.613   5.313
   70SOL     OW 1108   5.266   4.867   3.896
   70SOL    HW1 1109   5.336   4.927   3.935
   70SOL    HW2 1110   5.294   4.771   3.908
   71SOL     OW 1111   4.285   2.349   3.763
   71SOL    HW1 1112   4.255   2.364   3.669
   71SOL    HW2 1113   4.383   2.328   3.764
   72SOL     OW 1114   1.272   1.451   3.279
   72SOL    HW1 1115   1.180   1.442   3.316
   72SOL    HW2 1116   1.331   1.497   3.346
   73SOL     OW 1117   3.249   0.099   0.945
   73SOL    HW1 1118   3.337   0.122   0.987
   73SOL    HW2 1119   3.179   0.162   0.980
   74SOL     OW 1120   4.188   0.549   0.142
   74SOL    HW1 1121   4.120   0.589   0.204
   74SOL    HW2 1122   4.279   0.556   0.184
   75SOL     OW 1123   4.281   0.765   1.320
   75SOL    HW1 1124   4.255   0.671   1.302
   75SOL    HW2 1125   4.341   0.768   1.400
   76SOL     OW 1126   3.248   3.407   6.930
   76SOL    HW1 1127   3.279   3.496   6.898
   76SOL    HW2 1128   3.191   3.364   6.860
   77SOL     OW 1129   1.065   0.419   3.471
   77SOL    HW1 1130   1.098   0.409   3.565
   77SOL    HW2 1131   1.143   0.418   3.409
   78SOL     OW 1132   4.895   1.541   0.674
   78SOL    HW1 1133   4.864   1.569   0.583
   78SOL    HW2 1134   4.957   1.610   0.711
   79SOL     OW 1135   2.804   6.032   1.519
   79SOL    HW1 1136   2.804   6.088   1.602
   79SOL    HW2 1137   2.831   5.939   1.542
   80SOL     OW 1138   4.273   1.228   4.209
   80SOL    HW1 1139   4.194   1.289   4.218
   80SOL    HW2 1140   4.355   1.283   4.191
   81SOL     OW 1141   1.999   0.387   2.377
   81SOL    HW1 1142   2.057   0.316   2.417
   81SOL    HW2 1143   1.903   0.363   2.392
   82SOL     OW 1144   5.453   5.371   1.242
   82SOL    HW1 1145   5.533   5.396   1.298
   82SOL    HW2 1146   5.383   5.332   1.301
   83SOL     OW 1147   0.162   0.713   0.040
   83SOL    HW1 1148   0.150   0.784   6.986
   83SOL    HW2 1149   0.097   0.728   0.114
   84SOL     OW 1150   6.135   3.796   3.009
   84SOL    HW1 1151   6.114   3.891   3.031
   84SOL    HW2 1152   6.235   3.782   3.012
   85SOL     OW 1153   1.831   1.060   2.906
   85SOL    HW1 1154   1.809   1.144   2.956
   85SOL    HW2 1155   1.755   0.995   2.916
   86SOL     OW 1156   0.150   1.307   6.507
   86SOL    HW1 1157   0.106   1.239   6.450
   86SOL    HW2 1158   0.100   1.316   6.593
   87SOL     OW 1159   4.689   4.308   1.305
   87SOL    HW1 1160   4.696   4.332   1.402
   87SOL    HW2 1161   4.750   4.231   1.285
   88SOL     OW 1162   3.324   2.125   6.528
   88SOL    HW1 1163   3.321   2.167   6.437
   88SOL    HW2 1164   3.239   2.143   6.577
   89SOL     OW 1165   3.386   2.849   7.017
   89SOL    HW1 1166   3.368   2.946   0.016
   89SOL    HW2 1167   3.471   2.823   0.047
   90SOL     OW 1168   3.940   5.191   2.416
   90SOL    HW1 1169   4.001   5.265   2.445
   90SOL    HW2 1170   3.901   5.213   2.327
   91SOL     OW 1171   6.381   4.154   6.398
   91SOL    HW1 1172   6.326   4.081   6.356
   91SOL    HW2 1173   6.475   4.148   6.365
   92SOL     OW 1174   4.448   4.394   1.136
   92SOL    HW1 1175   4.422   4.298   1.122
   92SOL    HW2 1176   4.547   4.400   1.148
   93SOL     OW 1177   3.083   3.391   6.691
   93SOL    HW1 1178   3.003   3.447   6.714
   93SOL    HW2 1179   3.054   3.313   6.635
   94SOL     OW 1180   3.277   5.470   6.646
   94SOL    HW1 1181   3.237   5.480   6.737
   94SOL    HW2 1182   3.257   5.378   6.611
   95SOL     OW 1183   2.125   1.178   2.902
   95SOL    HW1 1184   2.039   1.126   2.904
   95SOL    HW2 1185   2.131   1.235   2.984
   96SOL     OW 1186   4.028   5.526   5.466
   96SOL    HW1 1187   3.990   5.542   5.375
   96SOL    HW2 1188   4.071   5.610   5.499
   97SOL     OW 1189   2.138   3.691   5.639
   97SOL    HW1 1190   2.121   3.789   5.629
   97SOL    HW2 1191   2.235   3.672   5.624
   98SOL     OW 1192   1.228   2.452   0.355
   98SOL    HW1 1193   1.304   2.388   0.344
   98SOL    HW2 1194   1.245   2.535   0.301
   99SOL     OW 1195   4.112   3.592   1.559
   99SOL    HW1 1196   4.114   3.690   1.542
   99SOL    HW2 1197   4.179   3.547   1.500
  100SOL     OW 1198   0.569   0.126   4.223
  100SOL    HW1 1199   0.569   0.181   4.307
  100SOL    HW2 1200   0.663   0.102   4.200
  101SOL     OW 1201   0.566   4.725   2.239
  101SOL    HW1 1202   0.573   4.767   2.330
  101SOL    HW2 1203   0.530   4.633   2.247
  102SOL     OW 1204   3.633   5.428   2.096
  102SOL    HW1 1205   3.602   5.451   2.003
  102SOL    HW2 1206   3.712   5.367   2.090
  103SOL     OW 1207   2.199   2.375   1.915
  103SOL    HW1 1208   2.279   2.434   1.910
  103SOL    HW2 1209   2.202   2.322   2.000
  104SOL     OW 1210   1.325   6.405   2.866
  104SOL    HW1 1211   1.347   6.320   2.914
  104SOL    HW2 1212   1.409   6.455   2.846
  105SOL     OW 1213   6.078   1.378   6.160
  105SOL    HW1 1214   6.041   1.471   6.167
  105SOL    HW2 1215   6.118   1.364   6.070
  106SOL     OW 1216   3.617   6.327   3.399
  106SOL    HW1 1217   3.701   6.302   3.352
  106SOL    HW2 1218   3.640   6.369   3.488
  107SOL     OW 1219   0.428   0.950   0.340
  107SOL    HW1 1220   0.493   0.889   0.295
  107SOL    HW2 1221   0.358   0.896   0.386
  108SOL     OW 1222   3.801   6.471   6.695
  108SOL    HW1 1223   3.750   6.474   6.781
  108SOL    HW2 1224   3.879   6.534   6.701
  109SOL     OW 1225   2.984   1.802   2.241
  109SOL    HW1 1226   2.953   1.866   2.171
  109SOL    HW2 1227   2.951   1.710   2.219
  110SOL     OW 1228   3.445   5.381   4.469
  110SOL    HW1 1229   3.370   5.442   4.492
  110SOL    HW2 1230   3.408   5.295   4.434
  111SOL     OW 1231   2.193   1.362   4.219
  111SOL    HW1 1232   2.133   1.363   4.140
  111SOL    HW2 1233   2.288   1.372   4.189
  112SOL     OW 1234   3.694   6.357   0.184
  112SOL    HW1 1235   3.793   6.360   0.174
  112SOL    HW2 1236   3.652   6.334   0.096
  113SOL     OW 1237   0.700   6.351   3.284
  113SOL    HW1 1238   0.700   6.331   3.186
  113SOL    HW2 1239   0.786   6.395   3.309
  114SOL     OW 1240   1.269   5.830   1.695
  114SOL    HW1 1241   1.172   5.811   1.706
  114SOL    HW2 1242   1.286   5.863   1.602
  115SOL     OW 1243   5.453   0.184   2.656
  115SOL    HW1 1244   5.366   0.172   2.704
  115SOL    HW2 1245   5.505   0.257   2.700
  116SOL     OW 1246   0.027   5.925   1.164
  116SOL    HW1 1247   7.002   6.002   1.211
  116SOL    HW2 1248   0.107   5.894   1.216
  117SOL     OW 1249   0.359   1.253   0.980
  117SOL    HW1 1250   0.276   1.206   0.947
  117SOL    HW2 1251   0.430   1.247   0.910
  118SOL     OW 1252   1.232   1.744   2.525
  118SOL    HW1 1253   1.250   1.819   2.460
  118SOL    HW2 1254   1.318   1.699   2.548
  119SOL     OW 1255   0.627   0.460   0.497
  119SOL    HW1 1256   0.578   0.440   0.412
  119SOL    HW2 1257   0.569   0.438   0.575
  120SOL     OW 1258   5.117   0.584   5.043
  120SOL    HW1 1259   5.147   0.588   5.139
  120SOL    HW2 1260   5.137   0.494   5.006
  121SOL     OW 1261   0.889   3.524   0.529
  121SOL    HW1 1262   0.893   3.502   0.627
  121SOL    HW2 1263   0.804   3.573   0.510
  122SOL     OW 1264   1.533   3.279   0.323
  122SOL    HW1 1265   1.628   3.251   0.312
  122SOL    HW2 1266   1.524   3.336   0.404
  123SOL     OW 1267   1.495   1.348   2.362
  123SOL    HW1 1268   1.434   1.271   2.381
  123SOL    HW2 1269   1.499   1.408   2.442
  124SOL     OW 1270   3.214   3.077   0.854
  124SOL    HW1 1271   3.291   3.026   0.893
  124SOL    HW2 1272   3.139   3.014   0.835
  125SOL     OW 1273   4.278   2.550   0.810
  125SOL    HW1 1274   4.231   2.586   0.729
  125SOL    HW2 1275   4.362   2.603   0.826
  126SOL     OW 1276   3.334   3.253   2.692
  126SOL    HW1 1277   3.329   3.205   2.604
  126SOL    HW2 1278   3.279   3.337   2.686
  127SOL     OW 1279   0.561   5.068   6.620
  127SOL    HW1 1280   0.571   4.974   6.588
  127SOL    HW2 1281   0.593   5.131   6.550
  128SOL     OW 1282   4.853   3.172   1.477
  128SOL    HW1 1283   4.785   3.162   1.549
  128SOL    HW2 1284   4.880   3.268   1.468
  129SOL     OW 1285   2.857   3.127   6.729
  129SOL    HW1 1286   2.841   3.208   6.784
  129SOL    HW2 1287   2.868   3.153   6.633
  130SOL     OW 1288   0.203   0.590   4.422
  130SOL    HW1 1289   0.260   0.515   4.457
  130SOL    HW2 1290   0.206   0.591   4.323
  131SOL     OW 1291   5.396   0.717   4.067
  131SOL    HW1 1292   5.353   0.796   4.111
  131SOL    HW2 1293   5.381   0.722   3.968
  132SOL     OW 1294   3.103   2.771   1.775
  132SOL    HW1 1295   3.203   2.777   1.782
  132SOL    HW2 1296   3.075   2.675   1.783
  133SOL     OW 1297   5.301   0.558   4.372
  133SOL    HW1 1298   5.326   0.503   4.293
  133SOL    HW2 1299   5.345   0.522   4.454
  134SOL     OW 1300   0.259   0.616   2.721
  134SOL    HW1 1301   0.344   0.668   2.738
  134SOL    HW2 1302   0.181   0.672   2.748
  135SOL     OW 1303   5.560   3.722   4.670
  135SOL    HW1 1304   5.561   3.816   4.636
  135SOL    HW2 1305   5.593   3.661   4.598
  136SOL     OW 1306   1.551   4.853   4.834
  136SOL    HW1 1307   1.575   4.864   4.737
  136SOL    HW2 1308   1.547   4.943   4.877
  137SOL     OW 1309   4.636   1.462   3.792
  137SOL    HW1 1310   4.594   1.533   3.736
  137SOL    HW2 1311   4.637   1.491   3.888
  138SOL     OW 1312   0.986   3.742   2.956
  138SOL    HW1 1313   0.933   3.823   2.932
  138SOL    HW2 1314   0.965   3.716   3.051
  139SOL     OW 1315   1.885   6.095   5.325
  139SOL    HW1 1316   1.840   6.179   5.296
  139SOL    HW2 1317   1.926   6.108   5.415
  140SOL     OW 1318   1.376   6.238   3.800
  140SOL    HW1 1319   1.359   6.274   3.708
  140SOL    HW2 1320   1.375   6.138   3.798
  141SOL     OW 1321   0.064   2.760   5.374
  141SOL    HW1 1322   0.020   2.828   5.315
  141SOL    HW2 1323   0.120   2.699   5.317
  142SOL     OW 1324   2.077   3.313   2.193
  142SOL    HW1 1325   2.095   3.388   2.130
  142SOL    HW2 1326   2.076   3.226   2.143
  143SOL     OW 1327   5.434   4.976   0.726
  143SOL    HW1 1328   5.341   4.992   0.760
  143SOL    HW2 1329   5.499   4.981   0.803
  144SOL     OW 1330   2.279   4.754   5.366
  144SOL    HW1 1331   2.365   4.793   5.399
  144SOL    HW2 1332   2.290   4.720   5.273
  145SOL     OW 1333   2.505   5.393   1.315
  145SOL    HW1 1334   2.411   5.405   1.284
  145SOL    HW2 1335   2.540   5.305   1.282
  146SOL     OW 1336   5.301   0.384   6.721
  146SOL    HW1 1337   5.322   0.480   6.703
  146SOL    HW2 1338   5.339   0.328   6.649
  147SOL     OW 1339   5.423   0.976   5.777
  147SOL    HW1 1340   5.340   1.030   5.765
  147SOL    HW2 1341   5.502   1.028   5.743
  148SOL     OW 1342   0.334   5.167   1.313
  148SOL    HW1 1343   0.398   5.144   1.239
  148SOL    HW2 1344   0.386   5.180   1.398
  149SOL     OW 1345   3.653   2.152   5.112
  149SOL    HW1 1346   3.683   2.240   5.147
  149SOL    HW2 1347   3.721   2.117   5.048
  150SOL     OW 1348   5.474   0.239   6.508
  150SOL    HW1 1349   5.447   0.320   6.456
  150SOL    HW2 1350   5.572   0.242   6.526
  151SOL     OW 1351   3.448   0.549   1.670
  151SOL    HW1 1352   3.395   0.631   1.645
  151SOL    HW2 1353   3.535   0.577   1.710
  152SOL     OW 1354   0.134   1.681   0.589
  152SOL    HW1 1355   0.147   1.730   0.503
  152SOL    HW2 1356   0.187   1.596   0.587
  153SOL     OW 1357   2.624   6.679   2.955
  153SOL    HW1 1358   2.667   6.589   2.947
  153SOL    HW2 1359   2.530   6.673   2.922
  154SOL     OW 1360   0.148   3.233   0.823
  154SOL    HW1 1361   0.197   3.293   0.760
  154SOL    HW2 1362   0.095   3.288   0.888
  155SOL     OW 1363   0.667   1.290   3.621
  155SOL    HW1 1364   0.575   1.325   3.604
  155SOL    HW2 1365   0.734   1.348   3.575
  156SOL     OW 1366   6.683   0.303   7.008
  156SOL    HW1 1367   6.635   0.380   6.964
  156SOL    HW2 1368   6.780   0.306   6.982
  157SOL     OW 1369   5.795   3.540   0.227
  157SOL    HW1 1370   5.851   3.487   0.291
  157SOL    HW2 1371   5.715   3.487   0.200
  158SOL     OW 1372   2.004   2.838   1.339
  158SOL    HW1 1373   2.018   2.775   1.262
  158SOL    HW2 1374   1.908   2.835   1.367
  159SOL     OW 1375   4.082   4.992   1.345
  159SOL    HW1 1376   4.029   4.925   1.398
  159SOL    HW2 1377   4.067   5.083   1.384
  160SOL     OW 1378   5.913   0.338   0.583
  160SOL    HW1 1379   5.896   0.328   0.681
  160SOL    HW2 1380   5.842   0.396   0.543
  161SOL     OW 1381   1.166   0.416   2.726
  161SOL    HW1 1382   1.238   0.411   2.657
  161SOL    HW2 1383   1.198   0.376   2.811
  162SOL     OW 1384   3.814   5.945   6.707
  162SOL    HW1 1385   3.781   5.912   6.618
  162SOL    HW2 1386   3.745   6.004   6.748
  163SOL     OW 1387   6.659   6.014   2.056
  163SOL    HW1 1388   6.720   5.955   2.108
  163SOL    HW2 1389   6.707   6.050   1.976
  164SOL     OW 1390   0.948   3.624   2.702
  164SOL    HW1 1391   0.874   3.646   2.638
  164SOL    HW2 1392   0.940   3.682   2.783
  165SOL     OW 1393   4.675   4.811   6.478
  165SOL    HW1 1394   4.766   4.791   6.515
  165SOL    HW2 1395   4.683   4.880   6.407
  166SOL     OW 1396   0.524   3.379   2.123
  166SOL    HW1 1397   0.427   3.357   2.128
  166SOL    HW2 1398   0.539   3.475   2.146
  167SOL     OW 1399   6.201   1.772   6.627
  167SOL    HW1 1400   6.261   1.704   6.585
  167SOL    HW2 1401   6.142   1.728   6.694
  168SOL     OW 1402   3.850   1.758   0.482
  168SOL    HW1 1403   3.930   1.818   0.480
  168SOL    HW2 1404   3.807   1.764   0.571
  169SOL     OW 1405   5.713   3.134   0.580
  169SOL    HW1 1406   5.635   3.073   0.580
  169SOL    HW2 1407   5.750   3.143   0.672
  170SOL     OW 1408   6.878   5.898   2.172
  170SOL    HW1 1409   6.916   5.875   2.262
  170SOL    HW2 1410   6.860   5.814   2.121
  171SOL     OW 1411   2.381   4.724   0.303
  171SOL    HW1 1412   2.444   4.661   0.347
  171SOL    HW2 1413   2.287   4.693   0.318
  172SOL     OW 1414   6.248   1.566   3.253
  172SOL    HW1 1415   6.271   1.524   3.340
  172SOL    HW2 1416   6.155   1.603   3.257
  173SOL     OW 1417   5.636   1.181   4.352
  173SOL    HW1 1418   5.565   1.113   4.331
  173SOL    HW2 1419   5.701   1.142   4.418
  174SOL     OW 1420   4.367   5.330   3.666
  174SOL    HW1 1421   4.276   5.333   3.624
  174SOL    HW2 1422   4.394   5.235   3.681
  175SOL     OW 1423   3.836   0.738   1.223
  175SOL    HW1 1424   3.900   0.744   1.299
  175SOL    HW2 1425   3.753   0.691   1.254
  176SOL     OW 1426   5.691   4.822   1.910
  176SOL    HW1 1427   5.763   4.812   1.978
  176SOL    HW2 1428   5.622   4.750   1.924
  177SOL     OW 1429   5.164   3.431   4.749
  177SOL    HW1 1430   5.070   3.462   4.746
  177SOL    HW2 1431   5.179   3.376   4.832
  178SOL     OW 1432   3.100   4.755   5.614
  178SOL    HW1 1433   3.076   4.736   5.519
  178SOL    HW2 1434   3.144   4.675   5.655
  179SOL     OW 1435   3.580   0.544   6.724
  179SOL    HW1 1436   3.635   0.575   6.647
  179SOL    HW2 1437   3.636   0.488   6.785
  180SOL     OW 1438   2.366   1.038   0.975
  180SOL    HW1 1439   2.301   0.967   1.003
  180SOL    HW2 1440   2.394   1.021   0.880
  181SOL     OW 1441   3.236   3.665   5.485
  181SOL    HW1 1442   3.174   3.716   5.545
  181SOL    HW2 1443   3.318   3.640   5.536
  182SOL     OW 1444   4.456   2.021   6.063
  182SOL    HW1 1445   4.482   2.030   5.967
  182SOL    HW2 1446   4.436   2.112   6.101
  183SOL     OW 1447   3.663   2.119   3.967
  183SOL    HW1 1448   3.740   2.169   4.007
  183SOL    HW2 1449   3.684   2.098   3.871
  184SOL     OW 1450   0.094   6.674   3.424
  184SOL    HW1 1451   0.088   6.611   3.502
  184SOL    HW2 1452   0.004   6.714   3.406
  185SOL     OW 1453   1.123   1.418   4.812
  185SOL    HW1 1454   1.079   1.453   4.729
  185SOL    HW2 1455   1.072   1.451   4.892
  186SOL     OW 1456   6.425   1.138   4.365
  186SOL    HW1 1457   6.515   1.169   4.396
  186SOL    HW2 1458   6.426   1.039   4.352
  187SOL     OW 1459   5.470   0.037   2.430
  187SOL    HW1 1460   5.391   6.997   2.452
  187SOL    HW2 1461   5.493   0.095   2.508
  188SOL     OW 1462   0.834   3.326   3.948
  188SOL    HW1 1463   0.824   3.247   4.007
  188SOL    HW2 1464   0.909   3.311   3.884
  189SOL     OW 1465   1.609   5.420   0.057
  189SOL    HW1 1466   1.565   5.348   0.003
  189SOL    HW2 1467   1.691   5.452   0.008
  190SOL     OW 1468   6.374   4.126   5.954
  190SOL    HW1 1469   6.289   4.076   5.965
  190SOL    HW2 1470   6.448   4.077   6.001
  191SOL     OW 1471   6.289   1.549   6.964
  191SOL    HW1 1472   6.304   1.556   0.046
  191SOL    HW2 1473   6.370   1.507   6.921
  192SOL     OW 1474   0.133   5.257   2.006
  192SOL    HW1 1475   0.069   5.330   2.032
  192SOL    HW2 1476   0.188   5.231   2.085
  193SOL     OW 1477   5.048   3.708   5.166
  193SOL    HW1 1478   5.135   3.695   5.215
  193SOL    HW2 1479   5.016   3.621   5.130
  194SOL     OW 1480   3.859   6.595   3.577
  194SOL    HW1 1481   3.879   6.656   3.654
  194SOL    HW2 1482   3.801   6.520   3.608
  195SOL     OW 1483   1.553   1.218   4.301
  195SOL    HW1 1484   1.580   1.294   4.360
  195SOL    HW2 1485   1.635   1.171   4.268
  196SOL     OW 1486   2.666   6.996   6.505
  196SOL    HW1 1487   2.603   0.019   6.572
  196SOL    HW2 1488   2.725   0.051   6.468
  197SOL     OW 1489   2.642   0.442   0.971
  197SOL    HW1 1490   2.691   0.519   1.012
  197SOL    HW2 1491   2.575   0.407   1.037
  198SOL     OW 1492   4.325   6.802   2.242
  198SOL    HW1 1493   4.262   6.763   2.310
  198SOL    HW2 1494   4.305   6.899   2.230
  199SOL     OW 1495   6.969   1.127   3.475
  199SOL    HW1 1496   0.046   1.106   3.500
  199SOL    HW2 1497   6.967   1.212   3.422
  200SOL     OW 1498   1.198   4.016   1.762
  200SOL    HW1 1499   1.274   4.078   1.783
  200SOL    HW2 1500   1.222   3.961   1.682
  201SOL     OW 1501   5.450   6.974   6.388
  201SOL    HW1 1502   5.521   6.910   6.359
  201SOL    HW2 1503   5.492   0.040   6.425
  202SOL     OW 1504   5.102   6.998   6.066
  202SOL    HW1 1505   5.125   0.030   6.150
  202SOL    HW2 1506   5.109   6.899   6.081
  203SOL     OW 1507   4.983   2.278   5.198
  203SOL    HW1 1508   5.009   2.369   5.231
  203SOL    HW2 1509   5.064   2.219   5.196
  204SOL     OW 1510   6.255   0.663   6.482
  204SOL    HW1 1511   6.317   0.732   6.520
  204SOL    HW2 1512   6.183   0.709   6.429
  205SOL     OW 1513   0.706   0.910   2.719
  205SOL    HW1 1514   0.735   0.995   2.762
  205SOL    HW2 1515   0.783   0.870   2.669
  206SOL     OW 1516   0.330   4.888   2.534
  206SOL    HW1 1517   0.327   4.982   2.567
  206SOL    HW2 1518   0.425   4.858   2.528
  207SOL     OW 1519   4.501   0.415   4.150
  207SOL    HW1 1520   4.465   0.508   4.157
  207SOL    HW2 1521   4.530   0.384   4.241
  208SOL     OW 1522   5.089   3.904   5.681
  208SOL    HW1 1523   5.186   3.889   5.663
  208SOL    HW2 1524   5.044   3.815   5.694
  209SOL     OW 1525   1.084   5.037   4.420
  209SOL    HW1 1526   1.049   5.131   4.431
  209SOL    HW2 1527   1.155   5.020   4.488
  210SOL     OW 1528   4.370   1.734   1.546
  210SOL    HW1 1529   4.348   1.709   1.641
  210SOL    HW2 1530   4.407   1.655   1.499
  211SOL     OW 1531   1.331   6.317   3.544
  211SOL    HW1 1532   1.324   6.232   3.492
  211SOL    HW2 1533   1.391   6.381   3.496
  212SOL     OW 1534   2.135   5.238   2.162
  212SOL    HW1 1535   2.199   5.162   2.153
  212SOL    HW2 1536   2.122   5.259   2.259
  213SOL     OW 1537   3.550   0.723   5.735
  213SOL    HW1 1538   3.631   0.778   5.757
  213SOL    HW2 1539   3.572   0.626   5.750
  214SOL     OW 1540   4.189   5.766   1.973
  214SOL    HW1 1541   4.255   5.782   1.900
  214SOL    HW2 1542   4.206   5.831   2.048
  215SOL     OW 1543   2.715   3.625   1.708
  215SOL    HW1 1544   2.699   3.528   1.724
  215SOL    HW2 1545   2.806   3.638   1.668
  216SOL     OW 1546   1.695   5.977   4.949
  216SOL    HW1 1547   1.652   5.922   5.021
  216SOL    HW2 1548   1.626   6.036   4.906
  217SOL     OW 1549   2.430   2.578   3.397
  217SOL    HW1 1550   2.452   2.508   3.329
  217SOL    HW2 1551   2.385   2.655   3.352
  218SOL     OW 1552   0.449   2.989   4.380
  218SOL    HW1 1553   0.506   2.994   4.462
  218SOL    HW2 1554   0.420   2.894   4.366
  219SOL     OW 1555   3.485   6.106   6.168
  219SOL    HW1 1556   3.572   6.127   6.123
  219SOL    HW2 1557   3.487   6.012   6.202
  220SOL     OW 1558   3.392   6.527   6.975
  220SOL    HW1 1559   3.355   6.462   0.025
  220SOL    HW2 1560   3.441   6.477   6.903
  221SOL     OW 1561   0.043   4.183   2.487
  221SOL    HW1 1562   6.983   4.125   2.513
  221SOL    HW2 1563   0.016   4.242   2.411
  222SOL     OW 1564   2.487   4.851   5.581
  222SOL    HW1 1565   2.558   4.801   5.531
  222SOL    HW2 1566   2.479   4.944   5.545
  223SOL     OW 1567   5.870   3.485   1.002
  223SOL    HW1 1568   5.887   3.529   1.090
  223SOL    HW2 1569   5.773   3.494   0.979
  224SOL     OW 1570   2.889   1.614   4.122
  224SOL    HW1 1571   2.902   1.707   4.088
  224SOL    HW2 1572   2.961   1.555   4.084
  225SOL     OW 1573   5.631   1.515   5.395
  225SOL    HW1 1574   5.724   1.526   5.430
  225SOL    HW2 1575   5.565   1.546   5.463
  226SOL     OW 1576   1.286   0.286   6.110
  226SOL    HW1 1577   1.284   0.239   6.022
  226SOL    HW2 1578   1.202   0.268   6.160
  227SOL     OW 1579   1.551   4.055   2.328
  227SOL    HW1 1580   1.474   4.114   2.351
  227SOL    HW2 1581   1.569   4.059   2.230
  228SOL     OW 1582   3.271   6.487   3.936
  228SOL    HW1 1583   3.192   6.439   3.897
  228SOL    HW2 1584   3.254   6.504   4.033
  229SOL     OW 1585   4.793   6.857   0.446
  229SOL    HW1 1586   4.835   6.769   0.467
  229SOL    HW2 1587   4.785   6.911   0.530
  230SOL     OW 1588   2.650   4.712   2.829
  230SOL    HW1 1589   2.677   4.718   2.733
  230SOL    HW2 1590   2.568   4.657   2.837
  231SOL     OW 1591   6.620   1.673   6.689
  231SOL    HW1 1592   6.552   1.618   6.640
  231SOL    HW2 1593   6.574   1.733   6.754
  232SOL     OW 1594   1.640   3.834   6.117
  232SOL    HW1 1595   1.624   3.929   6.145
  232SOL    HW2 1596   1.655   3.778   6.199
  233SOL     OW 1597   2.441   1.482   4.133
  233SOL    HW1 1598   2.478   1.573   4.148
  233SOL    HW2 1599   2.499   1.432   4.067
  234SOL     OW 1600   3.178   6.402   5.765
  234SOL    HW1 1601   3.163   6.344   5.684
  234SOL    HW2 1602   3.209   6.344   5.841
  235SOL     OW 1603   3.241   3.680   2.022
  235SOL    HW1 1604   3.260   3.654   1.928
  235SOL    HW2 1605   3.151   3.646   2.049
  236SOL     OW 1606   5.942   3.077   6.273
  236SOL    HW1 1607   5.957   2.984   6.305
  236SOL    HW2 1608   5.844   3.093   6.261
  237SOL     OW 1609   6.628   6.180   0.881
  237SOL    HW1 1610   6.697   6.121   0.839
  237SOL    HW2 1611   6.671   6.241   0.947
  238SOL     OW 1612   6.121   2.271   6.951
  238SOL    HW1 1613   6.170   2.198   6.903
  238SOL    HW2 1614   6.154   2.359   6.917
  239SOL     OW 1615   0.244   5.664   6.725
  239SOL    HW1 1616   0.324   5.604   6.732
  239SOL    HW2 1617   0.161   5.609   6.726
  240SOL     OW 1618   0.272   2.596   6.186
  240SOL    HW1 1619   0.292   2.597   6.284
  240SOL    HW2 1620   0.357   2.606   6.135
  241SOL     OW 1621   1.698   6.877   4.192
  241SOL    HW1 1622   1.759   6.956   4.194
  241SOL    HW2 1623   1.710   6.827   4.107
  242SOL     OW 1624   2.334   2.929   5.934
  242SOL    HW1 1625   2.335   2.863   5.859
  242SOL    HW2 1626   2.406   2.997   5.920
  243SOL     OW 1627   5.863   0.213   6.358
  243SOL    HW1 1628   5.813   0.204   6.444
  243SOL    HW2 1629   5.800   0.234   6.284
  244SOL     OW 1630   5.236   3.061   4.713
  244SOL    HW1 1631   5.165   3.128   4.692
  244SOL    HW2 1632   5.255   3.006   4.632
  245SOL     OW 1633   0.073   2.333   5.362
  245SOL    HW1 1634   0.053   2.407   5.426
  245SOL    HW2 1635   0.130   2.264   5.406
  246SOL     OW 1636   4.908   3.024   2.525
  246SOL    HW1 1637   4.865   3.110   2.496
  246SOL    HW2 1638   4.941   3.033   2.618
  247SOL     OW 1639   2.738   1.292   1.957
  247SOL    HW1 1640   2.734   1.243   1.870
  247SOL    HW2 1641   2.681   1.374   1.951
  248SOL     OW 1642   4.565   1.894   4.601
  248SOL    HW1 1643   4.641   1.860   4.547
  248SOL    HW2 1644   4.592   1.900   4.697
  249SOL     OW 1645   5.003   6.928   5.798
  249SOL    HW1 1646   5.054   6.843   5.807
  249SOL    HW2 1647   5.004   6.977   5.885
  250SOL     OW 1648   5.022   1.642   6.418
  250SOL    HW1 1649   4.922   1.634   6.422
  250SOL    HW2 1650   5.059   1.572   6.357
  251SOL     OW 1651   4.186   4.470   6.638
  251SOL    HW1 1652   4.162   4.446   6.544
  251SOL    HW2 1653   4.258   4.408   6.670
  252SOL     OW 1654   6.584   0.750   6.623
  252SOL    HW1 1655   6.510   0.818   6.617
  252SOL    HW2 1656   6.621   0.750   6.716
  253SOL     OW 1657   1.979   3.724   6.977
  253SOL    HW1 1658   2.031   3.742   6.893
  253SOL    HW2 1659   1.883   3.710   6.955
  254SOL     OW 1660   6.065   2.944   3.599
  254SOL    HW1 1661   6.161   2.971   3.596
  254SOL    HW2 1662   6.025   2.969   3.687
  255SOL     OW 1663   1.443   3.317   4.513
  255SOL    HW1 1664   1.375   3.357   4.576
  255SOL    HW2 1665   1.455   3.377   4.434
  256SOL     OW 1666   5.966   4.471   6.919
  256SOL    HW1 1667   5.995   4.501   7.010
  256SOL    HW2 1668   5.892   4.405   6.927
  257SOL     OW 1669   4.192   6.270   4.531
  257SOL    HW1 1670   4.270   6.228   4.578
  257SOL    HW2 1671   4.176   6.223   4.444
  258SOL     OW 1672   5.821   4.720   4.602
  258SOL    HW1 1673   5.776   4.661   4.535
  258SOL    HW2 1674   5.889   4.668   4.652
  259SOL     OW 1675   2.139   3.057   2.322
  259SOL    HW1 1676   2.162   3.092   2.231
  259SOL    HW2 1677   2.081   3.124   2.370
  260SOL     OW 1678   4.530   0.821   1.504
  260SOL    HW1 1679   4.526   0.753   1.577
  260SOL    HW2 1680   4.607   0.883   1.520
  261SOL     OW 1681   6.440   3.816   1.187
  261SOL    HW1 1682   6.516   3.794   1.127
  261SOL    HW2 1683   6.475   3.855   1.272
  262SOL     OW 1684   0.497   3.884   1.329
  262SOL    HW1 1685   0.561   3.960   1.322
  262SOL    HW2 1686   0.487   3.856   1.424
  263SOL     OW 1687   0.825   1.291   3.914
  263SOL    HW1 1688   0.853   1.375   3.962
  263SOL    HW2 1689   0.786   1.315   3.825
  264SOL     OW 1690   5.481   4.033   5.183
  264SOL    HW1 1691   5.426   4.044   5.266
  264SOL    HW2 1692   5.545   4.109   5.174
  265SOL     OW 1693   4.136   4.714   3.093
  265SOL    HW1 1694   4.133   4.659   3.009
  265SOL    HW2 1695   4.216   4.687   3.147
  266SOL     OW 1696   3.284   3.644   5.945
  266SOL    HW1 1697   3.326   3.648   6.036
  266SOL    HW2 1698   3.349   3.678   5.877
  267SOL     OW 1699   6.207   2.781   6.155
  267SOL    HW1 1700   6.265   2.859   6.134
  267SOL    HW2 1701   6.202   2.720   6.076
  268SOL     OW 1702   4.471   5.944   5.550
  268SOL    HW1 1703   4.518   6.019   5.505
  268SOL    HW2 1704   4.375   5.942   5.521
  269SOL     OW 1705   1.434   2.737   0.421
  269SOL    HW1 1706   1.395   2.773   0.506
  269SOL    HW2 1707   1.488   2.655   0.440
  270SOL     OW 1708   6.986   6.946   2.013
  270SOL    HW1 1709   0.068   6.949   1.998
  270SOL    HW2 1710   6.948   0.021   2.009
  271SOL     OW 1711   2.500   2.680   1.000
  271SOL    HW1 1712   2.419   2.720   0.957
  271SOL    HW2 1713   2.473   2.631   1.083
  272SOL     OW 1714   3.529   5.850   4.158
  272SOL    HW1 1715   3.542   5.758   4.194
  272SOL    HW2 1716   3.460   5.848   4.086
  273SOL     OW 1717   1.722   4.627   4.892
  273SOL    HW1 1718   1.669   4.708   4.867
  273SOL    HW2 1719   1.663   4.546   4.885
  274SOL     OW 1720   4.737   2.306   3.657
  274SOL    HW1 1721   4.756   2.248   3.577
  274SOL    HW2 1722   4.683   2.385   3.629
  275SOL     OW 1723   6.687   5.658   6.424
  275SOL    HW1 1724   6.757   5.716   6.383
  275SOL    HW2 1725   6.670   5.687   6.518
  276SOL     OW 1726   0.061   5.170   3.436
  276SOL    HW1 1727   7.014   5.111   3.386
  276SOL    HW2 1728   0.106   5.231   3.371
  277SOL     OW 1729   2.725   2.278   0.359
  277SOL    HW1 1730   2.641   2.226   0.350
  277SOL    HW2 1731   2.804   2.219   0.344
  278SOL     OW 1732   6.746   3.944   1.822
  278SOL    HW1 1733   6.807   3.980   1.752
  278SOL    HW2 1734   6.662   3.910   1.780
  279SOL     OW 1735   6.261   2.987   4.746
  279SOL    HW1 1736   6.312   2.921   4.801
  279SOL    HW2 1737   6.182   3.020   4.797
  280SOL     OW 1738   3.502   6.699   2.536
  280SOL    HW1 1739   3.414   6.707   2.489
  280SOL    HW2 1740   3.500   6.622   2.600
  281SOL     OW 1741   2.947   4.935   2.280
  281SOL    HW1 1742   2.887   4.934   2.360
  281SOL    HW2 1743   2.897   4.900   2.201
  282SOL     OW 1744   4.204   2.271   5.438
  282SOL    HW1 1745   4.165   2.201   5.379
  282SOL    HW2 1746   4.131   2.322   5.482
  283SOL     OW 1747   6.944   1.431   5.519
  283SOL    HW1 1748   6.946   1.336   5.491
  283SOL    HW2 1749   6.914   1.437   5.615
  284SOL     OW 1750   0.495   4.145   5.148
  284SOL    HW1 1751   0.417   4.151   5.211
  284SOL    HW2 1752   0.491   4.220   5.083
  285SOL     OW 1753   5.326   5.481   6.607
  285SOL    HW1 1754   5.302   5.387   6.633
  285SOL    HW2 1755   5.245   5.539   6.611
  286SOL     OW 1756   3.923   4.906   5.116
  286SOL    HW1 1757   3.936   5.004   5.099
  286SOL    HW2 1758   3.832   4.878   5.085
  287SOL     OW 1759   0.709   5.254   6.774
  287SOL    HW1 1760   0.638   5.201   6.728
  287SOL    HW2 1761   0.763   5.303   6.706
  288SOL     OW 1762   3.992   1.259   0.573
  288SOL    HW1 1763   3.935   1.292   0.498
  288SOL    HW2 1764   4.004   1.160   0.566
  289SOL     OW 1765   0.348   5.220   4.842
  289SOL    HW1 1766   0.381   5.231   4.748
  289SOL    HW2 1767   0.418   5.253   4.906
  290SOL     OW 1768   4.862   2.163   3.384
  290SOL    HW1 1769   4.954   2.134   3.410
  290SOL    HW2 1770   4.868   2.244   3.324
  291SOL     OW 1771   4.153   0.801   4.177
  291SOL    HW1 1772   4.123   0.847   4.094
  291SOL    HW2 1773   4.228   0.852   4.219
  292SOL     OW 1774   4.314   1.827   3.403
  292SOL    HW1 1775   4.348   1.908   3.354
  292SOL    HW2 1776   4.299   1.851   3.499
  293SOL     OW 1777   3.919   5.682   1.980
  293SOL    HW1 1778   3.858   5.694   2.059
  293SOL    HW2 1779   3.997   5.743   1.989
  294SOL     OW 1780   6.770   5.549   6.776
  294SOL    HW1 1781   6.699   5.479   6.784
  294SOL    HW2 1782   6.727   5.637   6.756
  295SOL     OW 1783   3.201   1.867   5.007
  295SOL    HW1 1784   3.137   1.939   5.036
  295SOL    HW2 1785   3.288   1.880   5.054
  296SOL     OW 1786   6.604   2.336   1.863
  296SOL    HW1 1787   6.694   2.336   1.906
  296SOL    HW2 1788   6.602   2.404   1.790
  297SOL     OW 1789   2.896   4.763   2.962
  297SOL    HW1 1790   2.895   4.759   3.062
  297SOL    HW2 1791   2.818   4.712   2.926
  298SOL     OW 1792   3.928   0.179   0.172
  298SOL    HW1 1793   3.876   0.142   0.096
  298SOL    HW2 1794   3.943   0.107   0.240
  299SOL     OW 1795   4.985   2.283   6.333
  299SOL    HW1 1796   4.942   2.366   6.367
  299SOL    HW2 1797   4.948   2.204   6.383
  300SOL     OW 1798   4.671   0.751   2.111
  300SOL    HW1 1799   4.659   0.849   2.126
  300SOL    HW2 1800   4.687   0.705   2.198
  301SOL     OW 1801   4.949   1.723   0.184
  301SOL    HW1 1802   5.036   1.693   0.223
  301SOL    HW2 1803   4.961   1.815   0.146
  302SOL     OW 1804   6.605   0.883   3.215
  302SOL    HW1 1805   6.549   0.876   3.132
  302SOL    HW2 1806   6.695   0.919   3.191
  303SOL     OW 1807   5.807   6.329   2.414
  303SOL    HW1 1808   5.747   6.271   2.469
  303SOL    HW2 1809   5.886   6.277   2.384
  304SOL     OW 1810   1.963   6.299   5.860
  304SOL    HW1 1811   1.978   6.277   5.957
  304SOL    HW2 1812   1.871   6.270   5.833
  305SOL     OW 1813   1.171   2.827   0.561
  305SOL    HW1 1814   1.206   2.836   0.468
  305SOL    HW2 1815   1.090   2.884   0.572
  306SOL     OW 1816   1.198   1.204   3.199
  306SOL    HW1 1817   1.263   1.134   3.228
  306SOL    HW2 1818   1.229   1.294   3.228
  307SOL     OW 1819   5.067   4.319   0.771
  307SOL    HW1 1820   5.039   4.354   0.681
  307SOL    HW2 1821   5.155   4.273   0.762
  308SOL     OW 1822   5.966   3.700   4.877
  308SOL    HW1 1823   6.049   3.661   4.837
  308SOL    HW2 1824   5.905   3.627   4.905
  309SOL     OW 1825   1.673   5.570   0.270
  309SOL    HW1 1826   1.755   5.531   0.310
  309SOL    HW2 1827   1.646   5.516   0.190
  310SOL     OW 1828   4.821   5.994   5.447
  310SOL    HW1 1829   4.781   6.054   5.516
  310SOL    HW2 1830   4.789   6.022   5.356
  311SOL     OW 1831   3.276   4.944   2.795
  311SOL    HW1 1832   3.240   5.036   2.812
  311SOL    HW2 1833   3.237   4.908   2.711
  312SOL     OW 1834   4.108   2.032   4.144
  312SOL    HW1 1835   4.202   2.064   4.137
  312SOL    HW2 1836   4.089   1.967   4.069
  313SOL     OW 1837   3.508   3.371   1.921
  313SOL    HW1 1838   3.490   3.280   1.884
  313SOL    HW2 1839   3.574   3.364   1.996
  314SOL     OW 1840   2.716   4.710   0.122
  314SOL    HW1 1841   2.775   4.768   0.066
  314SOL    HW2 1842   2.622   4.715   0.087
  315SOL     OW 1843   0.942   3.589   3.902
  315SOL    HW1 1844   0.952   3.638   3.988
  315SOL    HW2 1845   0.914   3.494   3.920
  316SOL     OW 1846   3.543   0.953   4.455
  316SOL    HW1 1847   3.454   0.907   4.463
  316SOL    HW2 1848   3.591   0.919   4.374
  317SOL     OW 1849   0.336   1.846   1.315
  317SOL    HW1 1850   0.416   1.891   1.275
  317SOL    HW2 1851   0.314   1.889   1.403
  318SOL     OW 1852   6.979   5.851   6.842
  318SOL    HW1 1853   0.039   5.797   6.876
  318SOL    HW2 1854   6.943   5.907   6.916
  319SOL     OW 1855   6.324   1.455   3.790
  319SOL    HW1 1856   6.318   1.358   3.766
  319SOL    HW2 1857   6.420   1.483   3.793
  320SOL     OW 1858   5.957   2.757   6.950
  320SOL    HW1 1859   5.922   2.688   6.887
  320SOL    HW2 1860   6.013   2.823   6.901
  321SOL     OW 1861   3.497   1.847   6.719
  321SOL    HW1 1862   3.452   1.924   6.765
  321SOL    HW2 1863   3.588   1.874   6.690
  322SOL     OW 1864   3.132   3.576   3.688
  322SOL    HW1 1865   3.229   3.573   3.663
  322SOL    HW2 1866   3.122   3.608   3.782
  323SOL     OW 1867   1.100   2.949   5.932
  323SOL    HW1 1868   1.133   2.915   5.844
  323SOL    HW2 1869   1.038   3.026   5.917
  324SOL     OW 1870   3.099   0.971   3.057
  324SOL    HW1 1871   3.067   0.913   2.982
  324SOL    HW2 1872   3.033   1.044   3.073
  325SOL     OW 1873   0.199   2.721   2.217
  325SOL    HW1 1874   0.245   2.728   2.305
  325SOL    HW2 1875   0.223   2.800   2.160
  326SOL     OW 1876   1.400   5.091   6.342
  326SOL    HW1 1877   1.392   4.994   6.321
  326SOL    HW2 1878   1.309   5.129   6.359
  327SOL     OW 1879   1.999   4.619   2.515
  327SOL    HW1 1880   2.019   4.591   2.609
  327SOL    HW2 1881   1.901   4.607   2.497
  328SOL     OW 1882   1.409   5.665   1.856
  328SOL    HW1 1883   1.506   5.678   1.834
  328SOL    HW2 1884   1.355   5.730   1.803
  329SOL     OW 1885   3.022   3.319   4.729
  329SOL    HW1 1886   3.043   3.332   4.825
  329SOL    HW2 1887   3.103   3.287   4.681
  330SOL     OW 1888   3.363   6.393   1.558
  330SOL    HW1 1889   3.455   6.429   1.571
  330SOL    HW2 1890   3.321   6.376   1.647
  331SOL     OW 1891   4.040   5.607   0.721
  331SOL    HW1 1892   3.998   5.659   0.646
  331SOL    HW2 1893   4.114   5.551   0.685
  332SOL     OW 1894   5.042   2.049   5.703
  332SOL    HW1 1895   4.965   1.992   5.732
  332SOL    HW2 1896   5.113   2.048   5.773
  333SOL     OW 1897   4.731   0.654   5.948
  333SOL    HW1 1898   4.793   0.712   5.894
  333SOL    HW2 1899   4.786   0.590   6.002
  334SOL     OW 1900   3.162   1.235   0.295
  334SOL    HW1 1901   3.221   1.199   0.367
  334SOL    HW2 1902   3.099   1.303   0.334
  335SOL     OW 1903   4.580   6.439   5.946
  335SOL    HW1 1904   4.517   6.489   6.005
  335SOL    HW2 1905   4.586   6.343   5.976
  336SOL     OW 1906   2.709   1.259   3.389
  336SOL    HW1 1907   2.786   1.218   3.438
  336SOL    HW2 1908   2.674   1.194   3.321
  337SOL     OW 1909   0.132   3.212   6.031
  337SOL    HW1 1910   0.120   3.121   6.068
  337SOL    HW2 1911   0.214   3.214   5.973
  338SOL     OW 1912   3.204   2.535   1.456
  338SOL    HW1 1913   3.193   2.457   1.518
  338SOL    HW2 1914   3.119   2.588   1.455
  339SOL     OW 1915   4.530   5.811   4.926
  339SOL    HW1 1916   4.595   5.859   4.865
  339SOL    HW2 1917   4.450   5.784   4.873
  340SOL     OW 1918   4.930   3.925   5.140
  340SOL    HW1 1919   4.997   3.854   5.163
  340SOL    HW2 1920   4.943   4.004   5.200
  341SOL     OW 1921   6.629   6.903   4.302
  341SOL    HW1 1922   6.550   6.872   4.354
  341SOL    HW2 1923   6.612   6.890   4.204
  342SOL     OW 1924   5.968   3.732   0.389
  342SOL    HW1 1925   6.022   3.816   0.380
  342SOL    HW2 1926   5.940   3.701   0.298
  343SOL     OW 1927   1.491   6.666   1.420
  343SOL    HW1 1928   1.403   6.709   1.442
  343SOL    HW2 1929   1.478   6.568   1.409
  344SOL     OW 1930   1.225   2.916   1.712
  344SOL    HW1 1931   1.266   2.986   1.771
  344SOL    HW2 1932   1.143   2.954   1.668
  345SOL     OW 1933   4.957   2.490   3.708
  345SOL    HW1 1934   5.008   2.446   3.782
  345SOL    HW2 1935   4.873   2.438   3.690
  346SOL     OW 1936   1.982   0.900   3.053
  346SOL    HW1 1937   2.067   0.874   3.006
  346SOL    HW2 1938   1.925   0.953   2.991
  347SOL     OW 1939   2.597   5.382   6.967
  347SOL    HW1 1940   2.668   5.346   0.011
  347SOL    HW2 1941   2.590   5.323   6.886
  348SOL     OW 1942   4.860   4.192   2.403
  348SOL    HW1 1943   4.830   4.285   2.424
  348SOL    HW2 1944   4.828   4.167   2.312
  349SOL     OW 1945   6.695   5.374   0.618
  349SOL    HW1 1946   6.777   5.411   0.662
  349SOL    HW2 1947   6.617   5.433   0.639
  350SOL     OW 1948   3.101   2.876   1.090
  350SOL    HW1 1949   3.040   2.852   1.166
  350SOL    HW2 1950   3.181   2.923   1.125
  351SOL     OW 1951   2.524   3.470   0.653
  351SOL    HW1 1952   2.454   3.486   0.584
  351SOL    HW2 1953   2.611   3.508   0.622
  352SOL     OW 1954   3.163   6.611   4.165
  352SOL    HW1 1955   3.074   6.614   4.120
  352SOL    HW2 1956   3.210   6.699   4.152
  353SOL     OW 1957   3.072   0.077   0.232
  353SOL    HW1 1958   3.075   0.118   0.323
  353SOL    HW2 1959   3.040   7.000   0.238
  354SOL     OW 1960   4.109   2.750   0.665
  354SOL    HW1 1961   4.034   2.812   0.684
  354SOL    HW2 1962   4.091   2.701   0.579
  355SOL     OW 1963   1.485   3.801   2.815
  355SOL    HW1 1964   1.442   3.753   2.738
  355SOL    HW2 1965   1.415   3.847   2.869
  356SOL     OW 1966   2.209   0.114   5.872
  356SOL    HW1 1967   2.242   0.187   5.812
  356SOL    HW2 1968   2.278   0.042   5.877
  357SOL     OW 1969   0.189   5.966   5.479
  357SOL    HW1 1970   0.202   6.044   5.417
  357SOL    HW2 1971   0.143   5.997   5.562
  358SOL     OW 1972   5.020   6.423   0.744
  358SOL    HW1 1973   5.073   6.415   0.829
  358SOL    HW2 1974   4.985   6.332   0.719
  359SOL     OW 1975   3.155   2.362   1.701
  359SOL    HW1 1976   3.250   2.389   1.710
  359SOL    HW2 1977   3.097   2.427   1.749
  360SOL     OW 1978   1.094   4.784   5.897
  360SOL    HW1 1979   1.178   4.834   5.915
  360SOL    HW2 1980   1.080   4.777   5.798
  361SOL     OW 1981   6.442   6.782   2.578
  361SOL    HW1 1982   6.502   6.810   2.503
  361SOL    HW2 1983   6.429   6.683   2.574
  362SOL     OW 1984   3.768   3.045   1.321
  362SOL    HW1 1985   3.800   3.094   1.402
  362SOL    HW2 1986   3.757   3.109   1.245
  363SOL     OW 1987   5.680   4.184   3.075
  363SOL    HW1 1988   5.722   4.094   3.064
  363SOL    HW2 1989   5.747   4.248   3.113
  364SOL     OW 1990   6.305   5.200   6.820
  364SOL    HW1 1991   6.264   5.119   6.778
  364SOL    HW2 1992   6.273   5.282   6.772
  365SOL     OW 1993   5.674   6.385   1.826
  365SOL    HW1 1994   5.576   6.405   1.825
  365SOL    HW2 1995   5.699   6.346   1.914
  366SOL     OW 1996   5.680   0.647   6.413
  366SOL    HW1 1997   5.702   0.607   6.324
  366SOL    HW2 1998   5.741   0.610   6.483
  367SOL     OW 1999   5.438   2.583   1.834
  367SOL    HW1 2000   5.509   2.521   1.866
  367SOL    HW2 2001   5.445   2.670   1.884
  368SOL     OW 2002   0.853   2.969   5.265
  368SOL    HW1 2003   0.919   2.917   5.210
  368SOL    HW2 2004   0.900   3.047   5.308
  369SOL     OW 2005   6.058   4.864   1.961
  369SOL    HW1 2006   6.007   4.947   1.983
  369SOL    HW2 2007   6.002   4.784   1.981
  370SOL     OW 2008   2.022   1.449   4.991
  370SOL    HW1 2009   1.943   1.506   5.014
  370SOL    HW2 2010   1.991   1.365   4.947
  371SOL     OW 2011   1.865   4.307   5.594
  371SOL    HW1 2012   1.806   4.388   5.593
  371SOL    HW2 2013   1.906   4.297   5.685
  372SOL     OW 2014   1.057   6.271   6.809
  372SOL    HW1 2015   1.014   6.309   6.726
  372SOL    HW2 2016   1.043   6.172   6.810
  373SOL     OW 2017   5.958   6.127   4.330
  373SOL    HW1 2018   5.865   6.160   4.314
  373SOL    HW2 2019   6.000   6.103   4.243
  374SOL     OW 2020   2.913   1.886   4.042
  374SOL    HW1 2021   2.897   1.982   4.020
  374SOL    HW2 2022   2.987   1.878   4.109
  375SOL     OW 2023   1.109   4.658   4.048
  375SOL    HW1 2024   1.147   4.637   4.138
  375SOL    HW2 2025   1.182   4.662   3.981
  376SOL     OW 2026   2.741   0.825   5.290
  376SOL    HW1 2027   2.709   0.911   5.252
  376SOL    HW2 2028   2.841   0.822   5.285
  377SOL     OW 2029   0.973   2.156   1.014
  377SOL    HW1 2030   1.020   2.232   1.058
  377SOL    HW2 2031   0.875   2.176   1.007
  378SOL     OW 2032   4.776   2.512   6.171
  378SOL    HW1 2033   4.843   2.529   6.243
  378SOL    HW2 2034   4.727   2.428   6.190
  379SOL     OW 2035   5.709   2.766   1.615
  379SOL    HW1 2036   5.726   2.813   1.528
  379SOL    HW2 2037   5.614   2.781   1.643
  380SOL     OW 2038   2.620   1.362   0.625
  380SOL    HW1 2039   2.629   1.304   0.544
  380SOL    HW2 2040   2.709   1.403   0.646
  381SOL     OW 2041   1.236   3.869   2.438
  381SOL    HW1 2042   1.281   3.830   2.357
  381SOL    HW2 2043   1.243   3.804   2.514
  382SOL     OW 2044   5.735   0.388   6.847
  382SOL    HW1 2045   5.710   0.451   6.774
  382SOL    HW2 2046   5.817   0.421   6.895
  383SOL     OW 2047   4.248   4.164   6.351
  383SOL    HW1 2048   4.261   4.120   6.440
  383SOL    HW2 2049   4.186   4.242   6.361
  384SOL     OW 2050   0.246   5.580   3.877
  384SOL    HW1 2051   0.154   5.617   3.885
  384SOL    HW2 2052   0.277   5.588   3.783
  385SOL     OW 2053   3.240   4.680   5.285
  385SOL    HW1 2054   3.152   4.707   5.323
  385SOL    HW2 2055   3.255   4.583   5.302
  386SOL     OW 2056   2.633   0.172   5.133
  386SOL    HW1 2057   2.730   0.195   5.131
  386SOL    HW2 2058   2.620   0.078   5.101
  387SOL     OW 2059   1.329   6.949   2.280
  387SOL    HW1 2060   1.269   0.000   2.240
  387SOL    HW2 2061   1.338   6.871   2.218
  388SOL     OW 2062   1.467   1.673   5.216
  388SOL    HW1 2063   1.457   1.724   5.131
  388SOL    HW2 2064   1.447   1.576   5.200
  389SOL     OW 2065   3.705   3.772   0.948
  389SOL    HW1 2066   3.790   3.822   0.934
  389SOL    HW2 2067   3.642   3.829   1.001
  390SOL     OW 2068   3.585   1.765   1.429
  390SOL    HW1 2069   3.577   1.840   1.363
  390SOL    HW2 2070   3.511   1.699   1.412
  391SOL     OW 2071   1.715   2.725   6.655
  391SOL    HW1 2072   1.663   2.680   6.582
  391SOL    HW2 2073   1.774   2.795   6.615
  392SOL     OW 2074   1.578   4.548   1.071
  392SOL    HW1 2075   1.521   4.485   1.123
  392SOL    HW2 2076   1.649   4.497   1.023
  393SOL     OW 2077   1.647   4.322   6.622
  393SOL    HW1 2078   1.690   4.236   6.595
  393SOL    HW2 2079   1.615   4.371   6.541
  394SOL     OW 2080   6.945   1.996   0.251
  394SOL    HW1 2081   0.022   2.029   0.237
  394SOL    HW2 2082   6.946   1.896   0.255
  395SOL     OW 2083   5.159   4.110   3.080
  395SOL    HW1 2084   5.157   4.196   3.029
  395SOL    HW2 2085   5.206   4.040   3.026
  396SOL     OW 2086   3.304   3.614   1.632
  396SOL    HW1 2087   3.206   3.606   1.650
  396SOL    HW2 2088   3.326   3.562   1.549
  397SOL     OW 2089   5.870   1.268   5.232
  397SOL    HW1 2090   5.934   1.332   5.274
  397SOL    HW2 2091   5.782   1.313   5.216
  398SOL     OW 2092   1.143   0.356   2.372
  398SOL    HW1 2093   1.153   0.278   2.310
  398SOL    HW2 2094   1.065   0.340   2.433
  399SOL     OW 2095   5.532   5.958   2.395
  399SOL    HW1 2096   5.518   5.868   2.437
  399SOL    HW2 2097   5.447   5.990   2.355
  400SOL     OW 2098   6.561   6.263   5.657
  400SOL    HW1 2099   6.471   6.283   5.618
  400SOL    HW2 2100   6.551   6.246   5.755
  401SOL     OW 2101   5.862   0.538   6.591
  401SOL    HW1 2102   5.906   0.516   6.504
  401SOL    HW2 2103   5.930   0.574   6.654
  402SOL     OW 2104   6.085   0.131   3.652
  402SOL    HW1 2105   6.082   0.041   3.697
  402SOL    HW2 2106   6.004   0.184   3.677
  403SOL     OW 2107   3.782   2.069   4.488
  403SOL    HW1 2108   3.811   1.973   4.488
  403SOL    HW2 2109   3.813   2.113   4.573
  404SOL     OW 2110   1.542   5.455   3.820
  404SOL    HW1 2111   1.528   5.360   3.791
  404SOL    HW2 2112   1.634   5.484   3.794
  405SOL     OW 2113   1.769   3.126   2.281
  405SOL    HW1 2114   1.775   3.126   2.181
  405SOL    HW2 2115   1.854   3.161   2.319
  406SOL     OW 2116   0.938   3.927   4.893
  406SOL    HW1 2117   0.887   3.842   4.907
  406SOL    HW2 2118   1.001   3.915   4.816
  407SOL     OW 2119   1.487   0.917   4.458
  407SOL    HW1 2120   1.408   0.963   4.417
  407SOL    HW2 2121   1.569   0.937   4.403
  408SOL     OW 2122   1.398   2.572   3.152
  408SOL    HW1 2123   1.430   2.529   3.236
  408SOL    HW2 2124   1.466   2.638   3.120
  409SOL     OW 2125   6.597   3.148   2.243
  409SOL    HW1 2126   6.630   3.055   2.228
  409SOL    HW2 2127   6.513   3.145   2.298
  410SOL     OW 2128   1.723   1.681   0.940
  410SOL    HW1 2129   1.675   1.600   0.974
  410SOL    HW2 2130   1.821   1.672   0.958
  411SOL     OW 2131   6.192   0.361   1.464
  411SOL    HW1 2132   6.123   0.430   1.440
  411SOL    HW2 2133   6.147   0.276   1.489
  412SOL     OW 2134   2.834   6.077   3.861
  412SOL    HW1 2135   2.926   6.057   3.895
  412SOL    HW2 2136   2.839   6.115   3.769
  413SOL     OW 2137   5.466   3.773   1.531
  413SOL    HW1 2138   5.381   3.816   1.500
  413SOL    HW2 2139   5.478   3.791   1.629
  414SOL     OW 2140   3.127   5.197   3.530
  414SOL    HW1 2141   3.060   5.171   3.599
  414SOL    HW2 2142   3.200   5.251   3.573
  415SOL     OW 2143   0.922   6.037   6.846
  415SOL    HW1 2144   0.836   6.031   6.897
  415SOL    HW2 2145   0.934   5.953   6.793
  416SOL     OW 2146   4.630   6.432   4.783
  416SOL    HW1 2147   4.615   6.384   4.870
  416SOL    HW2 2148   4.644   6.529   4.801
  417SOL     OW 2149   2.052   5.949   6.159
  417SOL    HW1 2150   2.049   5.986   6.067
  417SOL    HW2 2151   1.960   5.947   6.198
  418SOL     OW 2152   4.015   6.859   6.923
  418SOL    HW1 2153   4.095   6.834   6.868
  418SOL    HW2 2154   4.034   6.840   0.003
  419SOL     OW 2155   2.086   6.836   1.470
  419SOL    HW1 2156   2.054   6.872   1.558
  419SOL    HW2 2157   2.038   6.752   1.449
  420SOL     OW 2158   6.045   1.235   0.324
  420SOL    HW1 2159   6.018   1.165   0.390
  420SOL    HW2 2160   6.145   1.242   0.321
  421SOL     OW 2161   0.085   3.979   5.327
  421SOL    HW1 2162   0.149   4.054   5.310
  421SOL    HW2 2163   0.052   3.943   5.240
  422SOL     OW 2164   5.248   3.343   1.526
  422SOL    HW1 2165   5.232   3.260   1.472
  422SOL    HW2 2166   5.187   3.415   1.495
  423SOL     OW 2167   0.447   2.118   5.733
  423SOL    HW1 2168   0.352   2.087   5.728
  423SOL    HW2 2169   0.490   2.106   5.643
  424SOL     OW 2170   1.584   5.587   0.841
  424SOL    HW1 2171   1.540   5.661   0.892
  424SOL    HW2 2172   1.678   5.615   0.818
  425SOL     OW 2173   4.778   1.773   3.282
  425SOL    HW1 2174   4.853   1.812   3.335
  425SOL    HW2 2175   4.787   1.674   3.280
  426SOL     OW 2176   3.141   1.868   4.188
  426SOL    HW1 2177   3.202   1.830   4.118
  426SOL    HW2 2178   3.189   1.937   4.241
  427SOL     OW 2179   5.625   6.251   3.950
  427SOL    HW1 2180   5.555   6.180   3.949
  427SOL    HW2 2181   5.614   6.310   3.870
  428SOL     OW 2182   3.967   0.311   3.606
  428SOL    HW1 2183   3.979   0.253   3.687
  428SOL    HW2 2184   3.999   0.404   3.627
  429SOL     OW 2185   1.288   4.668   1.834
  429SOL    HW1 2186   1.216   4.693   1.898
  429SOL    HW2 2187   1.313   4.572   1.847
  430SOL     OW 2188   0.441   0.089   4.643
  430SOL    HW1 2189   0.420   0.011   4.584
  430SOL    HW2 2190   0.528   0.073   4.690
  431SOL     OW 2191   2.685   0.813   1.316
  431SOL    HW1 2192   2.610   0.849   1.260
  431SOL    HW2 2193   2.750   0.765   1.257
  432SOL     OW 2194   6.273   1.696   0.608
  432SOL    HW1 2195   6.345   1.666   0.671
  432SOL    HW2 2196   6.185   1.662   0.640
  433SOL     OW 2197   1.864   6.450   4.908
  433SOL    HW1 2198   1.857   6.442   4.809
  433SOL    HW2 2199   1.844   6.544   4.935
  434SOL     OW 2200   3.752   5.601   3.699
  434SOL    HW1 2201   3.696   5.603   3.783
  434SOL    HW2 2202   3.706   5.545   3.630
  435SOL     OW 2203   4.594   2.640   6.482
  435SOL    HW1 2204   4.500   2.648   6.516
  435SOL    HW2 2205   4.621   2.725   6.437
  436SOL     OW 2206   3.020   5.685   2.302
  436SOL    HW1 2207   3.091   5.620   2.275
  436SOL    HW2 2208   2.991   5.738   2.222
  437SOL     OW 2209   0.504   1.379   6.760
  437SOL    HW1 2210   0.601   1.358   6.776
  437SOL    HW2 2211   0.496   1.469   6.718
  438SOL     OW 2212   2.214   3.945   3.557
  438SOL    HW1 2213   2.237   4.042   3.552
  438SOL    HW2 2214   2.289   3.891   3.519
  439SOL     OW 2215   5.907   5.304   2.346
  439SOL    HW1 2216   5.969   5.329   2.272
  439SOL    HW2 2217   5.826   5.258   2.308
  440SOL     OW 2218   2.183   1.736   5.069
  440SOL    HW1 2219   2.252   1.709   5.136
  440SOL    HW2 2220   2.104   1.775   5.116
  441SOL     OW 2221   0.710   3.251   4.225
  441SOL    HW1 2222   0.685   3.309   4.302
  441SOL    HW2 2223   0.628   3.230   4.171
  442SOL     OW 2224   3.981   5.592   5.171
  442SOL    HW1 2225   3.892   5.602   5.215
  442SOL    HW2 2226   3.968   5.573   5.074
  443SOL     OW 2227   6.106   4.177   3.709
  443SOL    HW1 2228   6.028   4.236   3.733
  443SOL    HW2 2229   6.191   4.228   3.720
  444SOL     OW 2230   5.057   0.528   6.510
  444SOL    HW1 2231   4.968   0.562   6.541
  444SOL    HW2 2232   5.065   0.430   6.532
  445SOL     OW 2233   0.733   5.951   3.171
  445SOL    HW1 2234   0.751   5.885   3.244
  445SOL    HW2 2235   0.819   5.977   3.127
  446SOL     OW 2236   3.286   4.954   3.549
  446SOL    HW1 2237   3.245   5.045   3.542
  446SOL    HW2 2238   3.214   4.885   3.541
  447SOL     OW 2239   0.261   2.771   6.480
  447SOL    HW1 2240   0.198   2.705   6.521
  447SOL    HW2 2241   0.208   2.845   6.438
  448SOL     OW 2242   2.317   0.943   3.288
  448SOL    HW1 2243   2.308   1.042   3.278
  448SOL    HW2 2244   2.240   0.908   3.342
  449SOL     OW 2245   2.810   1.162   4.008
  449SOL    HW1 2246   2.879   1.184   3.938
  449SOL    HW2 2247   2.852   1.169   4.099
  450SOL     OW 2248   1.477   4.663   3.097
  450SOL    HW1 2249   1.513   4.756   3.101
  450SOL    HW2 2250   1.422   4.652   3.015
  451SOL     OW 2251   1.143   2.379   4.369
  451SOL    HW1 2252   1.121   2.443   4.296
  451SOL    HW2 2253   1.242   2.368   4.376
  452SOL     OW 2254   5.460   6.214   0.638
  452SOL    HW1 2255   5.521   6.294   0.634
  452SOL    HW2 2256   5.399   6.215   0.558
  453SOL     OW 2257   4.355   0.099   6.274
  453SOL    HW1 2258   4.321   0.017   6.321
  453SOL    HW2 2259   4.279   0.149   6.234
  454SOL     OW 2260   0.288   4.117   6.062
  454SOL    HW1 2261   0.385   4.139   6.052
  454SOL    HW2 2262   0.278   4.019   6.084
  455SOL     OW 2263   5.383   2.214   4.775
  455SOL    HW1 2264   5.444   2.272   4.830
  455SOL    HW2 2265   5.293   2.257   4.769
  456SOL     OW 2266   0.560   6.952   3.531
  456SOL    HW1 2267   0.555   6.864   3.483
  456SOL    HW2 2268   0.480   6.962   3.590
  457SOL     OW 2269   1.735   3.134   4.468
  457SOL    HW1 2270   1.700   3.040   4.474
  457SOL    HW2 2271   1.767   3.163   4.558
  458SOL     OW 2272   3.329   6.100   2.781
  458SOL    HW1 2273   3.385   6.054   2.712
  458SOL    HW2 2274   3.338   6.055   2.869
  459SOL     OW 2275   1.791   6.955   5.931
  459SOL    HW1 2276   1.739   6.928   6.012
  459SOL    HW2 2277   1.801   0.038   5.929
  460SOL     OW 2278   2.350   6.893   4.775
  460SOL    HW1 2279   2.350   6.985   4.735
  460SOL    HW2 2280   2.415   6.889   4.851
  461SOL     OW 2281   0.034   5.485   5.354
  461SOL    HW1 2282   0.087   5.469   5.270
  461SOL    HW2 2283   6.955   5.500   5.330
  462SOL     OW 2284   3.857   3.177   6.915
  462SOL    HW1 2285   3.824   3.202   6.824
  462SOL    HW2 2286   3.936   3.116   6.906
  463SOL     OW 2287   5.907   6.211   3.946
  463SOL    HW1 2288   5.815   6.211   3.985
  463SOL    HW2 2289   5.904   6.180   3.851
  464SOL     OW 2290   3.062   1.152   5.253
  464SOL    HW1 2291   3.156   1.186   5.250
  464SOL    HW2 2292   3.044   1.096   5.171
  465SOL     OW 2293   0.847   2.450   0.136
  465SOL    HW1 2294   0.903   2.504   0.197
  465SOL    HW2 2295   0.761   2.498   0.117
  466SOL     OW 2296   1.817   6.262   4.063
  466SOL    HW1 2297   1.813   6.174   4.110
  466SOL    HW2 2298   1.775   6.332   4.121
  467SOL     OW 2299   2.129   1.321   0.843
  467SOL    HW1 2300   2.219   1.335   0.803
  467SOL    HW2 2301   2.137   1.274   0.931
  468SOL     OW 2302   3.929   5.924   5.516
  468SOL    HW1 2303   3.859   5.881   5.573
  468SOL    HW2 2304   3.886   5.962   5.434
  469SOL     OW 2305   2.707   3.560   5.909
  469SOL    HW1 2306   2.749   3.470   5.915
  469SOL    HW2 2307   2.718   3.608   5.997
  470SOL     OW 2308   4.928   6.639   1.073
  470SOL    HW1 2309   4.864   6.633   1.149
  470SOL    HW2 2310   5.006   6.696   1.100
  471SOL     OW 2311   2.443   2.606   4.046
  471SOL    HW1 2312   2.347   2.633   4.057
  471SOL    HW2 2313   2.498   2.687   4.025
  472SOL     OW 2314   4.747   4.553   6.149
  472SOL    HW1 2315   4.724   4.463   6.111
  472SOL    HW2 2316   4.669   4.588   6.201
  473SOL     OW 2317   1.475   2.729   2.409
  473SOL    HW1 2318   1.476   2.733   2.509
  473SOL    HW2 2319   1.380   2.727   2.377
  474SOL     OW 2320   5.234   6.064   4.758
  474SOL    HW1 2321   5.235   6.070   4.858
  474SOL    HW2 2322   5.284   5.983   4.729
  475SOL     OW 2323   5.869   2.076   6.475
  475SOL    HW1 2324   5.936   2.002   6.468
  475SOL    HW2 2325   5.803   2.054   6.547
  476SOL     OW 2326   0.519   3.638   2.215
  476SOL    HW1 2327   0.425   3.605   2.218
  476SOL    HW2 2328   0.521   3.730   2.177
  477SOL     OW 2329   2.562   6.229   3.209
  477SOL    HW1 2330   2.626   6.210   3.284
  477SOL    HW2 2331   2.487   6.286   3.243
  478SOL     OW 2332   3.328   6.388   2.458
  478SOL    HW1 2333   3.315   6.401   2.359
  478SOL    HW2 2334   3.241   6.363   2.500
  479SOL     OW 2335   3.608   2.611   5.603
  479SOL    HW1 2336   3.612   2.621   5.702
  479SOL    HW2 2337   3.644   2.521   5.577
  480SOL     OW 2338   2.365   1.078   0.418
  480SOL    HW1 2339   2.271   1.111   0.417
  480SOL    HW2 2340   2.366   0.978   0.410
  481SOL     OW 2341   1.832   6.657   1.157
  481SOL    HW1 2342   1.765   6.584   1.143
  481SOL    HW2 2343   1.795   6.743   1.120
  482SOL     OW 2344   4.206   4.708   2.037
  482SOL    HW1 2345   4.262   4.640   2.083
  482SOL    HW2 2346   4.174   4.672   1.949
  483SOL     OW 2347   6.518   2.462   3.266
  483SOL    HW1 2348   6.463   2.516   3.204
  483SOL    HW2 2349   6.611   2.499   3.270
  484SOL     OW 2350   1.868   3.149   5.431
  484SOL    HW1 2351   1.873   3.090   5.512
  484SOL    HW2 2352   1.938   3.122   5.365
  485SOL     OW 2353   3.955   4.770   2.383
  485SOL    HW1 2354   3.918   4.847   2.434
  485SOL    HW2 2355   3.965   4.795   2.287
  486SOL     OW 2356   6.541   0.631   0.108
  486SOL    HW1 2357   6.491   0.648   0.193
  486SOL    HW2 2358   6.627   0.586   0.129
  487SOL     OW 2359   0.968   0.668   3.479
  487SOL    HW1 2360   1.041   0.682   3.546
  487SOL    HW2 2361   0.974   0.575   3.442
  488SOL     OW 2362   0.928   1.053   2.362
  488SOL    HW1 2363   0.848   1.089   2.313
  488SOL    HW2 2364   1.006   1.052   2.300
  489SOL     OW 2365   4.625   5.637   5.132
  489SOL    HW1 2366   4.682   5.683   5.200
  489SOL    HW2 2367   4.603   5.699   5.058
  490SOL     OW 2368   0.831   6.446   3.020
  490SOL    HW1 2369   0.804   6.469   2.926
  490SOL    HW2 2370   0.921   6.402   3.019
  491SOL     OW 2371   1.377   3.523   1.739
  491SOL    HW1 2372   1.308   3.464   1.697
  491SOL    HW2 2373   1.336   3.611   1.761
  492SOL     OW 2374   1.470   0.088   5.667
  492SOL    HW1 2375   1.530   0.146   5.723
  492SOL    HW2 2376   1.443   0.138   5.585
  493SOL     OW 2377   3.775   6.466   5.785
  493SOL    HW1 2378   3.851   6.401   5.791
  493SOL    HW2 2379   3.811   6.559   5.779
  494SOL     OW 2380   0.921   6.804   6.755
  494SOL    HW1 2381   1.013   6.841   6.740
  494SOL    HW2 2382   0.878   6.784   6.667
  495SOL     OW 2383   4.130   5.863   3.586
  495SOL    HW1 2384   4.059   5.929   3.609
  495SOL    HW2 2385   4.215   5.887   3.634
  496SOL     OW 2386   5.345   3.295   1.851
  496SOL    HW1 2387   5.440   3.268   1.868
  496SOL    HW2 2388   5.332   3.312   1.754
  497SOL     OW 2389   3.232   1.633   4.499
  497SOL    HW1 2390   3.260   1.644   4.594
  497SOL    HW2 2391   3.200   1.721   4.463
  498SOL     OW 2392   0.882   5.010   1.622
  498SOL    HW1 2393   0.818   5.085   1.637
  498SOL    HW2 2394   0.831   4.924   1.620
  499SOL     OW 2395   1.740   5.559   4.460
  499SOL    HW1 2396   1.787   5.640   4.495
  499SOL    HW2 2397   1.805   5.502   4.409
  500SOL     OW 2398   0.078   2.069   6.074
  500SOL    HW1 2399   0.086   1.970   6.061
  500SOL    HW2 2400   7.005   2.090   6.113
  501SOL     OW 2401   3.792   0.309   1.070
  501SOL    HW1 2402   3.868   0.298   1.135
  501SOL    HW2 2403   3.725   0.236   1.084
  502SOL     OW 2404   0.622   3.850   5.722
  502SOL    HW1 2405   0.698   3.796   5.759
  502SOL    HW2 2406   0.654   3.904   5.644
  503SOL     OW 2407   0.127   4.843   6.734
  503SOL    HW1 2408   0.078   4.896   6.802
  503SOL    HW2 2409   0.123   4.889   6.645
  504SOL     OW 2410   0.629   5.420   2.179
  504SOL    HW1 2411   0.662   5.498   2.125
  504SOL    HW2 2412   0.705   5.381   2.231
  505SOL     OW 2413   2.909   6.079   4.496
  505SOL    HW1 2414   2.935   6.175   4.482
  505SOL    HW2 2415   2.815   6.075   4.528
  506SOL     OW 2416   2.953   5.199   3.746
  506SOL    HW1 2417   2.907   5.115   3.773
  506SOL    HW2 2418   2.888   5.260   3.700
  507SOL     OW 2419   3.087   0.532   3.353
  507SOL    HW1 2420   2.991   0.506   3.349
  507SOL    HW2 2421   3.098   0.624   3.314
  508SOL     OW 2422   0.150   3.582   2.500
  508SOL    HW1 2423   0.229   3.579   2.562
  508SOL    HW2 2424   0.087   3.654   2.529
  509SOL     OW 2425   3.001   1.283   1.248
  509SOL    HW1 2426   2.934   1.211   1.262
  509SOL    HW2 2427   3.046   1.270   1.160
  510SOL     OW 2428   6.546   4.396   0.116
  510SOL    HW1 2429   6.497   4.344   0.046
  510SOL    HW2 2430   6.483   4.459   0.162
  511SOL     OW 2431   0.879   2.361   5.988
  511SOL    HW1 2432   0.937   2.440   5.968
  511SOL    HW2 2433   0.804   2.358   5.923
  512SOL     OW 2434   6.931   2.333   6.473
  512SOL    HW1 2435   6.908   2.304   6.566
  512SOL    HW2 2436   6.999   2.406   6.477
  513SOL     OW 2437   5.423   6.822   3.354
  513SOL    HW1 2438   5.490   6.812   3.427
  513SOL    HW2 2439   5.470   6.843   3.268
  514SOL     OW 2440   6.368   0.431   4.224
  514SOL    HW1 2441   6.273   0.402   4.232
  514SOL    HW2 2442   6.419   0.402   4.305
  515SOL     OW 2443   1.327   6.842   1.054
  515SOL    HW1 2444   1.387   6.868   0.978
  515SOL    HW2 2445   1.379   6.845   1.140
  516SOL     OW 2446   2.853   4.853   2.013
  516SOL    HW1 2447   2.848   4.759   1.977
  516SOL    HW2 2448   2.932   4.899   1.973
  517SOL     OW 2449   3.870   5.065   1.726
  517SOL    HW1 2450   3.813   5.140   1.691
  517SOL    HW2 2451   3.946   5.102   1.778
  518SOL     OW 2452   2.094   2.098   3.752
  518SOL    HW1 2453   2.039   2.151   3.688
  518SOL    HW2 2454   2.037   2.068   3.829
  519SOL     OW 2455   0.702   6.465   4.045
  519SOL    HW1 2456   0.794   6.439   4.074
  519SOL    HW2 2457   0.663   6.528   4.111
  520SOL     OW 2458   5.965   4.020   6.922
  520SOL    HW1 2459   6.001   4.067   6.842
  520SOL    HW2 2460   5.899   3.951   6.893
  521SOL     OW 2461   6.289   5.992   4.774
  521SOL    HW1 2462   6.371   5.936   4.759
  521SOL    HW2 2463   6.311   6.088   4.759
  522SOL     OW 2464   3.420   3.249   3.788
  522SOL    HW1 2465   3.499   3.297   3.750
  522SOL    HW2 2466   3.450   3.162   3.828
  523SOL     OW 2467   0.806   6.279   1.634
  523SOL    HW1 2468   0.711   6.299   1.611
  523SOL    HW2 2469   0.851   6.236   1.556
  524SOL     OW 2470   0.546   1.974   2.583
  524SOL    HW1 2471   0.606   1.912   2.533
  524SOL    HW2 2472   0.557   1.960   2.681
  525SOL     OW 2473   2.015   4.314   5.860
  525SOL    HW1 2474   2.083   4.326   5.787
  525SOL    HW2 2475   2.004   4.217   5.881
  526SOL     OW 2476   3.109   6.289   3.805
  526SOL    HW1 2477   3.158   6.240   3.733
  526SOL    HW2 2478   3.077   6.224   3.874
  527SOL     OW 2479   6.799   3.063   0.732
  527SOL    HW1 2480   6.790   3.037   0.636
  527SOL    HW2 2481   6.718   3.033   0.782
  528SOL     OW 2482   1.700   2.686   3.813
  528SOL    HW1 2483   1.691   2.634   3.898
  528SOL    HW2 2484   1.735   2.778   3.833
  529SOL     OW 2485   1.247   5.137   5.112
  529SOL    HW1 2486   1.326   5.100   5.161
  529SOL    HW2 2487   1.249   5.237   5.115
  530SOL     OW 2488   4.145   3.505   3.886
  530SOL    HW1 2489   4.088   3.423   3.875
  530SOL    HW2 2490   4.144   3.533   3.983
  531SOL     OW 2491   0.727   2.243   2.846
  531SOL    HW1 2492   0.747   2.205   2.756
  531SOL    HW2 2493   0.641   2.294   2.842
  532SOL     OW 2494   0.800   3.197   0.393
  532SOL    HW1 2495   0.899   3.181   0.389
  532SOL    HW2 2496   0.752   3.110   0.382
  533SOL     OW 2497   3.900   0.047   4.034
  533SOL    HW1 2498   3.937   6.993   4.094
  533SOL    HW2 2499   3.820   0.012   3.986
  534SOL     OW 2500   4.925   6.454   2.451
  534SOL    HW1 2501   4.861   6.519   2.490
  534SOL    HW2 2502   4.985   6.419   2.523
  535SOL     OW 2503   6.834   3.470   4.269
  535SOL    HW1 2504   6.861   3.396   4.331
  535SOL    HW2 2505   6.786   3.541   4.321
  536SOL     OW 2506   5.924   4.997   2.610
  536SOL    HW1 2507   5.933   4.947   2.696
  536SOL    HW2 2508   5.952   5.092   2.623
  537SOL     OW 2509   2.249   6.474   4.694
  537SOL    HW1 2510   2.303   6.557   4.704
  537SOL    HW2 2511   2.288   6.401   4.750
  538SOL     OW 2512   1.024   4.256   4.107
  538SOL    HW1 2513   1.123   4.257   4.090
  538SOL    HW2 2514   0.975   4.269   4.021
  539SOL     OW 2515   1.863   5.162   1.400
  539SOL    HW1 2516   1.853   5.077   1.348
  539SOL    HW2 2517   1.907   5.231   1.343
  540SOL     OW 2518   1.414   1.481   2.768
  540SOL    HW1 2519   1.452   1.536   2.694
  540SOL    HW2 2520   1.362   1.540   2.830
  541SOL     OW 2521   5.353   5.135   3.667
  541SOL    HW1 2522   5.412   5.107   3.742
  541SOL    HW2 2523   5.285   5.201   3.700
  542SOL     OW 2524   5.709   5.783   0.057
  542SOL    HW1 2525   5.686   5.692   0.024
  542SOL    HW2 2526   5.711   5.784   0.157
  543SOL     OW 2527   0.580   3.049   4.618
  543SOL    HW1 2528   0.628   3.136   4.625
  543SOL    HW2 2529   0.585   3.001   4.706
  544SOL     OW 2530   1.539   4.905   0.393
  544SOL    HW1 2531   1.545   4.996   0.352
  544SOL    HW2 2532   1.626   4.884   0.438
  545SOL     OW 2533   3.248   1.716   1.251
  545SOL    HW1 2534   3.332   1.662   1.258
  545SOL    HW2 2535   3.270   1.807   1.215
  546SOL     OW 2536   2.339   3.126   0.346
  546SOL    HW1 2537   2.310   3.180   0.267
  546SOL    HW2 2538   2.322   3.178   0.430
  547SOL     OW 2539   3.621   1.218   0.229
  547SOL    HW1 2540   3.609   1.120   0.242
  547SOL    HW2 2541   3.536   1.258   0.196
  548SOL     OW 2542   3.565   3.472   2.438
  548SOL    HW1 2543   3.470   3.463   2.406
  548SOL    HW2 2544   3.588   3.395   2.498
  549SOL     OW 2545   5.843   3.171   0.835
  549SOL    HW1 2546   5.898   3.251   0.815
  549SOL    HW2 2547   5.769   3.196   0.898
  550SOL     OW 2548   1.108   5.968   3.857
  550SOL    HW1 2549   1.115   6.016   3.944
  550SOL    HW2 2550   1.098   5.870   3.874
  551SOL     OW 2551   1.165   0.153   2.200
  551SOL    HW1 2552   1.068   0.150   2.173
  551SOL    HW2 2553   1.218   0.192   2.125
  552SOL     OW 2554   6.705   4.629   7.007
  552SOL    HW1 2555   6.677   4.546   0.038
  552SOL    HW2 2556   6.638   4.701   0.008
  553SOL     OW 2557   2.704   6.229   3.636
  553SOL    HW1 2558   2.626   6.276   3.678
  553SOL    HW2 2559   2.783   6.291   3.635
  554SOL     OW 2560   6.694   6.441   6.648
  554SOL    HW1 2561   6.717   6.533   6.616
  554SOL    HW2 2562   6.710   6.434   6.746
  555SOL     OW 2563   2.381   4.471   4.635
  555SOL    HW1 2564   2.352   4.375   4.645
  555SOL    HW2 2565   2.438   4.496   4.713
  556SOL     OW 2566   4.367   2.105   4.102
  556SOL    HW1 2567   4.422   2.101   4.186
  556SOL    HW2 2568   4.332   2.198   4.091
  557SOL     OW 2569   0.393   5.634   0.688
  557SOL    HW1 2570   0.300   5.620   0.721
  557SOL    HW2 2571   0.433   5.713   0.733
  558SOL     OW 2572   2.892   3.414   3.730
  558SOL    HW1 2573   2.801   3.438   3.698
  558SOL    HW2 2574   2.961   3.466   3.679
  559SOL     OW 2575   7.016   5.550   0.009
  559SOL    HW1 2576   0.005   5.528   6.928
  559SOL    HW2 2577   6.949   5.624   0.022
  560SOL     OW 2578   5.262   4.819   5.364
  560SOL    HW1 2579   5.323   4.777   5.298
  560SOL    HW2 2580   5.251   4.759   5.443
  561SOL     OW 2581   0.776   1.882   1.403
  561SOL    HW1 2582   0.841   1.860   1.331
  561SOL    HW2 2583   0.688   1.907   1.362
  562SOL     OW 2584   4.693   0.230   6.027
  562SOL    HW1 2585   4.776   0.223   6.082
  562SOL    HW2 2586   4.711   0.288   5.948
  563SOL     OW 2587   2.756   0.556   3.550
  563SOL    HW1 2588   2.772   0.458   3.566
  563SOL    HW2 2589   2.737   0.601   3.637
  564SOL     OW 2590   1.426   1.985   6.732
  564SOL    HW1 2591   1.355   2.004   6.663
  564SOL    HW2 2592   1.402   2.030   6.817
  565SOL     OW 2593   3.300   2.975   5.246
  565SOL    HW1 2594   3.333   2.892   5.201
  565SOL    HW2 2595   3.378   3.024   5.287
  566SOL     OW 2596   6.807   4.951   3.587
  566SOL    HW1 2597   6.869   4.953   3.665
  566SOL    HW2 2598   6.713   4.958   3.618
  567SOL     OW 2599   2.928   2.823   1.304
  567SOL    HW1 2600   2.938   2.803   1.402
  567SOL    HW2 2601   2.847   2.879   1.289
  568SOL     OW 2602   5.073   0.593   6.994
  568SOL    HW1 2603   5.067   0.500   6.957
  568SOL    HW2 2604   4.988   0.615   0.025
  569SOL     OW 2605   1.748   3.002   6.356
  569SOL    HW1 2606   1.670   2.955   6.399
  569SOL    HW2 2607   1.718   3.046   6.272
  570SOL     OW 2608   3.855   5.723   6.860
  570SOL    HW1 2609   3.846   5.808   6.809
  570SOL    HW2 2610   3.876   5.648   6.797
  571SOL     OW 2611   3.582   6.933   2.185
  571SOL    HW1 2612   3.518   6.884   2.126
  571SOL    HW2 2613   3.615   6.870   2.256
  572SOL     OW 2614   2.781   4.700   5.625
  572SOL    HW1 2615   2.721   4.644   5.681
  572SOL    HW2 2616   2.865   4.649   5.604
  573SOL     OW 2617   5.322   1.292   5.442
  573SOL    HW1 2618   5.276   1.206   5.424
  573SOL    HW2 2619   5.415   1.288   5.404
  574SOL     OW 2620   4.096   1.814   4.308
  574SOL    HW1 2621   4.085   1.901   4.260
  574SOL    HW2 2622   4.108   1.741   4.241
  575SOL     OW 2623   4.989   4.070   6.827
  575SOL    HW1 2624   4.946   4.111   6.747
  575SOL    HW2 2625   5.014   3.975   6.807
  576SOL     OW 2626   0.737   1.995   3.265
  576SOL    HW1 2627   0.691   2.019   3.351
  576SOL    HW2 2628   0.689   1.918   3.223
  577SOL     OW 2629   1.525   1.217   2.739
  577SOL    HW1 2630   1.489   1.309   2.749
  577SOL    HW2 2631   1.549   1.201   2.644
  578SOL     OW 2632   5.590   5.991   4.104
  578SOL    HW1 2633   5.524   6.053   4.061
  578SOL    HW2 2634   5.654   5.958   4.034
  579SOL     OW 2635   1.878   3.219   3.120
  579SOL    HW1 2636   1.961   3.274   3.133
  579SOL    HW2 2637   1.797   3.277   3.135
  580SOL     OW 2638   5.220   5.698   0.028
  580SOL    HW1 2639   5.304   5.704   0.081
  580SOL    HW2 2640   5.227   5.624   6.978
  581SOL     OW 2641   2.675   3.458   1.442
  581SOL    HW1 2642   2.741   3.403   1.391
  581SOL    HW2 2643   2.659   3.416   1.531
  582SOL     OW 2644   4.467   6.287   1.746
  582SOL    HW1 2645   4.472   6.371   1.799
  582SOL    HW2 2646   4.554   6.239   1.751
  583SOL     OW 2647   2.981   5.997   5.509
  583SOL    HW1 2648   3.035   5.978   5.591
  583SOL    HW2 2649   2.974   5.913   5.454
  584SOL     OW 2650   2.762   4.844   6.639
  584SOL    HW1 2651   2.672   4.859   6.679
  584SOL    HW2 2652   2.829   4.830   6.712
  585SOL     OW 2653   5.445   2.648   6.151
  585SOL    HW1 2654   5.450   2.636   6.250
  585SOL    HW2 2655   5.537   2.643   6.112
  586SOL     OW 2656   3.690   0.628   6.112
  586SOL    HW1 2657   3.736   0.663   6.031
  586SOL    HW2 2658   3.636   0.547   6.088
  587SOL     OW 2659   4.214   1.763   5.242
  587SOL    HW1 2660   4.207   1.842   5.180
  587SOL    HW2 2661   4.249   1.684   5.192
  588SOL     OW 2662   1.488   4.751   2.278
  588SOL    HW1 2663   1.395   4.782   2.257
  588SOL    HW2 2664   1.494   4.652   2.265
  589SOL     OW 2665   3.322   4.476   1.354
  589SOL    HW1 2666   3.264   4.544   1.399
  589SOL    HW2 2667   3.306   4.478   1.255
  590SOL     OW 2668   4.821   2.934   3.379
  590SOL    HW1 2669   4.770   2.908   3.461
  590SOL    HW2 2670   4.796   2.874   3.304
  591SOL     OW 2671   2.899   5.381   3.946
  591SOL    HW1 2672   2.947   5.388   4.034
  591SOL    HW2 2673   2.954   5.328   3.882
  592SOL     OW 2674   4.006   1.172   1.018
  592SOL    HW1 2675   4.082   1.189   0.956
  592SOL    HW2 2676   3.957   1.258   1.036
  593SOL     OW 2677   4.699   2.803   4.096
  593SOL    HW1 2678   4.664   2.734   4.033
  593SOL    HW2 2679   4.791   2.778   4.126
  594SOL     OW 2680   6.690   2.096   0.242
  594SOL    HW1 2681   6.775   2.046   0.258
  594SOL    HW2 2682   6.696   2.144   0.154
  595SOL     OW 2683   5.685   0.201   3.498
  595SOL    HW1 2684   5.755   0.160   3.439
  595SOL    HW2 2685   5.595   0.190   3.455
  596SOL     OW 2686   0.928   5.224   3.187
  596SOL    HW1 2687   0.849   5.273   3.150
  596SOL    HW2 2688   0.921   5.127   3.164
  597SOL     OW 2689   2.827   0.682   0.251
  597SOL    HW1 2690   2.754   0.731   0.203
  597SOL    HW2 2691   2.837   0.590   0.212
  598SOL     OW 2692   4.247   4.865   5.661
  598SOL    HW1 2693   4.340   4.893   5.637
  598SOL    HW2 2694   4.219   4.910   5.746
  599SOL     OW 2695   1.892   6.403   1.989
  599SOL    HW1 2696   1.794   6.389   2.002
  599SOL    HW2 2697   1.931   6.323   1.942
  600SOL     OW 2698   6.992   1.218   6.312
  600SOL    HW1 2699   6.950   1.301   6.277
  600SOL    HW2 2700   6.949   1.192   6.399
  601SOL     OW 2701   1.923   0.629   4.645
  601SOL    HW1 2702   1.951   0.541   4.605
  601SOL    HW2 2703   1.983   0.701   4.611
  602SOL     OW 2704   2.112   2.480   6.449
  602SOL    HW1 2705   2.085   2.575   6.432
  602SOL    HW2 2706   2.041   2.419   6.415
  603SOL     OW 2707   2.456   2.415   5.647
  603SOL    HW1 2708   2.373   2.368   5.675
  603SOL    HW2 2709   2.501   2.363   5.574
  604SOL     OW 2710   1.284   2.655   1.683
  604SOL    HW1 2711   1.268   2.754   1.686
  604SOL    HW2 2712   1.275   2.616   1.775
  605SOL     OW 2713   6.728   6.764   1.526
  605SOL    HW1 2714   6.691   6.721   1.444
  605SOL    HW2 2715   6.686   6.853   1.540
  606SOL     OW 2716   4.277   6.717   6.840
  606SOL    HW1 2717   4.352   6.757   6.788
  606SOL    HW2 2718   4.310   6.635   6.887
  607SOL     OW 2719   6.726   6.222   6.015
  607SOL    HW1 2720   6.797   6.269   5.963
  607SOL    HW2 2721   6.750   6.223   6.113
  608SOL     OW 2722   3.485   5.830   6.837
  608SOL    HW1 2723   3.462   5.861   6.745
  608SOL    HW2 2724   3.508   5.732   6.834
  609SOL     OW 2725   3.997   3.089   3.051
  609SOL    HW1 2726   3.986   3.019   3.121
  609SOL    HW2 2727   3.997   3.180   3.094
  610SOL     OW 2728   5.494   3.777   1.813
  610SOL    HW1 2729   5.502   3.678   1.822
  610SOL    HW2 2730   5.530   3.821   1.896
  611SOL     OW 2731   3.725   6.889   0.933
  611SOL    HW1 2732   3.638   6.847   0.959
  611SOL    HW2 2733   3.778   6.825   0.879
  612SOL     OW 2734   4.043   6.678   5.901
  612SOL    HW1 2735   3.955   6.678   5.948
  612SOL    HW2 2736   4.087   6.589   5.911
  613SOL     OW 2737   4.064   6.120   5.656
  613SOL    HW1 2738   4.118   6.143   5.574
  613SOL    HW2 2739   3.980   6.073   5.629
  614SOL     OW 2740   5.157   5.288   1.057
  614SOL    HW1 2741   5.185   5.282   0.961
  614SOL    HW2 2742   5.235   5.268   1.116
  615SOL     OW 2743   6.632   2.482   1.641
  615SOL    HW1 2744   6.610   2.579   1.630
  615SOL    HW2 2745   6.643   2.439   1.551
  616SOL     OW 2746   6.836   2.387   3.889
  616SOL    HW1 2747   6.777   2.397   3.969
  616SOL    HW2 2748   6.790   2.329   3.821
  617SOL     OW 2749   6.539   4.608   6.534
  617SOL    HW1 2750   6.603   4.560   6.473
  617SOL    HW2 2751   6.447   4.603   6.495
  618SOL     OW 2752   6.653   2.186   6.505
  618SOL    HW1 2753   6.647   2.250   6.581
  618SOL    HW2 2754   6.723   2.217   6.440
  619SOL     OW 2755   4.563   1.265   0.050
  619SOL    HW1 2756   4.619   1.319   0.112
  619SOL    HW2 2757   4.530   1.183   0.098
  620SOL     OW 2758   4.534   3.223   1.235
  620SOL    HW1 2759   4.475   3.279   1.177
  620SOL    HW2 2760   4.481   3.147   1.274
  621SOL     OW 2761   2.897   6.488   6.817
  621SOL    HW1 2762   2.910   6.439   6.904
  621SOL    HW2 2763   2.984   6.524   6.786
  622SOL     OW 2764   2.004   0.598   5.151
  622SOL    HW1 2765   1.940   0.647   5.210
  622SOL    HW2 2766   2.097   0.606   5.189
  623SOL     OW 2767   0.437   5.638   6.154
  623SOL    HW1 2768   0.507   5.664   6.220
  623SOL    HW2 2769   0.398   5.720   6.112
  624SOL     OW 2770   0.144   2.095   1.034
  624SOL    HW1 2771   0.220   2.159   1.029
  624SOL    HW2 2772   0.090   2.113   1.117
  625SOL     OW 2773   1.504   1.658   2.281
  625SOL    HW1 2774   1.426   1.660   2.218
  625SOL    HW2 2775   1.582   1.703   2.238
  626SOL     OW 2776   1.990   5.695   3.395
  626SOL    HW1 2777   2.029   5.784   3.419
  626SOL    HW2 2778   2.034   5.661   3.312
  627SOL     OW 2779   6.020   6.495   6.851
  627SOL    HW1 2780   5.926   6.462   6.859
  627SOL    HW2 2781   6.039   6.561   6.924
  628SOL     OW 2782   5.918   5.532   5.442
  628SOL    HW1 2783   5.995   5.477   5.475
  628SOL    HW2 2784   5.939   5.629   5.456
  629SOL     OW 2785   0.189   0.545   6.380
  629SOL    HW1 2786   0.202   0.577   6.473
  629SOL    HW2 2787   0.142   0.457   6.381
  630SOL     OW 2788   0.901   1.765   1.192
  630SOL    HW1 2789   0.827   1.697   1.189
  630SOL    HW2 2790   0.928   1.790   1.099
  631SOL     OW 2791   4.062   0.283   5.056
  631SOL    HW1 2792   4.048   0.371   5.100
  631SOL    HW2 2793   4.008   0.278   4.972
  632SOL     OW 2794   3.534   1.404   0.976
  632SOL    HW1 2795   3.529   1.307   0.956
  632SOL    HW2 2796   3.619   1.441   0.937
  633SOL     OW 2797   3.354   3.637   6.827
  633SOL    HW1 2798   3.436   3.607   6.779
  633SOL    HW2 2799   3.286   3.667   6.760
  634SOL     OW 2800   3.705   3.485   1.351
  634SOL    HW1 2801   3.634   3.421   1.382
  634SOL    HW2 2802   3.794   3.454   1.384
  635SOL     OW 2803   4.694   5.527   1.561
  635SOL    HW1 2804   4.615   5.579   1.530
  635SOL    HW2 2805   4.734   5.572   1.641
  636SOL     OW 2806   2.792   6.029   0.122
  636SOL    HW1 2807   2.785   5.965   0.045
  636SOL    HW2 2808   2.721   6.099   0.113
  637SOL     OW 2809   0.234   3.232   3.187
  637SOL    HW1 2810   0.253   3.134   3.195
  637SOL    HW2 2811   0.316   3.279   3.153
  638SOL     OW 2812   5.192   2.125   4.369
  638SOL    HW1 2813   5.258   2.182   4.320
  638SOL    HW2 2814   5.233   2.036   4.388
  639SOL     OW 2815   4.969   3.910   3.170
  639SOL    HW1 2816   5.015   3.998   3.154
  639SOL    HW2 2817   4.966   3.859   3.084
  640SOL     OW 2818   0.636   5.399   3.667
  640SOL    HW1 2819   0.601   5.402   3.573
  640SOL    HW2 2820   0.568   5.356   3.726
  641SOL     OW 2821   6.548   5.223   4.194
  641SOL    HW1 2822   6.617   5.207   4.265
  641SOL    HW2 2823   6.491   5.301   4.221
  642SOL     OW 2824   6.610   3.188   4.265
  642SOL    HW1 2825   6.599   3.202   4.363
  642SOL    HW2 2826   6.702   3.217   4.237
  643SOL     OW 2827   5.889   5.255   5.378
  643SOL    HW1 2828   5.857   5.338   5.425
  643SOL    HW2 2829   5.814   5.213   5.328
  644SOL     OW 2830   1.366   6.557   4.260
  644SOL    HW1 2831   1.400   6.648   4.236
  644SOL    HW2 2832   1.342   6.507   4.177
  645SOL     OW 2833   3.650   0.795   4.229
  645SOL    HW1 2834   3.743   0.811   4.262
  645SOL    HW2 2835   3.616   0.709   4.266
  646SOL     OW 2836   3.626   1.267   4.551
  646SOL    HW1 2837   3.611   1.172   4.525
  646SOL    HW2 2838   3.587   1.285   4.641
  647SOL     OW 2839   5.287   1.198   4.952
  647SOL    HW1 2840   5.318   1.290   4.928
  647SOL    HW2 2841   5.205   1.175   4.899
  648SOL     OW 2842   0.740   3.665   4.160
  648SOL    HW1 2843   0.796   3.591   4.197
  648SOL    HW2 2844   0.686   3.632   4.083
  649SOL     OW 2845   2.666   3.930   0.803
  649SOL    HW1 2846   2.735   3.926   0.730
  649SOL    HW2 2847   2.704   3.890   0.886
  650SOL     OW 2848   5.931   4.093   0.374
  650SOL    HW1 2849   6.001   4.023   0.365
  650SOL    HW2 2850   5.966   4.181   0.340
  651SOL     OW 2851   0.068   6.053   6.045
  651SOL    HW1 2852   6.992   6.027   6.017
  651SOL    HW2 2853   0.074   6.057   6.145
  652SOL     OW 2854   4.562   0.245   3.353
  652SOL    HW1 2855   4.493   0.195   3.405
  652SOL    HW2 2856   4.629   0.182   3.315
  653SOL     OW 2857   1.228   5.751   5.800
  653SOL    HW1 2858   1.191   5.695   5.726
  653SOL    HW2 2859   1.302   5.808   5.764
  654SOL     OW 2860   0.562   4.121   6.137
  654SOL    HW1 2861   0.576   4.140   6.235
  654SOL    HW2 2862   0.620   4.181   6.083
  655SOL     OW 2863   0.354   5.826   1.898
  655SOL    HW1 2864   0.274   5.881   1.921
  655SOL    HW2 2865   0.350   5.799   1.802
  656SOL     OW 2866   1.721   6.016   1.433
  656SOL    HW1 2867   1.726   5.996   1.531
  656SOL    HW2 2868   1.721   5.930   1.381
  657SOL     OW 2869   2.263   3.213   1.703
  657SOL    HW1 2870   2.267   3.255   1.612
  657SOL    HW2 2871   2.283   3.282   1.772
  658SOL     OW 2872   2.811   4.231   6.761
  658SOL    HW1 2873   2.801   4.144   6.712
  658SOL    HW2 2874   2.789   4.217   6.858
  659SOL     OW 2875   1.815   5.661   6.012
  659SOL    HW1 2876   1.822   5.570   6.051
  659SOL    HW2 2877   1.898   5.681   5.960
  660SOL     OW 2878   5.461   4.250   2.241
  660SOL    HW1 2879   5.546   4.272   2.291
  660SOL    HW2 2880   5.467   4.287   2.149
  661SOL     OW 2881   4.974   5.127   3.549
  661SOL    HW1 2882   4.998   5.030   3.554
  661SOL    HW2 2883   4.890   5.138   3.497
  662SOL     OW 2884   3.652   0.800   4.993
  662SOL    HW1 2885   3.747   0.769   4.988
  662SOL    HW2 2886   3.636   0.845   5.081
  663SOL     OW 2887   2.010   3.385   6.584
  663SOL    HW1 2888   1.964   3.372   6.496
  663SOL    HW2 2889   1.980   3.315   6.648
  664SOL     OW 2890   0.114   4.998   6.508
  664SOL    HW1 2891   0.131   5.074   6.444
  664SOL    HW2 2892   0.030   4.951   6.481
  665SOL     OW 2893   4.898   4.741   1.476
  665SOL    HW1 2894   4.960   4.663   1.476
  665SOL    HW2 2895   4.880   4.769   1.571
  666SOL     OW 2896   5.069   2.007   2.766
  666SOL    HW1 2897   5.118   2.092   2.749
  666SOL    HW2 2898   4.990   2.001   2.706
  667SOL     OW 2899   6.332   4.352   3.803
  667SOL    HW1 2900   6.391   4.427   3.776
  667SOL    HW2 2901   6.306   4.362   3.899
  668SOL     OW 2902   5.138   5.967   6.457
  668SOL    HW1 2903   5.223   5.958   6.405
  668SOL    HW2 2904   5.069   5.905   6.419
  669SOL     OW 2905   3.851   0.190   4.288
  669SOL    HW1 2906   3.860   0.290   4.292
  669SOL    HW2 2907   3.846   0.162   4.192
  670SOL     OW 2908   3.346   2.753   0.743
  670SOL    HW1 2909   3.247   2.761   0.748
  670SOL    HW2 2910   3.376   2.765   0.649
  671SOL     OW 2911   2.156   6.050   1.373
  671SOL    HW1 2912   2.100   6.015   1.298
  671SOL    HW2 2913   2.149   6.149   1.377
  672SOL     OW 2914   1.040   5.332   1.842
  672SOL    HW1 2915   1.011   5.333   1.938
  672SOL    HW2 2916   1.097   5.253   1.824
  673SOL     OW 2917   0.565   0.577   1.389
  673SOL    HW1 2918   0.661   0.596   1.407
  673SOL    HW2 2919   0.512   0.662   1.395
  674SOL     OW 2920   0.375   2.864   5.177
  674SOL    HW1 2921   0.472   2.853   5.154
  674SOL    HW2 2922   0.328   2.776   5.165
  675SOL     OW 2923   0.164   0.903   3.957
  675SOL    HW1 2924   0.245   0.953   3.927
  675SOL    HW2 2925   0.095   0.905   3.884
  676SOL     OW 2926   3.908   6.054   3.077
  676SOL    HW1 2927   3.954   5.969   3.104
  676SOL    HW2 2928   3.809   6.043   3.087
  677SOL     OW 2929   6.629   1.831   0.031
  677SOL    HW1 2930   6.582   1.763   0.086
  677SOL    HW2 2931   6.689   1.887   0.089
  678SOL     OW 2932   2.062   1.424   5.268
  678SOL    HW1 2933   2.046   1.438   5.170
  678SOL    HW2 2934   2.157   1.397   5.282
  679SOL     OW 2935   4.557   1.957   4.255
  679SOL    HW1 2936   4.639   1.990   4.207
  679SOL    HW2 2937   4.580   1.874   4.305
  680SOL     OW 2938   5.597   5.247   5.532
  680SOL    HW1 2939   5.650   5.186   5.591
  680SOL    HW2 2940   5.584   5.204   5.442
  681SOL     OW 2941   5.403   5.235   1.687
  681SOL    HW1 2942   5.423   5.317   1.633
  681SOL    HW2 2943   5.489   5.196   1.720
  682SOL     OW 2944   1.374   0.930   0.756
  682SOL    HW1 2945   1.459   0.892   0.792
  682SOL    HW2 2946   1.342   0.874   0.680
  683SOL     OW 2947   3.916   3.969   0.483
  683SOL    HW1 2948   3.985   4.040   0.499
  683SOL    HW2 2949   3.947   3.883   0.526
  684SOL     OW 2950   0.120   0.959   6.908
  684SOL    HW1 2951   0.176   1.027   6.954
  684SOL    HW2 2952   0.026   0.991   6.901
  685SOL     OW 2953   4.780   0.900   4.254
  685SOL    HW1 2954   4.839   0.860   4.183
  685SOL    HW2 2955   4.702   0.945   4.210
  686SOL     OW 2956   5.160   2.372   3.885
  686SOL    HW1 2957   5.145   2.300   3.952
  686SOL    HW2 2958   5.245   2.355   3.835
  687SOL     OW 2959   0.647   1.954   4.573
  687SOL    HW1 2960   0.662   2.029   4.509
  687SOL    HW2 2961   0.644   1.867   4.524
  688SOL     OW 2962   0.854   2.206   0.373
  688SOL    HW1 2963   0.809   2.218   0.285
  688SOL    HW2 2964   0.927   2.138   0.365
  689SOL     OW 2965   6.790   3.664   6.183
  689SOL    HW1 2966   6.866   3.691   6.241
  689SOL    HW2 2967   6.764   3.569   6.205
  690SOL     OW 2968   0.425   4.580   2.809
  690SOL    HW1 2969   0.370   4.585   2.725
  690SOL    HW2 2970   0.380   4.519   2.874
  691SOL     OW 2971   2.426   6.534   6.744
  691SOL    HW1 2972   2.331   6.562   6.752
  691SOL    HW2 2973   2.466   6.575   6.662
  692SOL     OW 2974   3.054   6.651   3.618
  692SOL    HW1 2975   3.029   6.698   3.533
  692SOL    HW2 2976   3.147   6.616   3.611
  693SOL     OW 2977   6.035   1.004   3.202
  693SOL    HW1 2978   5.950   0.982   3.153
  693SOL    HW2 2979   6.113   0.984   3.144
  694SOL     OW 2980   3.989   5.683   2.728
  694SOL    HW1 2981   4.013   5.589   2.752
  694SOL    HW2 2982   4.041   5.710   2.646
  695SOL     OW 2983   3.949   6.012   3.970
  695SOL    HW1 2984   3.917   6.052   4.055
  695SOL    HW2 2985   3.996   6.082   3.916
  696SOL     OW 2986   4.066   4.925   2.142
  696SOL    HW1 2987   4.124   4.860   2.093
  696SOL    HW2 2988   3.971   4.914   2.114
  697SOL     OW 2989   2.098   3.436   3.427
  697SOL    HW1 2990   2.084   3.371   3.502
  697SOL    HW2 2991   2.157   3.511   3.458
  698SOL     OW 2992   5.737   6.428   6.963
  698SOL    HW1 2993   5.676   6.353   6.938
  698SOL    HW2 2994   5.767   6.416   0.041
  699SOL     OW 2995   2.049   3.276   6.178
  699SOL    HW1 2996   2.092   3.359   6.145
  699SOL    HW2 2997   2.058   3.204   6.110
  700SOL     OW 2998   2.797   1.570   2.838
  700SOL    HW1 2999   2.867   1.590   2.769
  700SOL    HW2 3000   2.732   1.504   2.800
  701SOL     OW 3001   6.381   3.647   5.340
  701SOL    HW1 3002   6.311   3.695   5.288
  701SOL    HW2 3003   6.427   3.710   5.402
  702SOL     OW 3004   0.759   5.584   5.216
  702SOL    HW1 3005   0.850   5.626   5.211
  702SOL    HW2 3006   0.720   5.599   5.307
  703SOL     OW 3007   3.481   3.995   6.066
  703SOL    HW1 3008   3.451   3.988   5.971
  703SOL    HW2 3009   3.466   3.907   6.111
  704SOL     OW 3010   1.695   1.608   6.931
  704SOL    HW1 3011   1.648   1.625   0.001
  704SOL    HW2 3012   1.678   1.684   6.869
  705SOL     OW 3013   6.096   5.965   2.670
  705SOL    HW1 3014   6.178   5.925   2.710
  705SOL    HW2 3015   6.090   6.062   2.696
  706SOL     OW 3016   4.704   2.748   4.469
  706SOL    HW1 3017   4.741   2.752   4.376
  706SOL    HW2 3018   4.741   2.824   4.523
  707SOL     OW 3019   4.780   5.844   2.694
  707SOL    HW1 3020   4.738   5.902   2.625
  707SOL    HW2 3021   4.858   5.891   2.735
  708SOL     OW 3022   4.662   6.723   1.457
  708SOL    HW1 3023   4.596   6.796   1.468
  708SOL    HW2 3024   4.706   6.703   1.544
  709SOL     OW 3025   0.972   5.634   0.923
  709SOL    HW1 3026   1.001   5.541   0.901
  709SOL    HW2 3027   1.024   5.668   1.002
  710SOL     OW 3028   3.860   3.272   2.570
  710SOL    HW1 3029   3.881   3.190   2.517
  710SOL    HW2 3030   3.774   3.258   2.619
  711SOL     OW 3031   6.637   3.299   5.478
  711SOL    HW1 3032   6.582   3.262   5.552
  711SOL    HW2 3033   6.590   3.284   5.391
  712SOL     OW 3034   4.193   3.144   1.231
  712SOL    HW1 3035   4.160   3.141   1.326
  712SOL    HW2 3036   4.140   3.212   1.180
  713SOL     OW 3037   4.346   2.525   5.758
  713SOL    HW1 3038   4.434   2.515   5.805
  713SOL    HW2 3039   4.362   2.539   5.660
  714SOL     OW 3040   6.013   4.531   3.433
  714SOL    HW1 3041   6.077   4.455   3.441
  714SOL    HW2 3042   5.958   4.538   3.516
  715SOL     OW 3043   5.562   5.965   0.322
  715SOL    HW1 3044   5.582   6.036   0.255
  715SOL    HW2 3045   5.538   6.007   0.409
  716SOL     OW 3046   0.521   0.793   1.830
  716SOL    HW1 3047   0.442   0.732   1.842
  716SOL    HW2 3048   0.498   0.884   1.864
  717SOL     OW 3049   6.323   4.254   5.724
  717SOL    HW1 3050   6.234   4.299   5.722
  717SOL    HW2 3051   6.336   4.209   5.812
  718SOL     OW 3052   5.442   2.851   5.761
  718SOL    HW1 3053   5.354   2.804   5.751
  718SOL    HW2 3054   5.502   2.799   5.821
  719SOL     OW 3055   5.936   0.553   1.459
  719SOL    HW1 3056   5.897   0.587   1.374
  719SOL    HW2 3057   5.868   0.498   1.508
  720SOL     OW 3058   3.464   0.442   6.056
  720SOL    HW1 3059   3.393   0.509   6.032
  720SOL    HW2 3060   3.445   0.405   6.147
  721SOL     OW 3061   2.513   2.012   3.858
  721SOL    HW1 3062   2.525   2.014   3.957
  721SOL    HW2 3063   2.430   2.062   3.834
  722SOL     OW 3064   2.713   0.388   5.447
  722SOL    HW1 3065   2.754   0.434   5.525
  722SOL    HW2 3066   2.624   0.351   5.474
  723SOL     OW 3067   1.993   4.613   3.014
  723SOL    HW1 3068   2.052   4.557   2.956
  723SOL    HW2 3069   1.935   4.553   3.070
  724SOL     OW 3070   0.949   3.053   4.389
  724SOL    HW1 3071   0.973   3.029   4.295
  724SOL    HW2 3072   1.025   3.102   4.431
  725SOL     OW 3073   2.385   5.788   0.523
  725SOL    HW1 3074   2.396   5.868   0.582
  725SOL    HW2 3075   2.369   5.819   0.429
  726SOL     OW 3076   3.831   5.192   1.046
  726SOL    HW1 3077   3.898   5.246   1.098
  726SOL    HW2 3078   3.863   5.098   1.039
  727SOL     OW 3079   5.702   4.466   5.213
  727SOL    HW1 3080   5.710   4.505   5.305
  727SOL    HW2 3081   5.668   4.373   5.220
  728SOL     OW 3082   6.638   2.811   4.993
  728SOL    HW1 3083   6.715   2.808   4.929
  728SOL    HW2 3084   6.665   2.862   5.075
  729SOL     OW 3085   1.354   1.928   1.115
  729SOL    HW1 3086   1.275   1.976   1.155
  729SOL    HW2 3087   1.438   1.979   1.135
  730SOL     OW 3088   5.485   0.525   4.576
  730SOL    HW1 3089   5.435   0.486   4.653
  730SOL    HW2 3090   5.573   0.478   4.566
  731SOL     OW 3091   5.179   4.537   6.061
  731SOL    HW1 3092   5.128   4.596   6.123
  731SOL    HW2 3093   5.115   4.480   6.009
  732SOL     OW 3094   0.080   2.503   1.480
  732SOL    HW1 3095   0.015   2.569   1.518
  732SOL    HW2 3096   0.112   2.535   1.391
  733SOL     OW 3097   5.210   5.967   5.309
  733SOL    HW1 3098   5.285   6.005   5.364
  733SOL    HW2 3099   5.144   5.922   5.369
  734SOL     OW 3100   0.297   5.114   2.759
  734SOL    HW1 3101   0.226   5.055   2.798
  734SOL    HW2 3102   0.300   5.201   2.809
  735SOL     OW 3103   4.077   1.938   0.518
  735SOL    HW1 3104   4.139   1.923   0.595
  735SOL    HW2 3105   4.130   1.939   0.432
  736SOL     OW 3106   0.138   1.272   3.786
  736SOL    HW1 3107   0.174   1.186   3.749
  736SOL    HW2 3108   0.075   1.253   3.861
  737SOL     OW 3109   4.840   1.875   5.392
  737SOL    HW1 3110   4.937   1.898   5.386
  737SOL    HW2 3111   4.789   1.924   5.321
  738SOL     OW 3112   2.174   4.173   1.306
  738SOL    HW1 3113   2.188   4.208   1.213
  738SOL    HW2 3114   2.200   4.076   1.309
  739SOL     OW 3115   4.326   6.808   4.025
  739SOL    HW1 3116   4.338   6.864   3.943
  739SOL    HW2 3117   4.230   6.811   4.054
  740SOL     OW 3118   6.220   0.526   1.211
  740SOL    HW1 3119   6.274   0.533   1.295
  740SOL    HW2 3120   6.233   0.435   1.171
  741SOL     OW 3121   2.048   6.380   3.452
  741SOL    HW1 3122   2.107   6.428   3.517
  741SOL    HW2 3123   2.079   6.399   3.359
  742SOL     OW 3124   3.190   6.904   2.629
  742SOL    HW1 3125   3.108   6.943   2.670
  742SOL    HW2 3126   3.215   6.820   2.678
  743SOL     OW 3127   0.186   4.956   3.159
  743SOL    HW1 3128   0.212   4.957   3.256
  743SOL    HW2 3129   0.164   4.862   3.131
  744SOL     OW 3130   5.901   0.535   7.002
  744SOL    HW1 3131   5.806   0.564   6.999
  744SOL    HW2 3132   5.961   0.614   6.989
  745SOL     OW 3133   1.467   4.678   4.488
  745SOL    HW1 3134   1.497   4.582   4.488
  745SOL    HW2 3135   1.380   4.686   4.536
  746SOL     OW 3136   0.026   4.158   6.607
  746SOL    HW1 3137   0.084   4.089   6.650
  746SOL    HW2 3138   0.083   4.223   6.557
  747SOL     OW 3139   3.404   6.380   4.458
  747SOL    HW1 3140   3.394   6.291   4.503
  747SOL    HW2 3141   3.318   6.431   4.465
  748SOL     OW 3142   3.835   5.200   2.118
  748SOL    HW1 3143   3.910   5.203   2.052
  748SOL    HW2 3144   3.795   5.108   2.119
  749SOL     OW 3145   6.035   4.098   4.861
  749SOL    HW1 3146   5.975   4.041   4.916
  749SOL    HW2 3147   6.128   4.063   4.866
  750SOL     OW 3148   1.583   2.069   1.208
  750SOL    HW1 3149   1.571   2.148   1.267
  750SOL    HW2 3150   1.598   1.987   1.264
  751SOL     OW 3151   3.786   2.174   0.093
  751SOL    HW1 3152   3.785   2.110   0.170
  751SOL    HW2 3153   3.804   2.267   0.127
  752SOL     OW 3154   3.195   1.240   1.986
  752SOL    HW1 3155   3.161   1.182   2.060
  752SOL    HW2 3156   3.294   1.227   1.977
  753SOL     OW 3157   2.272   3.016   5.358
  753SOL    HW1 3158   2.304   2.957   5.432
  753SOL    HW2 3159   2.338   3.014   5.283
  754SOL     OW 3160   5.335   2.792   5.432
  754SOL    HW1 3161   5.293   2.701   5.442
  754SOL    HW2 3162   5.342   2.836   5.521
  755SOL     OW 3163   1.755   4.749   5.817
  755SOL    HW1 3164   1.798   4.704   5.738
  755SOL    HW2 3165   1.696   4.823   5.785
  756SOL     OW 3166   2.852   6.840   6.597
  756SOL    HW1 3167   2.771   6.888   6.563
  756SOL    HW2 3168   2.890   6.889   6.676
  757SOL     OW 3169   0.473   0.726   3.875
  757SOL    HW1 3170   0.481   0.825   3.868
  757SOL    HW2 3171   0.469   0.699   3.971
  758SOL     OW 3172   3.431   0.327   1.991
  758SOL    HW1 3173   3.381   0.308   2.076
  758SOL    HW2 3174   3.380   0.394   1.936
  759SOL     OW 3175   0.163   1.486   1.324
  759SOL    HW1 3176   0.095   1.553   1.352
  759SOL    HW2 3177   0.212   1.453   1.405
  760SOL     OW 3178   5.499   6.992   5.328
  760SOL    HW1 3179   5.509   6.895   5.303
  760SOL    HW2 3180   5.590   0.016   5.336
  761SOL     OW 3181   4.856   3.677   5.995
  761SOL    HW1 3182   4.937   3.727   6.027
  761SOL    HW2 3183   4.774   3.715   6.038
  762SOL     OW 3184   2.457   0.566   4.905
  762SOL    HW1 3185   2.419   0.476   4.927
  762SOL    HW2 3186   2.402   0.608   4.832
  763SOL     OW 3187   4.187   5.152   6.511
  763SOL    HW1 3188   4.234   5.203   6.439
  763SOL    HW2 3189   4.255   5.112   6.573
  764SOL     OW 3190   4.812   0.929   4.759
  764SOL    HW1 3191   4.879   0.866   4.799
  764SOL    HW2 3192   4.827   1.020   4.795
  765SOL     OW 3193   1.654   5.935   1.725
  765SOL    HW1 3194   1.748   5.961   1.748
  765SOL    HW2 3195   1.591   5.992   1.779
  766SOL     OW 3196   2.509   3.129   5.845
  766SOL    HW1 3197   2.602   3.163   5.858
  766SOL    HW2 3198   2.448   3.205   5.823
  767SOL     OW 3199   6.068   5.370   1.512
  767SOL    HW1 3200   5.977   5.410   1.500
  767SOL    HW2 3201   6.059   5.285   1.565
  768SOL     OW 3202   2.119   6.839   2.632
  768SOL    HW1 3203   2.033   6.889   2.639
  768SOL    HW2 3204   2.193   6.902   2.609
  769SOL     OW 3205   3.016   0.967   5.067
  769SOL    HW1 3206   3.018   0.918   5.154
  769SOL    HW2 3207   3.019   0.902   4.991
  770SOL     OW 3208   2.028   4.878   2.934
  770SOL    HW1 3209   2.124   4.905   2.924
  770SOL    HW2 3210   2.023   4.781   2.957
  771SOL     OW 3211   1.509   5.635   2.516
  771SOL    HW1 3212   1.497   5.538   2.538
  771SOL    HW2 3213   1.421   5.677   2.496
  772SOL     OW 3214   5.643   6.015   6.942
  772SOL    HW1 3215   5.735   6.042   6.916
  772SOL    HW2 3216   5.647   5.932   6.998
  773SOL     OW 3217   6.975   3.856   4.262
  773SOL    HW1 3218   0.035   3.792   4.258
  773SOL    HW2 3219   6.981   3.920   4.185
  774SOL     OW 3220   1.698   1.558   1.358
  774SOL    HW1 3221   1.706   1.514   1.447
  774SOL    HW2 3222   1.631   1.509   1.302
  775SOL     OW 3223   0.988   2.353   3.774
  775SOL    HW1 3224   1.081   2.390   3.761
  775SOL    HW2 3225   0.972   2.338   3.872
  776SOL     OW 3226   1.379   6.843   6.459
  776SOL    HW1 3227   1.354   6.903   6.535
  776SOL    HW2 3228   1.469   6.804   6.474
  777SOL     OW 3229   2.182   4.678   1.787
  777SOL    HW1 3230   2.153   4.669   1.692
  777SOL    HW2 3231   2.127   4.616   1.844
  778SOL     OW 3232   2.079   1.540   2.143
  778SOL    HW1 3233   2.166   1.542   2.192
  778SOL    HW2 3234   2.053   1.633   2.118
  779SOL     OW 3235   6.413   2.688   1.931
  779SOL    HW1 3236   6.416   2.713   1.834
  779SOL    HW2 3237   6.322   2.653   1.954
  780SOL     OW 3238   0.003   4.008   4.034
  780SOL    HW1 3239   0.030   4.090   4.086
  780SOL    HW2 3240   0.083   3.970   3.988
  781SOL     OW 3241   6.184   6.938   6.767
  781SOL    HW1 3242   6.185   6.999   6.688
  781SOL    HW2 3243   6.275   6.899   6.779
  782SOL     OW 3244   1.901   4.107   6.302
  782SOL    HW1 3245   1.926   4.020   6.259
  782SOL    HW2 3246   1.835   4.155   6.243
  783SOL     OW 3247   4.862   4.778   1.753
  783SOL    HW1 3248   4.906   4.815   1.835
  783SOL    HW2 3249   4.763   4.792   1.760
  784SOL     OW 3250   4.977   4.874   0.736
  784SOL    HW1 3251   5.010   4.952   0.683
  784SOL    HW2 3252   4.883   4.852   0.708
  785SOL     OW 3253   0.400   2.650   3.504
  785SOL    HW1 3254   0.494   2.626   3.529
  785SOL    HW2 3255   0.375   2.603   3.420
  786SOL     OW 3256   1.273   1.126   2.798
  786SOL    HW1 3257   1.365   1.160   2.777
  786SOL    HW2 3258   1.208   1.170   2.736
  787SOL     OW 3259   2.349   0.699   0.149
  787SOL    HW1 3260   2.371   0.602   0.137
  787SOL    HW2 3261   2.416   0.754   0.098
  788SOL     OW 3262   3.580   2.791   6.292
  788SOL    HW1 3263   3.615   2.701   6.320
  788SOL    HW2 3264   3.483   2.797   6.316
  789SOL     OW 3265   5.064   3.632   0.474
  789SOL    HW1 3266   5.038   3.676   0.560
  789SOL    HW2 3267   5.013   3.673   0.399
  790SOL     OW 3268   2.503   1.329   3.550
  790SOL    HW1 3269   2.547   1.373   3.628
  790SOL    HW2 3270   2.573   1.298   3.485
  791SOL     OW 3271   2.327   6.030   3.827
  791SOL    HW1 3272   2.399   6.068   3.886
  791SOL    HW2 3273   2.369   5.997   3.742
  792SOL     OW 3274   1.143   0.418   0.930
  792SOL    HW1 3275   1.061   0.445   0.879
  792SOL    HW2 3276   1.119   0.350   0.999
  793SOL     OW 3277   4.752   4.879   3.594
  793SOL    HW1 3278   4.851   4.867   3.602
  793SOL    HW2 3279   4.733   4.944   3.520
  794SOL     OW 3280   3.734   3.876   5.858
  794SOL    HW1 3281   3.765   3.834   5.943
  794SOL    HW2 3282   3.650   3.830   5.827
  795SOL     OW 3283   2.925   6.675   4.356
  795SOL    HW1 3284   2.831   6.708   4.349
  795SOL    HW2 3285   2.957   6.645   4.266
  796SOL     OW 3286   6.761   2.310   6.271
  796SOL    HW1 3287   6.765   2.365   6.187
  796SOL    HW2 3288   6.842   2.326   6.326
  797SOL     OW 3289   5.626   2.793   0.655
  797SOL    HW1 3290   5.592   2.700   0.639
  797SOL    HW2 3291   5.715   2.789   0.700
  798SOL     OW 3292   3.804   6.405   2.286
  798SOL    HW1 3293   3.889   6.455   2.273
  798SOL    HW2 3294   3.778   6.407   2.383
  799SOL     OW 3295   0.631   6.546   5.547
  799SOL    HW1 3296   0.531   6.554   5.544
  799SOL    HW2 3297   0.672   6.615   5.488
  800SOL     OW 3298   5.311   2.188   2.861
  800SOL    HW1 3299   5.406   2.187   2.893
  800SOL    HW2 3300   5.284   2.282   2.839
  801SOL     OW 3301   1.511   3.824   4.300
  801SOL    HW1 3302   1.490   3.871   4.214
  801SOL    HW2 3303   1.604   3.788   4.297
  802SOL     OW 3304   3.712   2.201   1.019
  802SOL    HW1 3305   3.797   2.199   1.070
  802SOL    HW2 3306   3.723   2.259   0.938
  803SOL     OW 3307   0.360   6.562   5.550
  803SOL    HW1 3308   0.348   6.490   5.618
  803SOL    HW2 3309   0.277   6.619   5.548
  804SOL     OW 3310   5.573   5.649   6.290
  804SOL    HW1 3311   5.513   5.573   6.314
  804SOL    HW2 3312   5.609   5.636   6.198
  805SOL     OW 3313   3.160   0.112   4.390
  805SOL    HW1 3314   3.250   0.080   4.420
  805SOL    HW2 3315   3.118   0.043   4.331
  806SOL     OW 3316   4.968   1.522   4.426
  806SOL    HW1 3317   5.001   1.438   4.468
  806SOL    HW2 3318   5.023   1.543   4.345
  807SOL     OW 3319   1.415   0.929   5.189
  807SOL    HW1 3320   1.386   0.979   5.271
  807SOL    HW2 3321   1.502   0.966   5.156
  808SOL     OW 3322   3.856   3.777   6.158
  808SOL    HW1 3323   3.953   3.794   6.179
  808SOL    HW2 3324   3.809   3.864   6.147
  809SOL     OW 3325   0.275   4.997   0.967
  809SOL    HW1 3326   0.177   4.999   0.947
  809SOL    HW2 3327   0.324   4.962   0.887
  810SOL     OW 3328   3.753   3.498   1.048
  810SOL    HW1 3329   3.704   3.578   1.012
  810SOL    HW2 3330   3.756   3.503   1.148
  811SOL     OW 3331   4.729   5.216   5.103
  811SOL    HW1 3332   4.647   5.228   5.158
  811SOL    HW2 3333   4.808   5.205   5.163
  812SOL     OW 3334   0.359   1.024   2.339
  812SOL    HW1 3335   0.363   1.073   2.426
  812SOL    HW2 3336   0.429   0.953   2.338
  813SOL     OW 3337   3.695   6.754   4.201
  813SOL    HW1 3338   3.794   6.763   4.187
  813SOL    HW2 3339   3.674   6.756   4.298
  814SOL     OW 3340   6.228   6.168   2.116
  814SOL    HW1 3341   6.236   6.203   2.209
  814SOL    HW2 3342   6.181   6.080   2.117
  815SOL     OW 3343   0.438   3.914   3.197
  815SOL    HW1 3344   0.360   3.852   3.203
  815SOL    HW2 3345   0.407   4.008   3.205
  816SOL     OW 3346   6.297   6.512   6.819
  816SOL    HW1 3347   6.318   6.608   6.837
  816SOL    HW2 3348   6.201   6.495   6.842
  817SOL     OW 3349   1.763   4.488   0.876
  817SOL    HW1 3350   1.763   4.420   0.803
  817SOL    HW2 3351   1.761   4.579   0.836
  818SOL     OW 3352   6.483   2.815   2.325
  818SOL    HW1 3353   6.437   2.729   2.349
  818SOL    HW2 3354   6.419   2.891   2.335
  819SOL     OW 3355   5.378   2.374   2.586
  819SOL    HW1 3356   5.335   2.464   2.579
  819SOL    HW2 3357   5.316   2.304   2.549
  820SOL     OW 3358   3.341   2.061   5.488
  820SOL    HW1 3359   3.255   2.014   5.470
  820SOL    HW2 3360   3.383   2.087   5.401
  821SOL     OW 3361   1.195   4.484   1.365
  821SOL    HW1 3362   1.154   4.569   1.398
  821SOL    HW2 3363   1.169   4.409   1.426
  822SOL     OW 3364   1.180   4.779   3.628
  822SOL    HW1 3365   1.216   4.701   3.577
  822SOL    HW2 3366   1.198   4.767   3.725
  823SOL     OW 3367   4.724   3.620   6.280
  823SOL    HW1 3368   4.785   3.693   6.312
  823SOL    HW2 3369   4.669   3.653   6.204
  824SOL     OW 3370   5.518   1.108   6.051
  824SOL    HW1 3371   5.489   1.165   5.973
  824SOL    HW2 3372   5.453   1.120   6.126
  825SOL     OW 3373   0.190   4.599   1.462
  825SOL    HW1 3374   0.172   4.554   1.375
  825SOL    HW2 3375   0.254   4.675   1.449
  826SOL     OW 3376   4.497   3.149   5.589
  826SOL    HW1 3377   4.432   3.220   5.563
  826SOL    HW2 3378   4.448   3.072   5.631
  827SOL     OW 3379   2.985   4.738   5.383
  827SOL    HW1 3380   2.922   4.815   5.371
  827SOL    HW2 3381   2.961   4.665   5.318
  828SOL     OW 3382   5.636   6.557   6.559
  828SOL    HW1 3383   5.692   6.499   6.618
  828SOL    HW2 3384   5.693   6.627   6.518
  829SOL     OW 3385   3.722   4.043   2.966
  829SOL    HW1 3386   3.690   4.112   3.031
  829SOL    HW2 3387   3.678   3.955   2.987
  830SOL     OW 3388   4.904   5.077   6.512
  830SOL    HW1 3389   4.805   5.064   6.515
  830SOL    HW2 3390   4.929   5.114   6.423
  831SOL     OW 3391   6.265   0.408   0.236
  831SOL    HW1 3392   6.206   0.488   0.222
  831SOL    HW2 3393   6.224   0.348   0.305
  832SOL     OW 3394   3.142   0.581   1.906
  832SOL    HW1 3395   3.159   0.496   1.856
  832SOL    HW2 3396   3.196   0.654   1.867
  833SOL     OW 3397   1.420   3.780   5.978
  833SOL    HW1 3398   1.433   3.816   5.886
  833SOL    HW2 3399   1.506   3.787   6.029
  834SOL     OW 3400   4.060   3.622   0.449
  834SOL    HW1 3401   4.053   3.524   0.466
  834SOL    HW2 3402   4.022   3.643   0.359
  835SOL     OW 3403   3.693   0.097   5.678
  835SOL    HW1 3404   3.681   0.167   5.748
  835SOL    HW2 3405   3.784   0.104   5.639
  836SOL     OW 3406   3.923   5.943   6.085
  836SOL    HW1 3407   4.015   5.984   6.082
  836SOL    HW2 3408   3.927   5.851   6.046
  837SOL     OW 3409   5.455   0.186   0.650
  837SOL    HW1 3410   5.361   0.167   0.679
  837SOL    HW2 3411   5.485   0.272   0.691
  838SOL     OW 3412   2.700   0.752   4.725
  838SOL    HW1 3413   2.680   0.848   4.705
  838SOL    HW2 3414   2.783   0.748   4.782
  839SOL     OW 3415   1.186   2.453   2.279
  839SOL    HW1 3416   1.218   2.548   2.284
  839SOL    HW2 3417   1.098   2.450   2.233
  840SOL     OW 3418   6.393   5.507   0.388
  840SOL    HW1 3419   6.485   5.495   0.349
  840SOL    HW2 3420   6.402   5.541   0.482
  841SOL     OW 3421   4.014   4.909   6.995
  841SOL    HW1 3422   4.046   4.942   6.906
  841SOL    HW2 3423   4.093   4.880   0.033
  842SOL     OW 3424   4.474   0.193   4.735
  842SOL    HW1 3425   4.530   0.128   4.684
  842SOL    HW2 3426   4.378   0.184   4.706
  843SOL     OW 3427   0.797   1.345   0.962
  843SOL    HW1 3428   0.782   1.315   1.057
  843SOL    HW2 3429   0.721   1.404   0.934
  844SOL     OW 3430   5.500   0.753   0.360
  844SOL    HW1 3431   5.489   0.789   0.452
  844SOL    HW2 3432   5.541   0.662   0.364
  845SOL     OW 3433   5.138   4.430   5.117
  845SOL    HW1 3434   5.081   4.492   5.171
  845SOL    HW2 3435   5.081   4.379   5.053
  846SOL     OW 3436   1.994   1.681   6.093
  846SOL    HW1 3437   2.039   1.719   6.174
  846SOL    HW2 3438   1.952   1.755   6.040
  847SOL     OW 3439   1.228   3.088   1.346
  847SOL    HW1 3440   1.233   3.108   1.248
  847SOL    HW2 3441   1.168   3.009   1.361
  848SOL     OW 3442   6.261   0.339   5.641
  848SOL    HW1 3443   6.345   0.372   5.598
  848SOL    HW2 3444   6.262   0.239   5.642
  849SOL     OW 3445   6.936   3.437   5.878
  849SOL    HW1 3446   7.000   3.502   5.836
  849SOL    HW2 3447   6.953   3.345   5.843
  850SOL     OW 3448   5.138   0.489   3.036
  850SOL    HW1 3449   5.224   0.444   3.009
  850SOL    HW2 3450   5.076   0.421   3.075
  851SOL     OW 3451   7.011   1.789   2.591
  851SOL    HW1 3452   6.934   1.815   2.649
  851SOL    HW2 3453   0.058   1.865   2.584
  852SOL     OW 3454   1.277   3.112   6.606
  852SOL    HW1 3455   1.347   3.097   6.675
  852SOL    HW2 3456   1.245   3.207   6.611
  853SOL     OW 3457   1.558   4.321   1.520
  853SOL    HW1 3458   1.591   4.412   1.542
  853SOL    HW2 3459   1.499   4.325   1.439
  854SOL     OW 3460   5.237   5.873   1.254
  854SOL    HW1 3461   5.197   5.955   1.215
  854SOL    HW2 3462   5.334   5.869   1.230
  855SOL     OW 3463   6.931   6.669   1.824
  855SOL    HW1 3464   6.931   6.629   1.916
  855SOL    HW2 3465   6.840   6.659   1.784
  856SOL     OW 3466   0.723   2.226   5.246
  856SOL    HW1 3467   0.676   2.219   5.158
  856SOL    HW2 3468   0.815   2.189   5.238
  857SOL     OW 3469   5.823   3.883   1.851
  857SOL    HW1 3470   5.891   3.952   1.876
  857SOL    HW2 3471   5.750   3.926   1.798
  858SOL     OW 3472   2.819   3.252   1.036
  858SOL    HW1 3473   2.874   3.308   0.974
  858SOL    HW2 3474   2.722   3.263   1.014
  859SOL     OW 3475   6.205   5.854   4.996
  859SOL    HW1 3476   6.135   5.783   4.986
  859SOL    HW2 3477   6.196   5.921   4.923
  860SOL     OW 3478   5.412   3.148   0.848
  860SOL    HW1 3479   5.327   3.137   0.900
  860SOL    HW2 3480   5.400   3.112   0.756
  861SOL     OW 3481   2.641   5.729   3.488
  861SOL    HW1 3482   2.705   5.777   3.548
  861SOL    HW2 3483   2.692   5.682   3.416
  862SOL     OW 3484   1.314   3.975   4.975
  862SOL    HW1 3485   1.239   3.988   4.910
  862SOL    HW2 3486   1.277   3.966   5.068
  863SOL     OW 3487   5.750   1.054   0.745
  863SOL    HW1 3488   5.825   1.118   0.729
  863SOL    HW2 3489   5.694   1.046   0.663
  864SOL     OW 3490   4.185   5.267   3.917
  864SOL    HW1 3491   4.192   5.244   3.820
  864SOL    HW2 3492   4.271   5.243   3.963
  865SOL     OW 3493   1.012   6.301   5.817
  865SOL    HW1 3494   0.918   6.335   5.810
  865SOL    HW2 3495   1.072   6.357   5.761
  866SOL     OW 3496   1.898   2.197   1.778
  866SOL    HW1 3497   1.935   2.192   1.685
  866SOL    HW2 3498   1.968   2.165   1.843
  867SOL     OW 3499   4.020   3.747   0.669
  867SOL    HW1 3500   4.061   3.707   0.751
  867SOL    HW2 3501   4.040   3.689   0.590
  868SOL     OW 3502   5.920   1.358   0.910
  868SOL    HW1 3503   5.932   1.355   0.810
  868SOL    HW2 3504   5.823   1.370   0.931
  869SOL     OW 3505   0.397   4.550   3.237
  869SOL    HW1 3506   0.343   4.522   3.316
  869SOL    HW2 3507   0.490   4.571   3.266
  870SOL     OW 3508   4.568   3.134   0.841
  870SOL    HW1 3509   4.630   3.205   0.805
  870SOL    HW2 3510   4.599   3.045   0.809
  871SOL     OW 3511   4.419   2.407   3.247
  871SOL    HW1 3512   4.374   2.485   3.203
  871SOL    HW2 3513   4.393   2.323   3.200
  872SOL     OW 3514   5.568   3.087   3.702
  872SOL    HW1 3515   5.646   3.025   3.696
  872SOL    HW2 3516   5.491   3.049   3.652
  873SOL     OW 3517   5.580   6.966   4.216
  873SOL    HW1 3518   5.592   0.040   4.257
  873SOL    HW2 3519   5.542   6.977   4.124
  874SOL     OW 3520   0.972   4.387   6.062
  874SOL    HW1 3521   1.025   4.332   6.126
  874SOL    HW2 3522   1.022   4.396   5.976
  875SOL     OW 3523   3.736   3.349   0.569
  875SOL    HW1 3524   3.659   3.365   0.509
  875SOL    HW2 3525   3.820   3.385   0.527
  876SOL     OW 3526   0.499   4.485   2.330
  876SOL    HW1 3527   0.504   4.387   2.310
  876SOL    HW2 3528   0.529   4.502   2.424
  877SOL     OW 3529   3.939   4.280   6.152
  877SOL    HW1 3530   3.966   4.312   6.061
  877SOL    HW2 3531   3.892   4.354   6.200
  878SOL     OW 3532   3.660   5.955   5.258
  878SOL    HW1 3533   3.669   5.918   5.166
  878SOL    HW2 3534   3.623   6.048   5.253
  879SOL     OW 3535   3.867   2.352   0.866
  879SOL    HW1 3536   3.961   2.350   0.832
  879SOL    HW2 3537   3.808   2.391   0.796
  880SOL     OW 3538   3.095   4.086   4.485
  880SOL    HW1 3539   3.113   4.079   4.583
  880SOL    HW2 3540   3.022   4.022   4.460
  881SOL     OW 3541   4.777   4.088   4.814
  881SOL    HW1 3542   4.731   4.000   4.816
  881SOL    HW2 3543   4.876   4.073   4.809
  882SOL     OW 3544   0.705   2.594   4.384
  882SOL    HW1 3545   0.744   2.686   4.378
  882SOL    HW2 3546   0.616   2.598   4.429
  883SOL     OW 3547   4.599   6.309   6.945
  883SOL    HW1 3548   4.517   6.255   6.964
  883SOL    HW2 3549   4.578   6.406   6.953
  884SOL     OW 3550   0.094   4.227   0.271
  884SOL    HW1 3551   0.120   4.144   0.221
  884SOL    HW2 3552   0.112   4.307   0.214
  885SOL     OW 3553   4.703   6.049   6.221
  885SOL    HW1 3554   4.718   5.977   6.153
  885SOL    HW2 3555   4.683   6.008   6.310
  886SOL     OW 3556   4.198   1.121   1.282
  886SOL    HW1 3557   4.101   1.133   1.265
  886SOL    HW2 3558   4.250   1.154   1.203
  887SOL     OW 3559   3.527   6.236   4.284
  887SOL    HW1 3560   3.493   6.272   4.198
  887SOL    HW2 3561   3.517   6.305   4.356
  888SOL     OW 3562   6.358   5.560   2.697
  888SOL    HW1 3563   6.387   5.605   2.613
  888SOL    HW2 3564   6.321   5.629   2.760
  889SOL     OW 3565   0.983   6.653   5.829
  889SOL    HW1 3566   0.988   6.628   5.926
  889SOL    HW2 3567   1.053   6.722   5.809
  890SOL     OW 3568   1.771   5.577   2.397
  890SOL    HW1 3569   1.675   5.607   2.404
  890SOL    HW2 3570   1.782   5.492   2.448
  891SOL     OW 3571   6.447   3.626   0.413
  891SOL    HW1 3572   6.434   3.719   0.447
  891SOL    HW2 3573   6.363   3.594   0.370
  892SOL     OW 3574   3.712   4.135   5.877
  892SOL    HW1 3575   3.748   4.042   5.878
  892SOL    HW2 3576   3.618   4.133   5.842
  893SOL     OW 3577   2.201   0.847   2.243
  893SOL    HW1 3578   2.166   0.869   2.333
  893SOL    HW2 3579   2.143   0.888   2.173
  894SOL     OW 3580   0.861   2.543   3.136
  894SOL    HW1 3581   0.956   2.567   3.119
  894SOL    HW2 3582   0.851   2.443   3.139
  895SOL     OW 3583   1.247   5.403   3.796
  895SOL    HW1 3584   1.334   5.361   3.771
  895SOL    HW2 3585   1.174   5.367   3.737
  896SOL     OW 3586   6.350   0.014   1.625
  896SOL    HW1 3587   6.303   6.963   1.682
  896SOL    HW2 3588   6.282   0.072   1.580
  897SOL     OW 3589   4.235   0.875   6.592
  897SOL    HW1 3590   4.293   0.952   6.618
  897SOL    HW2 3591   4.219   0.877   6.493
  898SOL     OW 3592   3.178   6.479   3.246
  898SOL    HW1 3593   3.142   6.422   3.171
  898SOL    HW2 3594   3.103   6.530   3.287
  899SOL     OW 3595   0.570   5.454   1.064
  899SOL    HW1 3596   0.473   5.462   1.084
  899SOL    HW2 3597   0.600   5.531   1.008
  900SOL     OW 3598   4.633   6.175   0.328
  900SOL    HW1 3599   4.719   6.179   0.379
  900SOL    HW2 3600   4.647   6.126   0.242
  901SOL     OW 3601   1.292   0.711   5.044
  901SOL    HW1 3602   1.215   0.670   5.091
  901SOL    HW2 3603   1.295   0.809   5.062
  902SOL     OW 3604   0.802   2.436   0.888
  902SOL    HW1 3605   0.883   2.414   0.833
  902SOL    HW2 3606   0.826   2.506   0.956
  903SOL     OW 3607   6.649   3.382   6.267
  903SOL    HW1 3608   6.577   3.410   6.202
  903SOL    HW2 3609   6.713   3.321   6.221
  904SOL     OW 3610   2.105   2.711   2.911
  904SOL    HW1 3611   2.088   2.805   2.882
  904SOL    HW2 3612   2.131   2.656   2.831
  905SOL     OW 3613   4.910   4.049   5.824
  905SOL    HW1 3614   4.981   4.004   5.770
  905SOL    HW2 3615   4.820   4.013   5.797
  906SOL     OW 3616   0.450   3.084   6.309
  906SOL    HW1 3617   0.435   3.113   6.215
  906SOL    HW2 3618   0.521   3.142   6.350
  907SOL     OW 3619   5.031   2.631   2.393
  907SOL    HW1 3620   4.989   2.721   2.399
  907SOL    HW2 3621   5.121   2.633   2.438
  908SOL     OW 3622   2.203   5.189   3.338
  908SOL    HW1 3623   2.229   5.111   3.280
  908SOL    HW2 3624   2.132   5.160   3.402
  909SOL     OW 3625   2.640   5.938   2.495
  909SOL    HW1 3626   2.614   5.854   2.446
  909SOL    HW2 3627   2.561   5.999   2.501
  910SOL     OW 3628   2.646   1.124   0.454
  910SOL    HW1 3629   2.653   1.071   0.539
  910SOL    HW2 3630   2.550   1.132   0.429
  911SOL     OW 3631   6.872   5.879   0.507
  911SOL    HW1 3632   6.817   5.818   0.449
  911SOL    HW2 3633   6.832   5.882   0.599
  912SOL     OW 3634   5.298   0.585   3.703
  912SOL    HW1 3635   5.386   0.594   3.749
  912SOL    HW2 3636   5.257   0.675   3.691
  913SOL     OW 3637   1.753   1.029   3.434
  913SOL    HW1 3638   1.762   0.946   3.490
  913SOL    HW2 3639   1.664   1.029   3.388
  914SOL     OW 3640   2.132   5.852   5.295
  914SOL    HW1 3641   2.062   5.835   5.365
  914SOL    HW2 3642   2.089   5.890   5.214
  915SOL     OW 3643   0.575   3.248   0.646
  915SOL    HW1 3644   0.643   3.316   0.620
  915SOL    HW2 3645   0.579   3.234   0.745
  916SOL     OW 3646   1.707   2.849   2.335
  916SOL    HW1 3647   1.695   2.949   2.335
  916SOL    HW2 3648   1.618   2.805   2.335
  917SOL     OW 3649   5.635   0.692   2.205
  917SOL    HW1 3650   5.645   0.742   2.119
  917SOL    HW2 3651   5.548   0.718   2.248
  918SOL     OW 3652   3.206   6.958   0.708
  918SOL    HW1 3653   3.243   0.004   0.776
  918SOL    HW2 3654   3.124   6.913   0.745
  919SOL     OW 3655   6.642   5.983   2.702
  919SOL    HW1 3656   6.584   5.944   2.773
  919SOL    HW2 3657   6.717   5.920   2.681
  920SOL     OW 3658   2.314   5.365   3.071
  920SOL    HW1 3659   2.244   5.436   3.063
  920SOL    HW2 3660   2.299   5.313   3.155
  921SOL     OW 3661   4.721   4.601   3.106
  921SOL    HW1 3662   4.735   4.631   3.011
  921SOL    HW2 3663   4.805   4.560   3.141
  922SOL     OW 3664   3.444   3.158   5.881
  922SOL    HW1 3665   3.400   3.185   5.795
  922SOL    HW2 3666   3.507   3.082   5.864
  923SOL     OW 3667   2.823   4.971   5.623
  923SOL    HW1 3668   2.916   4.984   5.656
  923SOL    HW2 3669   2.811   4.876   5.595
  924SOL     OW 3670   6.008   2.272   2.856
  924SOL    HW1 3671   6.082   2.275   2.923
  924SOL    HW2 3672   5.919   2.277   2.903
  925SOL     OW 3673   0.495   1.610   6.595
  925SOL    HW1 3674   0.401   1.600   6.562
  925SOL    HW2 3675   0.554   1.545   6.548
  926SOL     OW 3676   5.651   1.037   0.483
  926SOL    HW1 3677   5.722   0.972   0.455
  926SOL    HW2 3678   5.573   0.987   0.519
  927SOL     OW 3679   6.367   4.026   3.051
  927SOL    HW1 3680   6.419   3.961   3.107
  927SOL    HW2 3681   6.364   4.114   3.098
  928SOL     OW 3682   1.050   6.038   0.720
  928SOL    HW1 3683   1.007   6.091   0.647
  928SOL    HW2 3684   1.019   5.943   0.715
  929SOL     OW 3685   0.132   1.032   1.198
  929SOL    HW1 3686   0.191   0.958   1.165
  929SOL    HW2 3687   0.168   1.068   1.284
  930SOL     OW 3688   5.550   6.206   4.550
  930SOL    HW1 3689   5.595   6.126   4.512
  930SOL    HW2 3690   5.453   6.204   4.526
  931SOL     OW 3691   5.757   1.970   3.145
  931SOL    HW1 3692   5.833   2.029   3.171
  931SOL    HW2 3693   5.756   1.889   3.204
  932SOL     OW 3694   3.221   6.624   2.780
  932SOL    HW1 3695   3.317   6.599   2.768
  932SOL    HW2 3696   3.162   6.558   2.734
  933SOL     OW 3697   1.044   6.123   3.328
  933SOL    HW1 3698   1.123   6.083   3.375
  933SOL    HW2 3699   0.965   6.124   3.389
  934SOL     OW 3700   1.864   0.503   5.467
  934SOL    HW1 3701   1.802   0.438   5.422
  934SOL    HW2 3702   1.861   0.590   5.418
  935SOL     OW 3703   4.951   4.293   4.979
  935SOL    HW1 3704   4.852   4.282   4.986
  935SOL    HW2 3705   4.995   4.204   4.985
  936SOL     OW 3706   1.044   0.273   6.216
  936SOL    HW1 3707   0.954   0.312   6.237
  936SOL    HW2 3708   1.072   0.212   6.291
  937SOL     OW 3709   4.889   1.152   4.380
  937SOL    HW1 3710   4.842   1.074   4.339
  937SOL    HW2 3711   4.984   1.126   4.401
  938SOL     OW 3712   6.769   5.485   5.533
  938SOL    HW1 3713   6.757   5.468   5.435
  938SOL    HW2 3714   6.837   5.558   5.545
  939SOL     OW 3715   5.782   0.325   5.618
  939SOL    HW1 3716   5.872   0.351   5.653
  939SOL    HW2 3717   5.715   0.329   5.692
  940SOL     OW 3718   0.500   2.601   1.966
  940SOL    HW1 3719   0.541   2.520   2.007
  940SOL    HW2 3720   0.400   2.597   1.977
  941SOL     OW 3721   5.601   1.211   5.455
  941SOL    HW1 3722   5.657   1.269   5.514
  941SOL    HW2 3723   5.660   1.162   5.391
  942SOL     OW 3724   4.893   6.835   3.307
  942SOL    HW1 3725   4.881   6.737   3.293
  942SOL    HW2 3726   4.990   6.855   3.319
  943SOL     OW 3727   2.035   3.031   3.710
  943SOL    HW1 3728   2.085   2.959   3.661
  943SOL    HW2 3729   2.046   3.017   3.809
  944SOL     OW 3730   0.058   3.652   6.063
  944SOL    HW1 3731   0.091   3.665   5.969
  944SOL    HW2 3732   0.027   3.558   6.074
  945SOL     OW 3733   6.319   4.062   4.832
  945SOL    HW1 3734   6.298   4.013   4.748
  945SOL    HW2 3735   6.399   4.019   4.876
  946SOL     OW 3736   5.196   2.538   6.262
  946SOL    HW1 3737   5.234   2.473   6.328
  946SOL    HW2 3738   5.269   2.572   6.203
  947SOL     OW 3739   3.881   2.991   4.305
  947SOL    HW1 3740   3.908   3.087   4.315
  947SOL    HW2 3741   3.853   2.955   4.394
  948SOL     OW 3742   3.908   6.840   1.720
  948SOL    HW1 3743   3.880   6.820   1.627
  948SOL    HW2 3744   3.945   6.757   1.763
  949SOL     OW 3745   0.977   6.490   6.650
  949SOL    HW1 3746   1.056   6.533   6.608
  949SOL    HW2 3747   0.956   6.536   6.737
  950SOL     OW 3748   4.595   5.205   1.561
  950SOL    HW1 3749   4.638   5.193   1.650
  950SOL    HW2 3750   4.567   5.301   1.551
  951SOL     OW 3751   2.147   1.038   3.927
  951SOL    HW1 3752   2.173   1.049   3.831
  951SOL    HW2 3753   2.227   1.015   3.981
  952SOL     OW 3754   4.726   2.232   2.855
  952SOL    HW1 3755   4.708   2.149   2.907
  952SOL    HW2 3756   4.646   2.254   2.798
  953SOL     OW 3757   5.272   5.631   4.098
  953SOL    HW1 3758   5.351   5.677   4.138
  953SOL    HW2 3759   5.291   5.533   4.088
  954SOL     OW 3760   4.370   5.867   0.740
  954SOL    HW1 3761   4.281   5.833   0.769
  954SOL    HW2 3762   4.357   5.941   0.673
  955SOL     OW 3763   0.073   3.982   3.009
  955SOL    HW1 3764   0.030   3.905   3.057
  955SOL    HW2 3765   0.002   4.037   2.966
  956SOL     OW 3766   0.028   2.176   2.447
  956SOL    HW1 3767   6.994   2.160   2.362
  956SOL    HW2 3768   0.119   2.210   2.425
  957SOL     OW 3769   6.882   4.549   5.134
  957SOL    HW1 3770   6.815   4.529   5.206
  957SOL    HW2 3771   6.947   4.474   5.127
  958SOL     OW 3772   4.348   1.808   2.150
  958SOL    HW1 3773   4.382   1.888   2.100
  958SOL    HW2 3774   4.282   1.758   2.094
  959SOL     OW 3775   3.484   5.517   2.698
  959SOL    HW1 3776   3.574   5.481   2.722
  959SOL    HW2 3777   3.485   5.552   2.605
  960SOL     OW 3778   1.211   5.994   2.031
  960SOL    HW1 3779   1.185   6.030   1.941
  960SOL    HW2 3780   1.190   6.063   2.100
  961SOL     OW 3781   4.974   0.227   3.438
  961SOL    HW1 3782   4.978   0.202   3.535
  961SOL    HW2 3783   4.935   0.319   3.428
  962SOL     OW 3784   0.551   0.571   5.263
  962SOL    HW1 3785   0.545   0.631   5.342
  962SOL    HW2 3786   0.469   0.581   5.207
  963SOL     OW 3787   6.580   1.759   5.927
  963SOL    HW1 3788   6.532   1.799   5.848
  963SOL    HW2 3789   6.649   1.823   5.959
  964SOL     OW 3790   5.562   4.783   0.042
  964SOL    HW1 3791   5.630   4.742   0.103
  964SOL    HW2 3792   5.485   4.720   0.031
  965SOL     OW 3793   5.544   2.312   0.843
  965SOL    HW1 3794   5.537   2.358   0.931
  965SOL    HW2 3795   5.614   2.356   0.787
  966SOL     OW 3796   5.197   2.280   1.956
  966SOL    HW1 3797   5.186   2.359   1.895
  966SOL    HW2 3798   5.252   2.211   1.910
  967SOL     OW 3799   2.129   4.025   1.722
  967SOL    HW1 3800   2.198   3.960   1.753
  967SOL    HW2 3801   2.145   4.114   1.765
  968SOL     OW 3802   3.278   1.040   1.651
  968SOL    HW1 3803   3.351   1.053   1.584
  968SOL    HW2 3804   3.247   1.129   1.684
  969SOL     OW 3805   3.512   5.852   6.270
  969SOL    HW1 3806   3.595   5.800   6.253
  969SOL    HW2 3807   3.435   5.810   6.223
  970SOL     OW 3808   5.715   0.921   5.997
  970SOL    HW1 3809   5.678   0.828   5.991
  970SOL    HW2 3810   5.659   0.975   6.060
  971SOL     OW 3811   6.686   2.034   3.241
  971SOL    HW1 3812   6.603   2.051   3.188
  971SOL    HW2 3813   6.751   2.108   3.226
  972SOL     OW 3814   5.647   3.201   1.880
  972SOL    HW1 3815   5.681   3.161   1.795
  972SOL    HW2 3816   5.708   3.175   1.955
  973SOL     OW 3817   0.285   4.901   0.134
  973SOL    HW1 3818   0.194   4.876   0.165
  973SOL    HW2 3819   0.289   4.892   0.034
  974SOL     OW 3820   5.035   6.576   2.801
  974SOL    HW1 3821   5.007   6.574   2.897
  974SOL    HW2 3822   4.956   6.599   2.744
  975SOL     OW 3823   1.304   6.303   6.930
  975SOL    HW1 3824   1.357   6.383   6.901
  975SOL    HW2 3825   1.207   6.320   6.911
  976SOL     OW 3826   0.278   3.524   2.824
  976SOL    HW1 3827   0.352   3.547   2.760
  976SOL    HW2 3828   0.318   3.495   2.911
  977SOL     OW 3829   0.776   0.659   2.411
  977SOL    HW1 3830   0.839   0.721   2.457
  977SOL    HW2 3831   0.717   0.615   2.479
  978SOL     OW 3832   4.432   3.648   5.666
  978SOL    HW1 3833   4.461   3.588   5.740
  978SOL    HW2 3834   4.387   3.595   5.594
  979SOL     OW 3835   6.515   2.403   0.430
  979SOL    HW1 3836   6.467   2.392   0.343
  979SOL    HW2 3837   6.530   2.500   0.448
  980SOL     OW 3838   4.603   2.539   4.306
  980SOL    HW1 3839   4.693   2.496   4.307
  980SOL    HW2 3840   4.610   2.631   4.343
  981SOL     OW 3841   0.100   1.916   4.787
  981SOL    HW1 3842   0.098   2.007   4.745
  981SOL    HW2 3843   0.146   1.852   4.726
  982SOL     OW 3844   2.495   2.345   3.963
  982SOL    HW1 3845   2.486   2.440   3.994
  982SOL    HW2 3846   2.421   2.324   3.899
  983SOL     OW 3847   5.859   2.345   4.755
  983SOL    HW1 3848   5.864   2.247   4.737
  983SOL    HW2 3849   5.805   2.390   4.684
  984SOL     OW 3850   2.514   1.702   4.561
  984SOL    HW1 3851   2.528   1.786   4.510
  984SOL    HW2 3852   2.602   1.664   4.588
  985SOL     OW 3853   5.577   4.379   4.811
  985SOL    HW1 3854   5.570   4.325   4.728
  985SOL    HW2 3855   5.490   4.377   4.861
  986SOL     OW 3856   6.270   4.406   1.040
  986SOL    HW1 3857   6.223   4.488   1.074
  986SOL    HW2 3858   6.265   4.335   1.110
  987SOL     OW 3859   4.620   6.958   1.921
  987SOL    HW1 3860   4.680   6.915   1.854
  987SOL    HW2 3861   4.531   6.978   1.879
  988SOL     OW 3862   3.116   3.290   2.990
  988SOL    HW1 3863   3.101   3.238   3.073
  988SOL    HW2 3864   3.120   3.228   2.911
  989SOL     OW 3865   6.398   0.618   5.460
  989SOL    HW1 3866   6.466   0.586   5.526
  989SOL    HW2 3867   6.432   0.700   5.414
  990SOL     OW 3868   3.817   0.569   2.144
  990SOL    HW1 3869   3.769   0.643   2.192
  990SOL    HW2 3870   3.757   0.532   2.073
  991SOL     OW 3871   0.664   2.441   5.422
  991SOL    HW1 3872   0.687   2.355   5.377
  991SOL    HW2 3873   0.723   2.455   5.501
  992SOL     OW 3874   6.657   2.613   2.016
  992SOL    HW1 3875   6.698   2.669   1.944
  992SOL    HW2 3876   6.558   2.628   2.018
  993SOL     OW 3877   1.191   4.245   1.531
  993SOL    HW1 3878   1.251   4.192   1.591
  993SOL    HW2 3879   1.113   4.278   1.583
  994SOL     OW 3880   3.746   4.315   1.716
  994SOL    HW1 3881   3.805   4.250   1.763
  994SOL    HW2 3882   3.776   4.408   1.737
  995SOL     OW 3883   3.874   3.090   5.081
  995SOL    HW1 3884   3.906   3.168   5.134
  995SOL    HW2 3885   3.891   3.006   5.132
  996SOL     OW 3886   2.940   4.909   4.313
  996SOL    HW1 3887   2.864   4.858   4.353
  996SOL    HW2 3888   2.974   4.977   4.378
  997SOL     OW 3889   0.791   1.133   2.911
  997SOL    HW1 3890   0.783   1.081   2.996
  997SOL    HW2 3891   0.872   1.191   2.914
  998SOL     OW 3892   4.594   0.065   4.395
  998SOL    HW1 3893   4.566   6.990   4.364
  998SOL    HW2 3894   4.513   0.124   4.398
  999SOL     OW 3895   4.746   4.505   2.772
  999SOL    HW1 3896   4.690   4.424   2.793
  999SOL    HW2 3897   4.812   4.482   2.702
 1000SOL     OW 3898   2.361   1.293   1.960
 1000SOL    HW1 3899   2.329   1.200   1.946
 1000SOL    HW2 3900   2.381   1.307   2.057
 1001SOL     OW 3901   4.939   5.914   0.431
 1001SOL    HW1 3902   4.855   5.861   0.441
 1001SOL    HW2 3903   4.919   6.011   0.438
 1002SOL     OW 3904   5.755   2.016   1.018
 1002SOL    HW1 3905   5.826   1.992   1.084
 1002SOL    HW2 3906   5.773   1.970   0.931
 1003SOL     OW 3907   1.940   6.677   1.978
 1003SOL    HW1 3908   1.904   6.726   2.058
 1003SOL    HW2 3909   1.928   6.579   1.992
 1004SOL     OW 3910   0.179   6.969   2.507
 1004SOL    HW1 3911   0.221   6.967   2.416
 1004SOL    HW2 3912   0.221   0.024   2.562
 1005SOL     OW 3913   2.186   2.699   3.997
 1005SOL    HW1 3914   2.115   2.634   4.024
 1005SOL    HW2 3915   2.144   2.785   3.968
 1006SOL     OW 3916   0.983   4.864   1.263
 1006SOL    HW1 3917   0.884   4.873   1.259
 1006SOL    HW2 3918   1.023   4.947   1.303
 1007SOL     OW 3919   4.498   6.905   5.429
 1007SOL    HW1 3920   4.597   6.899   5.445
 1007SOL    HW2 3921   4.480   6.906   5.331
 1008SOL     OW 3922   1.381   2.917   4.977
 1008SOL    HW1 3923   1.372   2.931   4.879
 1008SOL    HW2 3924   1.299   2.873   5.013
 1009SOL     OW 3925   0.497   5.365   5.059
 1009SOL    HW1 3926   0.530   5.350   5.152
 1009SOL    HW2 3927   0.507   5.462   5.036
 1010SOL     OW 3928   3.475   2.853   6.040
 1010SOL    HW1 3929   3.391   2.801   6.028
 1010SOL    HW2 3930   3.512   2.835   6.131
 1011SOL     OW 3931   2.445   4.951   2.378
 1011SOL    HW1 3932   2.402   4.959   2.288
 1011SOL    HW2 3933   2.374   4.944   2.448
 1012SOL     OW 3934   6.991   0.677   1.752
 1012SOL    HW1 3935   6.892   0.686   1.741
 1012SOL    HW2 3936   0.015   0.767   1.767
 1013SOL     OW 3937   1.211   0.767   5.440
 1013SOL    HW1 3938   1.276   0.814   5.499
 1013SOL    HW2 3939   1.140   0.831   5.411
 1014SOL     OW 3940   5.814   5.620   6.361
 1014SOL    HW1 3941   5.875   5.600   6.284
 1014SOL    HW2 3942   5.720   5.624   6.328
 1015SOL     OW 3943   2.451   6.902   5.854
 1015SOL    HW1 3944   2.389   6.843   5.906
 1015SOL    HW2 3945   2.425   6.902   5.758
 1016SOL     OW 3946   4.093   3.714   6.651
 1016SOL    HW1 3947   4.094   3.637   6.587
 1016SOL    HW2 3948   4.167   3.778   6.628
 1017SOL     OW 3949   4.125   2.649   1.040
 1017SOL    HW1 3950   4.156   2.654   0.945
 1017SOL    HW2 3951   4.198   2.612   1.097
 1018SOL     OW 3952   0.045   4.346   3.707
 1018SOL    HW1 3953   0.125   4.286   3.707
 1018SOL    HW2 3954   7.000   4.320   3.633
 1019SOL     OW 3955   6.814   6.607   1.087
 1019SOL    HW1 3956   6.804   6.704   1.066
 1019SOL    HW2 3957   6.903   6.590   1.130
 1020SOL     OW 3958   0.643   0.856   1.571
 1020SOL    HW1 3959   0.696   0.798   1.510
 1020SOL    HW2 3960   0.625   0.807   1.656
 1021SOL     OW 3961   5.307   7.004   1.227
 1021SOL    HW1 3962   5.273   6.974   1.316
 1021SOL    HW2 3963   5.394   6.959   1.207
 1022SOL     OW 3964   3.880   4.899   5.624
 1022SOL    HW1 3965   3.838   4.816   5.661
 1022SOL    HW2 3966   3.933   4.877   5.543
 1023SOL     OW 3967   0.897   6.913   3.178
 1023SOL    HW1 3968   0.916   6.817   3.197
 1023SOL    HW2 3969   0.798   6.929   3.181
 1024SOL     OW 3970   0.325   2.661   4.097
 1024SOL    HW1 3971   0.318   2.739   4.035
 1024SOL    HW2 3972   0.256   2.593   4.073
 1025SOL     OW 3973   3.440   3.234   1.114
 1025SOL    HW1 3974   3.343   3.247   1.135
 1025SOL    HW2 3975   3.470   3.305   1.050
 1026SOL     OW 3976   2.166   2.604   0.453
 1026SOL    HW1 3977   2.231   2.528   0.462
 1026SOL    HW2 3978   2.206   2.687   0.490
 1027SOL     OW 3979   3.089   6.473   1.757
 1027SOL    HW1 3980   3.077   6.390   1.811
 1027SOL    HW2 3981   3.062   6.455   1.663
 1028SOL     OW 3982   3.142   6.092   0.655
 1028SOL    HW1 3983   3.073   6.139   0.710
 1028SOL    HW2 3984   3.163   6.147   0.574
 1029SOL     OW 3985   1.884   6.936   6.961
 1029SOL    HW1 3986   1.803   6.964   6.910
 1029SOL    HW2 3987   1.929   6.860   6.915
 1030SOL     OW 3988   3.109   2.957   2.019
 1030SOL    HW1 3989   3.086   2.912   1.932
 1030SOL    HW2 3990   3.060   3.044   2.026
 1031SOL     OW 3991   5.438   4.357   0.610
 1031SOL    HW1 3992   5.413   4.446   0.648
 1031SOL    HW2 3993   5.525   4.365   0.560
 1032SOL     OW 3994   2.175   2.184   5.305
 1032SOL    HW1 3995   2.253   2.238   5.272
 1032SOL    HW2 3996   2.111   2.244   5.352
 1033SOL     OW 3997   1.497   6.895   0.859
 1033SOL    HW1 3998   1.595   6.875   0.858
 1033SOL    HW2 3999   1.455   6.863   0.774
 1034SOL     OW 4000   0.540   4.908   5.021
 1034SOL    HW1 4001   0.589   4.992   5.045
 1034SOL    HW2 4002   0.606   4.836   5.000
 1035SOL     OW 4003   0.067   0.984   5.051
 1035SOL    HW1 4004   7.006   1.036   5.084
 1035SOL    HW2 4005   0.136   1.046   5.014
 1036SOL     OW 4006   3.487   1.365   1.761
 1036SOL    HW1 4007   3.412   1.429   1.746
 1036SOL    HW2 4008   3.477   1.322   1.851
 1037SOL     OW 4009   1.774   0.830   2.048
 1037SOL    HW1 4010   1.748   0.750   1.994
 1037SOL    HW2 4011   1.693   0.885   2.067
 1038SOL     OW 4012   1.529   0.328   4.732
 1038SOL    HW1 4013   1.558   0.275   4.652
 1038SOL    HW2 4014   1.586   0.410   4.739
 1039SOL     OW 4015   3.386   4.233   5.315
 1039SOL    HW1 4016   3.307   4.295   5.319
 1039SOL    HW2 4017   3.431   4.242   5.226
 1040SOL     OW 4018   4.438   2.489   2.670
 1040SOL    HW1 4019   4.522   2.541   2.690
 1040SOL    HW2 4020   4.394   2.463   2.756
 1041SOL     OW 4021   0.193   0.165   3.792
 1041SOL    HW1 4022   0.176   0.124   3.703
 1041SOL    HW2 4023   0.230   0.257   3.781
 1042SOL     OW 4024   5.006   5.152   2.022
 1042SOL    HW1 4025   4.970   5.121   2.110
 1042SOL    HW2 4026   5.075   5.223   2.037
 1043SOL     OW 4027   3.637   1.359   5.182
 1043SOL    HW1 4028   3.665   1.354   5.087
 1043SOL    HW2 4029   3.698   1.420   5.232
 1044SOL     OW 4030   5.245   5.019   2.633
 1044SOL    HW1 4031   5.305   4.941   2.654
 1044SOL    HW2 4032   5.223   5.067   2.718
 1045SOL     OW 4033   4.431   6.276   2.160
 1045SOL    HW1 4034   4.366   6.301   2.232
 1045SOL    HW2 4035   4.488   6.200   2.191
 1046SOL     OW 4036   1.392   0.665   0.093
 1046SOL    HW1 4037   1.458   0.723   0.046
 1046SOL    HW2 4038   1.304   0.671   0.046
 1047SOL     OW 4039   1.902   1.080   3.221
 1047SOL    HW1 4040   1.910   1.000   3.161
 1047SOL    HW2 4041   1.858   1.054   3.306
 1048SOL     OW 4042   4.490   6.403   4.435
 1048SOL    HW1 4043   4.587   6.411   4.459
 1048SOL    HW2 4044   4.440   6.362   4.512
 1049SOL     OW 4045   6.067   6.156   3.513
 1049SOL    HW1 4046   6.131   6.080   3.521
 1049SOL    HW2 4047   6.112   6.234   3.470
 1050SOL     OW 4048   4.204   5.144   1.100
 1050SOL    HW1 4049   4.230   5.083   1.025
 1050SOL    HW2 4050   4.155   5.091   1.170
 1051SOL     OW 4051   2.550   5.759   1.008
 1051SOL    HW1 4052   2.460   5.777   1.048
 1051SOL    HW2 4053   2.597   5.688   1.061
 1052SOL     OW 4054   3.653   0.792   4.665
 1052SOL    HW1 4055   3.744   0.832   4.664
 1052SOL    HW2 4056   3.591   0.847   4.609
 1053SOL     OW 4057   5.622   4.693   3.340
 1053SOL    HW1 4058   5.547   4.665   3.280
 1053SOL    HW2 4059   5.710   4.666   3.299
 1054SOL     OW 4060   3.108   4.021   5.908
 1054SOL    HW1 4061   3.009   4.021   5.921
 1054SOL    HW2 4062   3.153   4.010   5.996
 1055SOL     OW 4063   3.797   6.668   5.268
 1055SOL    HW1 4064   3.863   6.681   5.342
 1055SOL    HW2 4065   3.784   6.570   5.251
 1056SOL     OW 4066   1.861   5.549   6.649
 1056SOL    HW1 4067   1.918   5.517   6.725
 1056SOL    HW2 4068   1.834   5.471   6.592
 1057SOL     OW 4069   2.996   3.196   2.034
 1057SOL    HW1 4070   2.920   3.224   2.093
 1057SOL    HW2 4071   2.973   3.214   1.939
 1058SOL     OW 4072   4.871   1.391   3.650
 1058SOL    HW1 4073   4.872   1.305   3.599
 1058SOL    HW2 4074   4.781   1.406   3.689
 1059SOL     OW 4075   2.640   0.407   1.426
 1059SOL    HW1 4076   2.725   0.372   1.466
 1059SOL    HW2 4077   2.624   0.500   1.459
 1060SOL     OW 4078   0.258   4.388   4.664
 1060SOL    HW1 4079   0.231   4.459   4.599
 1060SOL    HW2 4080   0.205   4.398   4.748
 1061SOL     OW 4081   5.970   3.389   0.751
 1061SOL    HW1 4082   5.925   3.429   0.672
 1061SOL    HW2 4083   6.046   3.447   0.780
 1062SOL     OW 4084   5.596   4.249   6.480
 1062SOL    HW1 4085   5.589   4.159   6.437
 1062SOL    HW2 4086   5.570   4.319   6.414
 1063SOL     OW 4087   1.656   4.936   2.396
 1063SOL    HW1 4088   1.598   4.930   2.477
 1063SOL    HW2 4089   1.632   4.863   2.332
 1064SOL     OW 4090   1.893   4.220   2.057
 1064SOL    HW1 4091   1.847   4.219   1.968
 1064SOL    HW2 4092   1.835   4.175   2.125
 1065SOL     OW 4093   3.330   0.334   3.767
 1065SOL    HW1 4094   3.381   0.411   3.729
 1065SOL    HW2 4095   3.353   0.250   3.718
 1066SOL     OW 4096   4.366   0.092   3.474
 1066SOL    HW1 4097   4.296   0.091   3.403
 1066SOL    HW2 4098   4.332   0.144   3.553
 1067SOL     OW 4099   0.656   3.963   0.776
 1067SOL    HW1 4100   0.710   3.937   0.856
 1067SOL    HW2 4101   0.629   3.881   0.726
 1068SOL     OW 4102   5.327   5.749   3.094
 1068SOL    HW1 4103   5.410   5.704   3.063
 1068SOL    HW2 4104   5.346   5.844   3.116
 1069SOL     OW 4105   4.448   5.259   1.172
 1069SOL    HW1 4106   4.360   5.214   1.156
 1069SOL    HW2 4107   4.461   5.332   1.104
 1070SOL     OW 4108   6.823   0.426   2.328
 1070SOL    HW1 4109   6.881   0.377   2.393
 1070SOL    HW2 4110   6.864   0.515   2.308
 1071SOL     OW 4111   1.570   0.825   3.489
 1071SOL    HW1 4112   1.549   0.838   3.586
 1071SOL    HW2 4113   1.531   0.900   3.436
 1072SOL     OW 4114   2.114   1.019   0.718
 1072SOL    HW1 4115   2.204   0.994   0.682
 1072SOL    HW2 4116   2.099   1.117   0.705
 1073SOL     OW 4117   4.844   6.881   1.268
 1073SOL    HW1 4118   4.853   6.890   1.169
 1073SOL    HW2 4119   4.850   6.785   1.294
 1074SOL     OW 4120   1.978   5.459   1.366
 1074SOL    HW1 4121   1.935   5.454   1.276
 1074SOL    HW2 4122   2.033   5.543   1.372
 1075SOL     OW 4123   5.143   6.491   4.354
 1075SOL    HW1 4124   5.240   6.498   4.331
 1075SOL    HW2 4125   5.134   6.459   4.448
 1076SOL     OW 4126   6.931   2.996   5.416
 1076SOL    HW1 4127   7.009   2.952   5.462
 1076SOL    HW2 4128   6.857   3.010   5.482
 1077SOL     OW 4129   5.375   0.353   1.647
 1077SOL    HW1 4130   5.367   0.336   1.549
 1077SOL    HW2 4131   5.313   0.292   1.696
 1078SOL     OW 4132   1.020   1.579   2.644
 1078SOL    HW1 4133   1.077   1.645   2.594
 1078SOL    HW2 4134   1.032   1.488   2.604
 1079SOL     OW 4135   2.224   6.306   2.490
 1079SOL    HW1 4136   2.192   6.397   2.466
 1079SOL    HW2 4137   2.320   6.311   2.520
 1080SOL     OW 4138   0.792   4.070   3.650
 1080SOL    HW1 4139   0.839   3.984   3.670
 1080SOL    HW2 4140   0.802   4.132   3.728
 1081SOL     OW 4141   0.213   5.435   5.952
 1081SOL    HW1 4142   0.120   5.406   5.976
 1081SOL    HW2 4143   0.226   5.428   5.853
 1082SOL     OW 4144   3.996   1.985   5.699
 1082SOL    HW1 4145   3.967   2.018   5.610
 1082SOL    HW2 4146   3.936   1.911   5.729
 1083SOL     OW 4147   4.342   3.859   6.987
 1083SOL    HW1 4148   4.388   3.771   6.982
 1083SOL    HW2 4149   4.279   3.861   0.047
 1084SOL     OW 4150   5.537   6.258   6.946
 1084SOL    HW1 4151   5.561   6.163   6.925
 1084SOL    HW2 4152   5.442   6.275   6.921
 1085SOL     OW 4153   1.230   3.948   4.048
 1085SOL    HW1 4154   1.261   4.041   4.068
 1085SOL    HW2 4155   1.149   3.927   4.103
 1086SOL     OW 4156   6.817   6.351   1.025
 1086SOL    HW1 4157   6.812   6.441   1.069
 1086SOL    HW2 4158   6.898   6.303   1.058
 1087SOL     OW 4159   5.155   1.640   5.099
 1087SOL    HW1 4160   5.168   1.684   5.188
 1087SOL    HW2 4161   5.140   1.542   5.112
 1088SOL     OW 4162   6.387   4.526   3.112
 1088SOL    HW1 4163   6.374   4.607   3.169
 1088SOL    HW2 4164   6.404   4.555   3.018
 1089SOL     OW 4165   1.497   6.164   4.196
 1089SOL    HW1 4166   1.517   6.074   4.158
 1089SOL    HW2 4167   1.539   6.173   4.286
 1090SOL     OW 4168   1.955   2.244   3.568
 1090SOL    HW1 4169   1.996   2.236   3.477
 1090SOL    HW2 4170   1.855   2.238   3.560
 1091SOL     OW 4171   3.115   1.943   5.395
 1091SOL    HW1 4172   3.157   1.853   5.388
 1091SOL    HW2 4173   3.112   1.986   5.305
 1092SOL     OW 4174   1.993   3.683   1.591
 1092SOL    HW1 4175   2.081   3.640   1.609
 1092SOL    HW2 4176   1.920   3.631   1.634
 1093SOL     OW 4177   1.914   1.207   2.250
 1093SOL    HW1 4178   1.927   1.174   2.156
 1093SOL    HW2 4179   2.003   1.216   2.295
 1094SOL     OW 4180   0.600   6.711   3.354
 1094SOL    HW1 4181   0.604   6.674   3.262
 1094SOL    HW2 4182   0.562   6.643   3.416
 1095SOL     OW 4183   0.521   2.676   6.506
 1095SOL    HW1 4184   0.579   2.749   6.470
 1095SOL    HW2 4185   0.427   2.709   6.513
 1096SOL     OW 4186   3.478   4.388   1.678
 1096SOL    HW1 4187   3.568   4.347   1.692
 1096SOL    HW2 4188   3.468   4.469   1.736
 1097SOL     OW 4189   2.116   4.579   4.367
 1097SOL    HW1 4190   2.120   4.672   4.331
 1097SOL    HW2 4191   2.183   4.521   4.321
 1098SOL     OW 4192   4.541   3.191   0.179
 1098SOL    HW1 4193   4.454   3.202   0.131
 1098SOL    HW2 4194   4.604   3.263   0.151
 1099SOL     OW 4195   4.558   1.710   5.267
 1099SOL    HW1 4196   4.463   1.678   5.259
 1099SOL    HW2 4197   4.601   1.668   5.347
 1100SOL     OW 4198   3.519   1.962   6.002
 1100SOL    HW1 4199   3.438   1.951   6.060
 1100SOL    HW2 4200   3.492   1.992   5.911
 1101SOL     OW 4201   6.226   2.269   6.574
 1101SOL    HW1 4202   6.225   2.174   6.606
 1101SOL    HW2 4203   6.290   2.322   6.629
 1102SOL     OW 4204   0.454   6.156   4.833
 1102SOL    HW1 4205   0.391   6.083   4.806
 1102SOL    HW2 4206   0.403   6.234   4.867
 1103SOL     OW 4207   3.584   1.427   0.426
 1103SOL    HW1 4208   3.538   1.416   0.339
 1103SOL    HW2 4209   3.671   1.377   0.425
 1104SOL     OW 4210   1.984   2.756   5.407
 1104SOL    HW1 4211   2.010   2.788   5.498
 1104SOL    HW2 4212   2.065   2.746   5.350
 1105SOL     OW 4213   6.780   4.143   4.969
 1105SOL    HW1 4214   6.867   4.137   5.017
 1105SOL    HW2 4215   6.749   4.238   4.967
 1106SOL     OW 4216   0.217   2.068   1.786
 1106SOL    HW1 4217   0.296   2.080   1.846
 1106SOL    HW2 4218   0.150   2.139   1.804
 1107SOL     OW 4219   1.746   0.478   6.779
 1107SOL    HW1 4220   1.820   0.542   6.800
 1107SOL    HW2 4221   1.663   0.529   6.756
 1108SOL     OW 4222   3.662   0.267   5.893
 1108SOL    HW1 4223   3.584   0.329   5.907
 1108SOL    HW2 4224   3.695   0.233   5.981
 1109SOL     OW 4225   4.786   0.492   4.494
 1109SOL    HW1 4226   4.738   0.565   4.542
 1109SOL    HW2 4227   4.877   0.524   4.466
 1110SOL     OW 4228   2.499   1.739   3.280
 1110SOL    HW1 4229   2.569   1.788   3.332
 1110SOL    HW2 4230   2.541   1.694   3.202
 1111SOL     OW 4231   4.760   5.519   6.149
 1111SOL    HW1 4232   4.815   5.572   6.214
 1111SOL    HW2 4233   4.812   5.440   6.118
 1112SOL     OW 4234   5.093   1.319   2.614
 1112SOL    HW1 4235   5.054   1.244   2.560
 1112SOL    HW2 4236   5.021   1.366   2.664
 1113SOL     OW 4237   6.474   3.954   2.027
 1113SOL    HW1 4238   6.409   3.929   1.955
 1113SOL    HW2 4239   6.564   3.918   2.005
 1114SOL     OW 4240   3.761   1.905   6.629
 1114SOL    HW1 4241   3.839   1.844   6.619
 1114SOL    HW2 4242   3.775   1.987   6.574
 1115SOL     OW 4243   4.335   3.349   6.747
 1115SOL    HW1 4244   4.426   3.356   6.790
 1115SOL    HW2 4245   4.319   3.254   6.719
 1116SOL     OW 4246   5.005   6.482   5.713
 1116SOL    HW1 4247   5.067   6.454   5.786
 1116SOL    HW2 4248   5.057   6.494   5.628
 1117SOL     OW 4249   1.866   2.387   2.228
 1117SOL    HW1 4250   1.875   2.486   2.232
 1117SOL    HW2 4251   1.770   2.361   2.238
 1118SOL     OW 4252   2.567   4.733   1.082
 1118SOL    HW1 4253   2.489   4.768   1.031
 1118SOL    HW2 4254   2.543   4.646   1.124
 1119SOL     OW 4255   4.037   4.309   1.003
 1119SOL    HW1 4256   3.939   4.331   1.005
 1119SOL    HW2 4257   4.065   4.273   1.092
 1120SOL     OW 4258   6.416   6.862   5.708
 1120SOL    HW1 4259   6.439   6.767   5.727
 1120SOL    HW2 4260   6.443   6.884   5.614
 1121SOL     OW 4261   5.055   5.074   3.085
 1121SOL    HW1 4262   5.021   4.983   3.104
 1121SOL    HW2 4263   5.000   5.142   3.134
 1122SOL     OW 4264   5.341   3.467   6.749
 1122SOL    HW1 4265   5.353   3.511   6.838
 1122SOL    HW2 4266   5.255   3.416   6.749
 1123SOL     OW 4267   4.853   1.191   3.466
 1123SOL    HW1 4268   4.849   1.096   3.497
 1123SOL    HW2 4269   4.868   1.194   3.367
 1124SOL     OW 4270   0.398   3.596   5.267
 1124SOL    HW1 4271   0.306   3.563   5.289
 1124SOL    HW2 4272   0.400   3.696   5.276
 1125SOL     OW 4273   3.571   1.681   4.905
 1125SOL    HW1 4274   3.560   1.666   5.003
 1125SOL    HW2 4275   3.485   1.714   4.866
 1126SOL     OW 4276   6.174   5.009   6.708
 1126SOL    HW1 4277   6.103   5.056   6.656
 1126SOL    HW2 4278   6.240   4.968   6.644
 1127SOL     OW 4279   5.279   5.203   4.769
 1127SOL    HW1 4280   5.306   5.139   4.697
 1127SOL    HW2 4281   5.273   5.154   4.856
 1128SOL     OW 4282   5.515   1.880   5.364
 1128SOL    HW1 4283   5.439   1.944   5.354
 1128SOL    HW2 4284   5.480   1.791   5.395
 1129SOL     OW 4285   2.500   0.840   6.994
 1129SOL    HW1 4286   2.495   0.932   0.016
 1129SOL    HW2 4287   2.468   0.842   6.899
 1130SOL     OW 4288   2.793   4.708   0.829
 1130SOL    HW1 4289   2.694   4.711   0.814
 1130SOL    HW2 4290   2.819   4.783   0.890
 1131SOL     OW 4291   0.154   5.679   6.054
 1131SOL    HW1 4292   0.177   5.588   6.018
 1131SOL    HW2 4293   0.092   5.670   6.131
 1132SOL     OW 4294   5.100   0.733   1.615
 1132SOL    HW1 4295   5.073   0.828   1.599
 1132SOL    HW2 4296   5.133   0.724   1.710
 1133SOL     OW 4297   0.823   0.437   1.273
 1133SOL    HW1 4298   0.887   0.491   1.327
 1133SOL    HW2 4299   0.812   0.478   1.183
 1134SOL     OW 4300   5.411   1.001   2.042
 1134SOL    HW1 4301   5.371   1.018   2.132
 1134SOL    HW2 4302   5.497   1.053   2.034
 1135SOL     OW 4303   2.677   1.342   2.789
 1135SOL    HW1 4304   2.743   1.267   2.803
 1135SOL    HW2 4305   2.593   1.305   2.749
 1136SOL     OW 4306   3.582   5.256   3.558
 1136SOL    HW1 4307   3.645   5.224   3.628
 1136SOL    HW2 4308   3.566   5.183   3.491
 1137SOL     OW 4309   1.218   0.929   6.632
 1137SOL    HW1 4310   1.191   0.938   6.536
 1137SOL    HW2 4311   1.261   1.014   6.662
 1138SOL     OW 4312   0.072   0.968   6.178
 1138SOL    HW1 4313   0.033   1.048   6.223
 1138SOL    HW2 4314   0.150   0.996   6.123
 1139SOL     OW 4315   3.345   4.964   1.577
 1139SOL    HW1 4316   3.399   4.972   1.661
 1139SOL    HW2 4317   3.271   5.031   1.578
 1140SOL     OW 4318   4.012   1.202   2.070
 1140SOL    HW1 4319   3.989   1.208   1.973
 1140SOL    HW2 4320   4.089   1.139   2.081
 1141SOL     OW 4321   0.319   6.006   6.723
 1141SOL    HW1 4322   0.313   5.979   6.627
 1141SOL    HW2 4323   0.250   5.957   6.776
 1142SOL     OW 4324   2.839   6.946   4.703
 1142SOL    HW1 4325   2.883   0.008   4.746
 1142SOL    HW2 4326   2.909   6.880   4.675
 1143SOL     OW 4327   1.575   3.703   2.494
 1143SOL    HW1 4328   1.543   3.798   2.496
 1143SOL    HW2 4329   1.643   3.693   2.421
 1144SOL     OW 4330   6.633   4.983   4.707
 1144SOL    HW1 4331   6.697   4.976   4.630
 1144SOL    HW2 4332   6.558   5.044   4.682
 1145SOL     OW 4333   6.512   3.785   2.378
 1145SOL    HW1 4334   6.553   3.867   2.337
 1145SOL    HW2 4335   6.447   3.814   2.449
 1146SOL     OW 4336   6.276   0.814   2.386
 1146SOL    HW1 4337   6.296   0.773   2.297
 1146SOL    HW2 4338   6.241   0.743   2.448
 1147SOL     OW 4339   2.369   5.079   1.471
 1147SOL    HW1 4340   2.321   5.164   1.491
 1147SOL    HW2 4341   2.419   5.048   1.551
 1148SOL     OW 4342   5.232   6.162   0.806
 1148SOL    HW1 4343   5.228   6.257   0.836
 1148SOL    HW2 4344   5.318   6.145   0.760
 1149SOL     OW 4345   6.770   4.125   3.037
 1149SOL    HW1 4346   6.829   4.174   3.101
 1149SOL    HW2 4347   6.690   4.089   3.086
 1150SOL     OW 4348   2.353   3.734   6.967
 1150SOL    HW1 4349   2.414   3.662   7.000
 1150SOL    HW2 4350   2.306   3.702   6.885
 1151SOL     OW 4351   4.744   4.872   6.866
 1151SOL    HW1 4352   4.748   4.895   6.769
 1151SOL    HW2 4353   4.835   4.883   6.907
 1152SOL     OW 4354   5.671   4.947   6.099
 1152SOL    HW1 4355   5.642   4.984   6.010
 1152SOL    HW2 4356   5.764   4.979   6.119
 1153SOL     OW 4357   2.070   0.440   1.167
 1153SOL    HW1 4358   1.974   0.454   1.141
 1153SOL    HW2 4359   2.095   0.505   1.238
 1154SOL     OW 4360   0.643   4.497   1.531
 1154SOL    HW1 4361   0.724   4.447   1.562
 1154SOL    HW2 4362   0.569   4.485   1.597
 1155SOL     OW 4363   2.427   5.656   6.374
 1155SOL    HW1 4364   2.436   5.701   6.285
 1155SOL    HW2 4365   2.363   5.708   6.431
 1156SOL     OW 4366   3.809   1.787   4.413
 1156SOL    HW1 4367   3.906   1.793   4.388
 1156SOL    HW2 4368   3.756   1.850   4.355
 1157SOL     OW 4369   5.795   0.457   5.309
 1157SOL    HW1 4370   5.880   0.480   5.260
 1157SOL    HW2 4371   5.815   0.447   5.406
 1158SOL     OW 4372   0.315   5.286   5.261
 1158SOL    HW1 4373   0.335   5.328   5.172
 1158SOL    HW2 4374   0.275   5.196   5.246
 1159SOL     OW 4375   6.456   0.147   4.119
 1159SOL    HW1 4376   6.422   0.149   4.025
 1159SOL    HW2 4377   6.502   0.233   4.139
 1160SOL     OW 4378   4.007   3.649   1.117
 1160SOL    HW1 4379   3.916   3.647   1.156
 1160SOL    HW2 4380   4.028   3.742   1.084
 1161SOL     OW 4381   6.410   6.985   6.461
 1161SOL    HW1 4382   6.339   0.028   6.498
 1161SOL    HW2 4383   6.456   0.013   6.385
 1162SOL     OW 4384   2.727   2.487   6.603
 1162SOL    HW1 4385   2.787   2.431   6.659
 1162SOL    HW2 4386   2.636   2.446   6.600
 1163SOL     OW 4387   6.782   3.469   1.703
 1163SOL    HW1 4388   6.815   3.551   1.656
 1163SOL    HW2 4389   6.789   3.483   1.802
 1164SOL     OW 4390   5.974   3.137   5.065
 1164SOL    HW1 4391   6.049   3.120   5.130
 1164SOL    HW2 4392   5.934   3.227   5.083
 1165SOL     OW 4393   2.834   4.781   3.844
 1165SOL    HW1 4394   2.830   4.805   3.941
 1165SOL    HW2 4395   2.749   4.736   3.817
 1166SOL     OW 4396   3.679   7.015   0.426
 1166SOL    HW1 4397   3.715   0.016   0.518
 1166SOL    HW2 4398   3.706   6.923   0.397
 1167SOL     OW 4399   4.149   6.343   6.692
 1167SOL    HW1 4400   4.069   6.402   6.687
 1167SOL    HW2 4401   4.121   6.248   6.704
 1168SOL     OW 4402   5.062   2.188   3.686
 1168SOL    HW1 4403   5.099   2.245   3.759
 1168SOL    HW2 4404   5.036   2.246   3.609
 1169SOL     OW 4405   5.226   2.449   5.893
 1169SOL    HW1 4406   5.237   2.351   5.908
 1169SOL    HW2 4407   5.145   2.482   5.941
 1170SOL     OW 4408   5.111   0.751   2.966
 1170SOL    HW1 4409   5.039   0.770   2.899
 1170SOL    HW2 4410   5.117   0.652   2.980
 1171SOL     OW 4411   2.929   6.333   0.021
 1171SOL    HW1 4412   2.971   6.378   0.100
 1171SOL    HW2 4413   2.957   6.237   0.019
 1172SOL     OW 4414   3.035   4.069   1.878
 1172SOL    HW1 4415   3.084   4.042   1.961
 1172SOL    HW2 4416   3.008   4.165   1.886
 1173SOL     OW 4417   2.941   0.741   6.643
 1173SOL    HW1 4418   3.001   0.664   6.665
 1173SOL    HW2 4419   2.900   0.726   6.553
 1174SOL     OW 4420   3.445   4.918   0.909
 1174SOL    HW1 4421   3.477   5.001   0.955
 1174SOL    HW2 4422   3.519   4.882   0.852
 1175SOL     OW 4423   3.868   3.289   6.584
 1175SOL    HW1 4424   3.780   3.328   6.610
 1175SOL    HW2 4425   3.927   3.361   6.548
 1176SOL     OW 4426   6.067   5.062   6.298
 1176SOL    HW1 4427   6.009   5.062   6.216
 1176SOL    HW2 4428   6.156   5.102   6.275
 1177SOL     OW 4429   6.885   1.689   5.423
 1177SOL    HW1 4430   6.836   1.686   5.336
 1177SOL    HW2 4431   6.918   1.598   5.446
 1178SOL     OW 4432   2.901   3.817   0.678
 1178SOL    HW1 4433   2.873   3.851   0.589
 1178SOL    HW2 4434   2.861   3.726   0.693
 1179SOL     OW 4435   3.394   6.418   0.759
 1179SOL    HW1 4436   3.301   6.400   0.727
 1179SOL    HW2 4437   3.398   6.508   0.804
 1180SOL     OW 4438   2.125   5.915   3.970
 1180SOL    HW1 4439   2.189   5.969   3.915
 1180SOL    HW2 4440   2.032   5.946   3.952
 1181SOL     OW 4441   0.441   3.233   5.808
 1181SOL    HW1 4442   0.520   3.237   5.746
 1181SOL    HW2 4443   0.381   3.311   5.791
 1182SOL     OW 4444   3.105   4.878   3.301
 1182SOL    HW1 4445   3.138   4.868   3.207
 1182SOL    HW2 4446   3.112   4.791   3.349
 1183SOL     OW 4447   3.208   5.529   1.915
 1183SOL    HW1 4448   3.228   5.432   1.901
 1183SOL    HW2 4449   3.226   5.579   1.831
 1184SOL     OW 4450   5.860   6.956   6.193
 1184SOL    HW1 4451   5.906   6.968   6.281
 1184SOL    HW2 4452   5.922   6.980   6.119
 1185SOL     OW 4453   0.282   1.196   1.382
 1185SOL    HW1 4454   0.334   1.207   1.297
 1185SOL    HW2 4455   0.303   1.273   1.442
 1186SOL     OW 4456   5.674   5.605   5.323
 1186SOL    HW1 4457   5.648   5.527   5.267
 1186SOL    HW2 4458   5.757   5.584   5.374
 1187SOL     OW 4459   5.477   6.520   5.568
 1187SOL    HW1 4460   5.421   6.591   5.525
 1187SOL    HW2 4461   5.548   6.490   5.504
 1188SOL     OW 4462   3.611   5.248   6.304
 1188SOL    HW1 4463   3.629   5.149   6.308
 1188SOL    HW2 4464   3.516   5.263   6.277
 1189SOL     OW 4465   5.950   0.610   1.203
 1189SOL    HW1 4466   6.044   0.579   1.185
 1189SOL    HW2 4467   5.953   0.705   1.236
 1190SOL     OW 4468   3.052   6.169   2.773
 1190SOL    HW1 4469   2.997   6.105   2.719
 1190SOL    HW2 4470   3.148   6.140   2.773
 1191SOL     OW 4471   2.449   6.527   4.228
 1191SOL    HW1 4472   2.439   6.480   4.141
 1191SOL    HW2 4473   2.364   6.577   4.249
 1192SOL     OW 4474   5.603   6.423   3.365
 1192SOL    HW1 4475   5.515   6.420   3.413
 1192SOL    HW2 4476   5.672   6.378   3.422
 1193SOL     OW 4477   0.400   0.246   5.075
 1193SOL    HW1 4478   0.485   0.297   5.085
 1193SOL    HW2 4479   0.323   0.307   5.093
 1194SOL     OW 4480   6.525   1.502   1.021
 1194SOL    HW1 4481   6.498   1.480   1.115
 1194SOL    HW2 4482   6.625   1.501   1.014
 1195SOL     OW 4483   6.725   3.272   0.250
 1195SOL    HW1 4484   6.749   3.275   0.347
 1195SOL    HW2 4485   6.725   3.365   0.213
 1196SOL     OW 4486   6.168   4.792   3.553
 1196SOL    HW1 4487   6.101   4.846   3.604
 1196SOL    HW2 4488   6.123   4.709   3.518
 1197SOL     OW 4489   4.252   6.729   4.283
 1197SOL    HW1 4490   4.287   6.781   4.361
 1197SOL    HW2 4491   4.310   6.745   4.203
 1198SOL     OW 4492   1.480   3.773   1.905
 1198SOL    HW1 4493   1.392   3.785   1.952
 1198SOL    HW2 4494   1.546   3.731   1.967
 1199SOL     OW 4495   3.197   3.527   2.990
 1199SOL    HW1 4496   3.158   3.434   2.990
 1199SOL    HW2 4497   3.296   3.522   3.000
 1200SOL     OW 4498   3.814   4.069   4.512
 1200SOL    HW1 4499   3.773   4.095   4.599
 1200SOL    HW2 4500   3.744   4.072   4.440
 1201SOL     OW 4501   6.650   0.801   5.136
 1201SOL    HW1 4502   6.688   0.869   5.198
 1201SOL    HW2 4503   6.682   0.818   5.043
 1202SOL     OW 4504   0.078   6.356   5.466
 1202SOL    HW1 4505   7.004   6.368   5.505
 1202SOL    HW2 4506   0.141   6.424   5.504
 1203SOL     OW 4507   0.379   6.375   0.504
 1203SOL    HW1 4508   0.368   6.301   0.438
 1203SOL    HW2 4509   0.475   6.403   0.508
 1204SOL     OW 4510   4.887   1.115   1.824
 1204SOL    HW1 4511   4.887   1.215   1.813
 1204SOL    HW2 4512   4.981   1.082   1.832
 1205SOL     OW 4513   3.698   3.818   0.161
 1205SOL    HW1 4514   3.783   3.870   0.146
 1205SOL    HW2 4515   3.651   3.806   0.074
 1206SOL     OW 4516   0.976   3.174   4.791
 1206SOL    HW1 4517   0.998   3.130   4.878
 1206SOL    HW2 4518   1.045   3.149   4.723
 1207SOL     OW 4519   0.340   0.847   1.172
 1207SOL    HW1 4520   0.303   0.815   1.260
 1207SOL    HW2 4521   0.440   0.840   1.174
 1208SOL     OW 4522   3.691   3.421   1.635
 1208SOL    HW1 4523   3.658   3.513   1.657
 1208SOL    HW2 4524   3.729   3.379   1.718
 1209SOL     OW 4525   5.237   0.018   4.377
 1209SOL    HW1 4526   5.298   6.962   4.344
 1209SOL    HW2 4527   5.163   0.031   4.311
 1210SOL     OW 4528   4.562   6.748   3.707
 1210SOL    HW1 4529   4.559   6.755   3.608
 1210SOL    HW2 4530   4.474   6.777   3.745
 1211SOL     OW 4531   0.756   3.289   2.840
 1211SOL    HW1 4532   0.802   3.316   2.756
 1211SOL    HW2 4533   0.780   3.353   2.913
 1212SOL     OW 4534   6.342   0.434   5.904
 1212SOL    HW1 4535   6.303   0.372   5.973
 1212SOL    HW2 4536   6.301   0.414   5.815
 1213SOL     OW 4537   5.597   2.022   2.180
 1213SOL    HW1 4538   5.630   2.053   2.090
 1213SOL    HW2 4539   5.676   2.002   2.238
 1214SOL     OW 4540   0.532   2.405   6.901
 1214SOL    HW1 4541   0.539   2.420   6.999
 1214SOL    HW2 4542   0.474   2.476   6.860
 1215SOL     OW 4543   1.486   4.936   2.602
 1215SOL    HW1 4544   1.490   4.848   2.650
 1215SOL    HW2 4545   1.393   4.950   2.565
 1216SOL     OW 4546   5.606   1.428   0.870
 1216SOL    HW1 4547   5.617   1.519   0.910
 1216SOL    HW2 4548   5.551   1.371   0.931
 1217SOL     OW 4549   2.561   4.850   0.720
 1217SOL    HW1 4550   2.593   4.936   0.761
 1217SOL    HW2 4551   2.519   4.869   0.632
 1218SOL     OW 4552   1.635   2.602   5.020
 1218SOL    HW1 4553   1.542   2.605   4.982
 1218SOL    HW2 4554   1.690   2.538   4.966
 1219SOL     OW 4555   5.513   5.390   2.121
 1219SOL    HW1 4556   5.424   5.380   2.077
 1219SOL    HW2 4557   5.569   5.455   2.069
 1220SOL     OW 4558   0.068   4.001   2.201
 1220SOL    HW1 4559   0.035   4.080   2.149
 1220SOL    HW2 4560   0.014   3.989   2.284
 1221SOL     OW 4561   5.049   3.891   6.433
 1221SOL    HW1 4562   5.134   3.936   6.406
 1221SOL    HW2 4563   5.069   3.808   6.483
 1222SOL     OW 4564   6.858   1.035   6.891
 1222SOL    HW1 4565   6.799   1.095   6.838
 1222SOL    HW2 4566   6.825   0.941   6.883
 1223SOL     OW 4567   3.781   0.922   0.193
 1223SOL    HW1 4568   3.686   0.905   0.168
 1223SOL    HW2 4569   3.832   0.951   0.111
 1224SOL     OW 4570   3.207   6.030   6.663
 1224SOL    HW1 4571   3.290   6.085   6.675
 1224SOL    HW2 4572   3.149   6.073   6.594
 1225SOL     OW 4573   3.693   2.676   6.613
 1225SOL    HW1 4574   3.695   2.776   6.609
 1225SOL    HW2 4575   3.606   2.646   6.652
 1226SOL     OW 4576   3.584   6.295   0.574
 1226SOL    HW1 4577   3.675   6.306   0.614
 1226SOL    HW2 4578   3.516   6.341   0.631
 1227SOL     OW 4579   5.015   4.763   5.666
 1227SOL    HW1 4580   4.933   4.736   5.616
 1227SOL    HW2 4581   5.091   4.704   5.640
 1228SOL     OW 4582   3.275   2.495   6.479
 1228SOL    HW1 4583   3.256   2.586   6.515
 1228SOL    HW2 4584   3.372   2.475   6.486
 1229SOL     OW 4585   1.948   5.488   0.275
 1229SOL    HW1 4586   2.021   5.450   0.218
 1229SOL    HW2 4587   1.986   5.525   0.359
 1230SOL     OW 4588   5.290   6.044   2.276
 1230SOL    HW1 4589   5.312   6.141   2.286
 1230SOL    HW2 4590   5.201   6.025   2.318
 1231SOL     OW 4591   1.786   2.177   5.356
 1231SOL    HW1 4592   1.736   2.174   5.443
 1231SOL    HW2 4593   1.771   2.091   5.307
 1232SOL     OW 4594   6.716   0.842   4.883
 1232SOL    HW1 4595   6.803   0.855   4.835
 1232SOL    HW2 4596   6.642   0.835   4.816
 1233SOL     OW 4597   0.977   5.450   4.851
 1233SOL    HW1 4598   0.991   5.402   4.937
 1233SOL    HW2 4599   1.049   5.423   4.786
 1234SOL     OW 4600   5.850   2.874   5.385
 1234SOL    HW1 4601   5.763   2.901   5.426
 1234SOL    HW2 4602   5.834   2.802   5.317
 1235SOL     OW 4603   6.007   4.487   1.800
 1235SOL    HW1 4604   5.996   4.484   1.899
 1235SOL    HW2 4605   5.918   4.469   1.756
 1236SOL     OW 4606   4.578   1.157   1.127
 1236SOL    HW1 4607   4.517   1.104   1.186
 1236SOL    HW2 4608   4.663   1.105   1.112
 1237SOL     OW 4609   1.446   4.724   5.767
 1237SOL    HW1 4610   1.486   4.742   5.677
 1237SOL    HW2 4611   1.482   4.638   5.803
 1238SOL     OW 4612   1.596   0.596   6.196
 1238SOL    HW1 4613   1.542   0.680   6.194
 1238SOL    HW2 4614   1.677   0.611   6.254
 1239SOL     OW 4615   0.401   6.962   6.883
 1239SOL    HW1 4616   0.364   6.930   6.796
 1239SOL    HW2 4617   0.499   6.981   6.873
 1240SOL     OW 4618   5.907   6.258   1.069
 1240SOL    HW1 4619   5.984   6.194   1.066
 1240SOL    HW2 4620   5.921   6.330   1.001
 1241SOL     OW 4621   6.276   4.165   5.414
 1241SOL    HW1 4622   6.208   4.125   5.476
 1241SOL    HW2 4623   6.355   4.195   5.467
 1242SOL     OW 4624   1.809   3.890   1.281
 1242SOL    HW1 4625   1.775   3.948   1.355
 1242SOL    HW2 4626   1.820   3.796   1.315
 1243SOL     OW 4627   1.333   0.415   5.245
 1243SOL    HW1 4628   1.390   0.495   5.257
 1243SOL    HW2 4629   1.244   0.430   5.289
 1244SOL     OW 4630   5.370   6.484   4.185
 1244SOL    HW1 4631   5.355   6.581   4.165
 1244SOL    HW2 4632   5.467   6.462   4.174
 1245SOL     OW 4633   5.286   4.516   0.403
 1245SOL    HW1 4634   5.349   4.565   0.463
 1245SOL    HW2 4635   5.289   4.418   0.425
 1246SOL     OW 4636   3.688   1.071   1.393
 1246SOL    HW1 4637   3.625   1.087   1.317
 1246SOL    HW2 4638   3.645   1.012   1.461
 1247SOL     OW 4639   0.081   6.699   5.456
 1247SOL    HW1 4640   0.064   6.768   5.527
 1247SOL    HW2 4641   7.012   6.676   5.410
 1248SOL     OW 4642   2.093   6.669   4.140
 1248SOL    HW1 4643   2.174   6.697   4.192
 1248SOL    HW2 4644   2.095   6.711   4.049
 1249SOL     OW 4645   6.830   2.414   1.987
 1249SOL    HW1 4646   6.843   2.370   2.076
 1249SOL    HW2 4647   6.767   2.491   1.996
 1250SOL     OW 4648   5.440   5.163   3.141
 1250SOL    HW1 4649   5.411   5.181   3.235
 1250SOL    HW2 4650   5.409   5.236   3.081
 1251SOL     OW 4651   2.455   1.314   3.100
 1251SOL    HW1 4652   2.473   1.237   3.038
 1251SOL    HW2 4653   2.377   1.366   3.066
 1252SOL     OW 4654   4.103   4.060   6.761
 1252SOL    HW1 4655   4.041   4.097   6.692
 1252SOL    HW2 4656   4.080   4.096   6.851
 1253SOL     OW 4657   3.189   6.410   2.210
 1253SOL    HW1 4658   3.269   6.411   2.149
 1253SOL    HW2 4659   3.130   6.487   2.189
 1254SOL     OW 4660   0.656   2.558   3.582
 1254SOL    HW1 4661   0.675   2.529   3.676
 1254SOL    HW2 4662   0.722   2.629   3.555
 1255SOL     OW 4663   5.782   1.293   5.918
 1255SOL    HW1 4664   5.820   1.201   5.906
 1255SOL    HW2 4665   5.683   1.288   5.924
 1256SOL     OW 4666   0.026   0.641   3.419
 1256SOL    HW1 4667   0.032   0.732   3.378
 1256SOL    HW2 4668   6.952   0.603   3.402
 1257SOL     OW 4669   0.084   5.190   4.817
 1257SOL    HW1 4670   0.038   5.191   4.906
 1257SOL    HW2 4671   0.183   5.191   4.831
 1258SOL     OW 4672   1.564   4.901   3.050
 1258SOL    HW1 4673   1.504   4.953   2.989
 1258SOL    HW2 4674   1.652   4.885   3.004
 1259SOL     OW 4675   3.307   0.530   4.501
 1259SOL    HW1 4676   3.222   0.493   4.464
 1259SOL    HW2 4677   3.345   0.467   4.569
 1260SOL     OW 4678   3.120   2.112   6.899
 1260SOL    HW1 4679   3.194   2.175   6.878
 1260SOL    HW2 4680   3.050   2.159   6.953
 1261SOL     OW 4681   6.553   5.361   6.847
 1261SOL    HW1 4682   6.484   5.292   6.823
 1261SOL    HW2 4683   6.531   5.400   6.936
 1262SOL     OW 4684   5.863   4.303   1.420
 1262SOL    HW1 4685   5.873   4.212   1.380
 1262SOL    HW2 4686   5.770   4.314   1.454
 1263SOL     OW 4687   6.920   1.742   1.232
 1263SOL    HW1 4688   6.876   1.827   1.206
 1263SOL    HW2 4689   6.937   1.686   1.151
 1264SOL     OW 4690   6.660   3.734   1.447
 1264SOL    HW1 4691   6.616   3.647   1.424
 1264SOL    HW2 4692   6.590   3.800   1.477
 1265SOL     OW 4693   4.950   5.862   4.022
 1265SOL    HW1 4694   4.886   5.936   4.043
 1265SOL    HW2 4695   4.988   5.875   3.931
 1266SOL     OW 4696   0.561   1.352   4.854
 1266SOL    HW1 4697   0.657   1.338   4.828
 1266SOL    HW2 4698   0.522   1.265   4.883
 1267SOL     OW 4699   4.979   6.363   1.067
 1267SOL    HW1 4700   4.963   6.462   1.065
 1267SOL    HW2 4701   4.907   6.319   1.121
 1268SOL     OW 4702   3.733   3.039   0.496
 1268SOL    HW1 4703   3.670   3.032   0.419
 1268SOL    HW2 4704   3.690   3.091   0.570
 1269SOL     OW 4705   5.574   5.356   4.725
 1269SOL    HW1 4706   5.616   5.444   4.701
 1269SOL    HW2 4707   5.487   5.372   4.773
 1270SOL     OW 4708   1.441   3.654   3.412
 1270SOL    HW1 4709   1.463   3.556   3.405
 1270SOL    HW2 4710   1.434   3.693   3.321
 1271SOL     OW 4711   2.741   2.203   3.372
 1271SOL    HW1 4712   2.704   2.126   3.423
 1271SOL    HW2 4713   2.743   2.180   3.274
 1272SOL     OW 4714   5.349   5.426   6.934
 1272SOL    HW1 4715   5.351   5.327   6.946
 1272SOL    HW2 4716   5.441   5.463   6.948
 1273SOL     OW 4717   0.256   3.930   0.259
 1273SOL    HW1 4718   0.249   3.968   0.352
 1273SOL    HW2 4719   0.209   3.842   0.256
 1274SOL     OW 4720   6.825   4.733   1.199
 1274SOL    HW1 4721   6.820   4.786   1.114
 1274SOL    HW2 4722   6.894   4.661   1.189
 1275SOL     OW 4723   3.857   1.982   4.979
 1275SOL    HW1 4724   3.946   1.939   4.973
 1275SOL    HW2 4725   3.800   1.953   4.903
 1276SOL     OW 4726   0.232   5.819   4.590
 1276SOL    HW1 4727   0.197   5.735   4.633
 1276SOL    HW2 4728   0.206   5.819   4.493
 1277SOL     OW 4729   1.437   5.859   6.352
 1277SOL    HW1 4730   1.481   5.887   6.437
 1277SOL    HW2 4731   1.504   5.853   6.279
 1278SOL     OW 4732   0.831   6.957   4.710
 1278SOL    HW1 4733   0.909   6.986   4.655
 1278SOL    HW2 4734   0.773   0.019   4.730
 1279SOL     OW 4735   2.846   6.297   0.442
 1279SOL    HW1 4736   2.856   6.207   0.399
 1279SOL    HW2 4737   2.832   6.285   0.540
 1280SOL     OW 4738   3.154   6.356   5.281
 1280SOL    HW1 4739   3.068   6.325   5.241
 1280SOL    HW2 4740   3.230   6.331   5.220
 1281SOL     OW 4741   1.758   6.530   3.561
 1281SOL    HW1 4742   1.830   6.461   3.564
 1281SOL    HW2 4743   1.724   6.547   3.653
 1282SOL     OW 4744   0.420   2.141   0.041
 1282SOL    HW1 4745   0.382   2.153   6.966
 1282SOL    HW2 4746   0.501   2.082   0.036
 1283SOL     OW 4747   0.709   2.985   5.640
 1283SOL    HW1 4748   0.773   2.938   5.579
 1283SOL    HW2 4749   0.621   2.938   5.640
 1284SOL     OW 4750   4.779   2.096   1.176
 1284SOL    HW1 4751   4.830   2.138   1.251
 1284SOL    HW2 4752   4.747   2.005   1.204
 1285SOL     OW 4753   4.560   2.040   6.421
 1285SOL    HW1 4754   4.620   1.974   6.466
 1285SOL    HW2 4755   4.495   1.993   6.362
 1286SOL     OW 4756   4.855   3.701   1.818
 1286SOL    HW1 4757   4.755   3.703   1.820
 1286SOL    HW2 4758   4.891   3.787   1.855
 1287SOL     OW 4759   5.915   5.992   5.106
 1287SOL    HW1 4760   5.914   5.893   5.121
 1287SOL    HW2 4761   5.823   6.029   5.122
 1288SOL     OW 4762   4.747   3.228   6.700
 1288SOL    HW1 4763   4.820   3.211   6.634
 1288SOL    HW2 4764   4.702   3.142   6.723
 1289SOL     OW 4765   1.129   6.103   1.776
 1289SOL    HW1 4766   1.124   6.162   1.696
 1289SOL    HW2 4767   1.074   6.021   1.761
 1290SOL     OW 4768   0.248   5.908   6.484
 1290SOL    HW1 4769   0.298   5.935   6.401
 1290SOL    HW2 4770   0.263   5.811   6.501
 1291SOL     OW 4771   0.427   3.602   4.997
 1291SOL    HW1 4772   0.381   3.691   5.001
 1291SOL    HW2 4773   0.447   3.571   5.090
 1292SOL     OW 4774   0.121   5.926   1.939
 1292SOL    HW1 4775   0.087   5.928   1.845
 1292SOL    HW2 4776   0.044   5.926   2.002
 1293SOL     OW 4777   1.061   2.001   0.435
 1293SOL    HW1 4778   1.023   1.909   0.429
 1293SOL    HW2 4779   1.131   2.004   0.507
 1294SOL     OW 4780   0.653   2.900   6.381
 1294SOL    HW1 4781   0.574   2.956   6.358
 1294SOL    HW2 4782   0.709   2.886   6.300
 1295SOL     OW 4783   0.099   3.507   1.998
 1295SOL    HW1 4784   0.170   3.459   1.947
 1295SOL    HW2 4785   0.047   3.565   1.935
 1296SOL     OW 4786   3.664   6.958   5.954
 1296SOL    HW1 4787   3.696   0.015   5.894
 1296SOL    HW2 4788   3.677   6.985   6.049
 1297SOL     OW 4789   6.615   0.910   1.536
 1297SOL    HW1 4790   6.680   0.982   1.513
 1297SOL    HW2 4791   6.637   0.871   1.625
 1298SOL     OW 4792   5.493   4.848   2.512
 1298SOL    HW1 4793   5.518   4.788   2.589
 1298SOL    HW2 4794   5.433   4.798   2.449
 1299SOL     OW 4795   1.313   3.979   2.947
 1299SOL    HW1 4796   1.310   4.076   2.969
 1299SOL    HW2 4797   1.247   3.930   3.003
 1300SOL     OW 4798   3.037   3.080   1.399
 1300SOL    HW1 4799   3.110   3.093   1.466
 1300SOL    HW2 4800   3.025   2.982   1.381
 1301SOL     OW 4801   0.959   6.342   1.278
 1301SOL    HW1 4802   0.945   6.441   1.282
 1301SOL    HW2 4803   0.874   6.296   1.305
 1302SOL     OW 4804   4.793   0.357   5.811
 1302SOL    HW1 4805   4.872   0.317   5.858
 1302SOL    HW2 4806   4.821   0.393   5.722
 1303SOL     OW 4807   4.609   2.133   1.663
 1303SOL    HW1 4808   4.547   2.120   1.741
 1303SOL    HW2 4809   4.700   2.098   1.687
 1304SOL     OW 4810   1.778   1.067   6.161
 1304SOL    HW1 4811   1.856   1.124   6.182
 1304SOL    HW2 4812   1.734   1.036   6.246
 1305SOL     OW 4813   5.215   3.399   0.486
 1305SOL    HW1 4814   5.302   3.412   0.532
 1305SOL    HW2 4815   5.160   3.482   0.493
 1306SOL     OW 4816   0.640   4.705   3.750
 1306SOL    HW1 4817   0.567   4.735   3.688
 1306SOL    HW2 4818   0.715   4.771   3.748
 1307SOL     OW 4819   0.625   4.535   3.996
 1307SOL    HW1 4820   0.631   4.618   3.941
 1307SOL    HW2 4821   0.534   4.531   4.040
 1308SOL     OW 4822   6.222   6.617   5.242
 1308SOL    HW1 4823   6.173   6.532   5.261
 1308SOL    HW2 4824   6.165   6.675   5.184
 1309SOL     OW 4825   5.746   3.527   4.952
 1309SOL    HW1 4826   5.716   3.435   4.929
 1309SOL    HW2 4827   5.668   3.590   4.947
 1310SOL     OW 4828   6.736   4.075   4.018
 1310SOL    HW1 4829   6.829   4.040   4.008
 1310SOL    HW2 4830   6.698   4.044   4.105
 1311SOL     OW 4831   0.671   6.543   4.852
 1311SOL    HW1 4832   0.718   6.574   4.770
 1311SOL    HW2 4833   0.574   6.566   4.846
 1312SOL     OW 4834   1.306   6.797   0.243
 1312SOL    HW1 4835   1.344   6.846   0.322
 1312SOL    HW2 4836   1.378   6.747   0.197
 1313SOL     OW 4837   0.312   4.203   3.568
 1313SOL    HW1 4838   0.282   4.117   3.526
 1313SOL    HW2 4839   0.412   4.203   3.574
 1314SOL     OW 4840   4.140   1.321   5.625
 1314SOL    HW1 4841   4.185   1.234   5.644
 1314SOL    HW2 4842   4.209   1.394   5.620
 1315SOL     OW 4843   0.056   1.182   1.654
 1315SOL    HW1 4844   0.011   1.254   1.707
 1315SOL    HW2 4845   7.009   1.144   1.588
 1316SOL     OW 4846   1.427   5.593   4.983
 1316SOL    HW1 4847   1.445   5.613   4.886
 1316SOL    HW2 4848   1.476   5.510   5.009
 1317SOL     OW 4849   2.252   4.743   6.421
 1317SOL    HW1 4850   2.337   4.700   6.450
 1317SOL    HW2 4851   2.175   4.681   6.441
 1318SOL     OW 4852   0.583   1.913   1.203
 1318SOL    HW1 4853   0.558   1.967   1.123
 1318SOL    HW2 4854   0.617   1.823   1.173
 1319SOL     OW 4855   6.877   0.120   0.377
 1319SOL    HW1 4856   6.817   0.043   0.353
 1319SOL    HW2 4857   6.962   0.113   0.326
 1320SOL     OW 4858   4.690   4.166   0.861
 1320SOL    HW1 4859   4.651   4.118   0.939
 1320SOL    HW2 4860   4.719   4.100   0.792
 1321SOL     OW 4861   5.790   1.219   6.699
 1321SOL    HW1 4862   5.834   1.291   6.752
 1321SOL    HW2 4863   5.729   1.167   6.759
 1322SOL     OW 4864   3.814   0.718   3.651
 1322SOL    HW1 4865   3.905   0.676   3.650
 1322SOL    HW2 4866   3.765   0.688   3.733
 1323SOL     OW 4867   4.800   0.760   5.483
 1323SOL    HW1 4868   4.722   0.821   5.468
 1323SOL    HW2 4869   4.784   0.673   5.438
 1324SOL     OW 4870   1.084   3.676   0.395
 1324SOL    HW1 4871   1.039   3.595   0.433
 1324SOL    HW2 4872   1.014   3.740   0.361
 1325SOL     OW 4873   2.074   0.485   2.956
 1325SOL    HW1 4874   2.035   0.451   2.871
 1325SOL    HW2 4875   2.126   0.412   3.001
 1326SOL     OW 4876   4.898   3.455   4.771
 1326SOL    HW1 4877   4.813   3.429   4.726
 1326SOL    HW2 4878   4.877   3.502   4.857
 1327SOL     OW 4879   0.763   5.588   2.007
 1327SOL    HW1 4880   0.828   5.530   2.056
 1327SOL    HW2 4881   0.808   5.672   1.979
 1328SOL     OW 4882   1.365   2.810   0.744
 1328SOL    HW1 4883   1.357   2.902   0.782
 1328SOL    HW2 4884   1.304   2.801   0.665
 1329SOL     OW 4885   0.262   2.485   1.716
 1329SOL    HW1 4886   0.297   2.576   1.738
 1329SOL    HW2 4887   0.205   2.491   1.634
 1330SOL     OW 4888   0.521   1.699   1.950
 1330SOL    HW1 4889   0.474   1.664   1.869
 1330SOL    HW2 4890   0.521   1.799   1.947
 1331SOL     OW 4891   4.981   2.648   2.830
 1331SOL    HW1 4892   4.925   2.730   2.818
 1331SOL    HW2 4893   4.922   2.569   2.841
 1332SOL     OW 4894   2.687   0.248   6.004
 1332SOL    HW1 4895   2.781   0.220   6.023
 1332SOL    HW2 4896   2.662   0.219   5.912
 1333SOL     OW 4897   3.651   3.863   4.802
 1333SOL    HW1 4898   3.670   3.958   4.776
 1333SOL    HW2 4899   3.605   3.816   4.726
 1334SOL     OW 4900   6.322   1.542   4.475
 1334SOL    HW1 4901   6.323   1.443   4.490
 1334SOL    HW2 4902   6.357   1.589   4.557
 1335SOL     OW 4903   1.942   2.149   3.290
 1335SOL    HW1 4904   1.878   2.199   3.232
 1335SOL    HW2 4905   2.012   2.106   3.233
 1336SOL     OW 4906   1.739   2.268   5.091
 1336SOL    HW1 4907   1.724   2.303   5.184
 1336SOL    HW2 4908   1.821   2.310   5.053
 1337SOL     OW 4909   2.055   2.359   4.647
 1337SOL    HW1 4910   2.142   2.324   4.683
 1337SOL    HW2 4911   2.044   2.329   4.552
 1338SOL     OW 4912   5.120   1.962   5.465
 1338SOL    HW1 4913   5.157   2.036   5.408
 1338SOL    HW2 4914   5.107   1.995   5.559
 1339SOL     OW 4915   6.888   2.031   6.261
 1339SOL    HW1 4916   6.935   2.006   6.345
 1339SOL    HW2 4917   6.790   2.042   6.280
 1340SOL     OW 4918   6.957   2.358   2.692
 1340SOL    HW1 4919   6.973   2.288   2.622
 1340SOL    HW2 4920   6.921   2.314   2.774
 1341SOL     OW 4921   5.506   6.866   6.063
 1341SOL    HW1 4922   5.490   6.964   6.072
 1341SOL    HW2 4923   5.534   6.829   6.152
 1342SOL     OW 4924   1.823   5.423   6.152
 1342SOL    HW1 4925   1.769   5.343   6.126
 1342SOL    HW2 4926   1.858   5.411   6.244
 1343SOL     OW 4927   4.544   5.861   3.125
 1343SOL    HW1 4928   4.474   5.928   3.100
 1343SOL    HW2 4929   4.553   5.857   3.224
 1344SOL     OW 4930   6.641   5.797   4.440
 1344SOL    HW1 4931   6.657   5.811   4.342
 1344SOL    HW2 4932   6.711   5.846   4.492
 1345SOL     OW 4933   1.613   0.654   2.807
 1345SOL    HW1 4934   1.633   0.611   2.719
 1345SOL    HW2 4935   1.633   0.589   2.880
 1346SOL     OW 4936   0.645   5.978   4.806
 1346SOL    HW1 4937   0.578   6.045   4.838
 1346SOL    HW2 4938   0.615   5.938   4.720
 1347SOL     OW 4939   6.413   6.517   4.505
 1347SOL    HW1 4940   6.408   6.473   4.595
 1347SOL    HW2 4941   6.326   6.506   4.458
 1348SOL     OW 4942   5.421   5.186   2.507
 1348SOL    HW1 4943   5.346   5.144   2.559
 1348SOL    HW2 4944   5.502   5.127   2.513
 1349SOL     OW 4945   4.681   2.581   5.776
 1349SOL    HW1 4946   4.743   2.659   5.775
 1349SOL    HW2 4947   4.734   2.496   5.766
 1350SOL     OW 4948   5.167   5.205   5.394
 1350SOL    HW1 4949   5.162   5.292   5.345
 1350SOL    HW2 4950   5.078   5.182   5.433
 1351SOL     OW 4951   6.057   1.909   3.519
 1351SOL    HW1 4952   5.978   1.847   3.523
 1351SOL    HW2 4953   6.086   1.931   3.612
 1352SOL     OW 4954   6.791   6.604   2.459
 1352SOL    HW1 4955   6.803   6.566   2.551
 1352SOL    HW2 4956   6.816   6.534   2.391
 1353SOL     OW 4957   0.485   3.124   0.385
 1353SOL    HW1 4958   0.480   3.028   0.414
 1353SOL    HW2 4959   0.525   3.179   0.459
 1354SOL     OW 4960   0.987   3.196   0.675
 1354SOL    HW1 4961   1.057   3.229   0.739
 1354SOL    HW2 4962   0.982   3.257   0.596
 1355SOL     OW 4963   6.868   2.443   5.042
 1355SOL    HW1 4964   6.897   2.420   4.949
 1355SOL    HW2 4965   6.900   2.373   5.106
 1356SOL     OW 4966   3.142   3.072   3.176
 1356SOL    HW1 4967   3.180   3.030   3.258
 1356SOL    HW2 4968   3.106   3.001   3.115
 1357SOL     OW 4969   1.385   2.927   5.418
 1357SOL    HW1 4970   1.357   2.835   5.393
 1357SOL    HW2 4971   1.483   2.929   5.437
 1358SOL     OW 4972   4.489   0.558   5.893
 1358SOL    HW1 4973   4.578   0.591   5.923
 1358SOL    HW2 4974   4.455   0.490   5.958
 1359SOL     OW 4975   5.652   4.050   1.724
 1359SOL    HW1 4976   5.574   4.064   1.786
 1359SOL    HW2 4977   5.623   4.068   1.630
 1360SOL     OW 4978   4.090   2.662   0.406
 1360SOL    HW1 4979   3.999   2.681   0.370
 1360SOL    HW2 4980   4.151   2.639   0.330
 1361SOL     OW 4981   0.098   5.508   5.084
 1361SOL    HW1 4982   0.019   5.470   5.038
 1361SOL    HW2 4983   0.143   5.575   5.025
 1362SOL     OW 4984   3.264   4.105   4.021
 1362SOL    HW1 4985   3.201   4.045   3.970
 1362SOL    HW2 4986   3.235   4.110   4.116
 1363SOL     OW 4987   6.951   5.819   3.224
 1363SOL    HW1 4988   0.010   5.773   3.269
 1363SOL    HW2 4989   6.978   5.844   3.131
 1364SOL     OW 4990   6.855   2.617   1.261
 1364SOL    HW1 4991   6.882   2.526   1.293
 1364SOL    HW2 4992   6.798   2.661   1.330
 1365SOL     OW 4993   1.054   2.670   6.175
 1365SOL    HW1 4994   1.120   2.742   6.156
 1365SOL    HW2 4995   1.018   2.635   6.089
 1366SOL     OW 4996   1.067   4.224   6.706
 1366SOL    HW1 4997   1.136   4.289   6.673
 1366SOL    HW2 4998   1.111   4.136   6.724
 1367SOL     OW 4999   2.007   0.104   2.849
 1367SOL    HW1 5000   1.937   0.034   2.854
 1367SOL    HW2 5001   2.087   0.075   2.902
 1368SOL     OW 5002   6.203   0.825   3.402
 1368SOL    HW1 5003   6.245   0.881   3.330
 1368SOL    HW2 5004   6.263   0.747   3.423
 1369SOL     OW 5005   2.412   0.038   1.814
 1369SOL    HW1 5006   2.312   0.039   1.805
 1369SOL    HW2 5007   2.453   0.084   1.735
 1370SOL     OW 5008   3.813   1.433   1.903
 1370SOL    HW1 5009   3.885   1.374   1.865
 1370SOL    HW2 5010   3.837   1.529   1.889
 1371SOL     OW 5011   6.362   1.280   4.080
 1371SOL    HW1 5012   6.267   1.305   4.095
 1371SOL    HW2 5013   6.395   1.224   4.155
 1372SOL     OW 5014   1.381   3.085   0.747
 1372SOL    HW1 5015   1.439   3.161   0.777
 1372SOL    HW2 5016   1.390   3.072   0.649
 1373SOL     OW 5017   4.874   2.347   6.776
 1373SOL    HW1 5018   4.879   2.277   6.703
 1373SOL    HW2 5019   4.793   2.330   6.832
 1374SOL     OW 5020   5.095   1.711   6.925
 1374SOL    HW1 5021   5.159   1.634   6.924
 1374SOL    HW2 5022   5.080   1.741   0.002
 1375SOL     OW 5023   0.513   4.077   6.407
 1375SOL    HW1 5024   0.514   4.091   6.506
 1375SOL    HW2 5025   0.496   3.981   6.387
 1376SOL     OW 5026   4.415   4.895   5.213
 1376SOL    HW1 5027   4.364   4.979   5.230
 1376SOL    HW2 5028   4.455   4.898   5.122
 1377SOL     OW 5029   0.720   3.516   5.744
 1377SOL    HW1 5030   0.663   3.441   5.709
 1377SOL    HW2 5031   0.681   3.551   5.829
 1378SOL     OW 5032   5.833   0.853   4.620
 1378SOL    HW1 5033   5.920   0.803   4.618
 1378SOL    HW2 5034   5.775   0.815   4.692
 1379SOL     OW 5035   3.658   6.788   3.140
 1379SOL    HW1 5036   3.573   6.737   3.133
 1379SOL    HW2 5037   3.679   6.830   3.052
 1380SOL     OW 5038   6.926   6.941   2.609
 1380SOL    HW1 5039   6.867   7.010   2.567
 1380SOL    HW2 5040   0.003   6.952   2.575
 1381SOL     OW 5041   5.762   2.321   6.832
 1381SOL    HW1 5042   5.739   2.271   6.916
 1381SOL    HW2 5043   5.751   2.261   6.753
 1382SOL     OW 5044   4.722   3.412   0.108
 1382SOL    HW1 5045   4.680   3.477   0.172
 1382SOL    HW2 5046   4.803   3.372   0.151
 1383SOL     OW 5047   0.707   0.313   2.248
 1383SOL    HW1 5048   0.730   0.249   2.322
 1383SOL    HW2 5049   0.614   0.346   2.260
 1384SOL     OW 5050   4.805   0.125   1.721
 1384SOL    HW1 5051   4.789   0.068   1.640
 1384SOL    HW2 5052   4.883   0.087   1.772
 1385SOL     OW 5053   1.787   3.933   3.657
 1385SOL    HW1 5054   1.770   3.900   3.564
 1385SOL    HW2 5055   1.699   3.945   3.704
 1386SOL     OW 5056   3.583   0.508   4.720
 1386SOL    HW1 5057   3.609   0.465   4.634
 1386SOL    HW2 5058   3.593   0.607   4.712
 1387SOL     OW 5059   3.410   5.598   2.205
 1387SOL    HW1 5060   3.464   5.530   2.155
 1387SOL    HW2 5061   3.317   5.564   2.217
 1388SOL     OW 5062   0.364   6.957   3.022
 1388SOL    HW1 5063   0.407   6.965   2.932
 1388SOL    HW2 5064   0.434   6.968   3.093
 1389SOL     OW 5065   6.250   1.197   3.766
 1389SOL    HW1 5066   6.152   1.213   3.758
 1389SOL    HW2 5067   6.266   1.115   3.821
 1390SOL     OW 5068   5.782   3.332   6.071
 1390SOL    HW1 5069   5.784   3.234   6.090
 1390SOL    HW2 5070   5.696   3.356   6.027
 1391SOL     OW 5071   6.227   6.987   5.367
 1391SOL    HW1 5072   6.161   0.043   5.387
 1391SOL    HW2 5073   6.195   6.901   5.406
 1392SOL     OW 5074   5.485   6.470   6.354
 1392SOL    HW1 5075   5.481   6.370   6.363
 1392SOL    HW2 5076   5.537   6.508   6.430
 1393SOL     OW 5077   6.690   3.535   5.937
 1393SOL    HW1 5078   6.779   3.512   5.898
 1393SOL    HW2 5079   6.697   3.618   5.992
 1394SOL     OW 5080   3.863   5.907   4.960
 1394SOL    HW1 5081   3.764   5.896   4.951
 1394SOL    HW2 5082   3.904   5.919   4.869
 1395SOL     OW 5083   1.725   4.339   4.066
 1395SOL    HW1 5084   1.686   4.289   3.989
 1395SOL    HW2 5085   1.785   4.279   4.119
 1396SOL     OW 5086   0.695   0.489   4.548
 1396SOL    HW1 5087   0.791   0.475   4.525
 1396SOL    HW2 5088   0.672   0.586   4.539
 1397SOL     OW 5089   0.661   5.684   4.410
 1397SOL    HW1 5090   0.746   5.637   4.386
 1397SOL    HW2 5091   0.583   5.629   4.380
 1398SOL     OW 5092   2.209   1.855   7.014
 1398SOL    HW1 5093   2.178   1.762   0.017
 1398SOL    HW2 5094   2.285   1.877   0.058
 1399SOL     OW 5095   3.722   6.757   0.272
 1399SOL    HW1 5096   3.699   6.677   0.328
 1399SOL    HW2 5097   3.651   6.772   0.204
 1400SOL     OW 5098   0.269   1.782   4.597
 1400SOL    HW1 5099   0.347   1.820   4.645
 1400SOL    HW2 5100   0.263   1.684   4.614
 1401SOL     OW 5101   5.890   0.007   4.525
 1401SOL    HW1 5102   5.957   6.961   4.564
 1401SOL    HW2 5103   5.804   6.975   4.509
 1402SOL     OW 5104   5.649   4.421   6.689
 1402SOL    HW1 5105   5.728   4.483   6.687
 1402SOL    HW2 5106   5.647   4.368   6.604
 1403SOL     OW 5107   1.897   2.047   1.289
 1403SOL    HW1 5108   1.857   2.127   1.333
 1403SOL    HW2 5109   1.968   2.076   1.224
 1404SOL     OW 5110   6.764   0.480   0.252
 1404SOL    HW1 5111   6.864   0.489   0.255
 1404SOL    HW2 5112   6.727   0.499   0.343
 1405SOL     OW 5113   2.714   4.145   1.125
 1405SOL    HW1 5114   2.625   4.188   1.117
 1405SOL    HW2 5115   2.705   4.059   1.175
 1406SOL     OW 5116   1.603   5.713   1.211
 1406SOL    HW1 5117   1.665   5.741   1.285
 1406SOL    HW2 5118   1.583   5.615   1.220
 1407SOL     OW 5119   1.444   4.102   3.281
 1407SOL    HW1 5120   1.355   4.148   3.277
 1407SOL    HW2 5121   1.516   4.167   3.256
 1408SOL     OW 5122   6.102   6.704   6.160
 1408SOL    HW1 5123   6.098   6.624   6.101
 1408SOL    HW2 5124   6.154   6.777   6.115
 1409SOL     OW 5125   0.863   0.300   5.186
 1409SOL    HW1 5126   0.861   0.224   5.250
 1409SOL    HW2 5127   0.917   0.375   5.224
 1410SOL     OW 5128   2.556   4.319   6.653
 1410SOL    HW1 5129   2.610   4.330   6.570
 1410SOL    HW2 5130   2.617   4.291   6.728
 1411SOL     OW 5131   3.600   6.536   0.373
 1411SOL    HW1 5132   3.550   6.493   0.448
 1411SOL    HW2 5133   3.634   6.465   0.311
 1412SOL     OW 5134   0.614   4.117   1.352
 1412SOL    HW1 5135   0.577   4.203   1.387
 1412SOL    HW2 5136   0.672   4.136   1.272
 1413SOL     OW 5137   2.317   1.539   4.548
 1413SOL    HW1 5138   2.273   1.524   4.637
 1413SOL    HW2 5139   2.381   1.615   4.555
 1414SOL     OW 5140   2.794   2.014   1.687
 1414SOL    HW1 5141   2.710   1.996   1.737
 1414SOL    HW2 5142   2.863   2.053   1.749
 1415SOL     OW 5143   3.168   1.526   4.067
 1415SOL    HW1 5144   3.150   1.431   4.041
 1415SOL    HW2 5145   3.249   1.530   4.126
 1416SOL     OW 5146   3.763   6.774   4.997
 1416SOL    HW1 5147   3.665   6.782   5.013
 1416SOL    HW2 5148   3.809   6.747   5.081
 1417SOL     OW 5149   3.114   2.667   6.640
 1417SOL    HW1 5150   3.067   2.721   6.710
 1417SOL    HW2 5151   3.053   2.651   6.563
 1418SOL     OW 5152   2.814   3.553   0.757
 1418SOL    HW1 5153   2.882   3.493   0.800
 1418SOL    HW2 5154   2.782   3.512   0.672
 1419SOL     OW 5155   3.226   5.820   3.920
 1419SOL    HW1 5156   3.181   5.762   3.987
 1419SOL    HW2 5157   3.186   5.804   3.830
 1420SOL     OW 5158   3.663   6.027   3.424
 1420SOL    HW1 5159   3.630   5.968   3.497
 1420SOL    HW2 5160   3.611   6.113   3.424
 1421SOL     OW 5161   0.655   4.151   4.062
 1421SOL    HW1 5162   0.585   4.085   4.036
 1421SOL    HW2 5163   0.664   4.152   4.161
 1422SOL     OW 5164   3.095   4.465   6.970
 1422SOL    HW1 5165   2.998   4.485   6.982
 1422SOL    HW2 5166   3.105   4.376   6.925
 1423SOL     OW 5167   3.925   0.766   4.331
 1423SOL    HW1 5168   3.932   0.791   4.428
 1423SOL    HW2 5169   4.015   0.779   4.288
 1424SOL     OW 5170   6.849   4.037   6.751
 1424SOL    HW1 5171   6.769   4.093   6.729
 1424SOL    HW2 5172   6.926   4.096   6.774
 1425SOL     OW 5173   2.268   5.463   5.157
 1425SOL    HW1 5174   2.314   5.526   5.094
 1425SOL    HW2 5175   2.267   5.502   5.249
 1426SOL     OW 5176   2.275   2.210   5.733
 1426SOL    HW1 5177   2.290   2.143   5.805
 1426SOL    HW2 5178   2.276   2.164   5.644
 1427SOL     OW 5179   6.821   6.698   3.660
 1427SOL    HW1 5180   6.876   6.782   3.659
 1427SOL    HW2 5181   6.880   6.619   3.643
 1428SOL     OW 5182   0.952   1.973   1.565
 1428SOL    HW1 5183   0.886   1.939   1.498
 1428SOL    HW2 5184   0.944   1.921   1.650
 1429SOL     OW 5185   5.966   1.737   0.364
 1429SOL    HW1 5186   6.012   1.815   0.323
 1429SOL    HW2 5187   5.873   1.762   0.389
 1430SOL     OW 5188   2.216   4.992   3.637
 1430SOL    HW1 5189   2.265   5.030   3.717
 1430SOL    HW2 5190   2.149   5.059   3.605
 1431SOL     OW 5191   2.605   2.874   6.378
 1431SOL    HW1 5192   2.600   2.815   6.298
 1431SOL    HW2 5193   2.625   2.819   6.459
 1432SOL     OW 5194   3.421   0.962   0.740
 1432SOL    HW1 5195   3.401   0.878   0.790
 1432SOL    HW2 5196   3.505   0.951   0.688
 1433SOL     OW 5197   4.414   0.326   5.019
 1433SOL    HW1 5198   4.452   0.290   5.105
 1433SOL    HW2 5199   4.451   0.276   4.942
 1434SOL     OW 5200   0.356   0.926   6.446
 1434SOL    HW1 5201   0.450   0.892   6.453
 1434SOL    HW2 5202   0.334   0.942   6.350
 1435SOL     OW 5203   6.790   0.155   3.129
 1435SOL    HW1 5204   6.700   0.198   3.119
 1435SOL    HW2 5205   6.783   0.058   3.104
 1436SOL     OW 5206   5.413   3.813   6.947
 1436SOL    HW1 5207   5.453   3.839   6.859
 1436SOL    HW2 5208   5.447   3.873   0.002
 1437SOL     OW 5209   3.590   1.577   6.173
 1437SOL    HW1 5210   3.615   1.588   6.269
 1437SOL    HW2 5211   3.492   1.593   6.162
 1438SOL     OW 5212   2.585   0.115   0.935
 1438SOL    HW1 5213   2.571   0.213   0.928
 1438SOL    HW2 5214   2.578   0.073   0.844
 1439SOL     OW 5215   0.317   5.104   0.559
 1439SOL    HW1 5216   0.218   5.087   0.559
 1439SOL    HW2 5217   0.357   5.067   0.475
 1440SOL     OW 5218   3.075   2.833   6.238
 1440SOL    HW1 5219   3.016   2.874   6.308
 1440SOL    HW2 5220   3.027   2.832   6.150
 1441SOL     OW 5221   5.769   3.772   4.203
 1441SOL    HW1 5222   5.869   3.762   4.203
 1441SOL    HW2 5223   5.728   3.700   4.260
 1442SOL     OW 5224   6.375   5.008   0.147
 1442SOL    HW1 5225   6.464   4.964   0.134
 1442SOL    HW2 5226   6.321   5.001   0.064
 1443SOL     OW 5227   1.164   2.748   4.763
 1443SOL    HW1 5228   1.173   2.688   4.683
 1443SOL    HW2 5229   1.067   2.757   4.787
 1444SOL     OW 5230   4.334   5.672   1.596
 1444SOL    HW1 5231   4.396   5.713   1.529
 1444SOL    HW2 5232   4.357   5.707   1.687
 1445SOL     OW 5233   6.865   2.740   2.280
 1445SOL    HW1 5234   6.886   2.659   2.335
 1445SOL    HW2 5235   6.794   2.718   2.213
 1446SOL     OW 5236   4.824   2.169   6.554
 1446SOL    HW1 5237   4.739   2.220   6.542
 1446SOL    HW2 5238   4.806   2.071   6.545
 1447SOL     OW 5239   6.158   6.748   5.479
 1447SOL    HW1 5240   6.137   6.673   5.542
 1447SOL    HW2 5241   6.206   6.712   5.399
 1448SOL     OW 5242   6.637   2.480   6.991
 1448SOL    HW1 5243   6.564   2.511   6.930
 1448SOL    HW2 5244   6.666   2.555   0.034
 1449SOL     OW 5245   6.470   0.935   0.138
 1449SOL    HW1 5246   6.427   0.972   0.221
 1449SOL    HW2 5247   6.568   0.919   0.156
 1450SOL     OW 5248   0.969   2.502   2.042
 1450SOL    HW1 5249   0.900   2.431   2.030
 1450SOL    HW2 5250   0.925   2.592   2.040
 1451SOL     OW 5251   3.161   0.993   2.706
 1451SOL    HW1 5252   3.216   0.955   2.632
 1451SOL    HW2 5253   3.127   1.083   2.679
 1452SOL     OW 5254   4.351   0.978   4.243
 1452SOL    HW1 5255   4.297   1.062   4.249
 1452SOL    HW2 5256   4.439   0.998   4.200
 1453SOL     OW 5257   0.262   3.333   5.394
 1453SOL    HW1 5258   0.220   3.421   5.415
 1453SOL    HW2 5259   0.204   3.282   5.330
 1454SOL     OW 5260   6.179   2.342   3.082
 1454SOL    HW1 5261   6.257   2.405   3.080
 1454SOL    HW2 5262   6.101   2.388   3.126
 1455SOL     OW 5263   1.124   0.494   1.368
 1455SOL    HW1 5264   1.163   0.568   1.314
 1455SOL    HW2 5265   1.111   0.414   1.309
 1456SOL     OW 5266   6.482   6.928   5.436
 1456SOL    HW1 5267   6.538   6.999   5.393
 1456SOL    HW2 5268   6.385   6.948   5.421
 1457SOL     OW 5269   1.270   0.352   1.565
 1457SOL    HW1 5270   1.205   0.402   1.507
 1457SOL    HW2 5271   1.363   0.386   1.548
 1458SOL     OW 5272   6.120   6.524   3.652
 1458SOL    HW1 5273   6.105   6.487   3.744
 1458SOL    HW2 5274   6.116   6.623   3.655
 1459SOL     OW 5275   2.396   5.417   5.457
 1459SOL    HW1 5276   2.371   5.339   5.400
 1459SOL    HW2 5277   2.325   5.487   5.451
 1460SOL     OW 5278   0.288   4.809   5.866
 1460SOL    HW1 5279   0.326   4.742   5.802
 1460SOL    HW2 5280   0.340   4.808   5.951
 1461SOL     OW 5281   0.494   5.129   3.555
 1461SOL    HW1 5282   0.582   5.110   3.598
 1461SOL    HW2 5283   0.421   5.116   3.621
 1462SOL     OW 5284   0.930   0.641   6.029
 1462SOL    HW1 5285   0.845   0.606   5.991
 1462SOL    HW2 5286   0.997   0.653   5.955
 1463SOL     OW 5287   0.539   5.156   0.118
 1463SOL    HW1 5288   0.560   5.244   0.075
 1463SOL    HW2 5289   0.492   5.097   0.054
 1464SOL     OW 5290   6.194   6.628   0.990
 1464SOL    HW1 5291   6.218   6.721   0.964
 1464SOL    HW2 5292   6.248   6.600   1.069
 1465SOL     OW 5293   1.565   1.547   3.970
 1465SOL    HW1 5294   1.531   1.604   4.045
 1465SOL    HW2 5295   1.488   1.522   3.910
 1466SOL     OW 5296   1.218   1.401   2.208
 1466SOL    HW1 5297   1.184   1.310   2.186
 1466SOL    HW2 5298   1.310   1.394   2.246
 1467SOL     OW 5299   2.103   2.110   1.946
 1467SOL    HW1 5300   2.135   2.105   2.040
 1467SOL    HW2 5301   2.176   2.083   1.884
 1468SOL     OW 5302   5.412   5.344   2.926
 1468SOL    HW1 5303   5.498   5.314   2.886
 1468SOL    HW2 5304   5.413   5.443   2.936
 1469SOL     OW 5305   1.061   1.548   1.842
 1469SOL    HW1 5306   1.112   1.617   1.792
 1469SOL    HW2 5307   1.112   1.461   1.840
 1470SOL     OW 5308   1.805   1.095   2.622
 1470SOL    HW1 5309   1.803   1.188   2.586
 1470SOL    HW2 5310   1.814   1.097   2.722
 1471SOL     OW 5311   0.898   0.186   0.674
 1471SOL    HW1 5312   0.888   0.283   0.694
 1471SOL    HW2 5313   0.829   0.159   0.607
 1472SOL     OW 5314   4.017   5.891   5.198
 1472SOL    HW1 5315   4.020   5.792   5.215
 1472SOL    HW2 5316   3.931   5.914   5.152
 1473SOL     OW 5317   5.591   6.143   3.609
 1473SOL    HW1 5318   5.594   6.215   3.678
 1473SOL    HW2 5319   5.587   6.054   3.654
 1474SOL     OW 5320   6.023   5.819   2.984
 1474SOL    HW1 5321   5.960   5.778   3.050
 1474SOL    HW2 5322   5.971   5.870   2.915
 1475SOL     OW 5323   6.422   0.368   1.653
 1475SOL    HW1 5324   6.400   0.397   1.746
 1475SOL    HW2 5325   6.341   0.375   1.595
 1476SOL     OW 5326   2.291   1.556   1.207
 1476SOL    HW1 5327   2.366   1.618   1.185
 1476SOL    HW2 5328   2.284   1.545   1.306
 1477SOL     OW 5329   3.315   0.842   6.760
 1477SOL    HW1 5330   3.324   0.760   6.703
 1477SOL    HW2 5331   3.244   0.827   6.828
 1478SOL     OW 5332   5.297   4.939   0.350
 1478SOL    HW1 5333   5.241   4.892   0.419
 1478SOL    HW2 5334   5.383   4.969   0.392
 1479SOL     OW 5335   1.508   3.335   6.811
 1479SOL    HW1 5336   1.467   3.323   6.902
 1479SOL    HW2 5337   1.436   3.330   6.742
 1480SOL     OW 5338   3.128   6.994   6.225
 1480SOL    HW1 5339   3.121   0.005   6.130
 1480SOL    HW2 5340   3.213   6.944   6.239
 1481SOL     OW 5341   0.278   2.621   5.261
 1481SOL    HW1 5342   0.241   2.544   5.208
 1481SOL    HW2 5343   0.338   2.586   5.332
 1482SOL     OW 5344   5.138   2.627   0.785
 1482SOL    HW1 5345   5.140   2.539   0.833
 1482SOL    HW2 5346   5.210   2.686   0.821
 1483SOL     OW 5347   5.837   1.792   5.819
 1483SOL    HW1 5348   5.838   1.833   5.728
 1483SOL    HW2 5349   5.910   1.832   5.875
 1484SOL     OW 5350   5.489   5.338   4.182
 1484SOL    HW1 5351   5.587   5.322   4.193
 1484SOL    HW2 5352   5.457   5.403   4.251
 1485SOL     OW 5353   3.414   1.628   3.247
 1485SOL    HW1 5354   3.396   1.532   3.268
 1485SOL    HW2 5355   3.360   1.685   3.309
 1486SOL     OW 5356   5.005   2.323   3.183
 1486SOL    HW1 5357   5.006   2.313   3.083
 1486SOL    HW2 5358   5.095   2.299   3.220
 1487SOL     OW 5359   6.596   2.777   6.736
 1487SOL    HW1 5360   6.650   2.767   6.652
 1487SOL    HW2 5361   6.516   2.835   6.717
 1488SOL     OW 5362   5.728   1.939   3.828
 1488SOL    HW1 5363   5.732   1.925   3.927
 1488SOL    HW2 5364   5.712   2.036   3.809
 1489SOL     OW 5365   3.977   5.089   3.655
 1489SOL    HW1 5366   3.921   5.023   3.705
 1489SOL    HW2 5367   4.070   5.088   3.691
 1490SOL     OW 5368   1.331   3.089   1.057
 1490SOL    HW1 5369   1.252   3.028   1.061
 1490SOL    HW2 5370   1.364   3.095   0.963
 1491SOL     OW 5371   6.566   3.844   3.709
 1491SOL    HW1 5372   6.652   3.796   3.727
 1491SOL    HW2 5373   6.508   3.841   3.791
 1492SOL     OW 5374   5.600   1.653   2.750
 1492SOL    HW1 5375   5.602   1.674   2.653
 1492SOL    HW2 5376   5.649   1.725   2.801
 1493SOL     OW 5377   4.661   0.303   3.976
 1493SOL    HW1 5378   4.721   0.248   4.035
 1493SOL    HW2 5379   4.596   0.354   4.033
 1494SOL     OW 5380   5.854   1.607   5.521
 1494SOL    HW1 5381   5.852   1.707   5.523
 1494SOL    HW2 5382   5.847   1.571   5.615
 1495SOL     OW 5383   6.600   2.517   5.073
 1495SOL    HW1 5384   6.689   2.472   5.066
 1495SOL    HW2 5385   6.604   2.607   5.029
 1496SOL     OW 5386   0.599   1.575   2.482
 1496SOL    HW1 5387   0.528   1.550   2.548
 1496SOL    HW2 5388   0.556   1.590   2.393
 1497SOL     OW 5389   6.674   3.024   3.694
 1497SOL    HW1 5390   6.740   2.971   3.747
 1497SOL    HW2 5391   6.582   2.994   3.715
 1498SOL     OW 5392   1.938   4.694   6.181
 1498SOL    HW1 5393   2.005   4.664   6.113
 1498SOL    HW2 5394   1.863   4.742   6.136
 1499SOL     OW 5395   0.996   3.504   6.471
 1499SOL    HW1 5396   1.088   3.511   6.431
 1499SOL    HW2 5397   0.960   3.596   6.487
 1500SOL     OW 5398   6.712   6.366   6.897
 1500SOL    HW1 5399   6.616   6.342   6.910
 1500SOL    HW2 5400   6.764   6.282   6.878
 1501SOL     OW 5401   5.568   1.894   5.874
 1501SOL    HW1 5402   5.641   1.891   5.806
 1501SOL    HW2 5403   5.607   1.892   5.966
 1502SOL     OW 5404   5.772   0.564   0.998
 1502SOL    HW1 5405   5.827   0.571   1.081
 1502SOL    HW2 5406   5.774   0.651   0.949
 1503SOL     OW 5407   2.401   1.930   2.198
 1503SOL    HW1 5408   2.435   2.020   2.170
 1503SOL    HW2 5409   2.464   1.860   2.166
 1504SOL     OW 5410   0.980   0.547   4.889
 1504SOL    HW1 5411   1.004   0.583   4.979
 1504SOL    HW2 5412   0.915   0.609   4.844
 1505SOL     OW 5413   6.015   0.431   5.715
 1505SOL    HW1 5414   6.038   0.511   5.770
 1505SOL    HW2 5415   6.099   0.391   5.678
 1506SOL     OW 5416   1.646   5.424   1.211
 1506SOL    HW1 5417   1.648   5.328   1.185
 1506SOL    HW2 5418   1.665   5.433   1.309
 1507SOL     OW 5419   0.487   1.699   5.379
 1507SOL    HW1 5420   0.487   1.648   5.293
 1507SOL    HW2 5421   0.516   1.639   5.454
 1508SOL     OW 5422   6.749   0.295   1.775
 1508SOL    HW1 5423   6.658   0.264   1.801
 1508SOL    HW2 5424   6.783   0.239   1.699
 1509SOL     OW 5425   4.589   2.633   6.013
 1509SOL    HW1 5426   4.660   2.628   6.083
 1509SOL    HW2 5427   4.625   2.602   5.926
 1510SOL     OW 5428   5.828   2.851   4.835
 1510SOL    HW1 5429   5.776   2.910   4.773
 1510SOL    HW2 5430   5.862   2.772   4.784
 1511SOL     OW 5431   3.521   3.317   1.460
 1511SOL    HW1 5432   3.583   3.347   1.532
 1511SOL    HW2 5433   3.509   3.217   1.466
 1512SOL     OW 5434   0.805   5.534   1.195
 1512SOL    HW1 5435   0.724   5.499   1.147
 1512SOL    HW2 5436   0.776   5.599   1.266
 1513SOL     OW 5437   3.162   0.554   3.611
 1513SOL    HW1 5438   3.262   0.542   3.612
 1513SOL    HW2 5439   3.129   0.548   3.517
 1514SOL     OW 5440   5.015   2.539   6.035
 1514SOL    HW1 5441   5.074   2.541   6.116
 1514SOL    HW2 5442   4.924   2.507   6.061
 1515SOL     OW 5443   5.813   2.756   5.085
 1515SOL    HW1 5444   5.731   2.699   5.094
 1515SOL    HW2 5445   5.811   2.804   4.998
 1516SOL     OW 5446   0.343   6.718   0.686
 1516SOL    HW1 5447   0.263   6.717   0.626
 1516SOL    HW2 5448   0.426   6.714   0.630
 1517SOL     OW 5449   4.073   6.229   3.490
 1517SOL    HW1 5450   3.983   6.201   3.457
 1517SOL    HW2 5451   4.090   6.324   3.463
 1518SOL     OW 5452   0.702   2.922   0.412
 1518SOL    HW1 5453   0.630   2.870   0.459
 1518SOL    HW2 5454   0.689   2.915   0.313
 1519SOL     OW 5455   6.241   5.032   1.825
 1519SOL    HW1 5456   6.327   4.998   1.789
 1519SOL    HW2 5457   6.215   4.977   1.905
 1520SOL     OW 5458   0.392   3.927   2.524
 1520SOL    HW1 5459   0.329   3.938   2.601
 1520SOL    HW2 5460   0.342   3.937   2.438
 1521SOL     OW 5461   2.155   4.108   0.354
 1521SOL    HW1 5462   2.207   4.071   0.277
 1521SOL    HW2 5463   2.216   4.126   0.431
 1522SOL     OW 5464   6.465   0.059   4.630
 1522SOL    HW1 5465   6.476   0.071   4.531
 1522SOL    HW2 5466   6.479   6.979   4.653
 1523SOL     OW 5467   5.107   4.261   0.193
 1523SOL    HW1 5468   5.169   4.244   0.117
 1523SOL    HW2 5469   5.149   4.228   0.278
 1524SOL     OW 5470   1.718   2.421   1.783
 1524SOL    HW1 5471   1.715   2.469   1.871
 1524SOL    HW2 5472   1.780   2.343   1.790
 1525SOL     OW 5473   6.715   2.213   0.007
 1525SOL    HW1 5474   6.713   2.309   6.997
 1525SOL    HW2 5475   6.781   2.163   6.968
 1526SOL     OW 5476   0.896   0.196   6.736
 1526SOL    HW1 5477   0.892   0.179   6.637
 1526SOL    HW2 5478   0.805   0.220   6.769
 1527SOL     OW 5479   3.877   0.662   5.882
 1527SOL    HW1 5480   3.890   0.603   5.801
 1527SOL    HW2 5481   3.858   0.755   5.852
 1528SOL     OW 5482   4.940   5.727   2.395
 1528SOL    HW1 5483   4.975   5.680   2.475
 1528SOL    HW2 5484   4.978   5.685   2.312
 1529SOL     OW 5485   3.917   0.187   0.738
 1529SOL    HW1 5486   4.013   0.158   0.748
 1529SOL    HW2 5487   3.909   0.284   0.760
 1530SOL     OW 5488   3.567   1.380   2.876
 1530SOL    HW1 5489   3.507   1.308   2.911
 1530SOL    HW2 5490   3.611   1.427   2.952
 1531SOL     OW 5491   5.475   0.937   4.779
 1531SOL    HW1 5492   5.452   0.852   4.734
 1531SOL    HW2 5493   5.452   1.014   4.720
 1532SOL     OW 5494   3.144   3.782   5.754
 1532SOL    HW1 5495   3.142   3.879   5.778
 1532SOL    HW2 5496   3.173   3.728   5.833
 1533SOL     OW 5497   6.884   3.120   0.067
 1533SOL    HW1 5498   6.812   3.163   0.122
 1533SOL    HW2 5499   6.866   3.022   0.058
 1534SOL     OW 5500   1.688   5.310   6.526
 1534SOL    HW1 5501   1.615   5.365   6.485
 1534SOL    HW2 5502   1.689   5.220   6.484
 1535SOL     OW 5503   5.015   6.187   4.684
 1535SOL    HW1 5504   5.084   6.136   4.735
 1535SOL    HW2 5505   4.951   6.122   4.642
 1536SOL     OW 5506   4.044   4.283   5.243
 1536SOL    HW1 5507   4.090   4.195   5.239
 1536SOL    HW2 5508   4.103   4.354   5.205
 1537SOL     OW 5509   3.859   6.173   3.347
 1537SOL    HW1 5510   3.838   6.179   3.249
 1537SOL    HW2 5511   3.808   6.097   3.387
 1538SOL     OW 5512   3.728   5.809   5.695
 1538SOL    HW1 5513   3.748   5.712   5.680
 1538SOL    HW2 5514   3.647   5.818   5.754
 1539SOL     OW 5515   4.148   3.709   1.903
 1539SOL    HW1 5516   4.188   3.745   1.988
 1539SOL    HW2 5517   4.187   3.619   1.884
 1540SOL     OW 5518   1.511   6.915   6.194
 1540SOL    HW1 5519   1.424   6.957   6.170
 1540SOL    HW2 5520   1.523   6.918   6.294
 1541SOL     OW 5521   3.568   2.896   2.545
 1541SOL    HW1 5522   3.516   2.980   2.563
 1541SOL    HW2 5523   3.551   2.831   2.619
 1542SOL     OW 5524   6.630   6.202   1.385
 1542SOL    HW1 5525   6.552   6.150   1.353
 1542SOL    HW2 5526   6.605   6.252   1.469
 1543SOL     OW 5527   3.472   3.804   3.803
 1543SOL    HW1 5528   3.506   3.876   3.864
 1543SOL    HW2 5529   3.375   3.789   3.819
 1544SOL     OW 5530   3.433   3.728   2.259
 1544SOL    HW1 5531   3.348   3.738   2.207
 1544SOL    HW2 5532   3.509   3.710   2.195
 1545SOL     OW 5533   5.104   0.783   4.606
 1545SOL    HW1 5534   5.105   0.735   4.694
 1545SOL    HW2 5535   5.057   0.727   4.538
 1546SOL     OW 5536   4.916   6.518   5.999
 1546SOL    HW1 5537   4.854   6.593   5.976
 1546SOL    HW2 5538   4.864   6.441   6.035
 1547SOL     OW 5539   1.863   3.951   3.160
 1547SOL    HW1 5540   1.765   3.933   3.173
 1547SOL    HW2 5541   1.892   3.912   3.073
 1548SOL     OW 5542   4.452   3.971   6.004
 1548SOL    HW1 5543   4.417   3.999   5.914
 1548SOL    HW2 5544   4.438   4.045   6.069
 1549SOL     OW 5545   4.386   1.294   2.815
 1549SOL    HW1 5546   4.312   1.341   2.767
 1549SOL    HW2 5547   4.365   1.197   2.822
 1550SOL     OW 5548   2.690   4.958   6.329
 1550SOL    HW1 5549   2.669   4.927   6.421
 1550SOL    HW2 5550   2.783   4.929   6.305
 1551SOL     OW 5551   2.674   4.001   6.856
 1551SOL    HW1 5552   2.575   4.000   6.846
 1551SOL    HW2 5553   2.717   3.975   6.769
 1552SOL     OW 5554   0.468   0.118   1.206
 1552SOL    HW1 5555   0.476   0.166   1.118
 1552SOL    HW2 5556   0.454   0.185   1.278
 1553SOL     OW 5557   6.837   0.694   5.631
 1553SOL    HW1 5558   6.846   0.598   5.655
 1553SOL    HW2 5559   6.879   0.710   5.542
 1554SOL     OW 5560   3.897   1.790   3.702
 1554SOL    HW1 5561   3.837   1.862   3.667
 1554SOL    HW2 5562   3.864   1.701   3.672
 1555SOL     OW 5563   5.205   1.757   6.668
 1555SOL    HW1 5564   5.142   1.757   6.746
 1555SOL    HW2 5565   5.156   1.725   6.586
 1556SOL     OW 5566   3.763   1.039   0.454
 1556SOL    HW1 5567   3.840   1.006   0.510
 1556SOL    HW2 5568   3.777   1.011   0.359
 1557SOL     OW 5569   2.227   1.478   6.422
 1557SOL    HW1 5570   2.251   1.446   6.330
 1557SOL    HW2 5571   2.311   1.501   6.472
 1558SOL     OW 5572   5.261   1.121   4.179
 1558SOL    HW1 5573   5.322   1.050   4.215
 1558SOL    HW2 5574   5.296   1.211   4.204
 1559SOL     OW 5575   6.950   2.476   6.935
 1559SOL    HW1 5576   6.922   2.562   6.893
 1559SOL    HW2 5577   6.915   2.471   0.011
 1560SOL     OW 5578   3.341   1.325   6.231
 1560SOL    HW1 5579   3.425   1.307   6.283
 1560SOL    HW2 5580   3.365   1.351   6.138
 1561SOL     OW 5581   6.451   6.491   2.609
 1561SOL    HW1 5582   6.412   6.414   2.659
 1561SOL    HW2 5583   6.550   6.488   2.613
 1562SOL     OW 5584   4.429   6.005   1.319
 1562SOL    HW1 5585   4.495   6.074   1.291
 1562SOL    HW2 5586   4.348   6.011   1.262
 1563SOL     OW 5587   2.645   0.792   6.009
 1563SOL    HW1 5588   2.599   0.873   6.045
 1563SOL    HW2 5589   2.734   0.819   5.971
 1564SOL     OW 5590   1.270   2.302   2.546
 1564SOL    HW1 5591   1.247   2.323   2.451
 1564SOL    HW2 5592   1.249   2.381   2.603
 1565SOL     OW 5593   4.130   5.698   4.259
 1565SOL    HW1 5594   4.076   5.682   4.342
 1565SOL    HW2 5595   4.120   5.621   4.197
 1566SOL     OW 5596   5.666   4.956   4.602
 1566SOL    HW1 5597   5.712   5.000   4.680
 1566SOL    HW2 5598   5.705   4.865   4.589
 1567SOL     OW 5599   6.502   6.024   6.893
 1567SOL    HW1 5600   6.507   5.995   6.798
 1567SOL    HW2 5601   6.512   6.123   6.899
 1568SOL     OW 5602   1.834   6.732   1.717
 1568SOL    HW1 5603   1.855   6.699   1.809
 1568SOL    HW2 5604   1.869   6.825   1.706
 1569SOL     OW 5605   3.045   0.220   3.682
 1569SOL    HW1 5606   3.120   0.278   3.651
 1569SOL    HW2 5607   2.960   0.274   3.682
 1570SOL     OW 5608   2.445   6.402   0.523
 1570SOL    HW1 5609   2.504   6.474   0.485
 1570SOL    HW2 5610   2.457   6.398   0.622
 1571SOL     OW 5611   6.325   1.676   3.021
 1571SOL    HW1 5612   6.290   1.620   3.096
 1571SOL    HW2 5613   6.286   1.768   3.027
 1572SOL     OW 5614   1.727   5.898   0.752
 1572SOL    HW1 5615   1.804   5.836   0.733
 1572SOL    HW2 5616   1.740   5.940   0.842
 1573SOL     OW 5617   6.290   3.879   1.841
 1573SOL    HW1 5618   6.360   3.820   1.800
 1573SOL    HW2 5619   6.264   3.950   1.775
 1574SOL     OW 5620   6.415   1.923   3.826
 1574SOL    HW1 5621   6.394   1.868   3.745
 1574SOL    HW2 5622   6.513   1.923   3.842
 1575SOL     OW 5623   2.439   1.937   1.476
 1575SOL    HW1 5624   2.535   1.911   1.482
 1575SOL    HW2 5625   2.427   2.002   1.402
 1576SOL     OW 5626   1.066   0.626   3.116
 1576SOL    HW1 5627   0.998   0.637   3.044
 1576SOL    HW2 5628   1.058   0.701   3.181
 1577SOL     OW 5629   2.576   0.528   5.831
 1577SOL    HW1 5630   2.558   0.511   5.927
 1577SOL    HW2 5631   2.614   0.620   5.820
 1578SOL     OW 5632   5.701   2.187   5.656
 1578SOL    HW1 5633   5.701   2.266   5.594
 1578SOL    HW2 5634   5.708   2.220   5.750
 1579SOL     OW 5635   6.925   2.018   2.200
 1579SOL    HW1 5636   6.875   1.984   2.120
 1579SOL    HW2 5637   6.990   1.948   2.230
 1580SOL     OW 5638   3.599   4.089   4.320
 1580SOL    HW1 5639   3.648   4.112   4.236
 1580SOL    HW2 5640   3.502   4.114   4.311
 1581SOL     OW 5641   5.962   4.311   4.698
 1581SOL    HW1 5642   5.871   4.305   4.657
 1581SOL    HW2 5643   5.984   4.225   4.743
 1582SOL     OW 5644   1.564   6.532   4.435
 1582SOL    HW1 5645   1.645   6.507   4.382
 1582SOL    HW2 5646   1.483   6.526   4.377
 1583SOL     OW 5647   0.699   6.148   2.819
 1583SOL    HW1 5648   0.795   6.125   2.804
 1583SOL    HW2 5649   0.645   6.064   2.824
 1584SOL     OW 5650   0.856   5.805   6.056
 1584SOL    HW1 5651   0.926   5.737   6.036
 1584SOL    HW2 5652   0.867   5.883   5.994
 1585SOL     OW 5653   4.059   1.863   2.910
 1585SOL    HW1 5654   4.069   1.851   2.811
 1585SOL    HW2 5655   4.015   1.951   2.928
 1586SOL     OW 5656   3.226   4.909   1.916
 1586SOL    HW1 5657   3.306   4.965   1.937
 1586SOL    HW2 5658   3.255   4.818   1.886
 1587SOL     OW 5659   2.706   5.846   5.721
 1587SOL    HW1 5660   2.661   5.936   5.722
 1587SOL    HW2 5661   2.641   5.777   5.688
 1588SOL     OW 5662   4.067   0.719   2.274
 1588SOL    HW1 5663   3.989   0.762   2.229
 1588SOL    HW2 5664   4.092   0.636   2.224
 1589SOL     OW 5665   0.026   3.128   2.140
 1589SOL    HW1 5666   0.045   3.031   2.156
 1589SOL    HW2 5667   0.065   3.154   2.051
 1590SOL     OW 5668   4.374   0.199   4.452
 1590SOL    HW1 5669   4.359   0.177   4.356
 1590SOL    HW2 5670   4.300   0.160   4.507
 1591SOL     OW 5671   0.168   5.374   1.170
 1591SOL    HW1 5672   0.213   5.300   1.221
 1591SOL    HW2 5673   0.235   5.442   1.143
 1592SOL     OW 5674   2.526   3.918   6.476
 1592SOL    HW1 5675   2.512   4.007   6.434
 1592SOL    HW2 5676   2.554   3.852   6.406
 1593SOL     OW 5677   0.884   6.810   5.603
 1593SOL    HW1 5678   0.929   6.735   5.651
 1593SOL    HW2 5679   0.918   6.897   5.639
 1594SOL     OW 5680   1.325   6.859   1.512
 1594SOL    HW1 5681   1.323   6.935   1.448
 1594SOL    HW2 5682   1.317   6.893   1.605
 1595SOL     OW 5683   1.630   4.964   0.754
 1595SOL    HW1 5684   1.530   4.970   0.751
 1595SOL    HW2 5685   1.667   5.042   0.803
 1596SOL     OW 5686   0.512   2.922   3.944
 1596SOL    HW1 5687   0.424   2.881   3.923
 1596SOL    HW2 5688   0.498   3.007   3.996
 1597SOL     OW 5689   1.163   6.319   0.315
 1597SOL    HW1 5690   1.098   6.317   0.391
 1597SOL    HW2 5691   1.246   6.366   0.344
 1598SOL     OW 5692   6.719   4.530   5.331
 1598SOL    HW1 5693   6.655   4.593   5.286
 1598SOL    HW2 5694   6.673   4.444   5.351
 1599SOL     OW 5695   5.135   5.610   4.753
 1599SOL    HW1 5696   5.035   5.618   4.757
 1599SOL    HW2 5697   5.168   5.560   4.834
 1600SOL     OW 5698   4.050   1.012   3.717
 1600SOL    HW1 5699   4.077   1.051   3.805
 1600SOL    HW2 5700   4.132   0.990   3.664
 1601SOL     OW 5701   7.012   6.269   4.372
 1601SOL    HW1 5702   0.054   6.321   4.310
 1601SOL    HW2 5703   0.051   6.207   4.427
 1602SOL     OW 5704   3.661   5.225   3.845
 1602SOL    HW1 5705   3.683   5.127   3.842
 1602SOL    HW2 5706   3.744   5.277   3.860
 1603SOL     OW 5707   1.890   6.613   2.978
 1603SOL    HW1 5708   1.812   6.587   3.035
 1603SOL    HW2 5709   1.961   6.653   3.036
 1604SOL     OW 5710   5.593   4.236   0.876
 1604SOL    HW1 5711   5.572   4.326   0.837
 1604SOL    HW2 5712   5.522   4.211   0.941
 1605SOL     OW 5713   6.805   5.325   1.712
 1605SOL    HW1 5714   6.819   5.422   1.733
 1605SOL    HW2 5715   6.868   5.297   1.639
 1606SOL     OW 5716   3.529   6.616   5.614
 1606SOL    HW1 5717   3.546   6.536   5.671
 1606SOL    HW2 5718   3.603   6.683   5.629
 1607SOL     OW 5719   4.540   1.223   0.829
 1607SOL    HW1 5720   4.583   1.137   0.803
 1607SOL    HW2 5721   4.593   1.266   0.902
 1608SOL     OW 5722   0.417   1.009   3.895
 1608SOL    HW1 5723   0.420   1.060   3.980
 1608SOL    HW2 5724   0.435   1.071   3.818
 1609SOL     OW 5725   4.863   6.768   6.974
 1609SOL    HW1 5726   4.771   6.804   6.991
 1609SOL    HW2 5727   4.929   6.842   6.984
 1610SOL     OW 5728   6.374   4.605   6.854
 1610SOL    HW1 5729   6.435   4.527   6.872
 1610SOL    HW2 5730   6.409   4.657   6.777
 1611SOL     OW 5731   2.315   3.916   0.154
 1611SOL    HW1 5732   2.337   3.840   0.091
 1611SOL    HW2 5733   2.392   3.980   0.155
 1612SOL     OW 5734   2.863   0.490   0.594
 1612SOL    HW1 5735   2.862   0.429   0.515
 1612SOL    HW2 5736   2.847   0.437   0.677
 1613SOL     OW 5737   1.367   5.861   2.277
 1613SOL    HW1 5738   1.302   5.882   2.350
 1613SOL    HW2 5739   1.338   5.907   2.193
 1614SOL     OW 5740   5.062   2.507   6.663
 1614SOL    HW1 5741   5.138   2.494   6.727
 1614SOL    HW2 5742   4.983   2.455   6.694
 1615SOL     OW 5743   5.896   5.634   0.607
 1615SOL    HW1 5744   5.796   5.643   0.609
 1615SOL    HW2 5745   5.923   5.591   0.521
 1616SOL     OW 5746   3.592   1.138   5.322
 1616SOL    HW1 5747   3.576   1.149   5.420
 1616SOL    HW2 5748   3.612   1.228   5.281
 1617SOL     OW 5749   5.556   6.902   2.728
 1617SOL    HW1 5750   5.495   6.825   2.706
 1617SOL    HW2 5751   5.542   6.975   2.662
 1618SOL     OW 5752   1.190   6.009   2.705
 1618SOL    HW1 5753   1.198   5.923   2.756
 1618SOL    HW2 5754   1.254   6.008   2.628
 1619SOL     OW 5755   0.777   4.098   1.575
 1619SOL    HW1 5756   0.707   4.067   1.511
 1619SOL    HW2 5757   0.808   4.190   1.548
 1620SOL     OW 5758   2.781   4.298   1.612
 1620SOL    HW1 5759   2.789   4.206   1.652
 1620SOL    HW2 5760   2.800   4.367   1.682
 1621SOL     OW 5761   6.604   1.333   0.616
 1621SOL    HW1 5762   6.518   1.283   0.629
 1621SOL    HW2 5763   6.653   1.338   0.703
 1622SOL     OW 5764   0.608   2.979   4.908
 1622SOL    HW1 5765   0.605   3.056   4.971
 1622SOL    HW2 5766   0.606   2.893   4.960
 1623SOL     OW 5767   1.585   2.854   4.745
 1623SOL    HW1 5768   1.660   2.864   4.810
 1623SOL    HW2 5769   1.542   2.765   4.756
 1624SOL     OW 5770   3.296   1.649   5.322
 1624SOL    HW1 5771   3.386   1.691   5.332
 1624SOL    HW2 5772   3.306   1.558   5.281
 1625SOL     OW 5773   1.417   4.588   0.373
 1625SOL    HW1 5774   1.480   4.595   0.449
 1625SOL    HW2 5775   1.466   4.601   0.287
 1626SOL     OW 5776   4.298   1.013   0.431
 1626SOL    HW1 5777   4.231   0.978   0.366
 1626SOL    HW2 5778   4.295   1.113   0.432
 1627SOL     OW 5779   6.297   2.954   3.430
 1627SOL    HW1 5780   6.245   3.024   3.382
 1627SOL    HW2 5781   6.262   2.863   3.405
 1628SOL     OW 5782   4.639   4.604   0.451
 1628SOL    HW1 5783   4.580   4.647   0.382
 1628SOL    HW2 5784   4.655   4.508   0.426
 1629SOL     OW 5785   3.255   0.848   3.816
 1629SOL    HW1 5786   3.354   0.842   3.808
 1629SOL    HW2 5787   3.224   0.791   3.893
 1630SOL     OW 5788   0.970   4.990   6.282
 1630SOL    HW1 5789   0.961   4.977   6.183
 1630SOL    HW2 5790   1.014   5.078   6.299
 1631SOL     OW 5791   0.940   2.961   0.568
 1631SOL    HW1 5792   0.868   2.983   0.501
 1631SOL    HW2 5793   0.970   3.045   0.612
 1632SOL     OW 5794   5.822   2.291   0.963
 1632SOL    HW1 5795   5.795   2.299   0.867
 1632SOL    HW2 5796   5.806   2.197   0.995
 1633SOL     OW 5797   5.292   3.825   4.686
 1633SOL    HW1 5798   5.245   3.791   4.768
 1633SOL    HW2 5799   5.390   3.810   4.695
 1634SOL     OW 5800   4.092   5.460   4.144
 1634SOL    HW1 5801   4.091   5.388   4.075
 1634SOL    HW2 5802   3.998   5.482   4.171
 1635SOL     OW 5803   0.066   5.016   6.931
 1635SOL    HW1 5804   0.115   5.077   6.869
 1635SOL    HW2 5805   0.058   5.060   0.004
 1636SOL     OW 5806   3.021   4.488   1.307
 1636SOL    HW1 5807   2.947   4.479   1.241
 1636SOL    HW2 5808   3.033   4.402   1.356
 1637SOL     OW 5809   0.107   0.787   2.863
 1637SOL    HW1 5810   0.172   0.794   2.939
 1637SOL    HW2 5811   0.014   0.800   2.898
 1638SOL     OW 5812   0.112   4.603   3.587
 1638SOL    HW1 5813   0.044   4.536   3.618
 1638SOL    HW2 5814   0.186   4.606   3.653
 1639SOL     OW 5815   5.365   6.418   1.796
 1639SOL    HW1 5816   5.368   6.318   1.790
 1639SOL    HW2 5817   5.311   6.454   1.720
 1640SOL     OW 5818   5.991   0.216   0.079
 1640SOL    HW1 5819   5.995   0.294   0.018
 1640SOL    HW2 5820   6.039   0.237   0.164
 1641SOL     OW 5821   4.459   1.724   3.062
 1641SOL    HW1 5822   4.474   1.683   3.151
 1641SOL    HW2 5823   4.406   1.662   3.004
 1642SOL     OW 5824   6.914   3.478   6.425
 1642SOL    HW1 5825   6.946   3.400   6.371
 1642SOL    HW2 5826   6.881   3.446   6.513
 1643SOL     OW 5827   2.507   5.102   4.760
 1643SOL    HW1 5828   2.514   5.004   4.777
 1643SOL    HW2 5829   2.599   5.142   4.759
 1644SOL     OW 5830   5.770   3.955   6.572
 1644SOL    HW1 5831   5.812   4.045   6.563
 1644SOL    HW2 5832   5.804   3.895   6.499
 1645SOL     OW 5833   3.347   5.051   6.737
 1645SOL    HW1 5834   3.330   5.109   6.657
 1645SOL    HW2 5835   3.288   5.080   6.812
 1646SOL     OW 5836   2.525   6.662   0.108
 1646SOL    HW1 5837   2.532   6.679   0.010
 1646SOL    HW2 5838   2.508   6.564   0.123
 1647SOL     OW 5839   5.921   3.358   4.356
 1647SOL    HW1 5840   5.938   3.268   4.397
 1647SOL    HW2 5841   5.870   3.347   4.271
 1648SOL     OW 5842   5.482   5.393   0.528
 1648SOL    HW1 5843   5.390   5.354   0.538
 1648SOL    HW2 5844   5.544   5.324   0.492
 1649SOL     OW 5845   3.578   1.553   3.727
 1649SOL    HW1 5846   3.557   1.482   3.794
 1649SOL    HW2 5847   3.504   1.559   3.660
 1650SOL     OW 5848   1.361   5.979   5.463
 1650SOL    HW1 5849   1.306   6.035   5.401
 1650SOL    HW2 5850   1.396   5.899   5.413
 1651SOL     OW 5851   0.388   2.010   1.578
 1651SOL    HW1 5852   0.486   2.006   1.598
 1651SOL    HW2 5853   0.337   2.030   1.662
 1652SOL     OW 5854   1.201   3.372   2.696
 1652SOL    HW1 5855   1.152   3.291   2.664
 1652SOL    HW2 5856   1.274   3.395   2.631
 1653SOL     OW 5857   0.700   7.012   0.256
 1653SOL    HW1 5858   0.777   0.056   0.275
 1653SOL    HW2 5859   0.727   6.942   0.190
 1654SOL     OW 5860   0.308   3.466   1.797
 1654SOL    HW1 5861   0.365   3.391   1.764
 1654SOL    HW2 5862   0.266   3.512   1.719
 1655SOL     OW 5863   0.475   1.897   4.744
 1655SOL    HW1 5864   0.500   1.923   4.837
 1655SOL    HW2 5865   0.547   1.928   4.681
 1656SOL     OW 5866   2.176   4.477   2.756
 1656SOL    HW1 5867   2.129   4.426   2.684
 1656SOL    HW2 5868   2.203   4.414   2.829
 1657SOL     OW 5869   6.719   0.996   4.074
 1657SOL    HW1 5870   6.747   0.906   4.039
 1657SOL    HW2 5871   6.759   1.011   4.164
 1658SOL     OW 5872   6.993   6.722   1.490
 1658SOL    HW1 5873   0.026   6.796   1.537
 1658SOL    HW2 5874   6.896   6.728   1.513
 1659SOL     OW 5875   3.760   0.050   6.993
 1659SOL    HW1 5876   3.670   0.039   0.018
 1659SOL    HW2 5877   3.798   6.977   6.970
 1660SOL     OW 5878   1.497   5.651   3.453
 1660SOL    HW1 5879   1.572   5.661   3.388
 1660SOL    HW2 5880   1.529   5.673   3.545
 1661SOL     OW 5881   3.074   6.857   1.060
 1661SOL    HW1 5882   3.011   6.907   1.119
 1661SOL    HW2 5883   3.115   6.920   0.994
 1662SOL     OW 5884   0.223   0.549   4.160
 1662SOL    HW1 5885   0.257   0.455   4.155
 1662SOL    HW2 5886   0.169   0.570   4.079
 1663SOL     OW 5887   4.536   6.547   3.359
 1663SOL    HW1 5888   4.492   6.540   3.449
 1663SOL    HW2 5889   4.477   6.600   3.298
 1664SOL     OW 5890   1.828   6.240   5.079
 1664SOL    HW1 5891   1.844   6.305   5.004
 1664SOL    HW2 5892   1.780   6.160   5.043
 1665SOL     OW 5893   0.211   2.435   2.750
 1665SOL    HW1 5894   0.234   2.440   2.653
 1665SOL    HW2 5895   0.129   2.379   2.762
 1666SOL     OW 5896   5.761   1.692   6.340
 1666SOL    HW1 5897   5.665   1.685   6.313
 1666SOL    HW2 5898   5.805   1.603   6.331
 1667SOL     OW 5899   0.134   6.097   0.776
 1667SOL    HW1 5900   0.224   6.137   0.792
 1667SOL    HW2 5901   0.112   6.101   0.678
 1668SOL     OW 5902   5.036   6.486   3.953
 1668SOL    HW1 5903   5.038   6.580   3.919
 1668SOL    HW2 5904   4.994   6.485   4.044
 1669SOL     OW 5905   6.621   5.024   6.515
 1669SOL    HW1 5906   6.536   4.988   6.555
 1669SOL    HW2 5907   6.621   5.123   6.521
 1670SOL     OW 5908   0.402   3.567   6.009
 1670SOL    HW1 5909   0.355   3.566   6.097
 1670SOL    HW2 5910   0.494   3.604   6.020
 1671SOL     OW 5911   5.098   1.316   2.948
 1671SOL    HW1 5912   5.070   1.220   2.950
 1671SOL    HW2 5913   5.027   1.372   2.991
 1672SOL     OW 5914   1.464   2.687   0.952
 1672SOL    HW1 5915   1.564   2.682   0.943
 1672SOL    HW2 5916   1.426   2.730   0.870
 1673SOL     OW 5917   1.271   1.198   4.713
 1673SOL    HW1 5918   1.346   1.246   4.666
 1673SOL    HW2 5919   1.217   1.264   4.765
 1674SOL     OW 5920   1.020   3.052   2.273
 1674SOL    HW1 5921   0.926   3.069   2.245
 1674SOL    HW2 5922   1.021   2.991   2.352
 1675SOL     OW 5923   5.372   6.976   0.441
 1675SOL    HW1 5924   5.433   6.975   0.362
 1675SOL    HW2 5925   5.406   0.023   0.510
 1676SOL     OW 5926   2.073   2.570   1.794
 1676SOL    HW1 5927   2.150   2.629   1.817
 1676SOL    HW2 5928   2.080   2.485   1.845
 1677SOL     OW 5929   3.611   3.444   4.054
 1677SOL    HW1 5930   3.642   3.351   4.034
 1677SOL    HW2 5931   3.683   3.495   4.101
 1678SOL     OW 5932   5.679   4.389   3.492
 1678SOL    HW1 5933   5.726   4.476   3.510
 1678SOL    HW2 5934   5.688   4.330   3.572
 1679SOL     OW 5935   2.414   2.531   4.452
 1679SOL    HW1 5936   2.319   2.530   4.422
 1679SOL    HW2 5937   2.436   2.620   4.493
 1680SOL     OW 5938   0.040   2.889   4.983
 1680SOL    HW1 5939   6.979   2.856   4.929
 1680SOL    HW2 5940   0.018   2.979   5.020
 1681SOL     OW 5941   0.015   5.506   6.724
 1681SOL    HW1 5942   6.935   5.528   6.737
 1681SOL    HW2 5943   0.023   5.435   6.654
 1682SOL     OW 5944   1.966   0.810   5.398
 1682SOL    HW1 5945   1.884   0.824   5.343
 1682SOL    HW2 5946   1.940   0.795   5.494
 1683SOL     OW 5947   4.480   4.654   1.739
 1683SOL    HW1 5948   4.500   4.629   1.645
 1683SOL    HW2 5949   4.504   4.750   1.754
 1684SOL     OW 5950   1.362   6.452   2.206
 1684SOL    HW1 5951   1.334   6.399   2.125
 1684SOL    HW2 5952   1.396   6.390   2.276
 1685SOL     OW 5953   2.671   1.316   4.823
 1685SOL    HW1 5954   2.705   1.392   4.877
 1685SOL    HW2 5955   2.697   1.230   4.867
 1686SOL     OW 5956   2.354   5.892   4.506
 1686SOL    HW1 5957   2.274   5.846   4.469
 1686SOL    HW2 5958   2.403   5.940   4.433
 1687SOL     OW 5959   2.145   3.107   2.034
 1687SOL    HW1 5960   2.218   3.085   1.970
 1687SOL    HW2 5961   2.058   3.077   1.997
 1688SOL     OW 5962   2.168   2.593   4.285
 1688SOL    HW1 5963   2.071   2.572   4.275
 1688SOL    HW2 5964   2.222   2.530   4.230
 1689SOL     OW 5965   5.929   1.181   2.931
 1689SOL    HW1 5966   5.934   1.272   2.972
 1689SOL    HW2 5967   5.947   1.112   3.001
 1690SOL     OW 5968   1.619   2.885   4.483
 1690SOL    HW1 5969   1.651   2.798   4.445
 1690SOL    HW2 5970   1.604   2.876   4.581
 1691SOL     OW 5971   5.740   3.670   3.324
 1691SOL    HW1 5972   5.681   3.698   3.400
 1691SOL    HW2 5973   5.707   3.710   3.239
 1692SOL     OW 5974   5.206   6.445   1.549
 1692SOL    HW1 5975   5.161   6.399   1.473
 1692SOL    HW2 5976   5.288   6.492   1.515
 1693SOL     OW 5977   6.556   1.987   2.178
 1693SOL    HW1 5978   6.523   2.081   2.190
 1693SOL    HW2 5979   6.586   1.951   2.267
 1694SOL     OW 5980   5.361   1.253   2.795
 1694SOL    HW1 5981   5.437   1.317   2.794
 1694SOL    HW2 5982   5.296   1.278   2.866
 1695SOL     OW 5983   4.024   0.580   6.316
 1695SOL    HW1 5984   3.992   0.552   6.407
 1695SOL    HW2 5985   4.102   0.641   6.325
 1696SOL     OW 5986   4.196   5.430   1.020
 1696SOL    HW1 5987   4.276   5.489   1.010
 1696SOL    HW2 5988   4.225   5.335   1.027
 1697SOL     OW 5989   6.163   0.981   0.693
 1697SOL    HW1 5990   6.110   0.928   0.760
 1697SOL    HW2 5991   6.124   0.969   0.602
 1698SOL     OW 5992   3.555   0.168   6.823
 1698SOL    HW1 5993   3.543   0.120   6.910
 1698SOL    HW2 5994   3.580   0.103   6.752
 1699SOL     OW 5995   2.596   1.334   6.693
 1699SOL    HW1 5996   2.573   1.403   6.761
 1699SOL    HW2 5997   2.582   1.371   6.601
 1700SOL     OW 5998   6.489   3.747   3.461
 1700SOL    HW1 5999   6.482   3.777   3.556
 1700SOL    HW2 6000   6.405   3.772   3.412
 1701SOL     OW 6001   5.004   4.390   5.613
 1701SOL    HW1 6002   4.937   4.419   5.681
 1701SOL    HW2 6003   5.086   4.447   5.620
 1702SOL     OW 6004   6.302   1.282   0.414
 1702SOL    HW1 6005   6.397   1.280   0.381
 1702SOL    HW2 6006   6.291   1.359   0.477
 1703SOL     OW 6007   3.741   2.698   0.746
 1703SOL    HW1 6008   3.740   2.612   0.694
 1703SOL    HW2 6009   3.736   2.775   0.682
 1704SOL     OW 6010   1.131   1.934   1.248
 1704SOL    HW1 6011   1.141   2.027   1.284
 1704SOL    HW2 6012   1.102   1.873   1.322
 1705SOL     OW 6013   2.929   2.209   2.366
 1705SOL    HW1 6014   2.990   2.150   2.313
 1705SOL    HW2 6015   2.873   2.263   2.303
 1706SOL     OW 6016   5.240   0.989   2.269
 1706SOL    HW1 6017   5.172   1.044   2.221
 1706SOL    HW2 6018   5.297   1.049   2.325
 1707SOL     OW 6019   4.823   1.959   1.727
 1707SOL    HW1 6020   4.819   1.959   1.827
 1707SOL    HW2 6021   4.885   1.888   1.696
 1708SOL     OW 6022   4.824   5.415   2.247
 1708SOL    HW1 6023   4.765   5.363   2.185
 1708SOL    HW2 6024   4.886   5.472   2.193
 1709SOL     OW 6025   3.004   6.218   2.324
 1709SOL    HW1 6026   2.933   6.227   2.253
 1709SOL    HW2 6027   3.085   6.269   2.296
 1710SOL     OW 6028   4.859   4.576   3.753
 1710SOL    HW1 6029   4.862   4.661   3.805
 1710SOL    HW2 6030   4.946   4.563   3.706
 1711SOL     OW 6031   1.475   4.208   4.247
 1711SOL    HW1 6032   1.460   4.208   4.346
 1711SOL    HW2 6033   1.560   4.159   4.226
 1712SOL     OW 6034   6.242   2.134   4.896
 1712SOL    HW1 6035   6.234   2.121   4.995
 1712SOL    HW2 6036   6.330   2.099   4.865
 1713SOL     OW 6037   4.876   2.552   1.645
 1713SOL    HW1 6038   4.883   2.574   1.742
 1713SOL    HW2 6039   4.790   2.503   1.628
 1714SOL     OW 6040   3.770   0.898   5.733
 1714SOL    HW1 6041   3.711   0.969   5.696
 1714SOL    HW2 6042   3.865   0.930   5.731
 1715SOL     OW 6043   1.055   5.658   3.002
 1715SOL    HW1 6044   1.071   5.667   3.100
 1715SOL    HW2 6045   0.965   5.696   2.980
 1716SOL     OW 6046   5.230   0.173   2.813
 1716SOL    HW1 6047   5.154   0.210   2.866
 1716SOL    HW2 6048   5.246   0.078   2.839
 1717SOL     OW 6049   2.658   6.167   6.168
 1717SOL    HW1 6050   2.731   6.138   6.230
 1717SOL    HW2 6051   2.696   6.221   6.094
 1718SOL     OW 6052   2.509   1.542   1.901
 1718SOL    HW1 6053   2.429   1.490   1.934
 1718SOL    HW2 6054   2.514   1.535   1.801
 1719SOL     OW 6055   2.438   3.034   1.368
 1719SOL    HW1 6056   2.384   3.099   1.315
 1719SOL    HW2 6057   2.396   2.943   1.364
 1720SOL     OW 6058   0.078   2.729   0.228
 1720SOL    HW1 6059   0.141   2.801   0.199
 1720SOL    HW2 6060   0.020   2.763   0.302
 1721SOL     OW 6061   2.015   0.256   1.743
 1721SOL    HW1 6062   2.076   0.203   1.803
 1721SOL    HW2 6063   2.065   0.284   1.661
 1722SOL     OW 6064   3.450   1.113   3.221
 1722SOL    HW1 6065   3.404   1.153   3.142
 1722SOL    HW2 6066   3.392   1.123   3.302
 1723SOL     OW 6067   5.704   2.184   1.980
 1723SOL    HW1 6068   5.714   2.266   2.037
 1723SOL    HW2 6069   5.674   2.210   1.889
 1724SOL     OW 6070   6.672   2.961   1.773
 1724SOL    HW1 6071   6.589   3.017   1.775
 1724SOL    HW2 6072   6.684   2.922   1.682
 1725SOL     OW 6073   2.414   4.960   6.525
 1725SOL    HW1 6074   2.344   4.897   6.491
 1725SOL    HW2 6075   2.403   4.972   6.624
 1726SOL     OW 6076   6.567   4.634   5.084
 1726SOL    HW1 6077   6.468   4.625   5.068
 1726SOL    HW2 6078   6.613   4.550   5.056
 1727SOL     OW 6079   3.425   2.917   3.861
 1727SOL    HW1 6080   3.459   2.842   3.805
 1727SOL    HW2 6081   3.326   2.926   3.849
 1728SOL     OW 6082   5.037   4.931   4.954
 1728SOL    HW1 6083   5.058   4.867   4.880
 1728SOL    HW2 6084   5.101   5.007   4.950
 1729SOL     OW 6085   2.263   4.448   3.262
 1729SOL    HW1 6086   2.319   4.525   3.290
 1729SOL    HW2 6087   2.168   4.465   3.288
 1730SOL     OW 6088   1.161   6.836   5.733
 1730SOL    HW1 6089   1.188   6.930   5.711
 1730SOL    HW2 6090   1.236   6.791   5.783
 1731SOL     OW 6091   0.202   3.979   3.463
 1731SOL    HW1 6092   0.212   3.879   3.470
 1731SOL    HW2 6093   0.192   4.005   3.367
 1732SOL     OW 6094   2.467   5.084   5.454
 1732SOL    HW1 6095   2.519   5.093   5.369
 1732SOL    HW2 6096   2.371   5.109   5.437
 1733SOL     OW 6097   1.680   4.948   2.077
 1733SOL    HW1 6098   1.777   4.966   2.064
 1733SOL    HW2 6099   1.645   4.898   1.997
 1734SOL     OW 6100   4.938   3.388   1.200
 1734SOL    HW1 6101   4.857   3.375   1.257
 1734SOL    HW2 6102   4.912   3.381   1.104
 1735SOL     OW 6103   4.899   5.243   0.358
 1735SOL    HW1 6104   4.937   5.233   0.266
 1735SOL    HW2 6105   4.802   5.219   0.356
 1736SOL     OW 6106   3.278   3.946   0.428
 1736SOL    HW1 6107   3.188   3.991   0.429
 1736SOL    HW2 6108   3.320   3.958   0.338
 1737SOL     OW 6109   3.808   1.353   4.150
 1737SOL    HW1 6110   3.843   1.276   4.097
 1737SOL    HW2 6111   3.826   1.438   4.101
 1738SOL     OW 6112   1.495   2.869   4.074
 1738SOL    HW1 6113   1.459   2.780   4.046
 1738SOL    HW2 6114   1.419   2.932   4.092
 1739SOL     OW 6115   0.175   1.560   5.448
 1739SOL    HW1 6116   0.178   1.658   5.467
 1739SOL    HW2 6117   0.113   1.515   5.512
 1740SOL     OW 6118   0.062   2.203   5.808
 1740SOL    HW1 6119   0.063   2.165   5.900
 1740SOL    HW2 6120   0.104   2.139   5.745
 1741SOL     OW 6121   2.189   0.686   3.922
 1741SOL    HW1 6122   2.127   0.607   3.925
 1741SOL    HW2 6123   2.270   0.667   3.977
 1742SOL     OW 6124   5.614   0.917   6.380
 1742SOL    HW1 6125   5.636   0.820   6.388
 1742SOL    HW2 6126   5.518   0.932   6.400
 1743SOL     OW 6127   0.900   2.223   2.134
 1743SOL    HW1 6128   0.927   2.143   2.188
 1743SOL    HW2 6129   0.954   2.227   2.050
 1744SOL     OW 6130   6.419   2.645   3.500
 1744SOL    HW1 6131   6.457   2.576   3.439
 1744SOL    HW2 6132   6.341   2.689   3.456
 1745SOL     OW 6133   5.465   5.432   2.418
 1745SOL    HW1 6134   5.466   5.411   2.320
 1745SOL    HW2 6135   5.418   5.359   2.467
 1746SOL     OW 6136   1.672   3.944   4.568
 1746SOL    HW1 6137   1.738   3.941   4.493
 1746SOL    HW2 6138   1.660   3.852   4.606
 1747SOL     OW 6139   4.509   1.178   3.353
 1747SOL    HW1 6140   4.576   1.193   3.280
 1747SOL    HW2 6141   4.461   1.092   3.338
 1748SOL     OW 6142   0.623   0.930   5.232
 1748SOL    HW1 6143   0.581   0.898   5.316
 1748SOL    HW2 6144   0.591   1.023   5.211
 1749SOL     OW 6145   2.253   6.821   5.214
 1749SOL    HW1 6146   2.200   6.901   5.245
 1749SOL    HW2 6147   2.215   6.788   5.128
 1750SOL     OW 6148   4.995   6.131   4.262
 1750SOL    HW1 6149   4.917   6.105   4.205
 1750SOL    HW2 6150   5.074   6.151   4.204
 1751SOL     OW 6151   3.902   6.965   4.409
 1751SOL    HW1 6152   3.898   0.044   4.381
 1751SOL    HW2 6153   3.813   6.923   4.398
 1752SOL     OW 6154   6.273   1.947   2.171
 1752SOL    HW1 6155   6.245   2.022   2.231
 1752SOL    HW2 6156   6.371   1.952   2.154
 1753SOL     OW 6157   6.306   0.942   1.264
 1753SOL    HW1 6158   6.207   0.945   1.275
 1753SOL    HW2 6159   6.329   0.894   1.179
 1754SOL     OW 6160   1.460   4.261   6.827
 1754SOL    HW1 6161   1.544   4.275   6.775
 1754SOL    HW2 6162   1.483   4.245   6.923
 1755SOL     OW 6163   0.221   6.194   1.498
 1755SOL    HW1 6164   0.136   6.246   1.494
 1755SOL    HW2 6165   0.295   6.254   1.531
 1756SOL     OW 6166   4.356   5.229   5.667
 1756SOL    HW1 6167   4.439   5.275   5.636
 1756SOL    HW2 6168   4.343   5.245   5.765
 1757SOL     OW 6169   2.261   5.222   4.717
 1757SOL    HW1 6170   2.336   5.173   4.762
 1757SOL    HW2 6171   2.241   5.306   4.767
 1758SOL     OW 6172   2.743   0.749   4.440
 1758SOL    HW1 6173   2.746   0.725   4.537
 1758SOL    HW2 6174   2.649   0.770   4.414
 1759SOL     OW 6175   1.401   6.310   5.071
 1759SOL    HW1 6176   1.442   6.338   5.158
 1759SOL    HW2 6177   1.373   6.391   5.020
 1760SOL     OW 6178   5.097   1.543   3.250
 1760SOL    HW1 6179   5.115   1.470   3.185
 1760SOL    HW2 6180   5.082   1.629   3.201
 1761SOL     OW 6181   6.960   0.791   1.081
 1761SOL    HW1 6182   6.985   0.697   1.105
 1761SOL    HW2 6183   6.999   0.853   1.149
 1762SOL     OW 6184   0.748   1.213   4.474
 1762SOL    HW1 6185   0.682   1.142   4.452
 1762SOL    HW2 6186   0.840   1.174   4.480
 1763SOL     OW 6187   1.052   4.070   4.318
 1763SOL    HW1 6188   1.017   4.105   4.231
 1763SOL    HW2 6189   1.004   3.985   4.341
 1764SOL     OW 6190   2.003   3.246   2.443
 1764SOL    HW1 6191   2.024   3.292   2.357
 1764SOL    HW2 6192   2.002   3.313   2.517
 1765SOL     OW 6193   3.788   0.741   1.539
 1765SOL    HW1 6194   3.855   0.813   1.525
 1765SOL    HW2 6195   3.741   0.722   1.453
 1766SOL     OW 6196   5.166   4.543   2.760
 1766SOL    HW1 6197   5.138   4.634   2.730
 1766SOL    HW2 6198   5.266   4.538   2.762
 1767SOL     OW 6199   0.740   3.690   2.537
 1767SOL    HW1 6200   0.729   3.783   2.571
 1767SOL    HW2 6201   0.691   3.680   2.451
 1768SOL     OW 6202   3.799   1.435   6.711
 1768SOL    HW1 6203   3.873   1.484   6.664
 1768SOL    HW2 6204   3.714   1.487   6.702
 1769SOL     OW 6205   4.696   1.254   6.413
 1769SOL    HW1 6206   4.713   1.317   6.489
 1769SOL    HW2 6207   4.715   1.160   6.443
 1770SOL     OW 6208   6.884   4.527   4.600
 1770SOL    HW1 6209   6.825   4.455   4.636
 1770SOL    HW2 6210   6.903   4.594   4.671
 1771SOL     OW 6211   2.106   5.430   0.735
 1771SOL    HW1 6212   2.017   5.389   0.716
 1771SOL    HW2 6213   2.175   5.359   0.741
 1772SOL     OW 6214   3.421   6.641   3.204
 1772SOL    HW1 6215   3.448   6.701   3.280
 1772SOL    HW2 6216   3.350   6.578   3.235
 1773SOL     OW 6217   2.794   3.303   5.874
 1773SOL    HW1 6218   2.772   3.207   5.894
 1773SOL    HW2 6219   2.838   3.308   5.785
 1774SOL     OW 6220   4.781   6.718   1.699
 1774SOL    HW1 6221   4.880   6.709   1.687
 1774SOL    HW2 6222   4.755   6.687   1.791
 1775SOL     OW 6223   1.681   4.818   5.290
 1775SOL    HW1 6224   1.765   4.861   5.259
 1775SOL    HW2 6225   1.693   4.718   5.290
 1776SOL     OW 6226   5.116   1.145   6.071
 1776SOL    HW1 6227   5.030   1.192   6.088
 1776SOL    HW2 6228   5.136   1.147   5.973
 1777SOL     OW 6229   3.288   6.110   5.897
 1777SOL    HW1 6230   3.376   6.128   5.941
 1777SOL    HW2 6231   3.215   6.152   5.951
 1778SOL     OW 6232   4.545   2.169   4.687
 1778SOL    HW1 6233   4.497   2.088   4.654
 1778SOL    HW2 6234   4.483   2.222   4.746
 1779SOL     OW 6235   4.064   1.362   4.795
 1779SOL    HW1 6236   4.024   1.453   4.786
 1779SOL    HW2 6237   4.078   1.341   4.892
 1780SOL     OW 6238   2.453   4.153   6.055
 1780SOL    HW1 6239   2.384   4.152   5.982
 1780SOL    HW2 6240   2.493   4.244   6.061
 1781SOL     OW 6241   4.943   5.239   3.985
 1781SOL    HW1 6242   4.947   5.142   3.962
 1781SOL    HW2 6243   4.848   5.270   3.988
 1782SOL     OW 6244   3.035   1.835   3.571
 1782SOL    HW1 6245   2.966   1.882   3.626
 1782SOL    HW2 6246   3.028   1.867   3.476
 1783SOL     OW 6247   2.321   3.392   5.926
 1783SOL    HW1 6248   2.251   3.376   5.856
 1783SOL    HW2 6249   2.277   3.410   6.014
 1784SOL     OW 6250   2.337   1.538   2.302
 1784SOL    HW1 6251   2.423   1.586   2.286
 1784SOL    HW2 6252   2.346   1.442   2.275
 1785SOL     OW 6253   5.792   6.149   3.218
 1785SOL    HW1 6254   5.863   6.082   3.238
 1785SOL    HW2 6255   5.702   6.108   3.233
 1786SOL     OW 6256   1.512   3.493   0.505
 1786SOL    HW1 6257   1.597   3.506   0.556
 1786SOL    HW2 6258   1.468   3.581   0.489
 1787SOL     OW 6259   2.442   1.193   5.107
 1787SOL    HW1 6260   2.436   1.286   5.069
 1787SOL    HW2 6261   2.357   1.144   5.088
 1788SOL     OW 6262   3.837   4.224   0.249
 1788SOL    HW1 6263   3.867   4.131   0.271
 1788SOL    HW2 6264   3.746   4.220   0.208
 1789SOL     OW 6265   5.499   2.899   2.411
 1789SOL    HW1 6266   5.455   2.965   2.472
 1789SOL    HW2 6267   5.429   2.842   2.367
 1790SOL     OW 6268   3.641   0.377   4.491
 1790SOL    HW1 6269   3.619   0.440   4.417
 1790SOL    HW2 6270   3.608   0.285   4.467
 1791SOL     OW 6271   6.630   1.239   4.512
 1791SOL    HW1 6272   6.710   1.179   4.511
 1791SOL    HW2 6273   6.617   1.276   4.604
 1792SOL     OW 6274   0.869   1.141   4.818
 1792SOL    HW1 6275   0.797   1.077   4.794
 1792SOL    HW2 6276   0.834   1.235   4.814
 1793SOL     OW 6277   6.306   0.916   3.704
 1793SOL    HW1 6278   6.254   0.875   3.779
 1793SOL    HW2 6279   6.246   0.927   3.625
 1794SOL     OW 6280   5.002   6.181   5.948
 1794SOL    HW1 6281   5.023   6.277   5.932
 1794SOL    HW2 6282   4.922   6.173   6.008
 1795SOL     OW 6283   6.253   5.268   1.944
 1795SOL    HW1 6284   6.352   5.267   1.962
 1795SOL    HW2 6285   6.226   5.183   1.899
 1796SOL     OW 6286   2.154   0.859   4.730
 1796SOL    HW1 6287   2.129   0.767   4.762
 1796SOL    HW2 6288   2.243   0.884   4.767
 1797SOL     OW 6289   1.406   6.808   5.517
 1797SOL    HW1 6290   1.489   6.793   5.570
 1797SOL    HW2 6291   1.361   6.720   5.501
 1798SOL     OW 6292   4.163   3.077   5.314
 1798SOL    HW1 6293   4.176   3.128   5.229
 1798SOL    HW2 6294   4.087   3.117   5.365
 1799SOL     OW 6295   5.759   2.768   6.611
 1799SOL    HW1 6296   5.821   2.845   6.625
 1799SOL    HW2 6297   5.723   2.770   6.518
 1800SOL     OW 6298   5.003   4.670   3.361
 1800SOL    HW1 6299   4.918   4.641   3.403
 1800SOL    HW2 6300   5.078   4.657   3.426
 1801SOL     OW 6301   1.337   1.540   3.028
 1801SOL    HW1 6302   1.345   1.483   3.110
 1801SOL    HW2 6303   1.245   1.580   3.024
 1802SOL     OW 6304   6.169   6.510   3.172
 1802SOL    HW1 6305   6.236   6.460   3.118
 1802SOL    HW2 6306   6.088   6.530   3.117
 1803SOL     OW 6307   6.696   6.505   2.064
 1803SOL    HW1 6308   6.749   6.582   2.030
 1803SOL    HW2 6309   6.752   6.451   2.127
 1804SOL     OW 6310   3.731   3.194   5.604
 1804SOL    HW1 6311   3.763   3.261   5.671
 1804SOL    HW2 6312   3.771   3.105   5.625
 1805SOL     OW 6313   1.145   4.649   6.154
 1805SOL    HW1 6314   1.109   4.677   6.065
 1805SOL    HW2 6315   1.080   4.587   6.198
 1806SOL     OW 6316   0.966   2.321   1.718
 1806SOL    HW1 6317   0.898   2.334   1.646
 1806SOL    HW2 6318   1.055   2.353   1.686
 1807SOL     OW 6319   6.341   2.197   6.312
 1807SOL    HW1 6320   6.294   2.110   6.302
 1807SOL    HW2 6321   6.297   2.251   6.384
 1808SOL     OW 6322   5.517   4.620   4.316
 1808SOL    HW1 6323   5.583   4.629   4.391
 1808SOL    HW2 6324   5.425   4.617   4.354
 1809SOL     OW 6325   2.407   2.386   5.245
 1809SOL    HW1 6326   2.452   2.398   5.157
 1809SOL    HW2 6327   2.368   2.473   5.275
 1810SOL     OW 6328   1.327   0.091   4.473
 1810SOL    HW1 6329   1.285   0.001   4.457
 1810SOL    HW2 6330   1.286   0.133   4.554
 1811SOL     OW 6331   4.696   4.765   2.792
 1811SOL    HW1 6332   4.692   4.667   2.808
 1811SOL    HW2 6333   4.687   4.783   2.694
 1812SOL     OW 6334   5.076   6.752   6.180
 1812SOL    HW1 6335   5.111   6.663   6.210
 1812SOL    HW2 6336   4.976   6.749   6.178
 1813SOL     OW 6337   5.058   5.250   1.586
 1813SOL    HW1 6338   5.005   5.220   1.506
 1813SOL    HW2 6339   5.076   5.171   1.645
 1814SOL     OW 6340   6.102   0.559   0.863
 1814SOL    HW1 6341   6.015   0.512   0.850
 1814SOL    HW2 6342   6.177   0.501   0.832
 1815SOL     OW 6343   6.213   0.328   2.895
 1815SOL    HW1 6344   6.160   0.255   2.938
 1815SOL    HW2 6345   6.177   0.345   2.803
 1816SOL     OW 6346   2.715   5.022   0.349
 1816SOL    HW1 6347   2.716   4.946   0.413
 1816SOL    HW2 6348   2.794   5.081   0.366
 1817SOL     OW 6349   4.014   0.476   3.229
 1817SOL    HW1 6350   4.073   0.540   3.278
 1817SOL    HW2 6351   3.935   0.526   3.193
 1818SOL     OW 6352   2.097   6.587   1.069
 1818SOL    HW1 6353   2.190   6.602   1.103
 1818SOL    HW2 6354   2.031   6.612   1.140
 1819SOL     OW 6355   1.573   6.751   1.828
 1819SOL    HW1 6356   1.648   6.741   1.764
 1819SOL    HW2 6357   1.544   6.847   1.831
 1820SOL     OW 6358   3.605   0.529   2.728
 1820SOL    HW1 6359   3.538   0.588   2.682
 1820SOL    HW2 6360   3.643   0.465   2.661
 1821SOL     OW 6361   2.607   1.101   1.467
 1821SOL    HW1 6362   2.615   1.003   1.487
 1821SOL    HW2 6363   2.524   1.137   1.510
 1822SOL     OW 6364   0.699   2.474   1.526
 1822SOL    HW1 6365   0.628   2.541   1.503
 1822SOL    HW2 6366   0.681   2.437   1.617
 1823SOL     OW 6367   3.127   6.291   3.029
 1823SOL    HW1 6368   3.089   6.253   2.944
 1823SOL    HW2 6369   3.205   6.235   3.059
 1824SOL     OW 6370   4.125   4.126   0.559
 1824SOL    HW1 6371   4.213   4.081   0.541
 1824SOL    HW2 6372   4.134   4.188   0.637
 1825SOL     OW 6373   0.684   2.215   4.447
 1825SOL    HW1 6374   0.612   2.253   4.505
 1825SOL    HW2 6375   0.695   2.273   4.366
 1826SOL     OW 6376   3.175   1.911   1.453
 1826SOL    HW1 6377   3.250   1.864   1.407
 1826SOL    HW2 6378   3.210   1.958   1.534
 1827SOL     OW 6379   6.507   5.213   1.275
 1827SOL    HW1 6380   6.511   5.280   1.201
 1827SOL    HW2 6381   6.418   5.217   1.320
 1828SOL     OW 6382   1.261   2.634   6.894
 1828SOL    HW1 6383   1.204   2.615   6.815
 1828SOL    HW2 6384   1.354   2.656   6.864
 1829SOL     OW 6385   4.249   0.968   3.069
 1829SOL    HW1 6386   4.276   0.984   2.974
 1829SOL    HW2 6387   4.155   0.934   3.072
 1830SOL     OW 6388   5.731   5.952   4.809
 1830SOL    HW1 6389   5.714   5.975   4.713
 1830SOL    HW2 6390   5.822   5.983   4.835
 1831SOL     OW 6391   5.861   6.150   2.160
 1831SOL    HW1 6392   5.914   6.136   2.077
 1831SOL    HW2 6393   5.801   6.229   2.149
 1832SOL     OW 6394   4.462   1.624   0.724
 1832SOL    HW1 6395   4.550   1.655   0.760
 1832SOL    HW2 6396   4.476   1.545   0.665
 1833SOL     OW 6397   5.514   0.469   1.860
 1833SOL    HW1 6398   5.480   0.445   1.769
 1833SOL    HW2 6399   5.447   0.444   1.929
 1834SOL     OW 6400   1.975   3.935   0.522
 1834SOL    HW1 6401   1.888   3.960   0.480
 1834SOL    HW2 6402   2.050   3.981   0.475
 1835SOL     OW 6403   0.220   5.013   1.887
 1835SOL    HW1 6404   0.181   5.101   1.913
 1835SOL    HW2 6405   0.319   5.015   1.903
 1836SOL     OW 6406   5.408   2.627   1.556
 1836SOL    HW1 6407   5.396   2.722   1.586
 1836SOL    HW2 6408   5.403   2.566   1.634
 1837SOL     OW 6409   1.238   7.013   5.421
 1837SOL    HW1 6410   1.190   6.993   5.335
 1837SOL    HW2 6411   1.240   6.931   5.478
 1838SOL     OW 6412   6.395   0.879   5.186
 1838SOL    HW1 6413   6.377   0.854   5.282
 1838SOL    HW2 6414   6.486   0.846   5.161
 1839SOL     OW 6415   0.516   1.181   5.203
 1839SOL    HW1 6416   0.494   1.193   5.106
 1839SOL    HW2 6417   0.431   1.185   5.257
 1840SOL     OW 6418   3.891   0.024   2.024
 1840SOL    HW1 6419   3.829   6.972   1.985
 1840SOL    HW2 6420   3.838   0.102   2.057
 1841SOL     OW 6421   2.678   1.095   3.190
 1841SOL    HW1 6422   2.599   1.072   3.133
 1841SOL    HW2 6423   2.735   1.014   3.202
 1842SOL     OW 6424   1.486   6.038   1.242
 1842SOL    HW1 6425   1.560   6.067   1.302
 1842SOL    HW2 6426   1.493   6.086   1.154
 1843SOL     OW 6427   6.074   0.493   4.786
 1843SOL    HW1 6428   6.017   0.414   4.810
 1843SOL    HW2 6429   6.031   0.576   4.820
 1844SOL     OW 6430   3.494   6.830   5.033
 1844SOL    HW1 6431   3.418   6.767   5.023
 1844SOL    HW2 6432   3.464   6.911   5.083
 1845SOL     OW 6433   2.378   6.706   4.576
 1845SOL    HW1 6434   2.366   6.796   4.616
 1845SOL    HW2 6435   2.475   6.681   4.578
 1846SOL     OW 6436   3.764   1.215   2.391
 1846SOL    HW1 6437   3.854   1.257   2.379
 1846SOL    HW2 6438   3.706   1.276   2.445
 1847SOL     OW 6439   1.614   6.874   5.754
 1847SOL    HW1 6440   1.677   6.905   5.826
 1847SOL    HW2 6441   1.569   6.953   5.713
 1848SOL     OW 6442   2.226   6.235   2.968
 1848SOL    HW1 6443   2.313   6.276   2.942
 1848SOL    HW2 6444   2.172   6.216   2.886
 1849SOL     OW 6445   4.571   2.571   1.305
 1849SOL    HW1 6446   4.590   2.639   1.376
 1849SOL    HW2 6447   4.625   2.592   1.223
 1850SOL     OW 6448   6.911   2.514   2.449
 1850SOL    HW1 6449   6.960   2.451   2.389
 1850SOL    HW2 6450   6.909   2.476   2.542
 1851SOL     OW 6451   0.569   3.424   6.958
 1851SOL    HW1 6452   0.493   3.367   6.928
 1851SOL    HW2 6453   0.633   3.369   7.013
 1852SOL     OW 6454   0.018   4.705   2.785
 1852SOL    HW1 6455   0.069   4.639   2.839
 1852SOL    HW2 6456   0.067   4.723   2.699
 1853SOL     OW 6457   6.762   2.603   3.320
 1853SOL    HW1 6458   6.746   2.595   3.418
 1853SOL    HW2 6459   6.804   2.692   3.300
 1854SOL     OW 6460   1.909   5.577   2.958
 1854SOL    HW1 6461   1.969   5.522   2.900
 1854SOL    HW2 6462   1.890   5.664   2.912
 1855SOL     OW 6463   5.870   3.794   5.254
 1855SOL    HW1 6464   5.907   3.735   5.326
 1855SOL    HW2 6465   5.785   3.756   5.219
 1856SOL     OW 6466   5.028   3.260   5.715
 1856SOL    HW1 6467   5.075   3.246   5.627
 1856SOL    HW2 6468   5.093   3.291   5.783
 1857SOL     OW 6469   3.821   2.011   0.343
 1857SOL    HW1 6470   3.743   2.001   0.405
 1857SOL    HW2 6471   3.902   1.969   0.385
 1858SOL     OW 6472   5.533   3.331   3.122
 1858SOL    HW1 6473   5.565   3.294   3.035
 1858SOL    HW2 6474   5.609   3.334   3.187
 1859SOL     OW 6475   4.879   2.005   3.648
 1859SOL    HW1 6476   4.948   2.077   3.661
 1859SOL    HW2 6477   4.907   1.944   3.575
 1860SOL     OW 6478   0.254   1.208   4.924
 1860SOL    HW1 6479   0.334   1.149   4.910
 1860SOL    HW2 6480   0.219   1.237   4.835
 1861SOL     OW 6481   5.721   0.505   2.560
 1861SOL    HW1 6482   5.723   0.600   2.530
 1861SOL    HW2 6483   5.730   0.501   2.660
 1862SOL     OW 6484   2.569   0.334   6.264
 1862SOL    HW1 6485   2.623   0.261   6.222
 1862SOL    HW2 6486   2.552   0.406   6.196
 1863SOL     OW 6487   0.086   2.786   3.689
 1863SOL    HW1 6488   0.012   2.730   3.651
 1863SOL    HW2 6489   0.136   2.830   3.614
 1864SOL     OW 6490   2.922   5.955   4.829
 1864SOL    HW1 6491   2.882   6.027   4.773
 1864SOL    HW2 6492   3.021   5.966   4.832
 1865SOL     OW 6493   3.868   0.452   0.165
 1865SOL    HW1 6494   3.883   0.361   0.204
 1865SOL    HW2 6495   3.879   0.520   0.238
 1866SOL     OW 6496   6.425   4.710   3.600
 1866SOL    HW1 6497   6.481   4.693   3.519
 1866SOL    HW2 6498   6.334   4.739   3.572
 1867SOL     OW 6499   1.665   4.067   1.433
 1867SOL    HW1 6500   1.621   4.157   1.440
 1867SOL    HW2 6501   1.598   4.000   1.402
 1868SOL     OW 6502   5.016   3.122   6.551
 1868SOL    HW1 6503   4.977   3.042   6.505
 1868SOL    HW2 6504   5.109   3.101   6.582
 1869SOL     OW 6505   6.525   3.131   4.525
 1869SOL    HW1 6506   6.567   3.149   4.614
 1869SOL    HW2 6507   6.529   3.033   4.506
 1870SOL     OW 6508   1.156   3.368   5.103
 1870SOL    HW1 6509   1.168   3.278   5.061
 1870SOL    HW2 6510   1.228   3.382   5.171
 1871SOL     OW 6511   0.300   0.511   0.510
 1871SOL    HW1 6512   0.275   0.428   0.560
 1871SOL    HW2 6513   0.310   0.489   0.413
 1872SOL     OW 6514   4.667   2.079   0.158
 1872SOL    HW1 6515   4.581   2.109   0.200
 1872SOL    HW2 6516   4.666   1.979   0.149
 1873SOL     OW 6517   5.928   0.647   5.920
 1873SOL    HW1 6518   5.866   0.645   5.998
 1873SOL    HW2 6519   6.010   0.699   5.943
 1874SOL     OW 6520   1.659   1.203   6.664
 1874SOL    HW1 6521   1.629   1.260   6.740
 1874SOL    HW2 6522   1.676   1.260   6.584
 1875SOL     OW 6523   6.371   0.431   0.769
 1875SOL    HW1 6524   6.363   0.336   0.799
 1875SOL    HW2 6525   6.467   0.461   0.777
 1876SOL     OW 6526   3.727   5.662   6.288
 1876SOL    HW1 6527   3.676   5.613   6.358
 1876SOL    HW2 6528   3.698   5.629   6.198
 1877SOL     OW 6529   1.400   1.786   3.527
 1877SOL    HW1 6530   1.303   1.764   3.522
 1877SOL    HW2 6531   1.454   1.702   3.517
 1878SOL     OW 6532   6.862   2.890   3.868
 1878SOL    HW1 6533   6.828   2.811   3.919
 1878SOL    HW2 6534   6.933   2.935   3.921
 1879SOL     OW 6535   2.388   6.353   4.037
 1879SOL    HW1 6536   2.296   6.376   4.005
 1879SOL    HW2 6537   2.398   6.254   4.039
 1880SOL     OW 6538   0.083   1.952   3.116
 1880SOL    HW1 6539   0.077   1.872   3.176
 1880SOL    HW2 6540   0.094   2.035   3.171
 1881SOL     OW 6541   1.307   1.481   3.878
 1881SOL    HW1 6542   1.221   1.432   3.862
 1881SOL    HW2 6543   1.288   1.578   3.893
 1882SOL     OW 6544   1.031   4.673   6.781
 1882SOL    HW1 6545   1.104   4.740   6.796
 1882SOL    HW2 6546   1.062   4.603   6.718
 1883SOL     OW 6547   0.942   3.433   3.343
 1883SOL    HW1 6548   0.881   3.472   3.411
 1883SOL    HW2 6549   1.037   3.442   3.373
 1884SOL     OW 6550   5.959   2.555   1.107
 1884SOL    HW1 6551   5.882   2.493   1.117
 1884SOL    HW2 6552   6.026   2.514   1.044
 1885SOL     OW 6553   0.236   2.078   0.222
 1885SOL    HW1 6554   0.217   2.159   0.278
 1885SOL    HW2 6555   0.304   2.101   0.152
 1886SOL     OW 6556   2.777   1.613   0.711
 1886SOL    HW1 6557   2.713   1.577   0.779
 1886SOL    HW2 6558   2.825   1.693   0.750
 1887SOL     OW 6559   0.331   4.625   5.645
 1887SOL    HW1 6560   0.242   4.580   5.637
 1887SOL    HW2 6561   0.397   4.561   5.684
 1888SOL     OW 6562   3.284   1.878   6.420
 1888SOL    HW1 6563   3.291   1.949   6.490
 1888SOL    HW2 6564   3.202   1.823   6.436
 1889SOL     OW 6565   5.900   2.272   6.005
 1889SOL    HW1 6566   5.920   2.369   6.017
 1889SOL    HW2 6567   5.858   2.236   6.088
 1890SOL     OW 6568   1.293   5.350   5.283
 1890SOL    HW1 6569   1.225   5.421   5.268
 1890SOL    HW2 6570   1.349   5.373   5.362
 1891SOL     OW 6571   5.503   3.408   4.339
 1891SOL    HW1 6572   5.470   3.477   4.275
 1891SOL    HW2 6573   5.428   3.380   4.399
 1892SOL     OW 6574   3.906   0.421   0.854
 1892SOL    HW1 6575   3.853   0.387   0.932
 1892SOL    HW2 6576   3.978   0.482   0.887
 1893SOL     OW 6577   3.346   1.645   5.632
 1893SOL    HW1 6578   3.413   1.672   5.702
 1893SOL    HW2 6579   3.260   1.692   5.649
 1894SOL     OW 6580   3.827   3.995   2.288
 1894SOL    HW1 6581   3.766   4.036   2.221
 1894SOL    HW2 6582   3.904   3.951   2.241
 1895SOL     OW 6583   5.229   1.025   2.638
 1895SOL    HW1 6584   5.294   1.101   2.645
 1895SOL    HW2 6585   5.139   1.061   2.614
 1896SOL     OW 6586   0.614   0.272   3.158
 1896SOL    HW1 6587   0.599   0.276   3.257
 1896SOL    HW2 6588   0.643   0.362   3.125
 1897SOL     OW 6589   0.706   5.138   2.392
 1897SOL    HW1 6590   0.803   5.138   2.419
 1897SOL    HW2 6591   0.650   5.166   2.470
 1898SOL     OW 6592   3.173   5.033   2.155
 1898SOL    HW1 6593   3.113   4.999   2.228
 1898SOL    HW2 6594   3.182   4.963   2.084
 1899SOL     OW 6595   0.799   2.188   2.583
 1899SOL    HW1 6596   0.899   2.196   2.583
 1899SOL    HW2 6597   0.769   2.145   2.498
 1900SOL     OW 6598   1.300   0.210   5.046
 1900SOL    HW1 6599   1.326   0.285   5.107
 1900SOL    HW2 6600   1.208   0.227   5.010
 1901SOL     OW 6601   2.386   1.294   1.515
 1901SOL    HW1 6602   2.442   1.363   1.471
 1901SOL    HW2 6603   2.339   1.334   1.593
 1902SOL     OW 6604   2.549   2.554   4.805
 1902SOL    HW1 6605   2.475   2.614   4.836
 1902SOL    HW2 6606   2.605   2.604   4.738
 1903SOL     OW 6607   6.588   4.232   3.811
 1903SOL    HW1 6608   6.622   4.191   3.896
 1903SOL    HW2 6609   6.491   4.254   3.821
 1904SOL     OW 6610   6.269   6.352   4.148
 1904SOL    HW1 6611   6.238   6.264   4.183
 1904SOL    HW2 6612   6.218   6.426   4.192
 1905SOL     OW 6613   1.787   1.105   4.496
 1905SOL    HW1 6614   1.879   1.143   4.487
 1905SOL    HW2 6615   1.779   1.022   4.440
 1906SOL     OW 6616   2.995   0.075   5.130
 1906SOL    HW1 6617   3.006   0.151   5.194
 1906SOL    HW2 6618   3.076   0.017   5.134
 1907SOL     OW 6619   3.395   0.089   3.287
 1907SOL    HW1 6620   3.492   0.090   3.314
 1907SOL    HW2 6621   3.370   7.014   3.257
 1908SOL     OW 6622   4.336   0.735   4.941
 1908SOL    HW1 6623   4.327   0.649   4.892
 1908SOL    HW2 6624   4.412   0.788   4.901
 1909SOL     OW 6625   1.188   4.229   2.561
 1909SOL    HW1 6626   1.148   4.292   2.627
 1909SOL    HW2 6627   1.126   4.152   2.546
 1910SOL     OW 6628   0.273   2.529   6.762
 1910SOL    HW1 6629   0.282   2.626   6.787
 1910SOL    HW2 6630   0.231   2.479   6.838
 1911SOL     OW 6631   6.092   3.075   5.786
 1911SOL    HW1 6632   6.170   3.050   5.729
 1911SOL    HW2 6633   6.073   3.172   5.776
 1912SOL     OW 6634   3.687   0.062   1.125
 1912SOL    HW1 6635   3.591   0.054   1.155
 1912SOL    HW2 6636   3.704   7.015   1.050
 1913SOL     OW 6637   1.134   5.690   5.505
 1913SOL    HW1 6638   1.191   5.771   5.486
 1913SOL    HW2 6639   1.045   5.702   5.463
 1914SOL     OW 6640   3.447   2.674   6.777
 1914SOL    HW1 6641   3.482   2.636   6.863
 1914SOL    HW2 6642   3.355   2.710   6.791
 1915SOL     OW 6643   3.706   1.745   5.594
 1915SOL    HW1 6644   3.752   1.725   5.681
 1915SOL    HW2 6645   3.735   1.679   5.525
 1916SOL     OW 6646   3.133   6.317   1.151
 1916SOL    HW1 6647   3.103   6.405   1.189
 1916SOL    HW2 6648   3.222   6.293   1.189
 1917SOL     OW 6649   3.039   3.113   4.288
 1917SOL    HW1 6650   3.080   3.130   4.199
 1917SOL    HW2 6651   3.062   3.021   4.319
 1918SOL     OW 6652   0.899   1.058   0.184
 1918SOL    HW1 6653   0.858   1.141   0.223
 1918SOL    HW2 6654   0.844   1.026   0.108
 1919SOL     OW 6655   2.444   0.368   1.605
 1919SOL    HW1 6656   2.470   0.392   1.698
 1919SOL    HW2 6657   2.518   0.392   1.542
 1920SOL     OW 6658   1.127   5.112   2.969
 1920SOL    HW1 6659   1.051   5.061   3.009
 1920SOL    HW2 6660   1.158   5.181   3.033
 1921SOL     OW 6661   1.550   4.185   0.065
 1921SOL    HW1 6662   1.649   4.182   0.075
 1921SOL    HW2 6663   1.506   4.148   0.146
 1922SOL     OW 6664   3.049   4.161   0.883
 1922SOL    HW1 6665   3.029   4.181   0.979
 1922SOL    HW2 6666   2.997   4.224   0.824
 1923SOL     OW 6667   3.324   0.999   5.996
 1923SOL    HW1 6668   3.270   0.934   5.941
 1923SOL    HW2 6669   3.279   1.012   6.084
 1924SOL     OW 6670   5.219   5.065   1.766
 1924SOL    HW1 6671   5.289   5.130   1.738
 1924SOL    HW2 6672   5.219   5.055   1.865
 1925SOL     OW 6673   2.590   3.380   0.913
 1925SOL    HW1 6674   2.582   3.374   0.813
 1925SOL    HW2 6675   2.573   3.474   0.942
 1926SOL     OW 6676   1.331   6.749   2.901
 1926SOL    HW1 6677   1.279   6.742   2.815
 1926SOL    HW2 6678   1.344   6.846   2.923
 1927SOL     OW 6679   3.301   5.041   6.203
 1927SOL    HW1 6680   3.318   4.944   6.218
 1927SOL    HW2 6681   3.211   5.053   6.161
 1928SOL     OW 6682   0.074   3.645   5.761
 1928SOL    HW1 6683   0.141   3.706   5.719
 1928SOL    HW2 6684   7.003   3.656   5.716
 1929SOL     OW 6685   0.908   5.933   1.746
 1929SOL    HW1 6686   0.962   5.850   1.736
 1929SOL    HW2 6687   0.812   5.909   1.758
 1930SOL     OW 6688   3.291   3.982   6.860
 1930SOL    HW1 6689   3.361   3.911   6.857
 1930SOL    HW2 6690   3.310   4.044   6.936
 1931SOL     OW 6691   6.880   2.942   2.451
 1931SOL    HW1 6692   6.905   3.032   2.414
 1931SOL    HW2 6693   6.866   2.878   2.376
 1932SOL     OW 6694   4.868   3.456   3.221
 1932SOL    HW1 6695   4.844   3.367   3.181
 1932SOL    HW2 6696   4.864   3.526   3.150
 1933SOL     OW 6697   2.400   4.443   0.880
 1933SOL    HW1 6698   2.426   4.367   0.938
 1933SOL    HW2 6699   2.394   4.413   0.785
 1934SOL     OW 6700   1.032   0.282   4.977
 1934SOL    HW1 6701   0.975   0.289   5.059
 1934SOL    HW2 6702   1.018   0.362   4.920
 1935SOL     OW 6703   3.489   6.596   4.651
 1935SOL    HW1 6704   3.401   6.643   4.653
 1935SOL    HW2 6705   3.498   6.546   4.565
 1936SOL     OW 6706   6.439   3.815   3.959
 1936SOL    HW1 6707   6.361   3.841   4.016
 1936SOL    HW2 6708   6.477   3.728   3.991
 1937SOL     OW 6709   4.892   0.188   0.755
 1937SOL    HW1 6710   4.988   0.177   0.729
 1937SOL    HW2 6711   4.883   0.264   0.819
 1938SOL     OW 6712   2.477   1.018   1.739
 1938SOL    HW1 6713   2.434   1.023   1.829
 1938SOL    HW2 6714   2.560   1.074   1.739
 1939SOL     OW 6715   0.195   0.301   4.701
 1939SOL    HW1 6716   0.132   0.315   4.625
 1939SOL    HW2 6717   0.276   0.251   4.668
 1940SOL     OW 6718   4.468   4.608   6.911
 1940SOL    HW1 6719   4.556   4.560   6.914
 1940SOL    HW2 6720   4.481   4.704   6.935
 1941SOL     OW 6721   0.221   4.428   3.408
 1941SOL    HW1 6722   0.227   4.336   3.448
 1941SOL    HW2 6723   0.176   4.489   3.473
 1942SOL     OW 6724   5.041   0.229   1.540
 1942SOL    HW1 6725   5.015   0.292   1.613
 1942SOL    HW2 6726   5.120   0.265   1.491
 1943SOL     OW 6727   2.310   6.342   2.120
 1943SOL    HW1 6728   2.320   6.247   2.089
 1943SOL    HW2 6729   2.392   6.394   2.095
 1944SOL     OW 6730   5.873   2.667   0.403
 1944SOL    HW1 6731   5.857   2.762   0.375
 1944SOL    HW2 6732   5.790   2.614   0.392
 1945SOL     OW 6733   3.305   5.706   1.681
 1945SOL    HW1 6734   3.356   5.720   1.597
 1945SOL    HW2 6735   3.273   5.794   1.716
 1946SOL     OW 6736   6.610   0.241   1.448
 1946SOL    HW1 6737   6.552   0.271   1.523
 1946SOL    HW2 6738   6.691   0.196   1.484
 1947SOL     OW 6739   4.417   6.921   5.182
 1947SOL    HW1 6740   4.448   6.972   5.102
 1947SOL    HW2 6741   4.391   6.829   5.154
 1948SOL     OW 6742   5.667   5.407   3.846
 1948SOL    HW1 6743   5.570   5.429   3.856
 1948SOL    HW2 6744   5.701   5.443   3.759
 1949SOL     OW 6745   3.299   4.371   6.689
 1949SOL    HW1 6746   3.238   4.316   6.746
 1949SOL    HW2 6747   3.266   4.368   6.594
 1950SOL     OW 6748   4.167   4.331   0.759
 1950SOL    HW1 6749   4.115   4.321   0.844
 1950SOL    HW2 6750   4.123   4.399   0.701
 1951SOL     OW 6751   5.734   4.325   6.952
 1951SOL    HW1 6752   5.724   4.233   6.990
 1951SOL    HW2 6753   5.670   4.337   6.876
 1952SOL     OW 6754   4.423   2.142   0.206
 1952SOL    HW1 6755   4.425   2.213   0.277
 1952SOL    HW2 6756   4.361   2.171   0.133
 1953SOL     OW 6757   5.790   1.874   0.021
 1953SOL    HW1 6758   5.737   1.950   7.000
 1953SOL    HW2 6759   5.887   1.887   0.000
 1954SOL     OW 6760   5.480   1.402   3.619
 1954SOL    HW1 6761   5.559   1.440   3.668
 1954SOL    HW2 6762   5.480   1.436   3.525
 1955SOL     OW 6763   0.835   1.263   2.524
 1955SOL    HW1 6764   0.769   1.329   2.489
 1955SOL    HW2 6765   0.862   1.200   2.451
 1956SOL     OW 6766   4.819   6.686   2.684
 1956SOL    HW1 6767   4.724   6.687   2.653
 1956SOL    HW2 6768   4.870   6.758   2.636
 1957SOL     OW 6769   6.049   5.014   4.351
 1957SOL    HW1 6770   5.955   4.986   4.330
 1957SOL    HW2 6771   6.106   5.003   4.270
 1958SOL     OW 6772   4.838   2.458   2.519
 1958SOL    HW1 6773   4.902   2.532   2.499
 1958SOL    HW2 6774   4.887   2.370   2.516
 1959SOL     OW 6775   0.487   1.069   4.891
 1959SOL    HW1 6776   0.491   0.973   4.917
 1959SOL    HW2 6777   0.547   1.086   4.813
 1960SOL     OW 6778   6.897   4.521   1.766
 1960SOL    HW1 6779   6.900   4.613   1.805
 1960SOL    HW2 6780   6.805   4.483   1.778
 1961SOL     OW 6781   5.896   4.140   4.013
 1961SOL    HW1 6782   5.821   4.205   4.003
 1961SOL    HW2 6783   5.911   4.092   3.926
 1962SOL     OW 6784   1.980   6.769   3.691
 1962SOL    HW1 6785   1.910   6.709   3.730
 1962SOL    HW2 6786   2.048   6.789   3.761
 1963SOL     OW 6787   0.801   1.792   2.028
 1963SOL    HW1 6788   0.831   1.803   2.122
 1963SOL    HW2 6789   0.721   1.732   2.025
 1964SOL     OW 6790   4.712   4.085   0.399
 1964SOL    HW1 6791   4.677   4.178   0.400
 1964SOL    HW2 6792   4.678   4.037   0.318
 1965SOL     OW 6793   1.193   3.445   4.595
 1965SOL    HW1 6794   1.112   3.466   4.541
 1965SOL    HW2 6795   1.218   3.526   4.650
 1966SOL     OW 6796   6.528   6.634   0.381
 1966SOL    HW1 6797   6.552   6.678   0.294
 1966SOL    HW2 6798   6.517   6.535   0.365
 1967SOL     OW 6799   5.577   2.641   5.620
 1967SOL    HW1 6800   5.513   2.578   5.664
 1967SOL    HW2 6801   5.527   2.714   5.574
 1968SOL     OW 6802   2.730   0.217   0.040
 1968SOL    HW1 6803   2.711   0.240   6.961
 1968SOL    HW2 6804   2.776   0.128   0.044
 1969SOL     OW 6805   1.298   1.668   2.081
 1969SOL    HW1 6806   1.321   1.657   1.984
 1969SOL    HW2 6807   1.254   1.584   2.113
 1970SOL     OW 6808   2.251   6.774   6.017
 1970SOL    HW1 6809   2.268   6.683   6.056
 1970SOL    HW2 6810   2.157   6.778   5.981
 1971SOL     OW 6811   6.889   0.458   5.749
 1971SOL    HW1 6812   6.894   0.371   5.701
 1971SOL    HW2 6813   6.945   0.455   5.831
 1972SOL     OW 6814   5.050   2.413   2.211
 1972SOL    HW1 6815   5.005   2.475   2.275
 1972SOL    HW2 6816   5.009   2.322   2.219
 1973SOL     OW 6817   3.017   2.702   0.227
 1973SOL    HW1 6818   2.993   2.608   0.202
 1973SOL    HW2 6819   3.000   2.763   0.150
 1974SOL     OW 6820   5.804   6.698   4.559
 1974SOL    HW1 6821   5.749   6.775   4.528
 1974SOL    HW2 6822   5.891   6.731   4.596
 1975SOL     OW 6823   2.281   1.596   3.908
 1975SOL    HW1 6824   2.234   1.544   3.837
 1975SOL    HW2 6825   2.326   1.533   3.972
 1976SOL     OW 6826   0.316   6.814   6.665
 1976SOL    HW1 6827   0.361   6.725   6.676
 1976SOL    HW2 6828   0.217   6.802   6.667
 1977SOL     OW 6829   0.727   3.646   4.586
 1977SOL    HW1 6830   0.778   3.729   4.607
 1977SOL    HW2 6831   0.649   3.637   4.649
 1978SOL     OW 6832   1.863   0.108   3.148
 1978SOL    HW1 6833   1.786   0.171   3.158
 1978SOL    HW2 6834   1.864   0.072   3.055
 1979SOL     OW 6835   6.252   4.409   6.284
 1979SOL    HW1 6836   6.154   4.421   6.267
 1979SOL    HW2 6837   6.269   4.316   6.319
 1980SOL     OW 6838   2.968   0.598   4.877
 1980SOL    HW1 6839   3.013   0.686   4.870
 1980SOL    HW2 6840   2.960   0.556   4.786
 1981SOL     OW 6841   6.439   1.831   2.582
 1981SOL    HW1 6842   6.514   1.880   2.535
 1981SOL    HW2 6843   6.469   1.804   2.673
 1982SOL     OW 6844   0.250   4.200   5.231
 1982SOL    HW1 6845   0.197   4.276   5.194
 1982SOL    HW2 6846   0.295   4.229   5.315
 1983SOL     OW 6847   0.274   1.586   3.051
 1983SOL    HW1 6848   0.307   1.671   3.092
 1983SOL    HW2 6849   0.201   1.607   2.987
 1984SOL     OW 6850   6.293   1.763   5.171
 1984SOL    HW1 6851   6.244   1.850   5.163
 1984SOL    HW2 6852   6.384   1.773   5.132
 1985SOL     OW 6853   1.391   6.212   2.366
 1985SOL    HW1 6854   1.304   6.191   2.323
 1985SOL    HW2 6855   1.392   6.177   2.459
 1986SOL     OW 6856   1.797   0.944   0.069
 1986SOL    HW1 6857   1.812   1.034   0.109
 1986SOL    HW2 6858   1.824   0.945   6.989
 1987SOL     OW 6859   2.125   2.499   2.465
 1987SOL    HW1 6860   2.069   2.582   2.468
 1987SOL    HW2 6861   2.125   2.463   2.371
 1988SOL     OW 6862   5.703   4.471   0.710
 1988SOL    HW1 6863   5.755   4.387   0.728
 1988SOL    HW2 6864   5.702   4.489   0.611
 1989SOL     OW 6865   2.651   5.783   4.439
 1989SOL    HW1 6866   2.588   5.711   4.411
 1989SOL    HW2 6867   2.628   5.867   4.392
 1990SOL     OW 6868   3.553   6.756   0.557
 1990SOL    HW1 6869   3.509   6.833   0.510
 1990SOL    HW2 6870   3.538   6.672   0.505
 1991SOL     OW 6871   3.738   4.388   6.893
 1991SOL    HW1 6872   3.705   4.380   6.799
 1991SOL    HW2 6873   3.785   4.476   6.903
 1992SOL     OW 6874   0.938   0.975   0.759
 1992SOL    HW1 6875   0.899   1.014   0.676
 1992SOL    HW2 6876   0.984   1.046   0.811
 1993SOL     OW 6877   3.656   2.995   4.928
 1993SOL    HW1 6878   3.580   3.059   4.914
 1993SOL    HW2 6879   3.734   3.044   4.967
 1994SOL     OW 6880   0.666   1.045   0.938
 1994SOL    HW1 6881   0.701   1.118   0.996
 1994SOL    HW2 6882   0.608   1.084   0.867
 1995SOL     OW 6883   5.316   2.361   3.212
 1995SOL    HW1 6884   5.357   2.420   3.143
 1995SOL    HW2 6885   5.298   2.413   3.295
 1996SOL     OW 6886   2.588   3.066   0.233
 1996SOL    HW1 6887   2.502   3.094   0.276
 1996SOL    HW2 6888   2.660   3.132   0.256
 1997SOL     OW 6889   4.375   1.399   4.533
 1997SOL    HW1 6890   4.297   1.412   4.472
 1997SOL    HW2 6891   4.451   1.456   4.503
 1998SOL     OW 6892   2.328   4.450   6.230
 1998SOL    HW1 6893   2.249   4.393   6.251
 1998SOL    HW2 6894   2.321   4.537   6.279
 1999SOL     OW 6895   2.922   0.007   0.702
 1999SOL    HW1 6896   2.909   0.030   0.798
 1999SOL    HW2 6897   2.886   6.932   0.685
 2000SOL     OW 6898   4.456   2.248   5.272
 2000SOL    HW1 6899   4.479   2.232   5.176
 2000SOL    HW2 6900   4.537   2.274   5.323
 2001SOL     OW 6901   3.010   1.443   1.979
 2001SOL    HW1 6902   2.940   1.408   1.916
 2001SOL    HW2 6903   3.078   1.372   1.996
 2002SOL     OW 6904   0.866   4.916   6.799
 2002SOL    HW1 6905   0.876   4.963   6.887
 2002SOL    HW2 6906   0.943   4.854   6.786
 2003SOL     OW 6907   6.067   5.781   2.456
 2003SOL    HW1 6908   6.056   5.857   2.520
 2003SOL    HW2 6909   5.992   5.716   2.468
 2004SOL     OW 6910   5.483   0.711   5.726
 2004SOL    HW1 6911   5.471   0.810   5.733
 2004SOL    HW2 6912   5.574   0.691   5.689
 2005SOL     OW 6913   1.111   4.955   0.475
 2005SOL    HW1 6914   1.027   4.902   0.461
 2005SOL    HW2 6915   1.091   5.035   0.532
 2006SOL     OW 6916   4.866   6.423   4.177
 2006SOL    HW1 6917   4.905   6.357   4.242
 2006SOL    HW2 6918   4.855   6.511   4.223
 2007SOL     OW 6919   3.882   4.658   0.854
 2007SOL    HW1 6920   3.813   4.616   0.914
 2007SOL    HW2 6921   3.901   4.596   0.778
 2008SOL     OW 6922   2.790   5.282   4.254
 2008SOL    HW1 6923   2.763   5.262   4.159
 2008SOL    HW2 6924   2.740   5.222   4.315
 2009SOL     OW 6925   5.913   0.772   2.630
 2009SOL    HW1 6926   5.861   0.795   2.548
 2009SOL    HW2 6927   5.854   0.726   2.695
 2010SOL     OW 6928   1.978   1.932   0.633
 2010SOL    HW1 6929   1.937   1.980   0.555
 2010SOL    HW2 6930   2.077   1.929   0.621
 2011SOL     OW 6931   6.824   6.940   4.803
 2011SOL    HW1 6932   6.832   6.862   4.866
 2011SOL    HW2 6933   6.840   0.008   4.853
 2012SOL     OW 6934   1.832   3.525   1.813
 2012SOL    HW1 6935   1.899   3.454   1.837
 2012SOL    HW2 6936   1.750   3.481   1.777
 2013SOL     OW 6937   6.085   2.279   3.585
 2013SOL    HW1 6938   5.998   2.275   3.633
 2013SOL    HW2 6939   6.158   2.248   3.646
 2014SOL     OW 6940   2.696   5.086   3.540
 2014SOL    HW1 6941   2.596   5.085   3.538
 2014SOL    HW2 6942   2.728   5.177   3.566
 2015SOL     OW 6943   2.205   0.407   0.095
 2015SOL    HW1 6944   2.195   0.444   0.188
 2015SOL    HW2 6945   2.299   0.421   0.064
 2016SOL     OW 6946   0.849   6.387   5.005
 2016SOL    HW1 6947   0.884   6.304   4.960
 2016SOL    HW2 6948   0.809   6.447   4.936
 2017SOL     OW 6949   3.019   6.921   4.266
 2017SOL    HW1 6950   2.998   6.872   4.181
 2017SOL    HW2 6951   2.985   6.868   4.344
 2018SOL     OW 6952   5.778   6.656   5.574
 2018SOL    HW1 6953   5.738   6.747   5.588
 2018SOL    HW2 6954   5.761   6.626   5.480
 2019SOL     OW 6955   5.607   3.018   6.900
 2019SOL    HW1 6956   5.542   3.088   6.929
 2019SOL    HW2 6957   5.660   2.986   6.978
 2020SOL     OW 6958   1.198   6.194   4.875
 2020SOL    HW1 6959   1.115   6.138   4.875
 2020SOL    HW2 6960   1.229   6.206   4.969
 2021SOL     OW 6961   1.386   5.951   3.809
 2021SOL    HW1 6962   1.290   5.922   3.814
 2021SOL    HW2 6963   1.431   5.903   3.734
 2022SOL     OW 6964   1.607   3.886   3.215
 2022SOL    HW1 6965   1.552   3.963   3.246
 2022SOL    HW2 6966   1.620   3.821   3.290
 2023SOL     OW 6967   6.187   0.764   6.193
 2023SOL    HW1 6968   6.226   0.731   6.107
 2023SOL    HW2 6969   6.246   0.836   6.231
 2024SOL     OW 6970   0.426   6.756   4.066
 2024SOL    HW1 6971   0.486   6.703   4.127
 2024SOL    HW2 6972   0.478   6.784   3.985
 2025SOL     OW 6973   2.740   1.860   3.321
 2025SOL    HW1 6974   2.745   1.867   3.221
 2025SOL    HW2 6975   2.830   1.876   3.361
 2026SOL     OW 6976   0.434   2.657   5.662
 2026SOL    HW1 6977   0.487   2.696   5.737
 2026SOL    HW2 6978   0.424   2.726   5.590
 2027SOL     OW 6979   0.787   0.821   0.458
 2027SOL    HW1 6980   0.819   0.915   0.469
 2027SOL    HW2 6981   0.728   0.797   0.535
 2028SOL     OW 6982   3.203   6.711   5.048
 2028SOL    HW1 6983   3.207   6.685   5.145
 2028SOL    HW2 6984   3.123   6.670   5.005
 2029SOL     OW 6985   6.320   0.667   0.650
 2029SOL    HW1 6986   6.346   0.585   0.701
 2029SOL    HW2 6987   6.316   0.745   0.713
 2030SOL     OW 6988   2.414   1.295   2.699
 2030SOL    HW1 6989   2.333   1.335   2.658
 2030SOL    HW2 6990   2.389   1.211   2.747
 2031SOL     OW 6991   6.409   5.708   1.043
 2031SOL    HW1 6992   6.476   5.635   1.026
 2031SOL    HW2 6993   6.364   5.691   1.130
 2032SOL     OW 6994   4.736   0.094   2.132
 2032SOL    HW1 6995   4.767   0.015   2.184
 2032SOL    HW2 6996   4.690   0.063   2.048
 2033SOL     OW 6997   2.977   4.395   6.567
 2033SOL    HW1 6998   2.919   4.475   6.581
 2033SOL    HW2 6999   2.933   4.314   6.607
 2034SOL     OW 7000   2.682   5.980   5.352
 2034SOL    HW1 7001   2.627   5.906   5.313
 2034SOL    HW2 7002   2.775   5.947   5.367
 2035SOL     OW 7003   0.311   0.614   3.070
 2035SOL    HW1 7004   0.302   0.540   3.004
 2035SOL    HW2 7005   0.282   0.581   3.160
 2036SOL     OW 7006   1.450   4.376   2.871
 2036SOL    HW1 7007   1.466   4.283   2.840
 2036SOL    HW2 7008   1.537   4.420   2.892
 2037SOL     OW 7009   6.382   2.751   5.376
 2037SOL    HW1 7010   6.459   2.770   5.315
 2037SOL    HW2 7011   6.336   2.668   5.346
 2038SOL     OW 7012   1.616   2.612   0.058
 2038SOL    HW1 7013   1.653   2.618   0.150
 2038SOL    HW2 7014   1.640   2.524   0.018
 2039SOL     OW 7015   0.358   5.361   3.486
 2039SOL    HW1 7016   0.287   5.338   3.419
 2039SOL    HW2 7017   0.403   5.277   3.516
 2040SOL     OW 7018   3.299   3.396   5.083
 2040SOL    HW1 7019   3.359   3.327   5.043
 2040SOL    HW2 7020   3.208   3.390   5.041
 2041SOL     OW 7021   0.726   5.910   5.665
 2041SOL    HW1 7022   0.803   5.917   5.729
 2041SOL    HW2 7023   0.641   5.905   5.717
 2042SOL     OW 7024   4.835   5.616   0.067
 2042SOL    HW1 7025   4.788   5.696   0.031
 2042SOL    HW2 7026   4.924   5.643   0.103
 2043SOL     OW 7027   7.003   3.410   3.735
 2043SOL    HW1 7028   7.002   3.329   3.675
 2043SOL    HW2 7029   6.915   3.416   3.783
 2044SOL     OW 7030   6.292   6.858   1.848
 2044SOL    HW1 7031   6.373   6.810   1.813
 2044SOL    HW2 7032   6.213   6.797   1.842
 2045SOL     OW 7033   2.365   5.096   3.960
 2045SOL    HW1 7034   2.428   5.058   4.028
 2045SOL    HW2 7035   2.285   5.037   3.952
 2046SOL     OW 7036   6.488   2.565   4.266
 2046SOL    HW1 7037   6.413   2.519   4.219
 2046SOL    HW2 7038   6.460   2.657   4.292
 2047SOL     OW 7039   6.599   1.922   6.793
 2047SOL    HW1 7040   6.548   2.008   6.787
 2047SOL    HW2 7041   6.611   1.896   6.889
 2048SOL     OW 7042   1.684   6.721   6.135
 2048SOL    HW1 7043   1.615   6.793   6.139
 2048SOL    HW2 7044   1.711   6.706   6.040
 2049SOL     OW 7045   6.075   1.457   5.342
 2049SOL    HW1 7046   6.004   1.497   5.400
 2049SOL    HW2 7047   6.161   1.452   5.393
 2050SOL     OW 7048   6.438   2.829   4.324
 2050SOL    HW1 7049   6.352   2.848   4.371
 2050SOL    HW2 7050   6.515   2.850   4.384
 2051SOL     OW 7051   1.037   5.380   0.454
 2051SOL    HW1 7052   1.133   5.390   0.426
 2051SOL    HW2 7053   0.979   5.381   0.372
 2052SOL     OW 7054   1.720   3.567   0.658
 2052SOL    HW1 7055   1.818   3.555   0.644
 2052SOL    HW2 7056   1.703   3.598   0.751
 2053SOL     OW 7057   5.663   6.903   4.466
 2053SOL    HW1 7058   5.625   6.914   4.375
 2053SOL    HW2 7059   5.589   6.893   4.532
 2054SOL     OW 7060   3.383   4.146   2.973
 2054SOL    HW1 7061   3.288   4.134   3.002
 2054SOL    HW2 7062   3.444   4.111   3.044
 2055SOL     OW 7063   6.262   3.440   3.196
 2055SOL    HW1 7064   6.190   3.498   3.236
 2055SOL    HW2 7065   6.273   3.463   3.099
 2056SOL     OW 7066   3.767   5.960   2.764
 2056SOL    HW1 7067   3.796   5.896   2.835
 2056SOL    HW2 7068   3.805   5.933   2.676
 2057SOL     OW 7069   5.371   4.044   5.441
 2057SOL    HW1 7070   5.362   3.954   5.484
 2057SOL    HW2 7071   5.285   4.094   5.449
 2058SOL     OW 7072   0.414   1.806   3.200
 2058SOL    HW1 7073   0.407   1.880   3.267
 2058SOL    HW2 7074   0.510   1.780   3.189
 2059SOL     OW 7075   1.803   5.934   6.348
 2059SOL    HW1 7076   1.781   6.013   6.405
 2059SOL    HW2 7077   1.871   5.878   6.395
 2060SOL     OW 7078   0.203   4.557   1.733
 2060SOL    HW1 7079   0.220   4.561   1.635
 2060SOL    HW2 7080   0.109   4.526   1.750
 2061SOL     OW 7081   0.955   1.915   3.565
 2061SOL    HW1 7082   0.858   1.897   3.548
 2061SOL    HW2 7083   0.989   1.982   3.498
 2062SOL     OW 7084   6.489   6.422   4.014
 2062SOL    HW1 7085   6.404   6.395   4.059
 2062SOL    HW2 7086   6.493   6.381   3.923
 2063SOL     OW 7087   2.183   6.737   6.729
 2063SOL    HW1 7088   2.181   6.757   6.631
 2063SOL    HW2 7089   2.090   6.730   6.764
 2064SOL     OW 7090   1.169   2.328   5.363
 2064SOL    HW1 7091   1.134   2.420   5.380
 2064SOL    HW2 7092   1.269   2.328   5.374
 2065SOL     OW 7093   6.371   2.354   5.043
 2065SOL    HW1 7094   6.354   2.346   4.945
 2065SOL    HW2 7095   6.461   2.395   5.058
 2066SOL     OW 7096   0.389   4.662   4.094
 2066SOL    HW1 7097   0.460   4.719   4.135
 2066SOL    HW2 7098   0.356   4.596   4.161
 2067SOL     OW 7099   6.489   4.819   0.979
 2067SOL    HW1 7100   6.472   4.725   0.948
 2067SOL    HW2 7101   6.498   4.820   1.079
 2068SOL     OW 7102   2.267   0.503   4.648
 2068SOL    HW1 7103   2.234   0.482   4.556
 2068SOL    HW2 7104   2.331   0.580   4.644
 2069SOL     OW 7105   0.094   2.549   3.953
 2069SOL    HW1 7106   0.035   2.473   3.926
 2069SOL    HW2 7107   0.101   2.614   3.878
 2070SOL     OW 7108   0.578   1.246   1.702
 2070SOL    HW1 7109   0.487   1.225   1.737
 2070SOL    HW2 7110   0.584   1.344   1.682
 2071SOL     OW 7111   6.479   6.763   6.002
 2071SOL    HW1 7112   6.417   6.729   5.932
 2071SOL    HW2 7113   6.491   6.693   6.073
 2072SOL     OW 7114   4.440   6.161   4.266
 2072SOL    HW1 7115   4.478   6.253   4.279
 2072SOL    HW2 7116   4.341   6.163   4.281
 2073SOL     OW 7117   3.951   0.065   5.247
 2073SOL    HW1 7118   3.985   0.150   5.206
 2073SOL    HW2 7119   4.028   0.013   5.284
 2074SOL     OW 7120   1.922   2.591   6.782
 2074SOL    HW1 7121   1.844   2.646   6.753
 2074SOL    HW2 7122   1.897   2.494   6.781
 2075SOL     OW 7123   6.531   3.220   2.698
 2075SOL    HW1 7124   6.573   3.131   2.716
 2075SOL    HW2 7125   6.436   3.219   2.730
 2076SOL     OW 7126   6.208   0.129   6.582
 2076SOL    HW1 7127   6.181   0.193   6.510
 2076SOL    HW2 7128   6.257   0.179   6.653
 2077SOL     OW 7129   6.017   2.838   3.148
 2077SOL    HW1 7130   6.073   2.899   3.092
 2077SOL    HW2 7131   5.948   2.794   3.091
 2078SOL     OW 7132   1.480   6.078   6.043
 2078SOL    HW1 7133   1.507   6.131   6.123
 2078SOL    HW2 7134   1.513   5.984   6.053
 2079SOL     OW 7135   5.653   2.395   3.270
 2079SOL    HW1 7136   5.632   2.297   3.277
 2079SOL    HW2 7137   5.624   2.429   3.181
 2080SOL     OW 7138   1.550   6.824   4.477
 2080SOL    HW1 7139   1.534   6.865   4.387
 2080SOL    HW2 7140   1.574   6.728   4.467
 2081SOL     OW 7141   1.280   5.318   4.396
 2081SOL    HW1 7142   1.216   5.325   4.320
 2081SOL    HW2 7143   1.352   5.387   4.386
 2082SOL     OW 7144   0.532   0.012   2.816
 2082SOL    HW1 7145   0.588   0.082   2.862
 2082SOL    HW2 7146   0.581   6.942   2.816
 2083SOL     OW 7147   6.508   5.172   5.684
 2083SOL    HW1 7148   6.502   5.114   5.603
 2083SOL    HW2 7149   6.564   5.128   5.753
 2084SOL     OW 7150   0.856   3.963   3.066
 2084SOL    HW1 7151   0.863   3.884   3.127
 2084SOL    HW2 7152   0.767   4.007   3.080
 2085SOL     OW 7153   4.837   0.216   6.993
 2085SOL    HW1 7154   4.844   0.186   6.898
 2085SOL    HW2 7155   4.919   0.267   0.001
 2086SOL     OW 7156   4.191   5.960   5.832
 2086SOL    HW1 7157   4.261   6.030   5.843
 2086SOL    HW2 7158   4.117   5.995   5.775
 2087SOL     OW 7159   4.863   0.744   1.746
 2087SOL    HW1 7160   4.937   0.726   1.681
 2087SOL    HW2 7161   4.859   0.842   1.766
 2088SOL     OW 7162   1.793   5.880   0.421
 2088SOL    HW1 7163   1.789   5.801   0.482
 2088SOL    HW2 7164   1.717   5.942   0.442
 2089SOL     OW 7165   5.260   2.331   6.421
 2089SOL    HW1 7166   5.289   2.253   6.365
 2089SOL    HW2 7167   5.165   2.318   6.450
 2090SOL     OW 7168   4.267   3.559   5.438
 2090SOL    HW1 7169   4.216   3.644   5.451
 2090SOL    HW2 7170   4.342   3.574   5.373
 2091SOL     OW 7171   0.186   5.627   0.844
 2091SOL    HW1 7172   0.143   5.706   0.888
 2091SOL    HW2 7173   0.163   5.544   0.896
 2092SOL     OW 7174   4.558   3.656   6.976
 2092SOL    HW1 7175   4.627   3.718   6.938
 2092SOL    HW2 7176   4.580   3.562   6.950
 2093SOL     OW 7177   2.948   2.288   1.379
 2093SOL    HW1 7178   3.047   2.271   1.371
 2093SOL    HW2 7179   2.924   2.305   1.475
 2094SOL     OW 7180   5.713   1.790   3.361
 2094SOL    HW1 7181   5.614   1.802   3.349
 2094SOL    HW2 7182   5.734   1.790   3.459
 2095SOL     OW 7183   5.859   6.868   5.333
 2095SOL    HW1 7184   5.938   6.817   5.367
 2095SOL    HW2 7185   5.832   6.936   5.401
 2096SOL     OW 7186   4.757   4.121   3.138
 2096SOL    HW1 7187   4.764   4.113   3.039
 2096SOL    HW2 7188   4.816   4.053   3.182
 2097SOL     OW 7189   2.813   3.408   6.320
 2097SOL    HW1 7190   2.871   3.477   6.363
 2097SOL    HW2 7191   2.734   3.389   6.379
 2098SOL     OW 7192   3.825   6.080   1.977
 2098SOL    HW1 7193   3.739   6.030   1.969
 2098SOL    HW2 7194   3.899   6.028   1.933
 2099SOL     OW 7195   3.325   2.822   6.397
 2099SOL    HW1 7196   3.241   2.804   6.344
 2099SOL    HW2 7197   3.312   2.902   6.455
 2100SOL     OW 7198   5.310   2.222   6.732
 2100SOL    HW1 7199   5.303   2.275   6.647
 2100SOL    HW2 7200   5.347   2.281   6.804
 2101SOL     OW 7201   1.137   0.159   1.666
 2101SOL    HW1 7202   1.042   0.190   1.669
 2101SOL    HW2 7203   1.195   0.232   1.632
 2102SOL     OW 7204   5.340   4.807   2.770
 2102SOL    HW1 7205   5.439   4.802   2.759
 2102SOL    HW2 7206   5.317   4.803   2.867
 2103SOL     OW 7207   3.190   4.026   6.573
 2103SOL    HW1 7208   3.229   4.042   6.663
 2103SOL    HW2 7209   3.228   4.092   6.508
 2104SOL     OW 7210   1.895   4.523   1.251
 2104SOL    HW1 7211   1.965   4.543   1.320
 2104SOL    HW2 7212   1.829   4.598   1.248
 2105SOL     OW 7213   5.258   5.095   5.028
 2105SOL    HW1 7214   5.266   5.166   5.098
 2105SOL    HW2 7215   5.343   5.043   5.023
 2106SOL     OW 7216   4.926   4.118   1.026
 2106SOL    HW1 7217   4.870   4.165   0.958
 2106SOL    HW2 7218   4.990   4.057   0.980
 2107SOL     OW 7219   5.935   2.507   5.259
 2107SOL    HW1 7220   5.919   2.438   5.188
 2107SOL    HW2 7221   5.872   2.584   5.247
 2108SOL     OW 7222   6.656   6.065   4.881
 2108SOL    HW1 7223   6.707   6.144   4.914
 2108SOL    HW2 7224   6.595   6.094   4.806
 2109SOL     OW 7225   4.490   5.940   2.105
 2109SOL    HW1 7226   4.543   5.947   2.020
 2109SOL    HW2 7227   4.509   5.852   2.149
 2110SOL     OW 7228   2.425   1.915   0.143
 2110SOL    HW1 7229   2.411   1.848   0.216
 2110SOL    HW2 7230   2.511   1.896   0.096
 2111SOL     OW 7231   1.853   2.759   6.345
 2111SOL    HW1 7232   1.946   2.750   6.382
 2111SOL    HW2 7233   1.820   2.853   6.360
 2112SOL     OW 7234   5.155   2.940   0.463
 2112SOL    HW1 7235   5.078   2.877   0.475
 2112SOL    HW2 7236   5.120   3.032   0.446
 2113SOL     OW 7237   2.622   1.950   4.465
 2113SOL    HW1 7238   2.637   2.020   4.396
 2113SOL    HW2 7239   2.706   1.937   4.518
 2114SOL     OW 7240   2.067   1.808   6.313
 2114SOL    HW1 7241   2.164   1.809   6.340
 2114SOL    HW2 7242   2.010   1.808   6.395
 2115SOL     OW 7243   1.266   4.245   3.019
 2115SOL    HW1 7244   1.325   4.312   2.973
 2115SOL    HW2 7245   1.249   4.273   3.113
 2116SOL     OW 7246   0.810   4.857   2.844
 2116SOL    HW1 7247   0.788   4.766   2.880
 2116SOL    HW2 7248   0.727   4.912   2.841
 2117SOL     OW 7249   6.929   4.576   2.094
 2117SOL    HW1 7250   6.837   4.538   2.109
 2117SOL    HW2 7251   6.931   4.626   2.007
 2118SOL     OW 7252   6.255   2.664   2.889
 2118SOL    HW1 7253   6.250   2.613   2.804
 2118SOL    HW2 7254   6.219   2.756   2.874
 2119SOL     OW 7255   1.360   0.592   0.969
 2119SOL    HW1 7256   1.294   0.517   0.976
 2119SOL    HW2 7257   1.317   0.669   0.922
 2120SOL     OW 7258   0.306   4.623   3.780
 2120SOL    HW1 7259   0.377   4.675   3.733
 2120SOL    HW2 7260   0.341   4.588   3.867
 2121SOL     OW 7261   1.652   3.666   6.317
 2121SOL    HW1 7262   1.614   3.573   6.320
 2121SOL    HW2 7263   1.751   3.662   6.325
 2122SOL     OW 7264   5.624   4.479   5.889
 2122SOL    HW1 7265   5.534   4.515   5.862
 2122SOL    HW2 7266   5.693   4.514   5.826
 2123SOL     OW 7267   6.727   5.387   2.222
 2123SOL    HW1 7268   6.696   5.330   2.297
 2123SOL    HW2 7269   6.698   5.481   2.237
 2124SOL     OW 7270   3.170   2.184   1.009
 2124SOL    HW1 7271   3.209   2.239   1.083
 2124SOL    HW2 7272   3.074   2.210   0.995
 2125SOL     OW 7273   2.038   0.603   2.653
 2125SOL    HW1 7274   2.011   0.511   2.681
 2125SOL    HW2 7275   1.989   0.628   2.569
 2126SOL     OW 7276   4.069   2.413   6.493
 2126SOL    HW1 7277   4.058   2.455   6.402
 2126SOL    HW2 7278   4.155   2.364   6.496
 2127SOL     OW 7279   0.978   2.129   5.283
 2127SOL    HW1 7280   1.052   2.184   5.322
 2127SOL    HW2 7281   1.016   2.046   5.242
 2128SOL     OW 7282   6.542   3.600   4.129
 2128SOL    HW1 7283   6.584   3.523   4.080
 2128SOL    HW2 7284   6.546   3.583   4.227
 2129SOL     OW 7285   4.813   2.945   5.444
 2129SOL    HW1 7286   4.862   3.026   5.411
 2129SOL    HW2 7287   4.718   2.950   5.414
 2130SOL     OW 7288   3.624   0.787   2.933
 2130SOL    HW1 7289   3.554   0.858   2.927
 2130SOL    HW2 7290   3.579   0.697   2.940
 2131SOL     OW 7291   4.588   1.627   6.852
 2131SOL    HW1 7292   4.522   1.609   6.780
 2131SOL    HW2 7293   4.550   1.597   6.940
 2132SOL     OW 7294   3.830   0.832   0.786
 2132SOL    HW1 7295   3.859   0.751   0.838
 2132SOL    HW2 7296   3.781   0.803   0.704
 2133SOL     OW 7297   3.248   3.461   1.125
 2133SOL    HW1 7298   3.188   3.382   1.120
 2133SOL    HW2 7299   3.313   3.459   1.048
 2134SOL     OW 7300   0.925   0.398   5.755
 2134SOL    HW1 7301   0.873   0.463   5.700
 2134SOL    HW2 7302   1.009   0.373   5.707
 2135SOL     OW 7303   1.490   3.139   5.086
 2135SOL    HW1 7304   1.453   3.047   5.073
 2135SOL    HW2 7305   1.489   3.188   4.999
 2136SOL     OW 7306   0.706   4.120   4.338
 2136SOL    HW1 7307   0.613   4.097   4.367
 2136SOL    HW2 7308   0.740   4.196   4.393
 2137SOL     OW 7309   0.911   5.534   4.479
 2137SOL    HW1 7310   0.946   5.597   4.410
 2137SOL    HW2 7311   0.940   5.565   4.570
 2138SOL     OW 7312   6.971   0.871   2.452
 2138SOL    HW1 7313   6.929   0.928   2.523
 2138SOL    HW2 7314   6.963   0.916   2.363
 2139SOL     OW 7315   3.367   1.006   2.486
 2139SOL    HW1 7316   3.300   0.946   2.443
 2139SOL    HW2 7317   3.446   1.017   2.426
 2140SOL     OW 7318   3.773   6.378   4.071
 2140SOL    HW1 7319   3.807   6.333   4.154
 2140SOL    HW2 7320   3.673   6.388   4.077
 2141SOL     OW 7321   6.324   4.295   2.004
 2141SOL    HW1 7322   6.310   4.210   2.055
 2141SOL    HW2 7323   6.395   4.349   2.050
 2142SOL     OW 7324   1.255   2.156   3.222
 2142SOL    HW1 7325   1.275   2.249   3.193
 2142SOL    HW2 7326   1.280   2.092   3.149
 2143SOL     OW 7327   3.043   4.238   1.441
 2143SOL    HW1 7328   3.022   4.162   1.380
 2143SOL    HW2 7329   2.972   4.244   1.511
 2144SOL     OW 7330   1.268   5.668   3.861
 2144SOL    HW1 7331   1.266   5.570   3.846
 2144SOL    HW2 7332   1.289   5.687   3.957
 2145SOL     OW 7333   4.446   5.922   4.148
 2145SOL    HW1 7334   4.365   5.919   4.089
 2145SOL    HW2 7335   4.454   6.013   4.188
 2146SOL     OW 7336   2.778   3.708   1.008
 2146SOL    HW1 7337   2.752   3.678   0.916
 2146SOL    HW2 7338   2.737   3.648   1.076
 2147SOL     OW 7339   6.821   1.393   6.215
 2147SOL    HW1 7340   6.780   1.427   6.299
 2147SOL    HW2 7341   6.749   1.375   6.148
 2148SOL     OW 7342   5.391   2.412   5.411
 2148SOL    HW1 7343   5.454   2.410   5.333
 2148SOL    HW2 7344   5.395   2.325   5.460
 2149SOL     OW 7345   3.505   2.500   1.118
 2149SOL    HW1 7346   3.409   2.490   1.143
 2149SOL    HW2 7347   3.527   2.597   1.108
 2150SOL     OW 7348   3.137   1.811   2.671
 2150SOL    HW1 7349   3.159   1.898   2.627
 2150SOL    HW2 7350   3.071   1.826   2.744
 2151SOL     OW 7351   1.723   1.033   5.236
 2151SOL    HW1 7352   1.772   1.023   5.323
 2151SOL    HW2 7353   1.763   0.973   5.168
 2152SOL     OW 7354   4.006   6.120   1.735
 2152SOL    HW1 7355   3.929   6.181   1.755
 2152SOL    HW2 7356   4.092   6.166   1.757
 2153SOL     OW 7357   3.457   0.572   3.069
 2153SOL    HW1 7358   3.492   0.652   3.120
 2153SOL    HW2 7359   3.394   0.603   2.998
 2154SOL     OW 7360   5.007   6.870   5.076
 2154SOL    HW1 7361   4.911   6.858   5.102
 2154SOL    HW2 7362   5.034   6.965   5.093
 2155SOL     OW 7363   1.945   5.792   0.192
 2155SOL    HW1 7364   1.908   5.815   0.282
 2155SOL    HW2 7365   1.888   5.833   0.121
 2156SOL     OW 7366   2.958   1.031   4.662
 2156SOL    HW1 7367   2.971   1.109   4.723
 2156SOL    HW2 7368   2.887   1.052   4.595
 2157SOL     OW 7369   6.045   1.158   3.447
 2157SOL    HW1 7370   6.020   1.118   3.359
 2157SOL    HW2 7371   6.021   1.255   3.448
 2158SOL     OW 7372   4.049   6.355   1.019
 2158SOL    HW1 7373   4.015   6.413   1.093
 2158SOL    HW2 7374   4.133   6.395   0.982
 2159SOL     OW 7375   1.727   6.322   5.706
 2159SOL    HW1 7376   1.657   6.285   5.645
 2159SOL    HW2 7377   1.762   6.408   5.669
 2160SOL     OW 7378   4.396   4.166   0.784
 2160SOL    HW1 7379   4.333   4.239   0.811
 2160SOL    HW2 7380   4.484   4.207   0.760
 2161SOL     OW 7381   5.239   4.210   3.334
 2161SOL    HW1 7382   5.218   4.194   3.237
 2161SOL    HW2 7383   5.176   4.157   3.390
 2162SOL     OW 7384   2.961   1.112   0.968
 2162SOL    HW1 7385   3.013   1.197   0.956
 2162SOL    HW2 7386   2.865   1.134   0.983
 2163SOL     OW 7387   0.642   4.182   6.620
 2163SOL    HW1 7388   0.704   4.255   6.593
 2163SOL    HW2 7389   0.571   4.219   6.680
 2164SOL     OW 7390   1.463   3.045   6.880
 2164SOL    HW1 7391   1.486   2.955   6.843
 2164SOL    HW2 7392   1.542   3.106   6.870
 2165SOL     OW 7393   0.486   2.368   2.825
 2165SOL    HW1 7394   0.391   2.382   2.797
 2165SOL    HW2 7395   0.490   2.344   2.922
 2166SOL     OW 7396   1.518   2.304   4.889
 2166SOL    HW1 7397   1.594   2.269   4.944
 2166SOL    HW2 7398   1.461   2.364   4.945
 2167SOL     OW 7399   1.723   1.302   3.950
 2167SOL    HW1 7400   1.813   1.345   3.939
 2167SOL    HW2 7401   1.658   1.369   3.984
 2168SOL     OW 7402   0.803   1.782   3.864
 2168SOL    HW1 7403   0.738   1.786   3.788
 2168SOL    HW2 7404   0.797   1.692   3.908
 2169SOL     OW 7405   5.607   2.260   5.929
 2169SOL    HW1 7406   5.521   2.231   5.971
 2169SOL    HW2 7407   5.683   2.236   5.989
 2170SOL     OW 7408   6.546   5.410   5.330
 2170SOL    HW1 7409   6.462   5.393   5.280
 2170SOL    HW2 7410   6.526   5.465   5.411
 2171SOL     OW 7411   0.268   3.966   1.557
 2171SOL    HW1 7412   0.368   3.963   1.563
 2171SOL    HW2 7413   0.236   4.058   1.580
 2172SOL     OW 7414   2.814   2.452   0.593
 2172SOL    HW1 7415   2.732   2.401   0.568
 2172SOL    HW2 7416   2.806   2.481   0.689
 2173SOL     OW 7417   3.714   0.429   4.937
 2173SOL    HW1 7418   3.676   0.462   4.851
 2173SOL    HW2 7419   3.696   0.496   5.009
 2174SOL     OW 7420   5.633   5.389   5.179
 2174SOL    HW1 7421   5.626   5.293   5.208
 2174SOL    HW2 7422   5.694   5.395   5.100
 2175SOL     OW 7423   2.477   2.261   4.480
 2175SOL    HW1 7424   2.430   2.217   4.404
 2175SOL    HW2 7425   2.474   2.360   4.468
 2176SOL     OW 7426   0.721   2.655   6.979
 2176SOL    HW1 7427   0.671   2.686   6.898
 2176SOL    HW2 7428   0.818   2.645   6.957
 2177SOL     OW 7429   6.229   1.631   3.614
 2177SOL    HW1 7430   6.148   1.689   3.608
 2177SOL    HW2 7431   6.218   1.567   3.691
 2178SOL     OW 7432   1.136   3.176   0.333
 2178SOL    HW1 7433   1.144   3.183   0.233
 2178SOL    HW2 7434   1.166   3.262   0.375
 2179SOL     OW 7435   1.845   5.246   4.772
 2179SOL    HW1 7436   1.770   5.283   4.718
 2179SOL    HW2 7437   1.925   5.305   4.763
 2180SOL     OW 7438   2.283   2.872   1.751
 2180SOL    HW1 7439   2.198   2.873   1.698
 2180SOL    HW2 7440   2.337   2.954   1.728
 2181SOL     OW 7441   4.606   4.924   5.380
 2181SOL    HW1 7442   4.571   4.944   5.472
 2181SOL    HW2 7443   4.530   4.919   5.316
 2182SOL     OW 7444   0.656   3.434   4.439
 2182SOL    HW1 7445   0.658   3.522   4.488
 2182SOL    HW2 7446   0.669   3.359   4.504
 2183SOL     OW 7447   3.185   4.097   5.666
 2183SOL    HW1 7448   3.149   4.067   5.755
 2183SOL    HW2 7449   3.135   4.178   5.635
 2184SOL     OW 7450   4.761   1.897   6.560
 2184SOL    HW1 7451   4.803   1.888   6.650
 2184SOL    HW2 7452   4.752   1.807   6.518
 2185SOL     OW 7453   1.404   2.208   0.594
 2185SOL    HW1 7454   1.424   2.228   0.498
 2185SOL    HW2 7455   1.356   2.120   0.600
 2186SOL     OW 7456   0.311   5.263   2.466
 2186SOL    HW1 7457   0.238   5.261   2.534
 2186SOL    HW2 7458   0.398   5.238   2.510
 2187SOL     OW 7459   6.355   1.520   2.409
 2187SOL    HW1 7460   6.289   1.565   2.349
 2187SOL    HW2 7461   6.330   1.539   2.505
 2188SOL     OW 7462   5.699   6.170   4.304
 2188SOL    HW1 7463   5.673   6.263   4.329
 2188SOL    HW2 7464   5.646   6.141   4.225
 2189SOL     OW 7465   1.733   6.948   0.369
 2189SOL    HW1 7466   1.742   7.015   0.443
 2189SOL    HW2 7467   1.824   6.918   0.340
 2190SOL     OW 7468   0.672   2.781   1.644
 2190SOL    HW1 7469   0.621   2.795   1.729
 2190SOL    HW2 7470   0.768   2.766   1.665
 2191SOL     OW 7471   3.036   1.772   6.507
 2191SOL    HW1 7472   3.017   1.689   6.558
 2191SOL    HW2 7473   3.033   1.851   6.569
 2192SOL     OW 7474   3.973   0.910   3.069
 2192SOL    HW1 7475   3.975   0.907   2.970
 2192SOL    HW2 7476   3.895   0.965   3.099
 2193SOL     OW 7477   6.460   5.901   5.765
 2193SOL    HW1 7478   6.521   5.837   5.812
 2193SOL    HW2 7479   6.470   5.992   5.805
 2194SOL     OW 7480   2.070   4.940   6.324
 2194SOL    HW1 7481   1.997   4.881   6.289
 2194SOL    HW2 7482   2.142   4.883   6.363
 2195SOL     OW 7483   0.014   0.597   3.704
 2195SOL    HW1 7484   0.041   0.615   3.609
 2195SOL    HW2 7485   6.932   0.591   3.710
 2196SOL     OW 7486   3.438   0.530   5.006
 2196SOL    HW1 7487   3.339   0.520   5.015
 2196SOL    HW2 7488   3.463   0.523   4.909
 2197SOL     OW 7489   3.011   3.424   0.873
 2197SOL    HW1 7490   3.050   3.509   0.907
 2197SOL    HW2 7491   3.053   3.401   0.785
 2198SOL     OW 7492   6.705   1.123   0.381
 2198SOL    HW1 7493   6.667   1.196   0.437
 2198SOL    HW2 7494   6.660   1.036   0.403
 2199SOL     OW 7495   4.966   1.078   3.120
 2199SOL    HW1 7496   4.989   1.043   3.029
 2199SOL    HW2 7497   5.047   1.121   3.161
 2200SOL     OW 7498   3.284   0.323   4.684
 2200SOL    HW1 7499   3.316   0.229   4.672
 2200SOL    HW2 7500   3.253   0.335   4.779
 2201SOL     OW 7501   6.208   2.100   3.197
 2201SOL    HW1 7502   6.180   2.192   3.170
 2201SOL    HW2 7503   6.224   2.045   3.116
 2202SOL     OW 7504   2.935   4.757   2.684
 2202SOL    HW1 7505   2.874   4.833   2.706
 2202SOL    HW2 7506   2.949   4.700   2.764
 2203SOL     OW 7507   2.322   2.803   1.321
 2203SOL    HW1 7508   2.364   2.724   1.276
 2203SOL    HW2 7509   2.243   2.772   1.375
 2204SOL     OW 7510   4.524   0.798   0.105
 2204SOL    HW1 7511   4.498   0.717   0.157
 2204SOL    HW2 7512   4.449   0.822   0.043
 2205SOL     OW 7513   1.288   6.935   6.061
 2205SOL    HW1 7514   1.286   7.013   5.999
 2205SOL    HW2 7515   1.300   6.850   6.009
 2206SOL     OW 7516   2.691   4.369   6.400
 2206SOL    HW1 7517   2.755   4.442   6.420
 2206SOL    HW2 7518   2.652   4.382   6.309
 2207SOL     OW 7519   3.144   3.760   6.643
 2207SOL    HW1 7520   3.155   3.850   6.600
 2207SOL    HW2 7521   3.118   3.693   6.573
 2208SOL     OW 7522   1.430   6.174   2.626
 2208SOL    HW1 7523   1.511   6.213   2.581
 2208SOL    HW2 7524   1.386   6.244   2.682
 2209SOL     OW 7525   1.417   5.949   5.765
 2209SOL    HW1 7526   1.432   6.036   5.813
 2209SOL    HW2 7527   1.499   5.893   5.772
 2210SOL     OW 7528   6.821   5.061   3.980
 2210SOL    HW1 7529   6.893   5.110   4.029
 2210SOL    HW2 7530   6.756   5.127   3.943
 2211SOL     OW 7531   5.371   0.449   0.014
 2211SOL    HW1 7532   5.376   0.533   6.977
 2211SOL    HW2 7533   5.279   0.412   0.009
 2212SOL     OW 7534   1.945   6.203   6.859
 2212SOL    HW1 7535   1.938   6.169   6.766
 2212SOL    HW2 7536   1.853   6.224   6.894
 2213SOL     OW 7537   3.802   2.838   5.193
 2213SOL    HW1 7538   3.779   2.837   5.095
 2213SOL    HW2 7539   3.719   2.848   5.247
 2214SOL     OW 7540   3.869   2.973   5.648
 2214SOL    HW1 7541   3.906   2.899   5.593
 2214SOL    HW2 7542   3.891   2.958   5.745
 2215SOL     OW 7543   6.889   1.677   6.790
 2215SOL    HW1 7544   6.807   1.681   6.733
 2215SOL    HW2 7545   6.871   1.622   6.871
 2216SOL     OW 7546   1.738   0.133   6.157
 2216SOL    HW1 7547   1.797   0.158   6.080
 2216SOL    HW2 7548   1.673   0.207   6.175
 2217SOL     OW 7549   4.075   6.563   1.577
 2217SOL    HW1 7550   4.052   6.576   1.674
 2217SOL    HW2 7551   4.084   6.465   1.558
 2218SOL     OW 7552   0.483   6.740   0.943
 2218SOL    HW1 7553   0.446   6.717   0.853
 2218SOL    HW2 7554   0.418   6.797   0.992
 2219SOL     OW 7555   6.377   2.226   1.949
 2219SOL    HW1 7556   6.472   2.236   1.918
 2219SOL    HW2 7557   6.373   2.235   2.049
 2220SOL     OW 7558   0.988   0.342   3.761
 2220SOL    HW1 7559   0.888   0.332   3.763
 2220SOL    HW2 7560   1.010   0.432   3.723
 2221SOL     OW 7561   6.121   0.912   4.963
 2221SOL    HW1 7562   6.209   0.958   4.975
 2221SOL    HW2 7563   6.050   0.980   4.945
 2222SOL     OW 7564   4.176   0.174   0.793
 2222SOL    HW1 7565   4.250   0.163   0.726
 2222SOL    HW2 7566   4.174   0.095   0.853
 2223SOL     OW 7567   6.110   0.661   4.095
 2223SOL    HW1 7568   6.080   0.686   4.003
 2223SOL    HW2 7569   6.081   0.568   4.115
 2224SOL     OW 7570   1.754   4.308   1.171
 2224SOL    HW1 7571   1.808   4.390   1.193
 2224SOL    HW2 7572   1.807   4.227   1.194
 2225SOL     OW 7573   6.275   5.787   2.843
 2225SOL    HW1 7574   6.366   5.813   2.876
 2225SOL    HW2 7575   6.206   5.813   2.910
 2226SOL     OW 7576   4.132   5.138   0.801
 2226SOL    HW1 7577   4.061   5.071   0.780
 2226SOL    HW2 7578   4.092   5.230   0.805
 2227SOL     OW 7579   5.442   3.947   0.415
 2227SOL    HW1 7580   5.485   3.971   0.501
 2227SOL    HW2 7581   5.462   3.851   0.393
 2228SOL     OW 7582   2.501   5.142   1.229
 2228SOL    HW1 7583   2.474   5.125   1.134
 2228SOL    HW2 7584   2.431   5.107   1.291
 2229SOL     OW 7585   4.187   1.756   4.568
 2229SOL    HW1 7586   4.260   1.694   4.542
 2229SOL    HW2 7587   4.145   1.795   4.486
 2230SOL     OW 7588   6.073   5.757   5.508
 2230SOL    HW1 7589   6.101   5.839   5.458
 2230SOL    HW2 7590   6.144   5.731   5.573
 2231SOL     OW 7591   0.482   1.029   1.975
 2231SOL    HW1 7592   0.454   0.991   2.063
 2231SOL    HW2 7593   0.468   1.128   1.975
 2232SOL     OW 7594   0.804   3.234   4.544
 2232SOL    HW1 7595   0.850   3.244   4.632
 2232SOL    HW2 7596   0.857   3.173   4.486
 2233SOL     OW 7597   2.526   4.351   1.520
 2233SOL    HW1 7598   2.525   4.373   1.423
 2233SOL    HW2 7599   2.620   4.338   1.551
 2234SOL     OW 7600   4.134   1.955   1.820
 2234SOL    HW1 7601   4.105   1.944   1.725
 2234SOL    HW2 7602   4.077   2.024   1.864
 2235SOL     OW 7603   2.215   0.824   1.030
 2235SOL    HW1 7604   2.125   0.866   1.016
 2235SOL    HW2 7605   2.217   0.734   0.985
 2236SOL     OW 7606   0.793   4.021   6.379
 2236SOL    HW1 7607   0.714   4.040   6.436
 2236SOL    HW2 7608   0.835   3.934   6.407
 2237SOL     OW 7609   5.681   5.149   3.660
 2237SOL    HW1 7610   5.643   5.069   3.615
 2237SOL    HW2 7611   5.615   5.184   3.727
 2238SOL     OW 7612   5.128   4.689   1.709
 2238SOL    HW1 7613   5.049   4.733   1.751
 2238SOL    HW2 7614   5.194   4.760   1.681
 2239SOL     OW 7615   3.241   5.137   3.294
 2239SOL    HW1 7616   3.209   5.042   3.296
 2239SOL    HW2 7617   3.220   5.181   3.381
 2240SOL     OW 7618   5.129   6.065   3.711
 2240SOL    HW1 7619   5.092   5.981   3.751
 2240SOL    HW2 7620   5.142   6.053   3.613
 2241SOL     OW 7621   0.326   0.140   2.641
 2241SOL    HW1 7622   0.384   0.080   2.697
 2241SOL    HW2 7623   0.256   0.182   2.699
 2242SOL     OW 7624   4.999   2.033   3.033
 2242SOL    HW1 7625   5.002   1.963   3.105
 2242SOL    HW2 7626   5.024   1.992   2.946
 2243SOL     OW 7627   2.902   6.519   5.649
 2243SOL    HW1 7628   2.917   6.438   5.705
 2243SOL    HW2 7629   2.988   6.571   5.641
 2244SOL     OW 7630   2.202   6.779   1.900
 2244SOL    HW1 7631   2.259   6.699   1.919
 2244SOL    HW2 7632   2.106   6.758   1.920
 2245SOL     OW 7633   0.736   1.830   2.427
 2245SOL    HW1 7634   0.697   1.738   2.432
 2245SOL    HW2 7635   0.817   1.828   2.368
 2246SOL     OW 7636   0.926   1.145   5.903
 2246SOL    HW1 7637   1.021   1.161   5.931
 2246SOL    HW2 7638   0.882   1.232   5.882
 2247SOL     OW 7639   3.036   2.908   5.338
 2247SOL    HW1 7640   3.007   3.003   5.351
 2247SOL    HW2 7641   3.132   2.906   5.311
 2248SOL     OW 7642   3.797   4.046   6.129
 2248SOL    HW1 7643   3.719   4.091   6.086
 2248SOL    HW2 7644   3.868   4.114   6.149
 2249SOL     OW 7645   6.128   6.514   2.470
 2249SOL    HW1 7646   6.208   6.492   2.526
 2249SOL    HW2 7647   6.109   6.439   2.407
 2250SOL     OW 7648   4.370   3.578   0.201
 2250SOL    HW1 7649   4.443   3.624   0.151
 2250SOL    HW2 7650   4.340   3.498   0.150
 2251SOL     OW 7651   4.799   0.755   0.113
 2251SOL    HW1 7652   4.845   0.820   0.174
 2251SOL    HW2 7653   4.701   0.772   0.113
 2252SOL     OW 7654   5.351   2.451   2.861
 2252SOL    HW1 7655   5.297   2.535   2.869
 2252SOL    HW2 7656   5.370   2.433   2.765
 2253SOL     OW 7657   1.397   3.781   6.379
 2253SOL    HW1 7658   1.495   3.762   6.386
 2253SOL    HW2 7659   1.372   3.794   6.283
 2254SOL     OW 7660   3.063   3.658   5.260
 2254SOL    HW1 7661   3.081   3.732   5.195
 2254SOL    HW2 7662   3.146   3.638   5.312
 2255SOL     OW 7663   4.869   2.560   6.423
 2255SOL    HW1 7664   4.778   2.592   6.451
 2255SOL    HW2 7665   4.925   2.545   6.504
 2256SOL     OW 7666   4.957   5.995   1.721
 2256SOL    HW1 7667   4.983   5.902   1.745
 2256SOL    HW2 7668   5.000   6.021   1.635
 2257SOL     OW 7669   0.229   1.862   4.335
 2257SOL    HW1 7670   0.313   1.885   4.287
 2257SOL    HW2 7671   0.251   1.832   4.428
 2258SOL     OW 7672   1.068   5.623   6.002
 2258SOL    HW1 7673   1.108   5.578   6.081
 2258SOL    HW2 7674   1.139   5.639   5.933
 2259SOL     OW 7675   4.675   4.332   6.389
 2259SOL    HW1 7676   4.621   4.377   6.460
 2259SOL    HW2 7677   4.614   4.300   6.316
 2260SOL     OW 7678   5.533   4.368   3.269
 2260SOL    HW1 7679   5.580   4.298   3.216
 2260SOL    HW2 7680   5.588   4.392   3.349
 2261SOL     OW 7681   0.035   6.303   0.550
 2261SOL    HW1 7682   0.042   6.213   0.507
 2261SOL    HW2 7683   6.973   6.352   0.511
 2262SOL     OW 7684   5.185   1.931   2.054
 2262SOL    HW1 7685   5.103   1.987   2.068
 2262SOL    HW2 7686   5.247   1.943   2.132
 2263SOL     OW 7687   2.853   5.819   6.438
 2263SOL    HW1 7688   2.942   5.802   6.480
 2263SOL    HW2 7689   2.782   5.772   6.490
 2264SOL     OW 7690   3.415   3.264   0.776
 2264SOL    HW1 7691   3.322   3.244   0.808
 2264SOL    HW2 7692   3.476   3.190   0.802
 2265SOL     OW 7693   0.480   0.694   4.153
 2265SOL    HW1 7694   0.543   0.619   4.174
 2265SOL    HW2 7695   0.386   0.662   4.168
 2266SOL     OW 7696   6.621   2.357   1.365
 2266SOL    HW1 7697   6.601   2.379   1.270
 2266SOL    HW2 7698   6.719   2.336   1.374
 2267SOL     OW 7699   4.970   2.504   4.925
 2267SOL    HW1 7700   4.889   2.446   4.926
 2267SOL    HW2 7701   4.965   2.568   4.848
 2268SOL     OW 7702   6.726   3.865   6.008
 2268SOL    HW1 7703   6.761   3.801   6.076
 2268SOL    HW2 7704   6.796   3.932   5.984
 2269SOL     OW 7705   5.749   5.971   4.548
 2269SOL    HW1 7706   5.721   5.912   4.472
 2269SOL    HW2 7707   5.839   6.009   4.529
 2270SOL     OW 7708   3.662   2.536   6.379
 2270SOL    HW1 7709   3.636   2.442   6.399
 2270SOL    HW2 7710   3.680   2.585   6.465
 2271SOL     OW 7711   6.391   3.934   0.435
 2271SOL    HW1 7712   6.416   4.024   0.471
 2271SOL    HW2 7713   6.438   3.918   0.348
 2272SOL     OW 7714   6.130   1.565   5.104
 2272SOL    HW1 7715   6.081   1.534   5.186
 2272SOL    HW2 7716   6.190   1.641   5.128
 2273SOL     OW 7717   1.450   0.527   2.285
 2273SOL    HW1 7718   1.503   0.610   2.299
 2273SOL    HW2 7719   1.495   0.470   2.217
 2274SOL     OW 7720   1.513   2.316   5.824
 2274SOL    HW1 7721   1.467   2.366   5.898
 2274SOL    HW2 7722   1.463   2.231   5.806
 2275SOL     OW 7723   5.877   0.870   4.203
 2275SOL    HW1 7724   5.898   0.945   4.267
 2275SOL    HW2 7725   5.927   0.788   4.230
 2276SOL     OW 7726   3.054   4.766   1.277
 2276SOL    HW1 7727   3.047   4.667   1.262
 2276SOL    HW2 7728   2.964   4.807   1.267
 2277SOL     OW 7729   3.709   3.436   5.799
 2277SOL    HW1 7730   3.748   3.388   5.878
 2277SOL    HW2 7731   3.610   3.440   5.809
 2278SOL     OW 7732   6.567   5.502   3.662
 2278SOL    HW1 7733   6.492   5.437   3.647
 2278SOL    HW2 7734   6.648   5.452   3.693
 2279SOL     OW 7735   4.413   6.206   4.655
 2279SOL    HW1 7736   4.458   6.233   4.740
 2279SOL    HW2 7737   4.469   6.137   4.608
 2280SOL     OW 7738   0.229   6.049   4.703
 2280SOL    HW1 7739   0.225   5.959   4.660
 2280SOL    HW2 7740   0.174   6.049   4.786
 2281SOL     OW 7741   3.677   1.374   1.345
 2281SOL    HW1 7742   3.696   1.411   1.435
 2281SOL    HW2 7743   3.698   1.276   1.344
 2282SOL     OW 7744   4.527   6.609   5.205
 2282SOL    HW1 7745   4.444   6.563   5.175
 2282SOL    HW2 7746   4.585   6.627   5.125
 2283SOL     OW 7747   6.466   4.583   1.882
 2283SOL    HW1 7748   6.374   4.609   1.853
 2283SOL    HW2 7749   6.517   4.548   1.803
 2284SOL     OW 7750   2.199   2.241   0.334
 2284SOL    HW1 7751   2.275   2.268   0.274
 2284SOL    HW2 7752   2.133   2.188   0.281
 2285SOL     OW 7753   2.029   1.993   0.903
 2285SOL    HW1 7754   1.956   2.020   0.966
 2285SOL    HW2 7755   1.993   1.989   0.810
 2286SOL     OW 7756   0.668   0.145   4.793
 2286SOL    HW1 7757   0.722   0.229   4.797
 2286SOL    HW2 7758   0.672   0.100   4.882
 2287SOL     OW 7759   1.891   1.450   2.652
 2287SOL    HW1 7760   1.826   1.432   2.579
 2287SOL    HW2 7761   1.870   1.539   2.694
 2288SOL     OW 7762   5.762   5.212   4.010
 2288SOL    HW1 7763   5.748   5.291   3.950
 2288SOL    HW2 7764   5.858   5.183   4.006
 2289SOL     OW 7765   6.593   4.603   2.621
 2289SOL    HW1 7766   6.624   4.640   2.709
 2289SOL    HW2 7767   6.672   4.590   2.561
 2290SOL     OW 7768   1.403   3.483   2.008
 2290SOL    HW1 7769   1.397   3.490   1.909
 2290SOL    HW2 7770   1.498   3.461   2.034
 2291SOL     OW 7771   2.237   2.340   6.672
 2291SOL    HW1 7772   2.234   2.388   6.760
 2291SOL    HW2 7773   2.186   2.392   6.604
 2292SOL     OW 7774   5.984   2.667   3.673
 2292SOL    HW1 7775   6.071   2.696   3.713
 2292SOL    HW2 7776   6.001   2.594   3.606
 2293SOL     OW 7777   5.930   6.788   1.411
 2293SOL    HW1 7778   5.962   6.835   1.328
 2293SOL    HW2 7779   5.901   6.695   1.387
 2294SOL     OW 7780   3.749   0.648   6.509
 2294SOL    HW1 7781   3.812   0.591   6.458
 2294SOL    HW2 7782   3.795   0.685   6.590
 2295SOL     OW 7783   0.351   1.914   2.962
 2295SOL    HW1 7784   0.446   1.936   2.940
 2295SOL    HW2 7785   0.344   1.892   3.059
 2296SOL     OW 7786   3.502   5.923   2.640
 2296SOL    HW1 7787   3.582   5.916   2.699
 2296SOL    HW2 7788   3.532   5.946   2.547
 2297SOL     OW 7789   4.871   4.437   5.313
 2297SOL    HW1 7790   4.854   4.528   5.276
 2297SOL    HW2 7791   4.885   4.444   5.412
 2298SOL     OW 7792   4.001   3.885   2.088
 2298SOL    HW1 7793   4.008   3.794   2.047
 2298SOL    HW2 7794   4.053   3.951   2.034
 2299SOL     OW 7795   4.591   4.614   5.236
 2299SOL    HW1 7796   4.669   4.676   5.244
 2299SOL    HW2 7797   4.621   4.529   5.192
 2300SOL     OW 7798   2.311   5.790   3.090
 2300SOL    HW1 7799   2.308   5.890   3.093
 2300SOL    HW2 7800   2.293   5.759   2.996
 2301SOL     OW 7801   3.540   2.848   3.466
 2301SOL    HW1 7802   3.588   2.931   3.495
 2301SOL    HW2 7803   3.599   2.769   3.477
 2302SOL     OW 7804   3.946   0.288   1.303
 2302SOL    HW1 7805   3.987   0.209   1.349
 2302SOL    HW2 7806   3.875   0.327   1.361
 2303SOL     OW 7807   2.662   3.650   6.869
 2303SOL    HW1 7808   2.603   3.730   6.854
 2303SOL    HW2 7809   2.620   3.570   6.828
 2304SOL     OW 7810   5.593   6.762   3.942
 2304SOL    HW1 7811   5.576   6.751   3.844
 2304SOL    HW2 7812   5.605   6.672   3.984
 2305SOL     OW 7813   2.185   0.293   3.108
 2305SOL    HW1 7814   2.130   0.278   3.190
 2305SOL    HW2 7815   2.275   0.327   3.135
 2306SOL     OW 7816   2.494   5.363   2.102
 2306SOL    HW1 7817   2.552   5.392   2.025
 2306SOL    HW2 7818   2.482   5.264   2.099
 2307SOL     OW 7819   6.982   2.885   4.446
 2307SOL    HW1 7820   7.001   2.983   4.432
 2307SOL    HW2 7821   6.888   2.865   4.419
 2308SOL     OW 7822   2.164   4.936   1.901
 2308SOL    HW1 7823   2.177   5.009   1.834
 2308SOL    HW2 7824   2.161   4.848   1.854
 2309SOL     OW 7825   1.850   0.813   5.675
 2309SOL    HW1 7826   1.886   0.818   5.768
 2309SOL    HW2 7827   1.750   0.814   5.678
 2310SOL     OW 7828   5.702   5.471   0.849
 2310SOL    HW1 7829   5.736   5.381   0.821
 2310SOL    HW2 7830   5.698   5.531   0.769
 2311SOL     OW 7831   2.510   0.362   1.192
 2311SOL    HW1 7832   2.443   0.296   1.224
 2311SOL    HW2 7833   2.575   0.383   1.265
 2312SOL     OW 7834   4.791   6.215   3.251
 2312SOL    HW1 7835   4.843   6.224   3.336
 2312SOL    HW2 7836   4.695   6.238   3.269
 2313SOL     OW 7837   5.393   5.695   1.899
 2313SOL    HW1 7838   5.363   5.717   1.992
 2313SOL    HW2 7839   5.345   5.754   1.834
 2314SOL     OW 7840   5.562   5.766   3.714
 2314SOL    HW1 7841   5.614   5.836   3.762
 2314SOL    HW2 7842   5.472   5.756   3.756
 2315SOL     OW 7843   5.291   2.510   6.849
 2315SOL    HW1 7844   5.288   2.599   6.894
 2315SOL    HW2 7845   5.372   2.506   6.790
 2316SOL     OW 7846   4.399   1.858   3.992
 2316SOL    HW1 7847   4.310   1.837   3.953
 2316SOL    HW2 7848   4.397   1.948   4.036
 2317SOL     OW 7849   0.489   6.051   3.177
 2317SOL    HW1 7850   0.462   6.043   3.273
 2317SOL    HW2 7851   0.581   6.015   3.165
 2318SOL     OW 7852   0.840   2.725   3.426
 2318SOL    HW1 7853   0.904   2.655   3.395
 2318SOL    HW2 7854   0.784   2.757   3.349
 2319SOL     OW 7855   1.512   4.810   3.666
 2319SOL    HW1 7856   1.586   4.746   3.643
 2319SOL    HW2 7857   1.435   4.758   3.704
 2320SOL     OW 7858   0.772   2.615   3.859
 2320SOL    HW1 7859   0.769   2.681   3.934
 2320SOL    HW2 7860   0.866   2.581   3.848
 2321SOL     OW 7861   2.784   0.182   6.382
 2321SOL    HW1 7862   2.785   0.277   6.413
 2321SOL    HW2 7863   2.847   0.171   6.306
 2322SOL     OW 7864   2.598   1.750   4.980
 2322SOL    HW1 7865   2.680   1.714   4.935
 2322SOL    HW2 7866   2.542   1.800   4.913
 2323SOL     OW 7867   2.334   5.028   2.125
 2323SOL    HW1 7868   2.273   4.981   2.062
 2323SOL    HW2 7869   2.429   5.011   2.099
 2324SOL     OW 7870   6.277   6.535   1.948
 2324SOL    HW1 7871   6.218   6.601   1.901
 2324SOL    HW2 7872   6.282   6.558   2.045
 2325SOL     OW 7873   1.216   4.795   2.163
 2325SOL    HW1 7874   1.165   4.749   2.090
 2325SOL    HW2 7875   1.235   4.730   2.236
 2326SOL     OW 7876   3.345   4.909   5.405
 2326SOL    HW1 7877   3.294   4.826   5.381
 2326SOL    HW2 7878   3.281   4.986   5.410
 2327SOL     OW 7879   6.550   3.644   5.023
 2327SOL    HW1 7880   6.531   3.677   4.930
 2327SOL    HW2 7881   6.464   3.621   5.068
 2328SOL     OW 7882   3.381   2.022   3.269
 2328SOL    HW1 7883   3.305   2.010   3.206
 2328SOL    HW2 7884   3.353   2.081   3.345
 2329SOL     OW 7885   1.431   4.172   5.135
 2329SOL    HW1 7886   1.417   4.093   5.075
 2329SOL    HW2 7887   1.400   4.255   5.089
 2330SOL     OW 7888   1.038   3.793   2.120
 2330SOL    HW1 7889   1.105   3.852   2.075
 2330SOL    HW2 7890   0.961   3.776   2.059
 2331SOL     OW 7891   6.567   3.649   0.751
 2331SOL    HW1 7892   6.507   3.573   0.777
 2331SOL    HW2 7893   6.514   3.733   0.745
 2332SOL     OW 7894   4.506   2.033   5.798
 2332SOL    HW1 7895   4.425   2.048   5.741
 2332SOL    HW2 7896   4.580   1.998   5.741
 2333SOL     OW 7897   0.187   5.845   3.361
 2333SOL    HW1 7898   0.279   5.851   3.399
 2333SOL    HW2 7899   0.190   5.868   3.264
 2334SOL     OW 7900   2.426   0.217   0.198
 2334SOL    HW1 7901   2.452   0.294   0.255
 2334SOL    HW2 7902   2.508   0.175   0.158
 2335SOL     OW 7903   5.519   1.148   3.522
 2335SOL    HW1 7904   5.474   1.221   3.573
 2335SOL    HW2 7905   5.453   1.107   3.458
 2336SOL     OW 7906   4.117   2.057   5.321
 2336SOL    HW1 7907   4.186   1.985   5.332
 2336SOL    HW2 7908   4.037   2.035   5.378
 2337SOL     OW 7909   4.791   0.789   3.758
 2337SOL    HW1 7910   4.807   0.707   3.703
 2337SOL    HW2 7911   4.855   0.861   3.731
 2338SOL     OW 7912   1.124   0.921   6.897
 2338SOL    HW1 7913   1.066   1.000   6.915
 2338SOL    HW2 7914   1.134   0.910   6.798
 2339SOL     OW 7915   3.825   3.817   5.178
 2339SOL    HW1 7916   3.855   3.890   5.117
 2339SOL    HW2 7917   3.905   3.765   5.209
 2340SOL     OW 7918   5.318   5.295   6.140
 2340SOL    HW1 7919   5.347   5.217   6.196
 2340SOL    HW2 7920   5.321   5.269   6.043
 2341SOL     OW 7921   5.478   4.441   1.649
 2341SOL    HW1 7922   5.405   4.447   1.717
 2341SOL    HW2 7923   5.516   4.532   1.632
 2342SOL     OW 7924   0.418   6.314   5.208
 2342SOL    HW1 7925   0.404   6.351   5.117
 2342SOL    HW2 7926   0.512   6.331   5.237
 2343SOL     OW 7927   1.906   6.866   2.194
 2343SOL    HW1 7928   1.966   6.945   2.209
 2343SOL    HW2 7929   1.881   6.826   2.282
 2344SOL     OW 7930   1.638   1.214   1.387
 2344SOL    HW1 7931   1.677   1.225   1.478
 2344SOL    HW2 7932   1.701   1.163   1.329
 2345SOL     OW 7933   1.971   5.275   5.462
 2345SOL    HW1 7934   1.975   5.290   5.561
 2345SOL    HW2 7935   1.952   5.362   5.416
 2346SOL     OW 7936   4.997   3.230   4.575
 2346SOL    HW1 7937   5.031   3.298   4.639
 2346SOL    HW2 7938   5.027   3.253   4.483
 2347SOL     OW 7939   2.226   3.613   1.719
 2347SOL    HW1 7940   2.229   3.568   1.808
 2347SOL    HW2 7941   2.294   3.572   1.658
 2348SOL     OW 7942   3.475   6.216   3.744
 2348SOL    HW1 7943   3.519   6.155   3.810
 2348SOL    HW2 7944   3.380   6.188   3.730
 2349SOL     OW 7945   0.715   5.309   6.323
 2349SOL    HW1 7946   0.640   5.366   6.358
 2349SOL    HW2 7947   0.784   5.368   6.280
 2350SOL     OW 7948   5.362   6.457   6.653
 2350SOL    HW1 7949   5.348   6.518   6.731
 2350SOL    HW2 7950   5.454   6.470   6.616
 2351SOL     OW 7951   3.873   4.981   2.549
 2351SOL    HW1 7952   3.915   5.040   2.480
 2351SOL    HW2 7953   3.784   5.019   2.574
 2352SOL     OW 7954   1.257   3.657   2.240
 2352SOL    HW1 7955   1.307   3.614   2.164
 2352SOL    HW2 7956   1.162   3.674   2.212
 2353SOL     OW 7957   2.901   4.787   4.669
 2353SOL    HW1 7958   2.976   4.740   4.717
 2353SOL    HW2 7959   2.825   4.800   4.733
 2354SOL     OW 7960   3.191   2.375   6.749
 2354SOL    HW1 7961   3.232   2.415   6.667
 2354SOL    HW2 7962   3.209   2.435   6.827
 2355SOL     OW 7963   1.119   5.071   6.822
 2355SOL    HW1 7964   1.136   5.167   6.843
 2355SOL    HW2 7965   1.128   5.056   6.724
 2356SOL     OW 7966   2.453   4.267   0.647
 2356SOL    HW1 7967   2.488   4.219   0.567
 2356SOL    HW2 7968   2.399   4.346   0.616
 2357SOL     OW 7969   3.912   5.347   3.896
 2357SOL    HW1 7970   4.009   5.323   3.892
 2357SOL    HW2 7971   3.899   5.425   3.958
 2358SOL     OW 7972   2.640   5.542   4.825
 2358SOL    HW1 7973   2.694   5.505   4.900
 2358SOL    HW2 7974   2.695   5.609   4.775
 2359SOL     OW 7975   0.187   1.224   6.098
 2359SOL    HW1 7976   0.189   1.237   5.998
 2359SOL    HW2 7977   0.092   1.221   6.129
 2360SOL     OW 7978   4.722   6.139   5.650
 2360SOL    HW1 7979   4.676   6.077   5.713
 2360SOL    HW2 7980   4.765   6.213   5.701
 2361SOL     OW 7981   3.052   0.114   4.857
 2361SOL    HW1 7982   3.121   0.185   4.872
 2361SOL    HW2 7983   2.999   0.102   4.941
 2362SOL     OW 7984   3.799   6.696   5.996
 2362SOL    HW1 7985   3.759   6.781   5.962
 2362SOL    HW2 7986   3.729   6.642   6.042
 2363SOL     OW 7987   4.715   2.573   5.382
 2363SOL    HW1 7988   4.756   2.579   5.474
 2363SOL    HW2 7989   4.765   2.634   5.321
 2364SOL     OW 7990   0.192   2.607   2.990
 2364SOL    HW1 7991   0.210   2.705   2.975
 2364SOL    HW2 7992   0.179   2.562   2.902
 2365SOL     OW 7993   5.719   2.776   6.323
 2365SOL    HW1 7994   5.734   2.871   6.296
 2365SOL    HW2 7995   5.630   2.745   6.289
 2366SOL     OW 7996   1.416   3.773   5.404
 2366SOL    HW1 7997   1.349   3.699   5.405
 2366SOL    HW2 7998   1.508   3.734   5.410
 2367SOL     OW 7999   2.248   3.724   6.254
 2367SOL    HW1 8000   2.292   3.683   6.334
 2367SOL    HW2 8001   2.261   3.823   6.257
 2368SOL     OW 8002   5.198   0.808   4.344
 2368SOL    HW1 8003   5.180   0.834   4.439
 2368SOL    HW2 8004   5.210   0.709   4.339
 2369SOL     OW 8005   2.167   3.116   4.311
 2369SOL    HW1 8006   2.144   3.119   4.409
 2369SOL    HW2 8007   2.243   3.053   4.297
 2370SOL     OW 8008   4.324   4.125   0.041
 2370SOL    HW1 8009   4.293   4.195   6.993
 2370SOL    HW2 8010   4.323   4.036   7.012
 2371SOL     OW 8011   1.598   6.274   1.673
 2371SOL    HW1 8012   1.567   6.197   1.729
 2371SOL    HW2 8013   1.534   6.350   1.682
 2372SOL     OW 8014   1.230   2.145   0.918
 2372SOL    HW1 8015   1.143   2.124   0.962
 2372SOL    HW2 8016   1.242   2.085   0.839
 2373SOL     OW 8017   5.737   0.200   6.591
 2373SOL    HW1 8018   5.728   0.259   6.671
 2373SOL    HW2 8019   5.713   0.106   6.616
 2374SOL     OW 8020   6.372   6.907   3.762
 2374SOL    HW1 8021   6.390   6.849   3.682
 2374SOL    HW2 8022   6.349   6.848   3.840
 2375SOL     OW 8023   1.673   6.820   3.891
 2375SOL    HW1 8024   1.576   6.819   3.870
 2375SOL    HW2 8025   1.707   6.914   3.888
 2376SOL     OW 8026   6.592   2.877   4.080
 2376SOL    HW1 8027   6.528   2.859   4.154
 2376SOL    HW2 8028   6.578   2.970   4.045
 2377SOL     OW 8029   3.210   3.820   3.528
 2377SOL    HW1 8030   3.140   3.840   3.597
 2377SOL    HW2 8031   3.225   3.722   3.523
 2378SOL     OW 8032   5.444   1.660   6.613
 2378SOL    HW1 8033   5.485   1.665   6.704
 2378SOL    HW2 8034   5.354   1.704   6.615
 2379SOL     OW 8035   6.889   2.287   6.741
 2379SOL    HW1 8036   6.864   2.197   6.777
 2379SOL    HW2 8037   6.889   2.353   6.816
 2380SOL     OW 8038   6.636   0.107   5.691
 2380SOL    HW1 8039   6.596   0.153   5.611
 2380SOL    HW2 8040   6.607   0.012   5.692
 2381SOL     OW 8041   2.325   4.203   4.132
 2381SOL    HW1 8042   2.270   4.133   4.178
 2381SOL    HW2 8043   2.331   4.181   4.034
 2382SOL     OW 8044   2.287   5.106   2.642
 2382SOL    HW1 8045   2.249   5.014   2.637
 2382SOL    HW2 8046   2.247   5.154   2.721
 2383SOL     OW 8047   5.267   6.293   6.924
 2383SOL    HW1 8048   5.282   6.195   6.908
 2383SOL    HW2 8049   5.231   6.335   6.840
 2384SOL     OW 8050   1.174   0.860   2.265
 2384SOL    HW1 8051   1.159   0.801   2.344
 2384SOL    HW2 8052   1.187   0.805   2.183
 2385SOL     OW 8053   6.188   0.222   1.057
 2385SOL    HW1 8054   6.145   0.185   0.975
 2385SOL    HW2 8055   6.285   0.195   1.058
 2386SOL     OW 8056   4.002   4.835   4.214
 2386SOL    HW1 8057   3.964   4.764   4.273
 2386SOL    HW2 8058   3.975   4.925   4.249
 2387SOL     OW 8059   6.672   2.570   4.472
 2387SOL    HW1 8060   6.603   2.520   4.419
 2387SOL    HW2 8061   6.649   2.565   4.569
 2388SOL     OW 8062   1.095   1.918   5.157
 2388SOL    HW1 8063   1.138   1.853   5.220
 2388SOL    HW2 8064   1.048   1.867   5.084
 2389SOL     OW 8065   5.028   4.210   3.835
 2389SOL    HW1 8066   5.086   4.139   3.875
 2389SOL    HW2 8067   5.052   4.299   3.875
 2390SOL     OW 8068   3.336   3.688   4.717
 2390SOL    HW1 8069   3.318   3.611   4.656
 2390SOL    HW2 8070   3.406   3.747   4.676
 2391SOL     OW 8071   3.525   4.399   5.532
 2391SOL    HW1 8072   3.599   4.444   5.484
 2391SOL    HW2 8073   3.466   4.352   5.466
 2392SOL     OW 8074   3.152   5.956   5.732
 2392SOL    HW1 8075   3.077   5.909   5.778
 2392SOL    HW2 8076   3.208   6.004   5.800
 2393SOL     OW 8077   3.479   5.336   1.460
 2393SOL    HW1 8078   3.389   5.347   1.503
 2393SOL    HW2 8079   3.498   5.239   1.445
 2394SOL     OW 8080   1.657   3.803   4.900
 2394SOL    HW1 8081   1.624   3.815   4.994
 2394SOL    HW2 8082   1.746   3.847   4.891
 2395SOL     OW 8083   6.876   2.054   6.862
 2395SOL    HW1 8084   6.958   2.015   6.904
 2395SOL    HW2 8085   6.804   1.984   6.858
 2396SOL     OW 8086   5.464   5.787   0.946
 2396SOL    HW1 8087   5.431   5.748   1.031
 2396SOL    HW2 8088   5.469   5.887   0.954
 2397SOL     OW 8089   6.842   4.667   0.631
 2397SOL    HW1 8090   6.861   4.704   0.541
 2397SOL    HW2 8091   6.762   4.606   0.626
 2398SOL     OW 8092   2.613   4.878   5.868
 2398SOL    HW1 8093   2.702   4.863   5.824
 2398SOL    HW2 8094   2.541   4.872   5.799
 2399SOL     OW 8095   4.472   1.959   2.356
 2399SOL    HW1 8096   4.427   1.924   2.274
 2399SOL    HW2 8097   4.403   1.991   2.421
 2400SOL     OW 8098   3.933   4.504   0.652
 2400SOL    HW1 8099   3.965   4.490   0.558
 2400SOL    HW2 8100   3.876   4.427   0.680
 2401SOL     OW 8101   3.609   0.466   5.683
 2401SOL    HW1 8102   3.633   0.467   5.586
 2401SOL    HW2 8103   3.678   0.414   5.734
 2402SOL     OW 8104   6.962   2.222   4.449
 2402SOL    HW1 8105   0.011   2.196   4.378
 2402SOL    HW2 8106   6.898   2.146   4.465
 2403SOL     OW 8107   2.727   2.718   6.871
 2403SOL    HW1 8108   2.680   2.780   6.934
 2403SOL    HW2 8109   2.706   2.623   6.895
 2404SOL     OW 8110   5.272   1.571   2.697
 2404SOL    HW1 8111   5.242   1.480   2.669
 2404SOL    HW2 8112   5.340   1.606   2.632
 2405SOL     OW 8113   3.815   3.399   5.214
 2405SOL    HW1 8114   3.882   3.469   5.239
 2405SOL    HW2 8115   3.749   3.437   5.149
 2406SOL     OW 8116   2.033   0.591   3.602
 2406SOL    HW1 8117   2.098   0.585   3.527
 2406SOL    HW2 8118   1.940   0.595   3.566
 2407SOL     OW 8119   4.271   1.954   3.050
 2407SOL    HW1 8120   4.347   1.889   3.053
 2407SOL    HW2 8121   4.189   1.909   3.016
 2408SOL     OW 8122   3.724   5.305   2.539
 2408SOL    HW1 8123   3.721   5.296   2.638
 2408SOL    HW2 8124   3.808   5.263   2.504
 2409SOL     OW 8125   2.268   2.798   2.030
 2409SOL    HW1 8126   2.217   2.884   2.032
 2409SOL    HW2 8127   2.300   2.780   1.937
 2410SOL     OW 8128   6.710   2.539   5.565
 2410SOL    HW1 8129   6.673   2.568   5.477
 2410SOL    HW2 8130   6.701   2.440   5.574
 2411SOL     OW 8131   3.672   4.482   5.340
 2411SOL    HW1 8132   3.671   4.580   5.316
 2411SOL    HW2 8133   3.684   4.428   5.257
 2412SOL     OW 8134   2.774   4.152   0.036
 2412SOL    HW1 8135   2.872   4.149   0.058
 2412SOL    HW2 8136   2.751   4.076   6.991
 2413SOL     OW 8137   6.390   3.284   6.662
 2413SOL    HW1 8138   6.436   3.328   6.740
 2413SOL    HW2 8139   6.303   3.245   6.692
 2414SOL     OW 8140   6.060   4.028   2.700
 2414SOL    HW1 8141   6.138   4.049   2.641
 2414SOL    HW2 8142   5.976   4.060   2.656
 2415SOL     OW 8143   1.596   0.408   0.897
 2415SOL    HW1 8144   1.508   0.372   0.866
 2415SOL    HW2 8145   1.635   0.466   0.826
 2416SOL     OW 8146   3.015   1.205   4.873
 2416SOL    HW1 8147   2.953   1.189   4.949
 2416SOL    HW2 8148   3.109   1.206   4.906
 2417SOL     OW 8149   4.518   2.480   0.246
 2417SOL    HW1 8150   4.477   2.452   0.159
 2417SOL    HW2 8151   4.600   2.534   0.228
 2418SOL     OW 8152   3.308   3.443   4.557
 2418SOL    HW1 8153   3.289   3.354   4.600
 2418SOL    HW2 8154   3.274   3.442   4.463
 2419SOL     OW 8155   0.297   6.652   4.496
 2419SOL    HW1 8156   0.202   6.618   4.499
 2419SOL    HW2 8157   0.356   6.581   4.458
 2420SOL     OW 8158   3.883   6.954   2.506
 2420SOL    HW1 8159   3.940   7.004   2.441
 2420SOL    HW2 8160   3.941   6.895   2.562
 2421SOL     OW 8161   3.019   0.816   4.495
 2421SOL    HW1 8162   2.923   0.809   4.469
 2421SOL    HW2 8163   3.035   0.905   4.539
 2422SOL     OW 8164   5.308   0.245   1.402
 2422SOL    HW1 8165   5.264   0.174   1.346
 2422SOL    HW2 8166   5.360   0.306   1.342
 2423SOL     OW 8167   1.002   5.961   3.070
 2423SOL    HW1 8168   0.981   6.019   2.992
 2423SOL    HW2 8169   1.029   6.018   3.148
 2424SOL     OW 8170   5.386   5.641   6.047
 2424SOL    HW1 8171   5.419   5.562   5.995
 2424SOL    HW2 8172   5.426   5.725   6.011
 2425SOL     OW 8173   6.684   0.149   4.415
 2425SOL    HW1 8174   6.749   0.087   4.459
 2425SOL    HW2 8175   6.628   0.097   4.350
 2426SOL     OW 8176   0.881   4.466   4.259
 2426SOL    HW1 8177   0.865   4.404   4.336
 2426SOL    HW2 8178   0.929   4.417   4.186
 2427SOL     OW 8179   6.475   5.433   0.092
 2427SOL    HW1 8180   6.514   5.516   0.133
 2427SOL    HW2 8181   6.376   5.444   0.085
 2428SOL     OW 8182   1.293   0.040   3.378
 2428SOL    HW1 8183   1.239   0.064   3.297
 2428SOL    HW2 8184   1.303   6.958   3.383
 2429SOL     OW 8185   6.591   5.433   3.253
 2429SOL    HW1 8186   6.594   5.354   3.315
 2429SOL    HW2 8187   6.663   5.423   3.184
 2430SOL     OW 8188   5.795   2.332   0.702
 2430SOL    HW1 8189   5.891   2.326   0.675
 2430SOL    HW2 8190   5.749   2.245   0.683
 2431SOL     OW 8191   4.179   0.537   1.923
 2431SOL    HW1 8192   4.219   0.628   1.926
 2431SOL    HW2 8193   4.169   0.501   2.015
 2432SOL     OW 8194   4.252   6.352   3.070
 2432SOL    HW1 8195   4.284   6.443   3.046
 2432SOL    HW2 8196   4.152   6.349   3.065
 2433SOL     OW 8197   3.017   6.762   0.540
 2433SOL    HW1 8198   2.967   6.710   0.470
 2433SOL    HW2 8199   3.086   6.820   0.496
 2434SOL     OW 8200   5.035   1.577   3.549
 2434SOL    HW1 8201   5.112   1.515   3.534
 2434SOL    HW2 8202   4.958   1.527   3.589
 2435SOL     OW 8203   4.469   5.774   0.096
 2435SOL    HW1 8204   4.442   5.690   0.049
 2435SOL    HW2 8205   4.557   5.805   0.059
 2436SOL     OW 8206   2.329   0.373   0.843
 2436SOL    HW1 8207   2.343   0.470   0.862
 2436SOL    HW2 8208   2.261   0.336   0.906
 2437SOL     OW 8209   5.444   5.658   1.221
 2437SOL    HW1 8210   5.382   5.595   1.268
 2437SOL    HW2 8211   5.532   5.614   1.206
 2438SOL     OW 8212   4.213   0.966   5.667
 2438SOL    HW1 8213   4.272   0.885   5.665
 2438SOL    HW2 8214   4.149   0.959   5.743
 2439SOL     OW 8215   1.205   3.926   6.916
 2439SOL    HW1 8216   1.192   3.831   6.889
 2439SOL    HW2 8217   1.234   3.979   6.836
 2440SOL     OW 8218   3.358   6.258   5.116
 2440SOL    HW1 8219   3.329   6.163   5.123
 2440SOL    HW2 8220   3.356   6.287   5.020
 2441SOL     OW 8221   6.519   1.410   6.930
 2441SOL    HW1 8222   6.523   1.313   6.954
 2441SOL    HW2 8223   6.607   1.453   6.952
 2442SOL     OW 8224   5.870   6.083   3.704
 2442SOL    HW1 8225   5.795   6.141   3.674
 2442SOL    HW2 8226   5.955   6.114   3.663
 2443SOL     OW 8227   2.779   0.298   6.811
 2443SOL    HW1 8228   2.759   0.396   6.799
 2443SOL    HW2 8229   2.845   0.269   6.742
 2444SOL     OW 8230   3.712   4.249   6.456
 2444SOL    HW1 8231   3.728   4.318   6.386
 2444SOL    HW2 8232   3.685   4.163   6.413
 2445SOL     OW 8233   6.994   0.944   2.179
 2445SOL    HW1 8234   6.978   1.031   2.226
 2445SOL    HW2 8235   0.011   0.962   2.087
 2446SOL     OW 8236   0.436   3.141   4.141
 2446SOL    HW1 8237   0.341   3.161   4.118
 2446SOL    HW2 8238   0.438   3.080   4.221
 2447SOL     OW 8239   3.197   1.041   1.330
 2447SOL    HW1 8240   3.217   1.043   1.232
 2447SOL    HW2 8241   3.124   1.106   1.350
 2448SOL     OW 8242   6.910   0.555   4.126
 2448SOL    HW1 8243   6.978   0.566   4.054
 2448SOL    HW2 8244   6.898   0.458   4.146
 2449SOL     OW 8245   6.425   4.628   2.864
 2449SOL    HW1 8246   6.341   4.682   2.857
 2449SOL    HW2 8247   6.446   4.587   2.775
 2450SOL     OW 8248   3.551   5.309   5.460
 2450SOL    HW1 8249   3.468   5.330   5.513
 2450SOL    HW2 8250   3.586   5.219   5.486
 2451SOL     OW 8251   0.716   0.284   3.790
 2451SOL    HW1 8252   0.716   0.247   3.697
 2451SOL    HW2 8253   0.722   0.210   3.856
 2452SOL     OW 8254   2.548   2.388   3.241
 2452SOL    HW1 8255   2.565   2.372   3.144
 2452SOL    HW2 8256   2.620   2.346   3.295
 2453SOL     OW 8257   6.216   3.502   0.824
 2453SOL    HW1 8258   6.242   3.588   0.869
 2453SOL    HW2 8259   6.266   3.426   0.866
 2454SOL     OW 8260   3.466   0.912   0.305
 2454SOL    HW1 8261   3.479   0.882   0.211
 2454SOL    HW2 8262   3.395   0.856   0.349
 2455SOL     OW 8263   4.823   0.579   0.942
 2455SOL    HW1 8264   4.917   0.547   0.952
 2455SOL    HW2 8265   4.766   0.536   1.012
 2456SOL     OW 8266   5.747   1.833   0.453
 2456SOL    HW1 8267   5.719   1.926   0.476
 2456SOL    HW2 8268   5.668   1.782   0.420
 2457SOL     OW 8269   0.060   6.344   6.358
 2457SOL    HW1 8270   0.101   6.411   6.421
 2457SOL    HW2 8271   0.015   6.393   6.283
 2458SOL     OW 8272   2.080   6.016   4.259
 2458SOL    HW1 8273   2.105   5.978   4.170
 2458SOL    HW2 8274   2.094   5.947   4.330
 2459SOL     OW 8275   2.903   5.877   6.177
 2459SOL    HW1 8276   2.948   5.966   6.192
 2459SOL    HW2 8277   2.881   5.835   6.264
 2460SOL     OW 8278   2.018   1.498   1.860
 2460SOL    HW1 8279   2.003   1.487   1.959
 2460SOL    HW2 8280   2.016   1.595   1.837
 2461SOL     OW 8281   4.824   0.642   3.098
 2461SOL    HW1 8282   4.865   0.615   3.011
 2461SOL    HW2 8283   4.729   0.671   3.082
 2462SOL     OW 8284   1.956   5.747   0.724
 2462SOL    HW1 8285   1.982   5.683   0.796
 2462SOL    HW2 8286   2.024   5.819   0.717
 2463SOL     OW 8287   6.504   2.339   5.429
 2463SOL    HW1 8288   6.562   2.312   5.506
 2463SOL    HW2 8289   6.415   2.370   5.463
 2464SOL     OW 8290   1.897   4.059   2.292
 2464SOL    HW1 8291   1.926   3.989   2.226
 2464SOL    HW2 8292   1.864   4.014   2.375
 2465SOL     OW 8293   0.294   0.671   1.931
 2465SOL    HW1 8294   0.213   0.612   1.923
 2465SOL    HW2 8295   0.319   0.680   2.027
 2466SOL     OW 8296   2.486   1.919   2.461
 2466SOL    HW1 8297   2.564   1.863   2.487
 2466SOL    HW2 8298   2.466   1.905   2.363
 2467SOL     OW 8299   5.351   0.847   5.015
 2467SOL    HW1 8300   5.348   0.905   5.096
 2467SOL    HW2 8301   5.396   0.896   4.940
 2468SOL     OW 8302   4.831   6.241   2.207
 2468SOL    HW1 8303   4.925   6.273   2.221
 2468SOL    HW2 8304   4.772   6.276   2.280
 2469SOL     OW 8305   3.910   4.013   5.467
 2469SOL    HW1 8306   3.835   4.066   5.428
 2469SOL    HW2 8307   3.909   4.024   5.567
 2470SOL     OW 8308   3.706   4.643   6.444
 2470SOL    HW1 8309   3.651   4.725   6.463
 2470SOL    HW2 8310   3.793   4.650   6.492
 2471SOL     OW 8311   2.857   6.018   0.898
 2471SOL    HW1 8312   2.928   5.951   0.875
 2471SOL    HW2 8313   2.886   6.073   0.976
 2472SOL     OW 8314   5.130   2.338   4.777
 2472SOL    HW1 8315   5.155   2.410   4.713
 2472SOL    HW2 8316   5.081   2.377   4.855
 2473SOL     OW 8317   2.209   4.059   4.724
 2473SOL    HW1 8318   2.149   4.101   4.793
 2473SOL    HW2 8319   2.293   4.026   4.769
 2474SOL     OW 8320   0.494   6.299   1.130
 2474SOL    HW1 8321   0.533   6.353   1.056
 2474SOL    HW2 8322   0.458   6.213   1.093
 2475SOL     OW 8323   4.361   1.618   1.850
 2475SOL    HW1 8324   4.263   1.618   1.831
 2475SOL    HW2 8325   4.390   1.710   1.877
 2476SOL     OW 8326   0.227   1.893   3.619
 2476SOL    HW1 8327   0.129   1.906   3.632
 2476SOL    HW2 8328   0.278   1.965   3.666
 2477SOL     OW 8329   4.919   1.667   2.484
 2477SOL    HW1 8330   4.898   1.612   2.565
 2477SOL    HW2 8331   4.841   1.665   2.422
 2478SOL     OW 8332   6.066   1.372   2.318
 2478SOL    HW1 8333   5.997   1.324   2.265
 2478SOL    HW2 8334   6.114   1.307   2.378
 2479SOL     OW 8335   1.848   3.562   1.286
 2479SOL    HW1 8336   1.887   3.469   1.289
 2479SOL    HW2 8337   1.749   3.556   1.273
 2480SOL     OW 8338   6.053   4.122   0.706
 2480SOL    HW1 8339   5.996   4.040   0.709
 2480SOL    HW2 8340   6.149   4.094   0.693
 2481SOL     OW 8341   2.149   0.864   0.088
 2481SOL    HW1 8342   2.231   0.809   0.103
 2481SOL    HW2 8343   2.068   0.807   0.096
 2482SOL     OW 8344   4.743   3.077   6.036
 2482SOL    HW1 8345   4.801   3.059   5.957
 2482SOL    HW2 8346   4.761   3.169   6.070
 2483SOL     OW 8347   1.926   1.826   6.555
 2483SOL    HW1 8348   1.831   1.824   6.588
 2483SOL    HW2 8349   1.984   1.773   6.616
 2484SOL     OW 8350   3.053   0.617   0.429
 2484SOL    HW1 8351   2.974   0.638   0.371
 2484SOL    HW2 8352   3.023   0.564   0.509
 2485SOL     OW 8353   5.811   3.695   1.616
 2485SOL    HW1 8354   5.818   3.742   1.705
 2485SOL    HW2 8355   5.722   3.649   1.610
 2486SOL     OW 8356   1.927   4.459   4.819
 2486SOL    HW1 8357   2.007   4.497   4.772
 2486SOL    HW2 8358   1.864   4.533   4.842
 2487SOL     OW 8359   3.791   6.002   0.290
 2487SOL    HW1 8360   3.694   6.007   0.313
 2487SOL    HW2 8361   3.804   5.936   0.216
 2488SOL     OW 8362   2.182   4.538   2.300
 2488SOL    HW1 8363   2.130   4.518   2.383
 2488SOL    HW2 8364   2.122   4.580   2.232
 2489SOL     OW 8365   1.341   5.678   3.142
 2489SOL    HW1 8366   1.283   5.597   3.142
 2489SOL    HW2 8367   1.402   5.676   3.222
 2490SOL     OW 8368   6.406   5.122   1.521
 2490SOL    HW1 8369   6.453   5.083   1.600
 2490SOL    HW2 8370   6.407   5.222   1.529
 2491SOL     OW 8371   2.709   5.293   1.113
 2491SOL    HW1 8372   2.657   5.306   1.028
 2491SOL    HW2 8373   2.671   5.216   1.163
 2492SOL     OW 8374   4.269   2.640   0.200
 2492SOL    HW1 8375   4.261   2.579   0.121
 2492SOL    HW2 8376   4.358   2.626   0.244
 2493SOL     OW 8377   6.558   0.825   2.493
 2493SOL    HW1 8378   6.568   0.725   2.485
 2493SOL    HW2 8379   6.481   0.855   2.437
 2494SOL     OW 8380   5.975   4.130   1.938
 2494SOL    HW1 8381   5.973   4.156   1.841
 2494SOL    HW2 8382   6.058   4.168   1.980
 2495SOL     OW 8383   5.000   0.005   4.602
 2495SOL    HW1 8384   5.076   7.012   4.538
 2495SOL    HW2 8385   4.940   0.079   4.571
 2496SOL     OW 8386   0.282   3.845   6.101
 2496SOL    HW1 8387   0.234   3.758   6.107
 2496SOL    HW2 8388   0.378   3.832   6.123
 2497SOL     OW 8389   0.138   1.088   0.882
 2497SOL    HW1 8390   0.078   1.120   0.809
 2497SOL    HW2 8391   0.099   1.006   0.924
 2498SOL     OW 8392   3.670   1.974   4.248
 2498SOL    HW1 8393   3.689   2.016   4.160
 2498SOL    HW2 8394   3.715   2.026   4.320
 2499SOL     OW 8395   5.207   2.518   4.590
 2499SOL    HW1 8396   5.160   2.525   4.502
 2499SOL    HW2 8397   5.306   2.522   4.575
 2500SOL     OW 8398   4.387   2.859   6.964
 2500SOL    HW1 8399   4.467   2.812   7.000
 2500SOL    HW2 8400   4.340   2.799   6.899
 2501SOL     OW 8401   6.487   5.743   0.063
 2501SOL    HW1 8402   6.389   5.742   0.083
 2501SOL    HW2 8403   6.517   5.838   0.050
 2502SOL     OW 8404   2.080   5.964   3.312
 2502SOL    HW1 8405   2.155   6.007   3.262
 2502SOL    HW2 8406   2.039   6.032   3.373
 2503SOL     OW 8407   3.522   5.780   4.725
 2503SOL    HW1 8408   3.597   5.713   4.720
 2503SOL    HW2 8409   3.442   5.738   4.767
 2504SOL     OW 8410   2.619   5.265   4.984
 2504SOL    HW1 8411   2.532   5.219   5.000
 2504SOL    HW2 8412   2.687   5.232   5.048
 2505SOL     OW 8413   1.824   6.033   4.186
 2505SOL    HW1 8414   1.921   6.034   4.211
 2505SOL    HW2 8415   1.768   6.046   4.267
 2506SOL     OW 8416   5.839   3.486   6.298
 2506SOL    HW1 8417   5.750   3.513   6.334
 2506SOL    HW2 8418   5.827   3.449   6.206
 2507SOL     OW 8419   1.204   4.426   0.970
 2507SOL    HW1 8420   1.195   4.409   0.872
 2507SOL    HW2 8421   1.243   4.517   0.985
 2508SOL     OW 8422   2.939   1.173   2.143
 2508SOL    HW1 8423   2.920   1.246   2.077
 2508SOL    HW2 8424   2.855   1.148   2.190
 2509SOL     OW 8425   6.106   2.532   2.683
 2509SOL    HW1 8426   6.034   2.601   2.673
 2509SOL    HW2 8427   6.064   2.443   2.700
 2510SOL     OW 8428   3.316   4.087   1.391
 2510SOL    HW1 8429   3.294   4.062   1.297
 2510SOL    HW2 8430   3.352   4.007   1.439
 2511SOL     OW 8431   2.714   1.466   3.754
 2511SOL    HW1 8432   2.807   1.430   3.754
 2511SOL    HW2 8433   2.661   1.422   3.827
 2512SOL     OW 8434   4.773   5.104   4.870
 2512SOL    HW1 8435   4.835   5.028   4.886
 2512SOL    HW2 8436   4.760   5.155   4.955
 2513SOL     OW 8437   1.437   3.294   4.855
 2513SOL    HW1 8438   1.341   3.283   4.881
 2513SOL    HW2 8439   1.453   3.251   4.766
 2514SOL     OW 8440   6.580   3.348   3.950
 2514SOL    HW1 8441   6.508   3.307   4.006
 2514SOL    HW2 8442   6.664   3.294   3.960
 2515SOL     OW 8443   1.431   6.446   0.386
 2515SOL    HW1 8444   1.506   6.402   0.435
 2515SOL    HW2 8445   1.406   6.531   0.432
 2516SOL     OW 8446   5.868   0.287   3.685
 2516SOL    HW1 8447   5.814   0.310   3.766
 2516SOL    HW2 8448   5.813   0.302   3.603
 2517SOL     OW 8449   1.132   5.796   6.240
 2517SOL    HW1 8450   1.083   5.831   6.160
 2517SOL    HW2 8451   1.228   5.782   6.216
 2518SOL     OW 8452   2.367   3.547   6.479
 2518SOL    HW1 8453   2.448   3.489   6.468
 2518SOL    HW2 8454   2.293   3.494   6.519
 2519SOL     OW 8455   4.774   6.425   3.775
 2519SOL    HW1 8456   4.777   6.525   3.777
 2519SOL    HW2 8457   4.861   6.389   3.807
 2520SOL     OW 8458   1.216   2.974   7.014
 2520SOL    HW1 8459   1.153   2.963   6.937
 2520SOL    HW2 8460   1.305   3.005   6.980
 2521SOL     OW 8461   1.099   6.228   6.058
 2521SOL    HW1 8462   1.090   6.129   6.051
 2521SOL    HW2 8463   1.068   6.270   5.973
 2522SOL     OW 8464   0.059   2.952   5.751
 2522SOL    HW1 8465   6.984   2.911   5.752
 2522SOL    HW2 8466   0.116   2.908   5.820
 2523SOL     OW 8467   7.006   3.232   1.386
 2523SOL    HW1 8468   0.023   3.151   1.337
 2523SOL    HW2 8469   0.045   3.248   1.467
 2524SOL     OW 8470   0.850   5.111   4.906
 2524SOL    HW1 8471   0.814   5.123   4.813
 2524SOL    HW2 8472   0.942   5.071   4.901
 2525SOL     OW 8473   0.717   2.903   4.307
 2525SOL    HW1 8474   0.789   2.968   4.332
 2525SOL    HW2 8475   0.627   2.946   4.319
 2526SOL     OW 8476   1.713   4.538   5.303
 2526SOL    HW1 8477   1.793   4.498   5.258
 2526SOL    HW2 8478   1.642   4.467   5.314
 2527SOL     OW 8479   5.493   6.158   4.996
 2527SOL    HW1 8480   5.519   6.210   4.914
 2527SOL    HW2 8481   5.429   6.086   4.970
 2528SOL     OW 8482   6.007   4.361   0.824
 2528SOL    HW1 8483   6.103   4.389   0.825
 2528SOL    HW2 8484   6.000   4.269   0.786
 2529SOL     OW 8485   0.054   6.221   6.670
 2529SOL    HW1 8486   0.106   6.303   6.646
 2529SOL    HW2 8487   0.115   6.143   6.676
 2530SOL     OW 8488   1.239   6.369   4.454
 2530SOL    HW1 8489   1.158   6.414   4.491
 2530SOL    HW2 8490   1.293   6.436   4.403
 2531SOL     OW 8491   5.297   5.896   4.454
 2531SOL    HW1 8492   5.277   5.994   4.460
 2531SOL    HW2 8493   5.229   5.851   4.397
 2532SOL     OW 8494   0.867   5.923   1.020
 2532SOL    HW1 8495   0.925   5.848   1.051
 2532SOL    HW2 8496   0.923   5.990   0.970
 2533SOL     OW 8497   3.769   0.327   3.278
 2533SOL    HW1 8498   3.858   0.372   3.274
 2533SOL    HW2 8499   3.782   0.229   3.288
 2534SOL     OW 8500   2.560   1.040   2.947
 2534SOL    HW1 8501   2.646   1.039   2.895
 2534SOL    HW2 8502   2.484   1.014   2.887
 2535SOL     OW 8503   2.623   2.729   6.603
 2535SOL    HW1 8504   2.654   2.759   6.693
 2535SOL    HW2 8505   2.658   2.637   6.585
 2536SOL     OW 8506   6.659   2.191   3.809
 2536SOL    HW1 8507   6.745   2.141   3.806
 2536SOL    HW2 8508   6.598   2.157   3.737
 2537SOL     OW 8509   5.152   6.290   6.613
 2537SOL    HW1 8510   5.218   6.365   6.621
 2537SOL    HW2 8511   5.059   6.327   6.612
 2538SOL     OW 8512   1.225   4.192   4.496
 2538SOL    HW1 8513   1.186   4.135   4.423
 2538SOL    HW2 8514   1.324   4.174   4.503
 2539SOL     OW 8515   5.264   0.515   6.061
 2539SOL    HW1 8516   5.304   0.508   5.969
 2539SOL    HW2 8517   5.213   0.600   6.069
 2540SOL     OW 8518   4.473   1.007   2.401
 2540SOL    HW1 8519   4.387   0.971   2.365
 2540SOL    HW2 8520   4.489   1.098   2.364
 2541SOL     OW 8521   1.710   6.488   5.364
 2541SOL    HW1 8522   1.728   6.545   5.444
 2541SOL    HW2 8523   1.726   6.541   5.281
 2542SOL     OW 8524   5.024   1.468   5.765
 2542SOL    HW1 8525   4.963   1.541   5.734
 2542SOL    HW2 8526   4.974   1.382   5.768
 2543SOL     OW 8527   1.717   1.690   2.725
 2543SOL    HW1 8528   1.720   1.790   2.728
 2543SOL    HW2 8529   1.724   1.653   2.817
 2544SOL     OW 8530   0.038   5.254   1.574
 2544SOL    HW1 8531   0.125   5.292   1.606
 2544SOL    HW2 8532   0.032   5.158   1.601
 2545SOL     OW 8533   1.991   0.972   0.979
 2545SOL    HW1 8534   1.895   0.948   0.987
 2545SOL    HW2 8535   2.016   0.980   0.883
 2546SOL     OW 8536   0.060   2.805   2.623
 2546SOL    HW1 8537   7.006   2.872   2.601
 2546SOL    HW2 8538   0.016   2.718   2.647
 2547SOL     OW 8539   6.148   4.984   6.975
 2547SOL    HW1 8540   6.058   5.018   7.005
 2547SOL    HW2 8541   6.143   4.960   6.878
 2548SOL     OW 8542   3.071   6.856   5.286
 2548SOL    HW1 8543   3.107   6.763   5.285
 2548SOL    HW2 8544   2.992   6.861   5.348
 2549SOL     OW 8545   2.053   1.107   1.463
 2549SOL    HW1 8546   1.993   1.182   1.437
 2549SOL    HW2 8547   2.141   1.117   1.417
 2550SOL     OW 8548   6.814   0.623   6.307
 2550SOL    HW1 8549   6.766   0.648   6.223
 2550SOL    HW2 8550   6.912   0.617   6.288
 2551SOL     OW 8551   2.548   5.568   6.763
 2551SOL    HW1 8552   2.468   5.625   6.780
 2551SOL    HW2 8553   2.549   5.492   6.829
 2552SOL     OW 8554   1.161   5.935   5.999
 2552SOL    HW1 8555   1.197   5.881   5.922
 2552SOL    HW2 8556   1.237   5.965   6.057
 2553SOL     OW 8557   3.538   3.812   6.919
 2553SOL    HW1 8558   3.466   3.744   6.906
 2553SOL    HW2 8559   3.600   3.811   6.841
 2554SOL     OW 8560   1.397   5.777   6.888
 2554SOL    HW1 8561   1.445   5.855   6.929
 2554SOL    HW2 8562   1.335   5.737   6.956
 2555SOL     OW 8563   6.506   6.145   5.890
 2555SOL    HW1 8564   6.592   6.163   5.937
 2555SOL    HW2 8565   6.432   6.138   5.956
 2556SOL     OW 8566   3.980   5.870   0.574
 2556SOL    HW1 8567   4.003   5.899   0.481
 2556SOL    HW2 8568   3.999   5.945   0.638
 2557SOL     OW 8569   2.478   2.379   6.576
 2557SOL    HW1 8570   2.394   2.353   6.624
 2557SOL    HW2 8571   2.455   2.439   6.499
 2558SOL     OW 8572   4.002   3.264   6.143
 2558SOL    HW1 8573   4.092   3.257   6.185
 2558SOL    HW2 8574   3.958   3.349   6.174
 2559SOL     OW 8575   6.291   3.290   4.508
 2559SOL    HW1 8576   6.272   3.337   4.422
 2559SOL    HW2 8577   6.371   3.230   4.498
 2560SOL     OW 8578   5.363   3.606   4.190
 2560SOL    HW1 8579   5.317   3.645   4.269
 2560SOL    HW2 8580   5.296   3.582   4.120
 2561SOL     OW 8581   3.067   0.354   4.156
 2561SOL    HW1 8582   3.073   0.429   4.222
 2561SOL    HW2 8583   3.082   0.389   4.064
 2562SOL     OW 8584   1.931   5.774   2.505
 2562SOL    HW1 8585   1.878   5.694   2.476
 2562SOL    HW2 8586   1.881   5.857   2.479
 2563SOL     OW 8587   4.314   1.340   6.894
 2563SOL    HW1 8588   4.399   1.328   6.946
 2563SOL    HW2 8589   4.251   1.397   6.946
 2564SOL     OW 8590   0.893   6.770   6.480
 2564SOL    HW1 8591   0.955   6.731   6.413
 2564SOL    HW2 8592   0.799   6.744   6.459
 2565SOL     OW 8593   6.940   0.750   0.215
 2565SOL    HW1 8594   6.909   0.825   0.156
 2565SOL    HW2 8595   6.880   0.743   0.294
 2566SOL     OW 8596   1.908   0.197   0.896
 2566SOL    HW1 8597   1.810   0.182   0.884
 2566SOL    HW2 8598   1.941   0.259   0.825
 2567SOL     OW 8599   1.391   1.369   1.935
 2567SOL    HW1 8600   1.340   1.317   1.867
 2567SOL    HW2 8601   1.425   1.454   1.894
 2568SOL     OW 8602   3.008   0.239   6.630
 2568SOL    HW1 8603   3.044   0.224   6.538
 2568SOL    HW2 8604   2.986   0.151   6.672
 2569SOL     OW 8605   2.981   0.647   1.588
 2569SOL    HW1 8606   3.043   0.623   1.514
 2569SOL    HW2 8607   2.934   0.733   1.566
 2570SOL     OW 8608   6.048   0.798   0.046
 2570SOL    HW1 8609   6.136   0.824   0.007
 2570SOL    HW2 8610   5.978   0.862   0.015
 2571SOL     OW 8611   2.672   3.585   5.356
 2571SOL    HW1 8612   2.618   3.663   5.326
 2571SOL    HW2 8613   2.743   3.615   5.419
 2572SOL     OW 8614   2.067   6.336   0.924
 2572SOL    HW1 8615   1.989   6.300   0.975
 2572SOL    HW2 8616   2.086   6.430   0.953
 2573SOL     OW 8617   6.167   1.784   2.551
 2573SOL    HW1 8618   6.263   1.812   2.542
 2573SOL    HW2 8619   6.136   1.745   2.464
 2574SOL     OW 8620   0.150   3.213   0.328
 2574SOL    HW1 8621   0.131   3.301   0.284
 2574SOL    HW2 8622   0.177   3.230   0.423
 2575SOL     OW 8623   5.041   4.537   6.956
 2575SOL    HW1 8624   5.092   4.565   0.021
 2575SOL    HW2 8625   4.982   4.459   6.980
 2576SOL     OW 8626   4.332   6.916   4.453
 2576SOL    HW1 8627   4.249   6.943   4.502
 2576SOL    HW2 8628   4.409   6.916   4.517
 2577SOL     OW 8629   4.230   5.967   2.189
 2577SOL    HW1 8630   4.193   5.963   2.281
 2577SOL    HW2 8631   4.330   5.978   2.194
 2578SOL     OW 8632   4.932   2.656   4.694
 2578SOL    HW1 8633   4.843   2.628   4.658
 2578SOL    HW2 8634   4.991   2.685   4.618
 2579SOL     OW 8635   1.011   0.867   3.307
 2579SOL    HW1 8636   0.983   0.961   3.326
 2579SOL    HW2 8637   0.984   0.809   3.384
 2580SOL     OW 8638   2.218   2.646   6.809
 2580SOL    HW1 8639   2.221   2.646   6.909
 2580SOL    HW2 8640   2.123   2.650   6.779
 2581SOL     OW 8641   6.844   4.224   1.148
 2581SOL    HW1 8642   6.912   4.152   1.133
 2581SOL    HW2 8643   6.765   4.208   1.090
 2582SOL     OW 8644   1.100   4.404   2.212
 2582SOL    HW1 8645   1.116   4.400   2.114
 2582SOL    HW2 8646   1.096   4.311   2.249
 2583SOL     OW 8647   0.662   1.645   1.110
 2583SOL    HW1 8648   0.567   1.614   1.122
 2583SOL    HW2 8649   0.673   1.683   1.018
 2584SOL     OW 8650   4.096   5.664   0.310
 2584SOL    HW1 8651   4.134   5.753   0.286
 2584SOL    HW2 8652   4.164   5.612   0.362
 2585SOL     OW 8653   4.159   1.519   7.013
 2585SOL    HW1 8654   4.078   1.516   6.955
 2585SOL    HW2 8655   4.147   1.590   0.066
 2586SOL     OW 8656   3.840   1.507   3.660
 2586SOL    HW1 8657   3.830   1.423   3.608
 2586SOL    HW2 8658   3.750   1.541   3.688
 2587SOL     OW 8659   6.597   1.286   3.415
 2587SOL    HW1 8660   6.638   1.205   3.373
 2587SOL    HW2 8661   6.590   1.272   3.514
 2588SOL     OW 8662   4.930   6.619   6.745
 2588SOL    HW1 8663   4.922   6.681   6.824
 2588SOL    HW2 8664   4.913   6.525   6.776
 2589SOL     OW 8665   0.511   5.897   5.817
 2589SOL    HW1 8666   0.474   5.939   5.899
 2589SOL    HW2 8667   0.503   5.797   5.824
 2590SOL     OW 8668   3.021   6.251   1.915
 2590SOL    HW1 8669   2.980   6.211   1.998
 2590SOL    HW2 8670   3.084   6.185   1.874
 2591SOL     OW 8671   6.914   5.594   1.727
 2591SOL    HW1 8672   6.964   5.605   1.812
 2591SOL    HW2 8673   6.978   5.596   1.650
 2592SOL     OW 8674   3.284   6.795   1.404
 2592SOL    HW1 8675   3.256   6.816   1.498
 2592SOL    HW2 8676   3.383   6.780   1.402
 2593SOL     OW 8677   2.775   6.198   1.733
 2593SOL    HW1 8678   2.717   6.278   1.754
 2593SOL    HW2 8679   2.864   6.210   1.777
 2594SOL     OW 8680   6.981   5.762   5.842
 2594SOL    HW1 8681   6.906   5.792   5.901
 2594SOL    HW2 8682   0.048   5.754   5.895
 2595SOL     OW 8683   6.099   1.247   4.835
 2595SOL    HW1 8684   6.064   1.198   4.915
 2595SOL    HW2 8685   6.023   1.270   4.774
 2596SOL     OW 8686   3.785   2.154   1.634
 2596SOL    HW1 8687   3.775   2.183   1.729
 2596SOL    HW2 8688   3.695   2.142   1.593
 2597SOL     OW 8689   1.909   3.652   6.354
 2597SOL    HW1 8690   1.998   3.685   6.321
 2597SOL    HW2 8691   1.908   3.653   6.454
 2598SOL     OW 8692   6.107   0.703   4.572
 2598SOL    HW1 8693   6.190   0.689   4.518
 2598SOL    HW2 8694   6.097   0.628   4.639
 2599SOL     OW 8695   2.785   0.795   0.573
 2599SOL    HW1 8696   2.801   0.798   0.474
 2599SOL    HW2 8697   2.838   0.720   0.613
 2600SOL     OW 8698   5.066   3.338   4.331
 2600SOL    HW1 8699   5.021   3.427   4.321
 2600SOL    HW2 8700   5.031   3.275   4.262
 2601SOL     OW 8701   2.273   1.898   6.728
 2601SOL    HW1 8702   2.307   1.964   6.796
 2601SOL    HW2 8703   2.194   1.849   6.766
 2602SOL     OW 8704   6.517   4.646   3.841
 2602SOL    HW1 8705   6.494   4.670   3.746
 2602SOL    HW2 8706   6.614   4.623   3.847
 2603SOL     OW 8707   2.027   1.797   2.095
 2603SOL    HW1 8708   2.044   1.791   1.997
 2603SOL    HW2 8709   2.033   1.893   2.124
 2604SOL     OW 8710   4.754   1.494   3.326
 2604SOL    HW1 8711   4.657   1.513   3.313
 2604SOL    HW2 8712   4.765   1.399   3.357
 2605SOL     OW 8713   2.215   4.127   2.997
 2605SOL    HW1 8714   2.183   4.078   2.916
 2605SOL    HW2 8715   2.191   4.074   3.079
 2606SOL     OW 8716   6.868   4.960   1.396
 2606SOL    HW1 8717   6.861   4.866   1.363
 2606SOL    HW2 8718   6.963   4.989   1.398
 2607SOL     OW 8719   7.017   1.270   6.733
 2607SOL    HW1 8720   0.021   1.273   6.830
 2607SOL    HW2 8721   6.994   1.177   6.706
 2608SOL     OW 8722   4.567   4.898   1.805
 2608SOL    HW1 8723   4.638   4.921   1.872
 2608SOL    HW2 8724   4.477   4.911   1.846
 2609SOL     OW 8725   0.063   1.536   1.693
 2609SOL    HW1 8726   0.021   1.602   1.632
 2609SOL    HW2 8727   0.060   1.571   1.787
 2610SOL     OW 8728   0.013   5.014   4.372
 2610SOL    HW1 8729   0.079   4.969   4.312
 2610SOL    HW2 8730   0.058   5.043   4.456
 2611SOL     OW 8731   4.369   6.083   0.910
 2611SOL    HW1 8732   4.398   6.004   0.856
 2611SOL    HW2 8733   4.349   6.053   1.003
 2612SOL     OW 8734   6.598   0.266   5.470
 2612SOL    HW1 8735   6.533   0.287   5.396
 2612SOL    HW2 8736   6.685   0.236   5.430
 2613SOL     OW 8737   2.871   6.581   0.407
 2613SOL    HW1 8738   2.853   6.487   0.438
 2613SOL    HW2 8739   2.933   6.578   0.329
 2614SOL     OW 8740   6.663   0.420   6.014
 2614SOL    HW1 8741   6.566   0.436   6.029
 2614SOL    HW2 8742   6.707   0.505   5.987
 2615SOL     OW 8743   7.011   3.483   2.937
 2615SOL    HW1 8744   0.079   3.504   2.887
 2615SOL    HW2 8745   6.942   3.551   2.915
 2616SOL     OW 8746   3.971   3.208   4.848
 2616SOL    HW1 8747   3.955   3.161   4.935
 2616SOL    HW2 8748   3.918   3.293   4.847
 2617SOL     OW 8749   3.639   6.584   1.154
 2617SOL    HW1 8750   3.548   6.542   1.151
 2617SOL    HW2 8751   3.699   6.539   1.087
 2618SOL     OW 8752   0.052   0.282   4.423
 2618SOL    HW1 8753   0.044   0.346   4.348
 2618SOL    HW2 8754   0.029   0.190   4.392
 2619SOL     OW 8755   4.118   1.749   3.254
 2619SOL    HW1 8756   4.193   1.787   3.308
 2619SOL    HW2 8757   4.040   1.731   3.314
 2620SOL     OW 8758   6.867   6.810   2.841
 2620SOL    HW1 8759   6.918   6.726   2.858
 2620SOL    HW2 8760   6.908   6.860   2.765
 2621SOL     OW 8761   1.285   5.885   2.993
 2621SOL    HW1 8762   1.193   5.895   3.031
 2621SOL    HW2 8763   1.332   5.809   3.037
 2622SOL     OW 8764   2.353   2.677   5.810
 2622SOL    HW1 8765   2.334   2.606   5.878
 2622SOL    HW2 8766   2.451   2.675   5.788
 2623SOL     OW 8767   2.322   1.313   5.341
 2623SOL    HW1 8768   2.357   1.406   5.351
 2623SOL    HW2 8769   2.357   1.273   5.256
 2624SOL     OW 8770   6.866   2.232   5.253
 2624SOL    HW1 8771   6.840   2.153   5.308
 2624SOL    HW2 8772   6.940   2.281   5.299
 2625SOL     OW 8773   2.378   2.094   5.472
 2625SOL    HW1 8774   2.303   2.108   5.408
 2625SOL    HW2 8775   2.459   2.145   5.442
 2626SOL     OW 8776   0.703   6.978   5.306
 2626SOL    HW1 8777   0.616   0.008   5.323
 2626SOL    HW2 8778   0.778   0.018   5.341
 2627SOL     OW 8779   1.644   1.574   5.424
 2627SOL    HW1 8780   1.595   1.491   5.396
 2627SOL    HW2 8781   1.604   1.653   5.377
 2628SOL     OW 8782   2.310   4.920   5.932
 2628SOL    HW1 8783   2.252   4.993   5.968
 2628SOL    HW2 8784   2.401   4.925   5.974
 2629SOL     OW 8785   2.947   3.251   1.744
 2629SOL    HW1 8786   2.901   3.181   1.690
 2629SOL    HW2 8787   2.880   3.314   1.783
 2630SOL     OW 8788   2.947   1.832   2.871
 2630SOL    HW1 8789   2.864   1.791   2.834
 2630SOL    HW2 8790   2.945   1.825   2.971
 2631SOL     OW 8791   5.410   0.284   5.614
 2631SOL    HW1 8792   5.442   0.196   5.649
 2631SOL    HW2 8793   5.455   0.303   5.527
 2632SOL     OW 8794   3.931   2.227   6.233
 2632SOL    HW1 8795   3.971   2.318   6.247
 2632SOL    HW2 8796   3.836   2.237   6.203
 2633SOL     OW 8797   6.865   0.981   4.298
 2633SOL    HW1 8798   6.957   0.952   4.272
 2633SOL    HW2 8799   6.871   1.038   4.381
 2634SOL     OW 8800   0.961   4.255   3.034
 2634SOL    HW1 8801   1.059   4.254   3.013
 2634SOL    HW2 8802   0.928   4.162   3.048
 2635SOL     OW 8803   5.938   6.303   5.760
 2635SOL    HW1 8804   5.918   6.209   5.732
 2635SOL    HW2 8805   5.867   6.334   5.823
 2636SOL     OW 8806   4.887   0.186   5.395
 2636SOL    HW1 8807   4.932   0.170   5.483
 2636SOL    HW2 8808   4.788   0.188   5.408
 2637SOL     OW 8809   5.035   1.775   3.770
 2637SOL    HW1 8810   5.049   1.708   3.696
 2637SOL    HW2 8811   4.978   1.850   3.737
 2638SOL     OW 8812   6.740   0.728   3.407
 2638SOL    HW1 8813   6.677   0.765   3.339
 2638SOL    HW2 8814   6.720   0.631   3.421
 2639SOL     OW 8815   0.836   6.591   1.273
 2639SOL    HW1 8816   0.886   6.678   1.271
 2639SOL    HW2 8817   0.760   6.594   1.208
 2640SOL     OW 8818   0.500   5.619   4.923
 2640SOL    HW1 8819   0.547   5.706   4.936
 2640SOL    HW2 8820   0.403   5.635   4.905
 2641SOL     OW 8821   4.931   3.175   2.142
 2641SOL    HW1 8822   4.839   3.142   2.118
 2641SOL    HW2 8823   4.988   3.098   2.169
 2642SOL     OW 8824   3.959   6.572   4.039
 2642SOL    HW1 8825   3.886   6.504   4.048
 2642SOL    HW2 8826   4.046   6.525   4.026
 2643SOL     OW 8827   0.284   3.954   2.826
 2643SOL    HW1 8828   0.332   3.866   2.823
 2643SOL    HW2 8829   0.231   3.959   2.910
 2644SOL     OW 8830   6.259   5.833   6.186
 2644SOL    HW1 8831   6.262   5.738   6.216
 2644SOL    HW2 8832   6.199   5.841   6.106
 2645SOL     OW 8833   4.683   5.485   4.693
 2645SOL    HW1 8834   4.694   5.397   4.648
 2645SOL    HW2 8835   4.709   5.477   4.789
 2646SOL     OW 8836   6.084   0.644   6.736
 2646SOL    HW1 8837   6.134   0.593   6.806
 2646SOL    HW2 8838   6.148   0.677   6.667
 2647SOL     OW 8839   6.534   0.129   1.814
 2647SOL    HW1 8840   6.547   0.046   1.868
 2647SOL    HW2 8841   6.470   0.110   1.739
 2648SOL     OW 8842   0.416   0.324   4.084
 2648SOL    HW1 8843   0.483   0.269   4.033
 2648SOL    HW2 8844   0.330   0.275   4.089
 2649SOL     OW 8845   5.953   3.135   6.984
 2649SOL    HW1 8846   6.031   3.132   0.029
 2649SOL    HW2 8847   5.879   3.079   0.004
 2650SOL     OW 8848   0.819   4.343   4.502
 2650SOL    HW1 8849   0.757   4.390   4.566
 2650SOL    HW2 8850   0.847   4.255   4.542
 2651SOL     OW 8851   0.864   1.072   0.517
 2651SOL    HW1 8852   0.958   1.081   0.483
 2651SOL    HW2 8853   0.835   1.159   0.556
 2652SOL     OW 8854   3.740   3.814   4.285
 2652SOL    HW1 8855   3.674   3.876   4.242
 2652SOL    HW2 8856   3.750   3.838   4.382
 2653SOL     OW 8857   5.105   6.542   5.462
 2653SOL    HW1 8858   5.067   6.552   5.370
 2653SOL    HW2 8859   5.180   6.607   5.473
 2654SOL     OW 8860   4.967   5.731   1.315
 2654SOL    HW1 8861   4.948   5.636   1.291
 2654SOL    HW2 8862   5.056   5.757   1.279
 2655SOL     OW 8863   4.200   5.856   4.025
 2655SOL    HW1 8864   4.106   5.887   4.011
 2655SOL    HW2 8865   4.202   5.791   4.101
 2656SOL     OW 8866   3.379   5.126   4.310
 2656SOL    HW1 8867   3.337   5.078   4.387
 2656SOL    HW2 8868   3.375   5.068   4.228
 2657SOL     OW 8869   1.174   4.207   6.141
 2657SOL    HW1 8870   1.258   4.166   6.107
 2657SOL    HW2 8871   1.097   4.146   6.123
 2658SOL     OW 8872   4.980   3.977   0.413
 2658SOL    HW1 8873   4.914   4.045   0.379
 2658SOL    HW2 8874   4.972   3.893   0.360
 2659SOL     OW 8875   5.720   3.254   4.210
 2659SOL    HW1 8876   5.694   3.158   4.216
 2659SOL    HW2 8877   5.655   3.310   4.262
 2660SOL     OW 8878   1.190   0.860   0.959
 2660SOL    HW1 8879   1.239   0.898   0.881
 2660SOL    HW2 8880   1.117   0.923   0.986
 2661SOL     OW 8881   2.530   6.942   1.149
 2661SOL    HW1 8882   2.595   6.923   1.075
 2661SOL    HW2 8883   2.561   0.004   1.201
 2662SOL     OW 8884   4.771   6.577   5.353
 2662SOL    HW1 8885   4.858   6.576   5.304
 2662SOL    HW2 8886   4.709   6.642   5.309
 2663SOL     OW 8887   3.051   3.765   6.891
 2663SOL    HW1 8888   3.080   3.787   6.798
 2663SOL    HW2 8889   2.984   3.691   6.889
 2664SOL     OW 8890   4.076   3.967   5.242
 2664SOL    HW1 8891   4.011   3.982   5.316
 2664SOL    HW2 8892   4.156   3.919   5.278
 2665SOL     OW 8893   2.474   2.712   5.210
 2665SOL    HW1 8894   2.426   2.681   5.128
 2665SOL    HW2 8895   2.477   2.812   5.211
 2666SOL     OW 8896   5.825   4.308   1.002
 2666SOL    HW1 8897   5.742   4.261   0.972
 2666SOL    HW2 8898   5.877   4.338   0.922
 2667SOL     OW 8899   1.067   6.830   3.897
 2667SOL    HW1 8900   1.025   6.883   3.824
 2667SOL    HW2 8901   1.092   6.739   3.863
 2668SOL     OW 8902   0.236   3.127   4.561
 2668SOL    HW1 8903   0.308   3.076   4.514
 2668SOL    HW2 8904   0.243   3.110   4.659
 2669SOL     OW 8905   2.725   4.355   5.338
 2669SOL    HW1 8906   2.786   4.425   5.300
 2669SOL    HW2 8907   2.762   4.264   5.319
 2670SOL     OW 8908   6.185   3.186   6.351
 2670SOL    HW1 8909   6.087   3.170   6.339
 2670SOL    HW2 8910   6.200   3.282   6.377
 2671SOL     OW 8911   3.896   5.195   5.880
 2671SOL    HW1 8912   3.904   5.251   5.797
 2671SOL    HW2 8913   3.820   5.229   5.936
 2672SOL     OW 8914   1.166   4.851   0.931
 2672SOL    HW1 8915   1.204   4.944   0.927
 2672SOL    HW2 8916   1.213   4.800   1.003
 2673SOL     OW 8917   6.071   0.683   3.721
 2673SOL    HW1 8918   6.046   0.763   3.666
 2673SOL    HW2 8919   6.130   0.623   3.668
 2674SOL     OW 8920   1.425   4.402   3.809
 2674SOL    HW1 8921   1.403   4.470   3.740
 2674SOL    HW2 8922   1.439   4.448   3.897
 2675SOL     OW 8923   6.238   5.448   3.538
 2675SOL    HW1 8924   6.260   5.399   3.623
 2675SOL    HW2 8925   6.260   5.390   3.460
 2676SOL     OW 8926   4.253   2.191   0.677
 2676SOL    HW1 8927   4.165   2.180   0.631
 2676SOL    HW2 8928   4.298   2.102   0.686
 2677SOL     OW 8929   3.071   3.423   0.144
 2677SOL    HW1 8930   3.147   3.444   0.082
 2677SOL    HW2 8931   3.105   3.369   0.222
 2678SOL     OW 8932   0.322   2.886   1.246
 2678SOL    HW1 8933   0.368   2.812   1.295
 2678SOL    HW2 8934   0.366   2.899   1.157
 2679SOL     OW 8935   3.498   4.476   0.997
 2679SOL    HW1 8936   3.407   4.448   0.966
 2679SOL    HW2 8937   3.512   4.573   0.975
 2680SOL     OW 8938   1.183   1.237   0.660
 2680SOL    HW1 8939   1.136   1.325   0.669
 2680SOL    HW2 8940   1.171   1.184   0.743
 2681SOL     OW 8941   1.066   2.771   4.162
 2681SOL    HW1 8942   1.157   2.730   4.168
 2681SOL    HW2 8943   1.021   2.739   4.079
 2682SOL     OW 8944   5.128   4.188   2.443
 2682SOL    HW1 8945   5.129   4.222   2.537
 2682SOL    HW2 8946   5.041   4.213   2.400
 2683SOL     OW 8947   2.650   4.912   1.422
 2683SOL    HW1 8948   2.567   4.941   1.374
 2683SOL    HW2 8949   2.639   4.817   1.452
 2684SOL     OW 8950   3.990   5.256   1.395
 2684SOL    HW1 8951   3.911   5.229   1.449
 2684SOL    HW2 8952   3.961   5.319   1.323
 2685SOL     OW 8953   6.307   6.209   6.279
 2685SOL    HW1 8954   6.388   6.153   6.295
 2685SOL    HW2 8955   6.277   6.197   6.184
 2686SOL     OW 8956   1.649   1.532   5.702
 2686SOL    HW1 8957   1.723   1.570   5.757
 2686SOL    HW2 8958   1.638   1.586   5.619
 2687SOL     OW 8959   4.620   4.392   2.442
 2687SOL    HW1 8960   4.623   4.320   2.511
 2687SOL    HW2 8961   4.571   4.471   2.479
 2688SOL     OW 8962   3.999   4.235   6.992
 2688SOL    HW1 8963   3.940   4.280   6.925
 2688SOL    HW2 8964   3.983   4.274   0.066
 2689SOL     OW 8965   1.392   3.902   3.525
 2689SOL    HW1 8966   1.391   3.957   3.442
 2689SOL    HW2 8967   1.403   3.805   3.501
 2690SOL     OW 8968   3.622   3.441   3.720
 2690SOL    HW1 8969   3.665   3.503   3.786
 2690SOL    HW2 8970   3.675   3.441   3.635
 2691SOL     OW 8971   1.389   5.380   2.167
 2691SOL    HW1 8972   1.436   5.468   2.152
 2691SOL    HW2 8973   1.456   5.312   2.195
 2692SOL     OW 8974   3.377   5.456   2.934
 2692SOL    HW1 8975   3.404   5.483   2.842
 2692SOL    HW2 8976   3.456   5.424   2.985
 2693SOL     OW 8977   2.474   5.415   2.760
 2693SOL    HW1 8978   2.542   5.349   2.726
 2693SOL    HW2 8979   2.458   5.398   2.857
 2694SOL     OW 8980   3.926   6.635   2.583
 2694SOL    HW1 8981   3.871   6.574   2.526
 2694SOL    HW2 8982   3.870   6.673   2.656
 2695SOL     OW 8983   5.318   0.398   2.366
 2695SOL    HW1 8984   5.297   0.486   2.409
 2695SOL    HW2 8985   5.395   0.410   2.302
 2696SOL     OW 8986   3.738   3.729   5.450
 2696SOL    HW1 8987   3.767   3.803   5.389
 2696SOL    HW2 8988   3.809   3.713   5.518
 2697SOL     OW 8989   3.194   1.613   2.830
 2697SOL    HW1 8990   3.180   1.686   2.762
 2697SOL    HW2 8991   3.243   1.651   2.909
 2698SOL     OW 8992   2.436   6.416   0.169
 2698SOL    HW1 8993   2.361   6.434   0.233
 2698SOL    HW2 8994   2.434   6.320   0.141
 2699SOL     OW 8995   2.565   6.762   0.841
 2699SOL    HW1 8996   2.524   6.670   0.833
 2699SOL    HW2 8997   2.663   6.756   0.824
 2700SOL     OW 8998   2.233   3.675   0.290
 2700SOL    HW1 8999   2.233   3.771   0.260
 2700SOL    HW2 9000   2.163   3.625   0.238
 2701SOL     OW 9001   5.722   1.148   6.307
 2701SOL    HW1 9002   5.679   1.193   6.228
 2701SOL    HW2 9003   5.664   1.073   6.339
 2702SOL     OW 9004   0.652   3.268   3.513
 2702SOL    HW1 9005   0.642   3.368   3.513
 2702SOL    HW2 9006   0.597   3.229   3.587
 2703SOL     OW 9007   1.518   0.448   1.465
 2703SOL    HW1 9008   1.540   0.353   1.441
 2703SOL    HW2 9009   1.532   0.507   1.386
 2704SOL     OW 9010   6.991   6.337   1.485
 2704SOL    HW1 9011   6.896   6.338   1.515
 2704SOL    HW2 9012   7.008   6.415   1.426
 2705SOL     OW 9013   6.960   5.672   4.296
 2705SOL    HW1 9014   6.921   5.652   4.206
 2705SOL    HW2 9015   6.934   5.601   4.361
 2706SOL     OW 9016   0.500   6.627   1.834
 2706SOL    HW1 9017   0.526   6.596   1.742
 2706SOL    HW2 9018   0.556   6.706   1.859
 2707SOL     OW 9019   3.600   0.100   4.321
 2707SOL    HW1 9020   3.520   0.153   4.290
 2707SOL    HW2 9021   3.682   0.156   4.313
 2708SOL     OW 9022   0.078   2.145   6.670
 2708SOL    HW1 9023   7.016   2.197   6.701
 2708SOL    HW2 9024   0.049   2.073   6.608
 2709SOL     OW 9025   6.418   6.458   0.137
 2709SOL    HW1 9026   6.350   6.455   0.211
 2709SOL    HW2 9027   6.411   6.546   0.089
 2710SOL     OW 9028   0.861   3.564   3.544
 2710SOL    HW1 9029   0.905   3.653   3.559
 2710SOL    HW2 9030   0.777   3.559   3.598
 2711SOL     OW 9031   2.595   1.317   3.969
 2711SOL    HW1 9032   2.677   1.269   3.999
 2711SOL    HW2 9033   2.523   1.250   3.950
 2712SOL     OW 9034   2.847   4.432   1.099
 2712SOL    HW1 9035   2.867   4.434   1.002
 2712SOL    HW2 9036   2.796   4.349   1.122
 2713SOL     OW 9037   2.540   2.209   4.761
 2713SOL    HW1 9038   2.614   2.157   4.804
 2713SOL    HW2 9039   2.553   2.208   4.662
 2714SOL     OW 9040   4.169   2.386   0.465
 2714SOL    HW1 9041   4.121   2.469   0.436
 2714SOL    HW2 9042   4.266   2.407   0.480
 2715SOL     OW 9043   5.251   1.976   1.632
 2715SOL    HW1 9044   5.167   1.925   1.652
 2715SOL    HW2 9045   5.313   1.918   1.580
 2716SOL     OW 9046   5.161   4.223   2.722
 2716SOL    HW1 9047   5.131   4.294   2.787
 2716SOL    HW2 9048   5.258   4.204   2.736
 2717SOL     OW 9049   0.930   6.216   2.562
 2717SOL    HW1 9050   0.899   6.279   2.491
 2717SOL    HW2 9051   0.970   6.267   2.638
 2718SOL     OW 9052   2.044   1.906   5.358
 2718SOL    HW1 9053   2.074   1.995   5.325
 2718SOL    HW2 9054   2.052   1.903   5.458
 2719SOL     OW 9055   6.469   5.654   0.636
 2719SOL    HW1 9056   6.557   5.683   0.673
 2719SOL    HW2 9057   6.396   5.682   0.698
 2720SOL     OW 9058   1.601   6.385   2.028
 2720SOL    HW1 9059   1.527   6.410   2.090
 2720SOL    HW2 9060   1.569   6.393   1.933
 2721SOL     OW 9061   2.552   0.152   3.644
 2721SOL    HW1 9062   2.584   0.065   3.681
 2721SOL    HW2 9063   2.499   0.136   3.561
 2722SOL     OW 9064   6.704   5.429   1.301
 2722SOL    HW1 9065   6.643   5.350   1.310
 2722SOL    HW2 9066   6.799   5.397   1.296
 2723SOL     OW 9067   0.665   6.625   6.367
 2723SOL    HW1 9068   0.698   6.590   6.279
 2723SOL    HW2 9069   0.589   6.688   6.351
 2724SOL     OW 9070   2.182   6.485   0.325
 2724SOL    HW1 9071   2.180   6.581   0.299
 2724SOL    HW2 9072   2.150   6.475   0.419
 2725SOL     OW 9073   5.154   5.433   4.372
 2725SOL    HW1 9074   5.244   5.476   4.376
 2725SOL    HW2 9075   5.084   5.503   4.356
 2726SOL     OW 9076   0.107   2.670   1.235
 2726SOL    HW1 9077   0.134   2.753   1.185
 2726SOL    HW2 9078   0.008   2.658   1.229
 2727SOL     OW 9079   0.287   5.346   2.884
 2727SOL    HW1 9080   0.263   5.402   2.805
 2727SOL    HW2 9081   0.359   5.390   2.936
 2728SOL     OW 9082   4.774   6.354   5.784
 2728SOL    HW1 9083   4.845   6.418   5.755
 2728SOL    HW2 9084   4.704   6.403   5.836
 2729SOL     OW 9085   6.853   6.012   0.767
 2729SOL    HW1 9086   6.875   5.968   0.854
 2729SOL    HW2 9087   6.933   6.009   0.707
 2730SOL     OW 9088   1.649   5.502   1.523
 2730SOL    HW1 9089   1.658   5.538   1.616
 2730SOL    HW2 9090   1.553   5.510   1.494
 2731SOL     OW 9091   4.119   3.389   2.867
 2731SOL    HW1 9092   4.100   3.298   2.832
 2731SOL    HW2 9093   4.176   3.382   2.949
 2732SOL     OW 9094   5.391   2.149   1.777
 2732SOL    HW1 9095   5.466   2.205   1.742
 2732SOL    HW2 9096   5.339   2.112   1.700
 2733SOL     OW 9097   6.869   0.268   4.707
 2733SOL    HW1 9098   6.885   0.185   4.653
 2733SOL    HW2 9099   6.897   0.347   4.654
 2734SOL     OW 9100   2.271   6.500   1.848
 2734SOL    HW1 9101   2.363   6.470   1.872
 2734SOL    HW2 9102   2.208   6.423   1.852
 2735SOL     OW 9103   1.487   3.237   2.908
 2735SOL    HW1 9104   1.396   3.253   2.946
 2735SOL    HW2 9105   1.479   3.223   2.809
 2736SOL     OW 9106   4.773   6.883   5.462
 2736SOL    HW1 9107   4.859   6.933   5.478
 2736SOL    HW2 9108   4.773   6.800   5.517
 2737SOL     OW 9109   3.408   3.955   5.610
 2737SOL    HW1 9110   3.333   4.019   5.599
 2737SOL    HW2 9111   3.441   3.925   5.520
 2738SOL     OW 9112   5.217   5.716   2.841
 2738SOL    HW1 9113   5.267   5.730   2.927
 2738SOL    HW2 9114   5.131   5.767   2.844
 2739SOL     OW 9115   0.007   5.031   1.023
 2739SOL    HW1 9116   6.998   4.952   0.968
 2739SOL    HW2 9117   6.945   5.063   1.075
 2740SOL     OW 9118   6.849   3.924   2.337
 2740SOL    HW1 9119   6.761   3.953   2.301
 2740SOL    HW2 9120   6.875   3.837   2.294
 2741SOL     OW 9121   6.311   0.006   5.112
 2741SOL    HW1 9122   6.261   6.950   5.065
 2741SOL    HW2 9123   6.302   7.011   5.211
 2742SOL     OW 9124   2.181   5.536   6.952
 2742SOL    HW1 9125   2.168   5.487   0.022
 2742SOL    HW2 9126   2.173   5.472   6.876
 2743SOL     OW 9127   6.711   4.875   2.140
 2743SOL    HW1 9128   6.768   4.807   2.187
 2743SOL    HW2 9129   6.747   4.966   2.156
 2744SOL     OW 9130   5.437   1.851   6.302
 2744SOL    HW1 9131   5.339   1.830   6.292
 2744SOL    HW2 9132   5.458   1.865   6.398
 2745SOL     OW 9133   7.006   6.843   6.057
 2745SOL    HW1 9134   0.035   6.861   6.145
 2745SOL    HW2 9135   6.942   6.767   6.068
 2746SOL     OW 9136   2.307   2.232   3.814
 2746SOL    HW1 9137   2.321   2.266   3.721
 2746SOL    HW2 9138   2.231   2.167   3.814
 2747SOL     OW 9139   5.943   4.160   6.484
 2747SOL    HW1 9140   5.903   4.133   6.397
 2747SOL    HW2 9141   5.960   4.259   6.483
 2748SOL     OW 9142   5.597   1.648   1.033
 2748SOL    HW1 9143   5.515   1.673   1.085
 2748SOL    HW2 9144   5.679   1.676   1.083
 2749SOL     OW 9145   0.092   5.282   2.653
 2749SOL    HW1 9146   7.017   5.244   2.658
 2749SOL    HW2 9147   0.132   5.286   2.745
 2750SOL     OW 9148   0.847   5.172   0.962
 2750SOL    HW1 9149   0.761   5.183   0.911
 2750SOL    HW2 9150   0.834   5.199   1.057
 2751SOL     OW 9151   0.967   5.867   1.370
 2751SOL    HW1 9152   1.005   5.816   1.293
 2751SOL    HW2 9153   0.869   5.849   1.376
 2752SOL     OW 9154   3.952   4.929   6.154
 2752SOL    HW1 9155   3.988   4.868   6.084
 2752SOL    HW2 9156   3.988   5.021   6.140
 2753SOL     OW 9157   0.908   6.363   5.281
 2753SOL    HW1 9158   0.829   6.363   5.342
 2753SOL    HW2 9159   0.877   6.372   5.186
 2754SOL     OW 9160   0.427   0.865   3.049
 2754SOL    HW1 9161   0.397   0.776   3.084
 2754SOL    HW2 9162   0.454   0.856   2.953
 2755SOL     OW 9163   2.070   6.705   3.166
 2755SOL    HW1 9164   1.997   6.752   3.215
 2755SOL    HW2 9165   2.140   6.771   3.140
 2756SOL     OW 9166   5.904   4.469   6.499
 2756SOL    HW1 9167   5.989   4.485   6.550
 2756SOL    HW2 9168   5.844   4.548   6.511
 2757SOL     OW 9169   1.887   0.320   6.469
 2757SOL    HW1 9170   1.975   0.290   6.431
 2757SOL    HW2 9171   1.876   0.282   6.561
 2758SOL     OW 9172   4.734   6.938   3.503
 2758SOL    HW1 9173   4.655   6.891   3.463
 2758SOL    HW2 9174   4.817   6.914   3.453
 2759SOL     OW 9175   5.003   5.634   5.384
 2759SOL    HW1 9176   5.069   5.562   5.362
 2759SOL    HW2 9177   5.050   5.709   5.432
 2760SOL     OW 9178   0.495   6.198   2.614
 2760SOL    HW1 9179   0.423   6.238   2.670
 2760SOL    HW2 9180   0.561   6.151   2.673
 2761SOL     OW 9181   1.580   4.408   4.895
 2761SOL    HW1 9182   1.633   4.323   4.891
 2761SOL    HW2 9183   1.504   4.397   4.959
 2762SOL     OW 9184   1.913   0.231   6.745
 2762SOL    HW1 9185   1.978   0.307   6.749
 2762SOL    HW2 9186   1.823   0.263   6.772
 2763SOL     OW 9187   4.750   2.411   4.659
 2763SOL    HW1 9188   4.692   2.337   4.691
 2763SOL    HW2 9189   4.845   2.380   4.655
 2764SOL     OW 9190   6.464   1.144   1.386
 2764SOL    HW1 9191   6.455   1.129   1.484
 2764SOL    HW2 9192   6.414   1.073   1.337
 2765SOL     OW 9193   6.337   6.837   0.353
 2765SOL    HW1 9194   6.390   6.781   0.416
 2765SOL    HW2 9195   6.388   6.920   0.331
 2766SOL     OW 9196   4.731   2.639   0.278
 2766SOL    HW1 9197   4.697   2.730   0.301
 2766SOL    HW2 9198   4.823   2.627   0.315
 2767SOL     OW 9199   6.219   5.002   0.374
 2767SOL    HW1 9200   6.261   4.935   0.436
 2767SOL    HW2 9201   6.280   5.018   0.296
 2768SOL     OW 9202   4.370   0.362   1.111
 2768SOL    HW1 9203   4.337   0.268   1.111
 2768SOL    HW2 9204   4.353   0.404   1.022
 2769SOL     OW 9205   1.608   4.679   6.214
 2769SOL    HW1 9206   1.658   4.626   6.145
 2769SOL    HW2 9207   1.638   4.774   6.210
 2770SOL     OW 9208   4.511   5.411   6.083
 2770SOL    HW1 9209   4.426   5.464   6.083
 2770SOL    HW2 9210   4.587   5.470   6.110
 2771SOL     OW 9211   6.213   0.911   4.003
 2771SOL    HW1 9212   6.190   0.832   4.060
 2771SOL    HW2 9213   6.309   0.905   3.974
 2772SOL     OW 9214   4.226   1.646   0.866
 2772SOL    HW1 9215   4.209   1.568   0.925
 2772SOL    HW2 9216   4.302   1.626   0.804
 2773SOL     OW 9217   5.914   2.091   5.137
 2773SOL    HW1 9218   5.970   2.032   5.197
 2773SOL    HW2 9219   5.819   2.087   5.168
 2774SOL     OW 9220   5.235   2.700   2.916
 2774SOL    HW1 9221   5.255   2.765   2.989
 2774SOL    HW2 9222   5.137   2.695   2.902
 2775SOL     OW 9223   6.895   4.140   5.472
 2775SOL    HW1 9224   6.959   4.080   5.424
 2775SOL    HW2 9225   6.926   4.153   5.566
 2776SOL     OW 9226   4.677   4.313   6.056
 2776SOL    HW1 9227   4.705   4.261   5.975
 2776SOL    HW2 9228   4.586   4.285   6.084
 2777SOL     OW 9229   2.767   1.966   1.405
 2777SOL    HW1 9230   2.821   2.042   1.368
 2777SOL    HW2 9231   2.770   1.969   1.505
 2778SOL     OW 9232   1.912   6.817   5.447
 2778SOL    HW1 9233   1.990   6.755   5.449
 2778SOL    HW2 9234   1.839   6.779   5.505
 2779SOL     OW 9235   5.083   6.342   2.260
 2779SOL    HW1 9236   5.034   6.399   2.327
 2779SOL    HW2 9237   5.180   6.339   2.284
 2780SOL     OW 9238   0.603   6.722   6.777
 2780SOL    HW1 9239   0.675   6.652   6.774
 2780SOL    HW2 9240   0.634   6.799   6.833
 2781SOL     OW 9241   5.977   0.326   2.184
 2781SOL    HW1 9242   5.933   0.406   2.225
 2781SOL    HW2 9243   6.018   0.270   2.256
 2782SOL     OW 9244   4.687   1.292   5.232
 2782SOL    HW1 9245   4.686   1.379   5.183
 2782SOL    HW2 9246   4.617   1.293   5.303
 2783SOL     OW 9247   4.866   4.161   2.882
 2783SOL    HW1 9248   4.925   4.240   2.895
 2783SOL    HW2 9249   4.864   4.136   2.785
 2784SOL     OW 9250   3.515   1.661   2.357
 2784SOL    HW1 9251   3.563   1.657   2.270
 2784SOL    HW2 9252   3.418   1.676   2.341
 2785SOL     OW 9253   5.480   2.569   0.660
 2785SOL    HW1 9254   5.390   2.533   0.637
 2785SOL    HW2 9255   5.472   2.633   0.737
 2786SOL     OW 9256   4.536   6.883   2.434
 2786SOL    HW1 9257   4.456   6.856   2.380
 2786SOL    HW2 9258   4.551   6.817   2.507
 2787SOL     OW 9259   5.765   6.837   5.955
 2787SOL    HW1 9260   5.837   6.868   6.017
 2787SOL    HW2 9261   5.680   6.826   6.006
 2788SOL     OW 9262   2.059   5.737   5.889
 2788SOL    HW1 9263   2.112   5.680   5.952
 2788SOL    HW2 9264   2.075   5.834   5.910
 2789SOL     OW 9265   1.402   2.120   4.107
 2789SOL    HW1 9266   1.409   2.023   4.086
 2789SOL    HW2 9267   1.485   2.150   4.155
 2790SOL     OW 9268   3.375   5.882   2.083
 2790SOL    HW1 9269   3.309   5.921   2.147
 2790SOL    HW2 9270   3.360   5.783   2.075
 2791SOL     OW 9271   0.468   2.565   2.586
 2791SOL    HW1 9272   0.536   2.553   2.514
 2791SOL    HW2 9273   0.506   2.534   2.673
 2792SOL     OW 9274   1.873   0.802   3.820
 2792SOL    HW1 9275   1.916   0.844   3.900
 2792SOL    HW2 9276   1.944   0.764   3.761
 2793SOL     OW 9277   4.989   3.733   1.545
 2793SOL    HW1 9278   4.936   3.727   1.631
 2793SOL    HW2 9279   5.070   3.790   1.560
 2794SOL     OW 9280   6.720   1.499   6.445
 2794SOL    HW1 9281   6.717   1.449   6.531
 2794SOL    HW2 9282   6.670   1.585   6.454
 2795SOL     OW 9283   0.812   3.485   0.826
 2795SOL    HW1 9284   0.753   3.553   0.870
 2795SOL    HW2 9285   0.781   3.393   0.850
 2796SOL     OW 9286   0.320   6.303   2.821
 2796SOL    HW1 9287   0.293   6.399   2.818
 2796SOL    HW2 9288   0.388   6.289   2.893
 2797SOL     OW 9289   5.159   5.459   5.271
 2797SOL    HW1 9290   5.078   5.469   5.214
 2797SOL    HW2 9291   5.240   5.455   5.213
 2798SOL     OW 9292   6.826   5.508   2.712
 2798SOL    HW1 9293   6.847   5.414   2.684
 2798SOL    HW2 9294   6.896   5.540   2.776
 2799SOL     OW 9295   6.095   5.390   5.607
 2799SOL    HW1 9296   6.183   5.436   5.624
 2799SOL    HW2 9297   6.108   5.314   5.544
 2800SOL     OW 9298   4.496   6.219   6.103
 2800SOL    HW1 9299   4.535   6.135   6.142
 2800SOL    HW2 9300   4.451   6.271   6.175
 2801SOL     OW 9301   6.979   5.208   5.543
 2801SOL    HW1 9302   6.884   5.205   5.510
 2801SOL    HW2 9303   0.016   5.266   5.482
 2802SOL     OW 9304   5.681   6.087   5.193
 2802SOL    HW1 9305   5.597   6.075   5.246
 2802SOL    HW2 9306   5.660   6.133   5.107
 2803SOL     OW 9307   4.311   5.299   6.310
 2803SOL    HW1 9308   4.294   5.397   6.317
 2803SOL    HW2 9309   4.410   5.282   6.311
 2804SOL     OW 9310   0.484   4.530   5.402
 2804SOL    HW1 9311   0.530   4.610   5.364
 2804SOL    HW2 9312   0.462   4.547   5.499
 2805SOL     OW 9313   5.788   3.154   2.689
 2805SOL    HW1 9314   5.829   3.239   2.658
 2805SOL    HW2 9315   5.747   3.106   2.612
 2806SOL     OW 9316   1.118   4.116   5.786
 2806SOL    HW1 9317   1.198   4.109   5.845
 2806SOL    HW2 9318   1.074   4.026   5.779
 2807SOL     OW 9319   3.529   6.955   4.107
 2807SOL    HW1 9320   3.544   0.006   4.179
 2807SOL    HW2 9321   3.573   6.869   4.133
 2808SOL     OW 9322   6.123   5.356   2.166
 2808SOL    HW1 9323   6.153   5.444   2.205
 2808SOL    HW2 9324   6.190   5.326   2.097
 2809SOL     OW 9325   5.416   2.726   0.922
 2809SOL    HW1 9326   5.484   2.798   0.933
 2809SOL    HW2 9327   5.427   2.658   0.994
 2810SOL     OW 9328   2.506   5.652   2.661
 2810SOL    HW1 9329   2.494   5.560   2.698
 2810SOL    HW2 9330   2.589   5.693   2.699
 2811SOL     OW 9331   1.685   2.111   4.167
 2811SOL    HW1 9332   1.699   2.183   4.099
 2811SOL    HW2 9333   1.675   2.023   4.121
 2812SOL     OW 9334   5.419   3.177   6.984
 2812SOL    HW1 9335   5.445   3.258   6.931
 2812SOL    HW2 9336   5.323   3.185   7.011
 2813SOL     OW 9337   0.767   0.298   6.476
 2813SOL    HW1 9338   0.867   0.305   6.476
 2813SOL    HW2 9339   0.731   0.336   6.391
 2814SOL     OW 9340   3.522   3.884   5.352
 2814SOL    HW1 9341   3.520   3.888   5.252
 2814SOL    HW2 9342   3.566   3.799   5.381
 2815SOL     OW 9343   0.004   5.642   6.276
 2815SOL    HW1 9344   6.965   5.724   6.285
 2815SOL    HW2 9345   6.965   5.567   6.243
 2816SOL     OW 9346   6.326   5.974   3.530
 2816SOL    HW1 9347   6.308   6.013   3.439
 2816SOL    HW2 9348   6.266   5.895   3.544
 2817SOL     OW 9349   2.873   0.089   1.670
 2817SOL    HW1 9350   2.783   0.066   1.633
 2817SOL    HW2 9351   2.943   0.037   1.621
 2818SOL     OW 9352   0.254   0.855   2.540
 2818SOL    HW1 9353   0.286   0.913   2.465
 2818SOL    HW2 9354   0.157   0.835   2.526
 2819SOL     OW 9355   2.364   0.774   1.621
 2819SOL    HW1 9356   2.409   0.857   1.655
 2819SOL    HW2 9357   2.282   0.756   1.675
 2820SOL     OW 9358   1.334   2.233   3.661
 2820SOL    HW1 9359   1.346   2.164   3.589
 2820SOL    HW2 9360   1.424   2.265   3.690
 2821SOL     OW 9361   3.455   4.821   5.926
 2821SOL    HW1 9362   3.522   4.748   5.943
 2821SOL    HW2 9363   3.502   4.910   5.927
 2822SOL     OW 9364   3.653   1.751   0.290
 2822SOL    HW1 9365   3.733   1.769   0.348
 2822SOL    HW2 9366   3.624   1.656   0.304
 2823SOL     OW 9367   5.194   0.773   1.222
 2823SOL    HW1 9368   5.230   0.846   1.280
 2823SOL    HW2 9369   5.116   0.806   1.170
 2824SOL     OW 9370   1.953   1.926   4.618
 2824SOL    HW1 9371   1.974   1.882   4.705
 2824SOL    HW2 9372   2.007   1.885   4.545
 2825SOL     OW 9373   4.899   6.078   6.535
 2825SOL    HW1 9374   4.887   6.177   6.533
 2825SOL    HW2 9375   4.995   6.056   6.517
 2826SOL     OW 9376   4.746   1.849   6.841
 2826SOL    HW1 9377   4.719   1.877   6.933
 2826SOL    HW2 9378   4.678   1.786   6.803
 2827SOL     OW 9379   0.598   1.176   6.548
 2827SOL    HW1 9380   0.510   1.144   6.513
 2827SOL    HW2 9381   0.594   1.276   6.560
 2828SOL     OW 9382   2.432   2.493   0.707
 2828SOL    HW1 9383   2.364   2.425   0.679
 2828SOL    HW2 9384   2.519   2.448   0.723
 2829SOL     OW 9385   3.207   3.111   4.051
 2829SOL    HW1 9386   3.287   3.073   4.099
 2829SOL    HW2 9387   3.216   3.211   4.048
 2830SOL     OW 9388   3.150   4.114   5.070
 2830SOL    HW1 9389   3.217   4.056   5.116
 2830SOL    HW2 9390   3.197   4.189   5.023
 2831SOL     OW 9391   0.511   3.817   2.920
 2831SOL    HW1 9392   0.503   3.871   3.003
 2831SOL    HW2 9393   0.534   3.722   2.943
 2832SOL     OW 9394   0.776   3.042   2.090
 2832SOL    HW1 9395   0.829   2.957   2.081
 2832SOL    HW2 9396   0.751   3.075   1.998
 2833SOL     OW 9397   2.956   1.577   2.606
 2833SOL    HW1 9398   3.037   1.636   2.604
 2833SOL    HW2 9399   2.958   1.516   2.527
 2834SOL     OW 9400   3.983   6.303   5.835
 2834SOL    HW1 9401   4.062   6.345   5.879
 2834SOL    HW2 9402   4.014   6.238   5.766
 2835SOL     OW 9403   0.259   6.356   1.226
 2835SOL    HW1 9404   0.240   6.296   1.304
 2835SOL    HW2 9405   0.356   6.348   1.202
 2836SOL     OW 9406   0.603   6.872   1.876
 2836SOL    HW1 9407   0.649   6.897   1.791
 2836SOL    HW2 9408   0.597   6.952   1.936
 2837SOL     OW 9409   4.620   4.250   2.665
 2837SOL    HW1 9410   4.544   4.295   2.713
 2837SOL    HW2 9411   4.630   4.157   2.698
 2838SOL     OW 9412   3.932   4.003   0.858
 2838SOL    HW1 9413   3.999   3.987   0.785
 2838SOL    HW2 9414   3.874   4.080   0.832
 2839SOL     OW 9415   6.910   2.197   3.529
 2839SOL    HW1 9416   6.936   2.149   3.445
 2839SOL    HW2 9417   6.926   2.295   3.517
 2840SOL     OW 9418   1.948   0.511   1.916
 2840SOL    HW1 9419   1.948   0.499   2.016
 2840SOL    HW2 9420   1.971   0.424   1.872
 2841SOL     OW 9421   6.061   1.672   6.031
 2841SOL    HW1 9422   5.964   1.647   6.027
 2841SOL    HW2 9423   6.077   1.755   5.978
 2842SOL     OW 9424   0.058   4.731   4.196
 2842SOL    HW1 9425   0.127   4.777   4.252
 2842SOL    HW2 9426   0.035   4.642   4.237
 2843SOL     OW 9427   2.133   2.146   2.788
 2843SOL    HW1 9428   2.079   2.197   2.720
 2843SOL    HW2 9429   2.188   2.077   2.741
 2844SOL     OW 9430   6.201   5.283   0.044
 2844SOL    HW1 9431   6.251   5.258   6.978
 2844SOL    HW2 9432   6.218   5.214   0.115
 2845SOL     OW 9433   5.691   3.565   2.286
 2845SOL    HW1 9434   5.642   3.533   2.205
 2845SOL    HW2 9435   5.626   3.581   2.360
 2846SOL     OW 9436   4.305   0.452   0.569
 2846SOL    HW1 9437   4.372   0.398   0.517
 2846SOL    HW2 9438   4.218   0.454   0.519
 2847SOL     OW 9439   5.443   4.201   2.737
 2847SOL    HW1 9440   5.438   4.132   2.666
 2847SOL    HW2 9441   5.493   4.164   2.816
 2848SOL     OW 9442   2.075   2.532   5.063
 2848SOL    HW1 9443   2.003   2.543   5.132
 2848SOL    HW2 9444   2.068   2.442   5.021
 2849SOL     OW 9445   3.870   0.603   0.599
 2849SOL    HW1 9446   3.774   0.573   0.604
 2849SOL    HW2 9447   3.925   0.547   0.661
 2850SOL     OW 9448   1.731   0.447   3.000
 2850SOL    HW1 9449   1.777   0.385   2.935
 2850SOL    HW2 9450   1.741   0.411   3.092
 2851SOL     OW 9451   5.283   2.185   5.951
 2851SOL    HW1 9452   5.298   2.117   5.879
 2851SOL    HW2 9453   5.346   2.168   6.027
 2852SOL     OW 9454   6.987   4.412   6.682
 2852SOL    HW1 9455   7.008   4.321   6.645
 2852SOL    HW2 9456   6.959   4.404   6.778
 2853SOL     OW 9457   1.651   1.903   5.885
 2853SOL    HW1 9458   1.610   1.821   5.927
 2853SOL    HW2 9459   1.610   1.985   5.926
 2854SOL     OW 9460   4.567   1.127   5.880
 2854SOL    HW1 9461   4.495   1.086   5.935
 2854SOL    HW2 9462   4.650   1.071   5.886
 2855SOL     OW 9463   2.090   1.579   5.712
 2855SOL    HW1 9464   2.040   1.594   5.627
 2855SOL    HW2 9465   2.188   1.578   5.692
 2856SOL     OW 9466   0.812   3.397   5.417
 2856SOL    HW1 9467   0.718   3.395   5.381
 2856SOL    HW2 9468   0.866   3.461   5.363
 2857SOL     OW 9469   1.310   2.367   1.294
 2857SOL    HW1 9470   1.357   2.442   1.248
 2857SOL    HW2 9471   1.378   2.301   1.327
 2858SOL     OW 9472   4.350   4.937   1.950
 2858SOL    HW1 9473   4.330   5.022   1.997
 2858SOL    HW2 9474   4.342   4.860   2.013
 2859SOL     OW 9475   6.454   6.724   0.051
 2859SOL    HW1 9476   6.519   6.791   0.086
 2859SOL    HW2 9477   6.438   6.740   6.971
 2860SOL     OW 9478   1.779   1.320   2.459
 2860SOL    HW1 9479   1.838   1.265   2.400
 2860SOL    HW2 9480   1.697   1.347   2.408
 2861SOL     OW 9481   3.178   5.656   5.866
 2861SOL    HW1 9482   3.080   5.672   5.876
 2861SOL    HW2 9483   3.207   5.685   5.775
 2862SOL     OW 9484   4.509   1.499   1.388
 2862SOL    HW1 9485   4.574   1.475   1.316
 2862SOL    HW2 9486   4.523   1.438   1.467
 2863SOL     OW 9487   4.393   1.567   6.687
 2863SOL    HW1 9488   4.343   1.569   6.601
 2863SOL    HW2 9489   4.381   1.477   6.730
 2864SOL     OW 9490   4.855   2.520   0.863
 2864SOL    HW1 9491   4.940   2.522   0.915
 2864SOL    HW2 9492   4.851   2.437   0.808
 2865SOL     OW 9493   4.172   6.453   4.281
 2865SOL    HW1 9494   4.182   6.552   4.267
 2865SOL    HW2 9495   4.169   6.434   4.380
 2866SOL     OW 9496   5.656   5.015   6.488
 2866SOL    HW1 9497   5.582   4.962   6.532
 2866SOL    HW2 9498   5.626   5.110   6.477
 2867SOL     OW 9499   5.862   6.143   2.888
 2867SOL    HW1 9500   5.945   6.164   2.836
 2867SOL    HW2 9501   5.805   6.224   2.895
 2868SOL     OW 9502   2.057   1.034   5.793
 2868SOL    HW1 9503   2.141   0.980   5.804
 2868SOL    HW2 9504   2.065   1.118   5.846
 2869SOL     OW 9505   6.816   1.092   2.923
 2869SOL    HW1 9506   6.871   1.175   2.930
 2869SOL    HW2 9507   6.734   1.102   2.979
 2870SOL     OW 9508   0.535   1.519   5.571
 2870SOL    HW1 9509   0.628   1.501   5.603
 2870SOL    HW2 9510   0.493   1.434   5.541
 2871SOL     OW 9511   5.795   0.986   6.990
 2871SOL    HW1 9512   5.698   0.969   7.007
 2871SOL    HW2 9513   5.818   0.958   6.897
 2872SOL     OW 9514   2.487   2.216   1.719
 2872SOL    HW1 9515   2.528   2.211   1.628
 2872SOL    HW2 9516   2.388   2.221   1.711
 2873SOL     OW 9517   6.420   5.911   2.296
 2873SOL    HW1 9518   6.330   5.931   2.258
 2873SOL    HW2 9519   6.486   5.897   2.222
 2874SOL     OW 9520   4.429   6.824   2.798
 2874SOL    HW1 9521   4.379   6.899   2.756
 2874SOL    HW2 9522   4.371   6.782   2.868
 2875SOL     OW 9523   5.530   6.789   1.306
 2875SOL    HW1 9524   5.471   6.742   1.372
 2875SOL    HW2 9525   5.593   6.850   1.355
 2876SOL     OW 9526   2.209   0.801   2.655
 2876SOL    HW1 9527   2.301   0.799   2.615
 2876SOL    HW2 9528   2.170   0.709   2.655
 2877SOL     OW 9529   2.830   1.300   5.318
 2877SOL    HW1 9530   2.820   1.399   5.309
 2877SOL    HW2 9531   2.927   1.275   5.313
 2878SOL     OW 9532   3.755   4.247   5.203
 2878SOL    HW1 9533   3.710   4.191   5.273
 2878SOL    HW2 9534   3.854   4.240   5.214
 2879SOL     OW 9535   4.937   5.169   6.210
 2879SOL    HW1 9536   4.913   5.222   6.128
 2879SOL    HW2 9537   5.015   5.212   6.255
 2880SOL     OW 9538   0.228   2.024   2.259
 2880SOL    HW1 9539   0.326   2.003   2.261
 2880SOL    HW2 9540   0.205   2.065   2.171
 2881SOL     OW 9541   4.255   5.742   6.855
 2881SOL    HW1 9542   4.257   5.681   6.776
 2881SOL    HW2 9543   4.193   5.704   6.924
 2882SOL     OW 9544   0.356   5.566   1.575
 2882SOL    HW1 9545   0.422   5.501   1.536
 2882SOL    HW2 9546   0.305   5.521   1.648
 2883SOL     OW 9547   6.058   0.270   3.924
 2883SOL    HW1 9548   5.981   0.217   3.889
 2883SOL    HW2 9549   6.144   0.225   3.899
 2884SOL     OW 9550   0.614   6.625   3.089
 2884SOL    HW1 9551   0.672   6.547   3.066
 2884SOL    HW2 9552   0.522   6.609   3.054
 2885SOL     OW 9553   1.508   3.573   3.661
 2885SOL    HW1 9554   1.467   3.635   3.594
 2885SOL    HW2 9555   1.543   3.491   3.615
 2886SOL     OW 9556   1.271   2.852   6.145
 2886SOL    HW1 9557   1.260   2.884   6.239
 2886SOL    HW2 9558   1.236   2.922   6.082
 2887SOL     OW 9559   0.802   6.462   5.774
 2887SOL    HW1 9560   0.855   6.544   5.794
 2887SOL    HW2 9561   0.785   6.456   5.676
 2888SOL     OW 9562   6.988   4.083   6.351
 2888SOL    HW1 9563   7.005   4.094   6.449
 2888SOL    HW2 9564   0.007   4.162   6.301
 2889SOL     OW 9565   2.893   6.058   2.523
 2889SOL    HW1 9566   2.934   6.114   2.451
 2889SOL    HW2 9567   2.797   6.041   2.501
 2890SOL     OW 9568   1.490   5.956   0.586
 2890SOL    HW1 9569   1.570   5.945   0.646
 2890SOL    HW2 9570   1.435   5.873   0.588
 2891SOL     OW 9571   0.727   4.548   3.310
 2891SOL    HW1 9572   0.754   4.546   3.406
 2891SOL    HW2 9573   0.735   4.456   3.271
 2892SOL     OW 9574   6.308   3.210   0.641
 2892SOL    HW1 9575   6.296   3.223   0.740
 2892SOL    HW2 9576   6.372   3.278   0.606
 2893SOL     OW 9577   0.580   5.294   4.581
 2893SOL    HW1 9578   0.625   5.353   4.649
 2893SOL    HW2 9579   0.512   5.347   4.531
 2894SOL     OW 9580   7.001   2.848   2.035
 2894SOL    HW1 9581   0.060   2.824   1.974
 2894SOL    HW2 9582   7.008   2.795   2.119
 2895SOL     OW 9583   4.976   0.962   5.374
 2895SOL    HW1 9584   4.928   1.014   5.303
 2895SOL    HW2 9585   4.914   0.894   5.413
 2896SOL     OW 9586   4.377   6.594   5.769
 2896SOL    HW1 9587   4.368   6.662   5.842
 2896SOL    HW2 9588   4.356   6.637   5.682
 2897SOL     OW 9589   3.910   5.029   2.826
 2897SOL    HW1 9590   4.010   5.032   2.832
 2897SOL    HW2 9591   3.884   5.002   2.733
 2898SOL     OW 9592   4.470   4.485   4.631
 2898SOL    HW1 9593   4.374   4.480   4.604
 2898SOL    HW2 9594   4.522   4.530   4.558
 2899SOL     OW 9595   0.954   1.760   0.373
 2899SOL    HW1 9596   1.033   1.772   0.313
 2899SOL    HW2 9597   0.874   1.734   0.318
 2900SOL     OW 9598   2.837   4.611   6.514
 2900SOL    HW1 9599   2.810   4.684   6.577
 2900SOL    HW2 9600   2.886   4.651   6.436
 2901SOL     OW 9601   2.552   4.897   3.012
 2901SOL    HW1 9602   2.604   4.822   2.972
 2901SOL    HW2 9603   2.582   4.912   3.107
 2902SOL     OW 9604   5.828   5.617   3.142
 2902SOL    HW1 9605   5.794   5.564   3.220
 2902SOL    HW2 9606   5.913   5.576   3.109
 2903SOL     OW 9607   4.230   6.857   0.920
 2903SOL    HW1 9608   4.219   6.835   0.823
 2903SOL    HW2 9609   4.151   6.909   0.952
 2904SOL     OW 9610   2.581   5.022   4.104
 2904SOL    HW1 9611   2.636   5.037   4.022
 2904SOL    HW2 9612   2.598   4.930   4.140
 2905SOL     OW 9613   1.366   3.853   4.522
 2905SOL    HW1 9614   1.416   3.806   4.594
 2905SOL    HW2 9615   1.425   3.866   4.443
 2906SOL     OW 9616   4.555   5.149   2.256
 2906SOL    HW1 9617   4.620   5.137   2.331
 2906SOL    HW2 9618   4.583   5.227   2.199
 2907SOL     OW 9619   0.476   1.755   3.727
 2907SOL    HW1 9620   0.474   1.678   3.790
 2907SOL    HW2 9621   0.384   1.791   3.715
 2908SOL     OW 9622   4.968   6.532   3.372
 2908SOL    HW1 9623   4.941   6.441   3.404
 2908SOL    HW2 9624   5.031   6.523   3.295
 2909SOL     OW 9625   1.579   5.747   3.696
 2909SOL    HW1 9626   1.517   5.696   3.756
 2909SOL    HW2 9627   1.646   5.795   3.752
 2910SOL     OW 9628   6.029   1.076   4.359
 2910SOL    HW1 9629   6.085   1.059   4.441
 2910SOL    HW2 9630   6.089   1.089   4.280
 2911SOL     OW 9631   1.721   5.976   3.413
 2911SOL    HW1 9632   1.764   5.982   3.324
 2911SOL    HW2 9633   1.678   5.886   3.424
 2912SOL     OW 9634   5.741   6.591   0.581
 2912SOL    HW1 9635   5.662   6.580   0.521
 2912SOL    HW2 9636   5.824   6.598   0.526
 2913SOL     OW 9637   3.458   5.098   1.959
 2913SOL    HW1 9638   3.501   5.051   1.882
 2913SOL    HW2 9639   3.528   5.140   2.016
 2914SOL     OW 9640   6.860   6.097   6.504
 2914SOL    HW1 9641   6.889   6.006   6.534
 2914SOL    HW2 9642   6.933   6.163   6.523
 2915SOL     OW 9643   3.609   1.777   3.911
 2915SOL    HW1 9644   3.614   1.868   3.870
 2915SOL    HW2 9645   3.616   1.707   3.839
 2916SOL     OW 9646   1.386   5.166   0.517
 2916SOL    HW1 9647   1.373   5.067   0.515
 2916SOL    HW2 9648   1.393   5.201   0.424
 2917SOL     OW 9649   2.400   0.351   3.451
 2917SOL    HW1 9650   2.348   0.265   3.457
 2917SOL    HW2 9651   2.459   0.349   3.370
 2918SOL     OW 9652   6.297   4.643   5.109
 2918SOL    HW1 9653   6.278   4.562   5.164
 2918SOL    HW2 9654   6.242   4.720   5.141
 2919SOL     OW 9655   5.508   0.386   2.178
 2919SOL    HW1 9656   5.555   0.302   2.208
 2919SOL    HW2 9657   5.576   0.456   2.157
 2920SOL     OW 9658   3.441   1.456   1.242
 2920SOL    HW1 9659   3.530   1.430   1.278
 2920SOL    HW2 9660   3.440   1.442   1.143
 2921SOL     OW 9661   0.824   6.683   4.615
 2921SOL    HW1 9662   0.901   6.661   4.675
 2921SOL    HW2 9663   0.801   6.780   4.625
 2922SOL     OW 9664   4.560   0.163   1.312
 2922SOL    HW1 9665   4.636   0.177   1.247
 2922SOL    HW2 9666   4.525   0.252   1.341
 2923SOL     OW 9667   6.000   5.170   3.109
 2923SOL    HW1 9668   6.031   5.193   3.017
 2923SOL    HW2 9669   5.968   5.252   3.155
 2924SOL     OW 9670   6.558   2.250   5.876
 2924SOL    HW1 9671   6.542   2.152   5.870
 2924SOL    HW2 9672   6.587   2.274   5.969
 2925SOL     OW 9673   4.891   2.283   1.347
 2925SOL    HW1 9674   4.832   2.349   1.396
 2925SOL    HW2 9675   4.985   2.294   1.379
 2926SOL     OW 9676   5.877   1.505   5.786
 2926SOL    HW1 9677   5.866   1.587   5.842
 2926SOL    HW2 9678   5.825   1.429   5.826
 2927SOL     OW 9679   1.593   3.964   1.773
 2927SOL    HW1 9680   1.566   3.890   1.836
 2927SOL    HW2 9681   1.692   3.978   1.779
 2928SOL     OW 9682   0.487   0.610   0.096
 2928SOL    HW1 9683   0.537   0.672   0.157
 2928SOL    HW2 9684   0.409   0.658   0.055
 2929SOL     OW 9685   1.308   2.407   6.389
 2929SOL    HW1 9686   1.221   2.361   6.402
 2929SOL    HW2 9687   1.337   2.398   6.294
 2930SOL     OW 9688   5.479   6.459   5.211
 2930SOL    HW1 9689   5.545   6.449   5.286
 2930SOL    HW2 9690   5.410   6.387   5.217
 2931SOL     OW 9691   5.481   5.043   0.108
 2931SOL    HW1 9692   5.540   4.967   0.080
 2931SOL    HW2 9693   5.440   5.022   0.197
 2932SOL     OW 9694   0.995   5.817   2.096
 2932SOL    HW1 9695   1.035   5.726   2.100
 2932SOL    HW2 9696   1.054   5.878   2.043
 2933SOL     OW 9697   0.918   5.751   2.378
 2933SOL    HW1 9698   0.850   5.726   2.447
 2933SOL    HW2 9699   0.882   5.823   2.320
 2934SOL     OW 9700   4.959   1.182   6.667
 2934SOL    HW1 9701   5.035   1.236   6.704
 2934SOL    HW2 9702   4.873   1.221   6.698
 2935SOL     OW 9703   0.059   2.588   6.558
 2935SOL    HW1 9704   7.006   2.640   6.508
 2935SOL    HW2 9705   0.041   2.594   6.656
 2936SOL     OW 9706   4.519   6.325   0.862
 2936SOL    HW1 9707   4.474   6.237   0.882
 2936SOL    HW2 9708   4.616   6.309   0.846
 2937SOL     OW 9709   5.772   4.369   1.710
 2937SOL    HW1 9710   5.764   4.280   1.665
 2937SOL    HW2 9711   5.722   4.368   1.796
 2938SOL     OW 9712   4.635   5.121   6.633
 2938SOL    HW1 9713   4.606   5.196   6.692
 2938SOL    HW2 9714   4.565   5.049   6.633
 2939SOL     OW 9715   2.528   1.001   2.209
 2939SOL    HW1 9716   2.623   1.024   2.231
 2939SOL    HW2 9717   2.503   0.915   2.254
 2940SOL     OW 9718   5.779   4.625   5.468
 2940SOL    HW1 9719   5.864   4.583   5.436
 2940SOL    HW2 9720   5.756   4.702   5.409
 2941SOL     OW 9721   1.650   2.301   4.407
 2941SOL    HW1 9722   1.714   2.236   4.367
 2941SOL    HW2 9723   1.585   2.253   4.466
 2942SOL     OW 9724   3.982   2.224   0.587
 2942SOL    HW1 9725   3.970   2.149   0.521
 2942SOL    HW2 9726   4.036   2.297   0.546
 2943SOL     OW 9727   5.397   3.928   3.857
 2943SOL    HW1 9728   5.323   3.933   3.790
 2943SOL    HW2 9729   5.475   3.880   3.818
 2944SOL     OW 9730   2.589   6.256   4.308
 2944SOL    HW1 9731   2.509   6.308   4.276
 2944SOL    HW2 9732   2.672   6.301   4.277
 2945SOL     OW 9733   3.463   3.694   2.773
 2945SOL    HW1 9734   3.561   3.695   2.751
 2945SOL    HW2 9735   3.411   3.718   2.692
 2946SOL     OW 9736   1.657   4.986   5.767
 2946SOL    HW1 9737   1.633   4.938   5.682
 2946SOL    HW2 9738   1.712   5.066   5.745
 2947SOL     OW 9739   0.078   5.076   1.285
 2947SOL    HW1 9740   0.096   5.038   1.195
 2947SOL    HW2 9741   0.155   5.132   1.314
 2948SOL     OW 9742   0.438   3.791   4.576
 2948SOL    HW1 9743   0.466   3.725   4.646
 2948SOL    HW2 9744   0.355   3.759   4.531
 2949SOL     OW 9745   1.957   5.191   0.782
 2949SOL    HW1 9746   2.053   5.179   0.807
 2949SOL    HW2 9747   1.946   5.182   0.683
 2950SOL     OW 9748   5.147   5.227   4.188
 2950SOL    HW1 9749   5.069   5.221   4.126
 2950SOL    HW2 9750   5.137   5.306   4.248
 2951SOL     OW 9751   5.344   1.281   2.494
 2951SOL    HW1 9752   5.279   1.312   2.425
 2951SOL    HW2 9753   5.301   1.284   2.585
 2952SOL     OW 9754   6.851   5.207   4.650
 2952SOL    HW1 9755   6.783   5.143   4.685
 2952SOL    HW2 9756   6.935   5.201   4.704
 2953SOL     OW 9757   5.799   4.103   2.473
 2953SOL    HW1 9758   5.866   4.073   2.405
 2953SOL    HW2 9759   5.770   4.197   2.453
 2954SOL     OW 9760   0.996   5.333   2.092
 2954SOL    HW1 9761   0.978   5.368   2.184
 2954SOL    HW2 9762   1.025   5.237   2.098
 2955SOL     OW 9763   0.507   4.034   1.736
 2955SOL    HW1 9764   0.541   3.955   1.683
 2955SOL    HW2 9765   0.570   4.110   1.725
 2956SOL     OW 9766   5.519   6.093   2.987
 2956SOL    HW1 9767   5.427   6.085   3.025
 2956SOL    HW2 9768   5.572   6.011   3.010
 2957SOL     OW 9769   5.405   4.090   1.339
 2957SOL    HW1 9770   5.455   4.016   1.294
 2957SOL    HW2 9771   5.469   4.148   1.390
 2958SOL     OW 9772   2.268   4.178   3.373
 2958SOL    HW1 9773   2.278   4.264   3.324
 2958SOL    HW2 9774   2.243   4.106   3.308
 2959SOL     OW 9775   4.850   3.678   0.979
 2959SOL    HW1 9776   4.933   3.734   0.974
 2959SOL    HW2 9777   4.770   3.736   0.961
 2960SOL     OW 9778   3.042   0.927   0.790
 2960SOL    HW1 9779   3.094   0.956   0.710
 2960SOL    HW2 9780   3.017   1.007   0.845
 2961SOL     OW 9781   5.852   4.396   2.813
 2961SOL    HW1 9782   5.803   4.309   2.810
 2961SOL    HW2 9783   5.950   4.379   2.816
 2962SOL     OW 9784   4.323   6.830   3.068
 2962SOL    HW1 9785   4.292   6.740   3.036
 2962SOL    HW2 9786   4.249   6.896   3.062
 2963SOL     OW 9787   1.885   0.910   5.971
 2963SOL    HW1 9788   1.940   0.967   5.911
 2963SOL    HW2 9789   1.849   0.965   6.047
 2964SOL     OW 9790   0.156   1.188   4.615
 2964SOL    HW1 9791   0.186   1.233   4.531
 2964SOL    HW2 9792   0.123   1.257   4.679
 2965SOL     OW 9793   0.461   0.817   4.648
 2965SOL    HW1 9794   0.454   0.740   4.711
 2965SOL    HW2 9795   0.377   0.871   4.651
 2966SOL     OW 9796   4.246   5.143   3.457
 2966SOL    HW1 9797   4.255   5.088   3.540
 2966SOL    HW2 9798   4.152   5.140   3.424
 2967SOL     OW 9799   6.501   0.785   4.698
 2967SOL    HW1 9800   6.471   0.875   4.667
 2967SOL    HW2 9801   6.422   0.734   4.732
 2968SOL     OW 9802   0.862   2.716   0.680
 2968SOL    HW1 9803   0.848   2.650   0.606
 2968SOL    HW2 9804   0.886   2.805   0.641
 2969SOL     OW 9805   5.359   2.864   4.564
 2969SOL    HW1 9806   5.448   2.861   4.520
 2969SOL    HW2 9807   5.364   2.821   4.654
 2970SOL     OW 9808   2.760   2.607   5.311
 2970SOL    HW1 9809   2.719   2.640   5.396
 2970SOL    HW2 9810   2.716   2.651   5.233
 2971SOL     OW 9811   5.461   4.250   0.070
 2971SOL    HW1 9812   5.513   4.181   0.122
 2971SOL    HW2 9813   5.402   4.204   0.004
 2972SOL     OW 9814   6.905   4.598   6.413
 2972SOL    HW1 9815   6.926   4.585   6.511
 2972SOL    HW2 9816   6.872   4.691   6.398
 2973SOL     OW 9817   5.042   5.981   2.370
 2973SOL    HW1 9818   5.025   5.883   2.385
 2973SOL    HW2 9819   4.969   6.034   2.414
 2974SOL     OW 9820   0.989   4.477   3.661
 2974SOL    HW1 9821   1.077   4.447   3.625
 2974SOL    HW2 9822   0.998   4.498   3.759
 2975SOL     OW 9823   5.267   3.662   3.701
 2975SOL    HW1 9824   5.338   3.663   3.630
 2975SOL    HW2 9825   5.179   3.682   3.659
 2976SOL     OW 9826   3.800   2.144   3.016
 2976SOL    HW1 9827   3.700   2.143   3.004
 2976SOL    HW2 9828   3.834   2.051   3.025
 2977SOL     OW 9829   1.967   0.358   2.726
 2977SOL    HW1 9830   1.988   0.277   2.781
 2977SOL    HW2 9831   1.884   0.342   2.673
 2978SOL     OW 9832   4.134   5.143   0.066
 2978SOL    HW1 9833   4.075   5.073   0.028
 2978SOL    HW2 9834   4.078   5.220   0.098
 2979SOL     OW 9835   3.659   1.116   3.899
 2979SOL    HW1 9836   3.662   1.072   3.809
 2979SOL    HW2 9837   3.749   1.153   3.921
 2980SOL     OW 9838   1.399   5.218   4.713
 2980SOL    HW1 9839   1.469   5.279   4.675
 2980SOL    HW2 9840   1.433   5.175   4.796
 2981SOL     OW 9841   2.624   1.268   6.019
 2981SOL    HW1 9842   2.699   1.298   6.077
 2981SOL    HW2 9843   2.646   1.286   5.924
 2982SOL     OW 9844   2.937   5.413   1.930
 2982SOL    HW1 9845   3.029   5.437   1.900
 2982SOL    HW2 9846   2.939   5.326   1.979
 2983SOL     OW 9847   6.378   2.309   2.746
 2983SOL    HW1 9848   6.341   2.374   2.812
 2983SOL    HW2 9849   6.305   2.274   2.688
 2984SOL     OW 9850   6.011   4.522   0.195
 2984SOL    HW1 9851   5.915   4.546   0.181
 2984SOL    HW2 9852   6.068   4.604   0.185
 2985SOL     OW 9853   1.808   2.823   4.919
 2985SOL    HW1 9854   1.754   2.757   4.972
 2985SOL    HW2 9855   1.828   2.903   4.976
 2986SOL     OW 9856   3.614   4.134   3.222
 2986SOL    HW1 9857   3.525   4.097   3.249
 2986SOL    HW2 9858   3.682   4.110   3.291
 2987SOL     OW 9859   0.765   1.564   3.994
 2987SOL    HW1 9860   0.807   1.580   4.083
 2987SOL    HW2 9861   0.666   1.562   4.003
 2988SOL     OW 9862   1.864   6.074   2.674
 2988SOL    HW1 9863   1.838   6.013   2.748
 2988SOL    HW2 9864   1.853   6.027   2.586
 2989SOL     OW 9865   5.381   5.436   5.717
 2989SOL    HW1 9866   5.427   5.403   5.634
 2989SOL    HW2 9867   5.377   5.536   5.715
 2990SOL     OW 9868   3.594   2.021   4.820
 2990SOL    HW1 9869   3.589   2.040   4.722
 2990SOL    HW2 9870   3.529   2.079   4.869
 2991SOL     OW 9871   6.767   3.782   5.190
 2991SOL    HW1 9872   6.681   3.781   5.138
 2991SOL    HW2 9873   6.749   3.814   5.283
 2992SOL     OW 9874   1.513   5.605   4.736
 2992SOL    HW1 9875   1.574   5.543   4.686
 2992SOL    HW2 9876   1.563   5.689   4.759
 2993SOL     OW 9877   0.712   4.885   1.252
 2993SOL    HW1 9878   0.698   4.966   1.195
 2993SOL    HW2 9879   0.658   4.809   1.217
 2994SOL     OW 9880   3.699   6.535   6.941
 2994SOL    HW1 9881   3.773   6.513   7.005
 2994SOL    HW2 9882   3.717   6.624   6.899
 2995SOL     OW 9883   2.862   1.277   6.382
 2995SOL    HW1 9884   2.893   1.186   6.355
 2995SOL    HW2 9885   2.937   1.343   6.369
 2996SOL     OW 9886   1.194   1.293   5.085
 2996SOL    HW1 9887   1.120   1.360   5.096
 2996SOL    HW2 9888   1.259   1.326   5.016
 2997SOL     OW 9889   5.540   0.171   3.045
 2997SOL    HW1 9890   5.584   0.097   2.995
 2997SOL    HW2 9891   5.457   0.136   3.090
 2998SOL     OW 9892   4.860   6.968   3.916
 2998SOL    HW1 9893   4.841   0.003   4.000
 2998SOL    HW2 9894   4.776   6.956   3.864
 2999SOL     OW 9895   2.360   5.192   5.072
 2999SOL    HW1 9896   2.288   5.135   5.032
 2999SOL    HW2 9897   2.324   5.283   5.090
 3000SOL     OW 9898   3.114   4.035   6.199
 3000SOL    HW1 9899   3.048   4.099   6.239
 3000SOL    HW2 9900   3.200   4.039   6.250
 3001SOL     OW 9901   0.066   0.508   5.974
 3001SOL    HW1 9902   0.092   0.585   6.032
 3001SOL    HW2 9903   0.104   0.423   6.010
 3002SOL     OW 9904   3.232   1.920   0.054
 3002SOL    HW1 9905   3.316   1.939   0.104
 3002SOL    HW2 9906   3.210   1.997   7.011
 3003SOL     OW 9907   1.647   0.132   0.869
 3003SOL    HW1 9908   1.564   0.083   0.897
 3003SOL    HW2 9909   1.641   0.227   0.898
 3004SOL     OW 9910   0.607   3.894   2.672
 3004SOL    HW1 9911   0.526   3.905   2.615
 3004SOL    HW2 9912   0.580   3.877   2.766
 3005SOL     OW 9913   1.831   2.319   6.760
 3005SOL    HW1 9914   1.805   2.332   6.855
 3005SOL    HW2 9915   1.749   2.316   6.702
 3006SOL     OW 9916   5.293   1.389   4.542
 3006SOL    HW1 9917   5.194   1.376   4.547
 3006SOL    HW2 9918   5.320   1.401   4.447
 3007SOL     OW 9919   5.557   4.037   0.655
 3007SOL    HW1 9920   5.465   4.077   0.663
 3007SOL    HW2 9921   5.626   4.105   0.679
 3008SOL     OW 9922   3.669   2.074   6.215
 3008SOL    HW1 9923   3.641   2.050   6.122
 3008SOL    HW2 9924   3.640   2.002   6.278
 3009SOL     OW 9925   6.830   2.223   2.915
 3009SOL    HW1 9926   6.865   2.134   2.886
 3009SOL    HW2 9927   6.857   2.239   3.010
 3010SOL     OW 9928   3.114   5.785   3.669
 3010SOL    HW1 9929   3.093   5.877   3.636
 3010SOL    HW2 9930   3.035   5.749   3.719
 3011SOL     OW 9931   6.027   1.528   2.708
 3011SOL    HW1 9932   6.069   1.445   2.670
 3011SOL    HW2 9933   6.041   1.604   2.645
 3012SOL     OW 9934   1.797   3.311   6.017
 3012SOL    HW1 9935   1.864   3.285   5.947
 3012SOL    HW2 9936   1.836   3.382   6.075
 3013SOL     OW 9937   5.300   5.740   3.837
 3013SOL    HW1 9938   5.289   5.712   3.933
 3013SOL    HW2 9939   5.230   5.695   3.781
 3014SOL     OW 9940   4.815   2.273   4.973
 3014SOL    HW1 9941   4.865   2.262   5.059
 3014SOL    HW2 9942   4.717   2.276   4.991
 3015SOL     OW 9943   2.770   2.125   6.932
 3015SOL    HW1 9944   2.684   2.170   6.957
 3015SOL    HW2 9945   2.755   2.065   6.854
 3016SOL     OW 9946   2.803   6.498   3.965
 3016SOL    HW1 9947   2.803   6.413   4.017
 3016SOL    HW2 9948   2.841   6.481   3.874
 3017SOL     OW 9949   5.823   5.697   2.149
 3017SOL    HW1 9950   5.774   5.785   2.146
 3017SOL    HW2 9951   5.796   5.641   2.071
 3018SOL     OW 9952   2.738   0.123   5.728
 3018SOL    HW1 9953   2.732   0.032   5.769
 3018SOL    HW2 9954   2.657   0.140   5.673
 3019SOL     OW 9955   0.455   6.767   0.118
 3019SOL    HW1 9956   0.385   6.754   0.048
 3019SOL    HW2 9957   0.526   6.696   0.108
 3020SOL     OW 9958   3.947   2.499   1.336
 3020SOL    HW1 9959   3.962   2.425   1.402
 3020SOL    HW2 9960   3.868   2.553   1.365
 3021SOL     OW 9961   2.936   0.167   6.011
 3021SOL    HW1 9962   2.987   0.218   6.079
 3021SOL    HW2 9963   2.998   0.110   5.957
 3022SOL     OW 9964   3.977   5.526   4.903
 3022SOL    HW1 9965   3.965   5.430   4.877
 3022SOL    HW2 9966   4.059   5.563   4.859
 3023SOL     OW 9967   4.047   6.778   3.167
 3023SOL    HW1 9968   4.045   6.876   3.186
 3023SOL    HW2 9969   3.986   6.731   3.231
 3024SOL     OW 9970   5.003   6.595   5.214
 3024SOL    HW1 9971   5.091   6.642   5.222
 3024SOL    HW2 9972   4.991   6.564   5.119
 3025SOL     OW 9973   4.290   6.495   0.973
 3025SOL    HW1 9974   4.369   6.445   0.937
 3025SOL    HW2 9975   4.322   6.568   1.033
 3026SOL     OW 9976   1.465   0.861   6.228
 3026SOL    HW1 9977   1.433   0.863   6.133
 3026SOL    HW2 9978   1.387   0.857   6.290
 3027SOL     OW 9979   4.482   1.386   3.052
 3027SOL    HW1 9980   4.427   1.353   3.129
 3027SOL    HW2 9981   4.435   1.363   2.966
 3028SOL     OW 9982   1.779   3.750   5.875
 3028SOL    HW1 9983   1.751   3.782   5.966
 3028SOL    HW2 9984   1.709   3.775   5.808
 3029SOL     OW 9985   0.648   2.814   5.157
 3029SOL    HW1 9986   0.704   2.878   5.209
 3029SOL    HW2 9987   0.688   2.723   5.164
 3030SOL     OW 9988   0.464   3.352   0.221
 3030SOL    HW1 9989   0.442   3.267   0.269
 3030SOL    HW2 9990   0.564   3.362   0.215
 3031SOL     OW 9991   0.364   4.804   1.449
 3031SOL    HW1 9992   0.341   4.845   1.361
 3031SOL    HW2 9993   0.450   4.843   1.483
 3032SOL     OW 9994   2.713   6.695   1.438
 3032SOL    HW1 9995   2.713   6.656   1.346
 3032SOL    HW2 9996   2.644   6.766   1.445
 3033SOL     OW 9997   5.577   1.564   1.452
 3033SOL    HW1 9998   5.585   1.527   1.359
 3033SOL    HW2 9999   5.505   1.515   1.501
 3034SOL     OW10000   1.200   6.738   2.659
 3034SOL    HW110001   1.104   6.730   2.633
 3034SOL    HW210002   1.242   6.813   2.608
 3035SOL     OW10003   0.250   2.860   5.918
 3035SOL    HW110004   0.242   2.761   5.905
 3035SOL    HW210005   0.345   2.888   5.912
 3036SOL     OW10006   2.235   1.479   6.132
 3036SOL    HW110007   2.146   1.524   6.124
 3036SOL    HW210008   2.308   1.544   6.112
 3037SOL     OW10009   6.249   5.612   6.312
 3037SOL    HW110010   6.202   5.524   6.300
 3037SOL    HW210011   6.259   5.631   6.410
 3038SOL     OW10012   5.123   5.729   5.824
 3038SOL    HW110013   5.055   5.659   5.801
 3038SOL    HW210014   5.215   5.692   5.810
 3039SOL     OW10015   0.459   3.653   0.650
 3039SOL    HW110016   0.422   3.610   0.568
 3039SOL    HW210017   0.406   3.735   0.672
 3040SOL     OW10018   3.469   4.129   5.808
 3040SOL    HW110019   3.452   4.065   5.732
 3040SOL    HW210020   3.403   4.204   5.804
 3041SOL     OW10021   2.007   3.109   5.217
 3041SOL    HW110022   2.011   3.171   5.139
 3041SOL    HW210023   2.100   3.087   5.247
 3042SOL     OW10024   5.505   5.589   2.919
 3042SOL    HW110025   5.599   5.572   2.951
 3042SOL    HW210026   5.505   5.604   2.820
 3043SOL     OW10027   2.830   4.038   1.686
 3043SOL    HW110028   2.862   3.998   1.600
 3043SOL    HW210029   2.904   4.037   1.753
 3044SOL     OW10030   3.502   4.821   5.608
 3044SOL    HW110031   3.475   4.856   5.698
 3044SOL    HW210032   3.443   4.860   5.538
 3045SOL     OW10033   4.684   6.902   2.886
 3045SOL    HW110034   4.642   6.958   2.957
 3045SOL    HW210035   4.613   6.855   2.834
 3046SOL     OW10036   2.576   0.952   5.499
 3046SOL    HW110037   2.541   0.902   5.578
 3046SOL    HW210038   2.600   0.888   5.426
 3047SOL     OW10039   5.726   0.440   1.607
 3047SOL    HW110040   5.629   0.461   1.591
 3047SOL    HW210041   5.736   0.401   1.698
 3048SOL     OW10042   4.023   2.270   1.473
 3048SOL    HW110043   3.931   2.242   1.500
 3048SOL    HW210044   4.069   2.193   1.428
 3049SOL     OW10045   1.230   0.147   2.906
 3049SOL    HW110046   1.274   0.125   2.819
 3049SOL    HW210047   1.131   0.136   2.897
 3050SOL     OW10048   3.356   1.615   1.957
 3050SOL    HW110049   3.327   1.704   1.924
 3050SOL    HW210050   3.352   1.548   1.883
 3051SOL     OW10051   2.010   5.442   6.374
 3051SOL    HW110052   2.107   5.424   6.356
 3051SOL    HW210053   1.983   5.527   6.330
 3052SOL     OW10054   5.001   5.532   1.990
 3052SOL    HW110055   5.039   5.601   2.052
 3052SOL    HW210056   5.062   5.453   1.987
 3053SOL     OW10057   0.039   2.359   0.875
 3053SOL    HW110058   6.987   2.425   0.847
 3053SOL    HW210059   0.075   2.384   0.965
 3054SOL     OW10060   6.705   2.501   1.045
 3054SOL    HW110061   6.650   2.568   0.994
 3054SOL    HW210062   6.756   2.547   1.117
 3055SOL     OW10063   5.023   0.115   5.153
 3055SOL    HW110064   4.977   0.103   5.240
 3055SOL    HW210065   5.122   0.121   5.168
 3056SOL     OW10066   6.195   0.724   5.660
 3056SOL    HW110067   6.117   0.674   5.622
 3056SOL    HW210068   6.274   0.714   5.600
 3057SOL     OW10069   4.464   5.621   3.291
 3057SOL    HW110070   4.408   5.548   3.331
 3057SOL    HW210071   4.405   5.692   3.253
 3058SOL     OW10072   0.133   4.614   1.101
 3058SOL    HW110073   0.230   4.598   1.120
 3058SOL    HW210074   0.077   4.555   1.160
 3059SOL     OW10075   2.844   2.172   3.972
 3059SOL    HW110076   2.798   2.200   3.888
 3059SOL    HW210077   2.795   2.209   4.051
 3060SOL     OW10078   1.345   4.880   0.607
 3060SOL    HW110079   1.248   4.870   0.582
 3060SOL    HW210080   1.401   4.869   0.525
 3061SOL     OW10081   6.948   5.681   5.578
 3061SOL    HW110082   7.014   5.613   5.547
 3061SOL    HW210083   6.981   5.725   5.661
 3062SOL     OW10084   2.521   0.814   1.103
 3062SOL    HW110085   2.469   0.895   1.079
 3062SOL    HW210086   2.471   0.732   1.074
 3063SOL     OW10087   1.767   5.284   2.483
 3063SOL    HW110088   1.738   5.250   2.395
 3063SOL    HW210089   1.740   5.220   2.555
 3064SOL     OW10090   4.863   3.805   1.311
 3064SOL    HW110091   4.869   3.745   1.232
 3064SOL    HW210092   4.897   3.758   1.392
 3065SOL     OW10093   1.715   1.780   6.290
 3065SOL    HW110094   1.722   1.715   6.365
 3065SOL    HW210095   1.805   1.794   6.249
 3066SOL     OW10096   4.874   4.787   0.376
 3066SOL    HW110097   4.807   4.751   0.312
 3066SOL    HW210098   4.833   4.794   0.467
 3067SOL     OW10099   4.067   0.512   6.045
 3067SOL    HW110100   3.999   0.564   5.994
 3067SOL    HW210101   4.066   0.541   6.141
 3068SOL     OW10102   6.799   6.537   0.782
 3068SOL    HW110103   6.821   6.506   0.875
 3068SOL    HW210104   6.879   6.523   0.723
 3069SOL     OW10105   6.825   6.323   1.721
 3069SOL    HW110106   6.747   6.386   1.730
 3069SOL    HW210107   6.803   6.235   1.761
 3070SOL     OW10108   3.027   1.246   0.069
 3070SOL    HW110109   3.077   1.210   0.148
 3070SOL    HW210110   2.997   1.170   0.011
 3071SOL     OW10111   6.967   6.437   3.645
 3071SOL    HW110112   0.043   6.401   3.649
 3071SOL    HW210113   6.907   6.379   3.701
 3072SOL     OW10114   2.440   5.801   6.134
 3072SOL    HW110115   2.451   5.894   6.099
 3072SOL    HW210116   2.522   5.747   6.113
 3073SOL     OW10117   6.592   3.585   4.401
 3073SOL    HW110118   6.583   3.551   4.494
 3073SOL    HW210119   6.577   3.684   4.399
 3074SOL     OW10120   6.222   3.725   1.335
 3074SOL    HW110121   6.307   3.753   1.291
 3074SOL    HW210122   6.145   3.773   1.292
 3075SOL     OW10123   2.620   5.512   1.530
 3075SOL    HW110124   2.581   5.451   1.461
 3075SOL    HW210125   2.711   5.479   1.555
 3076SOL     OW10126   5.823   0.710   3.193
 3076SOL    HW110127   5.897   0.678   3.135
 3076SOL    HW210128   5.814   0.809   3.185
 3077SOL     OW10129   6.078   4.307   1.597
 3077SOL    HW110130   6.075   4.381   1.664
 3077SOL    HW210131   6.005   4.320   1.530
 3078SOL     OW10132   0.225   3.306   2.663
 3078SOL    HW110133   0.245   3.386   2.719
 3078SOL    HW210134   0.133   3.272   2.684
 3079SOL     OW10135   2.706   2.295   2.790
 3079SOL    HW110136   2.659   2.362   2.847
 3079SOL    HW210137   2.639   2.230   2.754
 3080SOL     OW10138   5.273   5.018   2.303
 3080SOL    HW110139   5.224   4.943   2.346
 3080SOL    HW210140   5.320   5.072   2.373
 3081SOL     OW10141   1.112   2.662   5.634
 3081SOL    HW110142   1.117   2.762   5.631
 3081SOL    HW210143   1.118   2.626   5.541
 3082SOL     OW10144   2.202   5.623   4.000
 3082SOL    HW110145   2.163   5.714   4.011
 3082SOL    HW210146   2.205   5.599   3.903
 3083SOL     OW10147   2.903   6.434   3.717
 3083SOL    HW110148   2.981   6.375   3.735
 3083SOL    HW210149   2.934   6.519   3.675
 3084SOL     OW10150   6.703   3.822   4.199
 3084SOL    HW110151   6.791   3.780   4.223
 3084SOL    HW210152   6.649   3.756   4.147
 3085SOL     OW10153   5.526   3.993   0.154
 3085SOL    HW110154   5.504   3.962   0.247
 3085SOL    HW210155   5.625   3.990   0.141
 3086SOL     OW10156   5.286   1.304   1.222
 3086SOL    HW110157   5.385   1.313   1.236
 3086SOL    HW210158   5.248   1.240   1.289
 3087SOL     OW10159   1.811   5.810   4.057
 3087SOL    HW110160   1.796   5.896   4.106
 3087SOL    HW210161   1.803   5.825   3.959
 3088SOL     OW10162   2.184   4.985   5.031
 3088SOL    HW110163   2.196   4.891   5.062
 3088SOL    HW210164   2.086   5.004   5.020
 3089SOL     OW10165   2.889   2.105   5.437
 3089SOL    HW110166   2.969   2.054   5.407
 3089SOL    HW210167   2.861   2.167   5.363
 3090SOL     OW10168   2.225   1.595   1.521
 3090SOL    HW110169   2.128   1.596   1.497
 3090SOL    HW210170   2.250   1.503   1.553
 3091SOL     OW10171   1.686   0.934   1.362
 3091SOL    HW110172   1.611   0.877   1.395
 3091SOL    HW210173   1.734   0.974   1.441
 3092SOL     OW10174   5.534   1.657   0.521
 3092SOL    HW110175   5.613   1.619   0.569
 3092SOL    HW210176   5.472   1.700   0.587
 3093SOL     OW10177   5.590   6.007   6.386
 3093SOL    HW110178   5.537   6.090   6.400
 3093SOL    HW210179   5.541   5.929   6.423
 3094SOL     OW10180   2.429   0.521   4.353
 3094SOL    HW110181   2.500   0.490   4.415
 3094SOL    HW210182   2.390   0.443   4.304
 3095SOL     OW10183   2.137   4.686   5.594
 3095SOL    HW110184   2.196   4.709   5.672
 3095SOL    HW210185   2.187   4.701   5.509
 3096SOL     OW10186   0.854   5.076   5.523
 3096SOL    HW110187   0.866   5.169   5.489
 3096SOL    HW210188   0.830   5.079   5.620
 3097SOL     OW10189   5.591   2.738   6.803
 3097SOL    HW110190   5.658   2.751   6.729
 3097SOL    HW210191   5.547   2.825   6.824
 3098SOL     OW10192   2.065   2.434   0.834
 3098SOL    HW110193   2.064   2.408   0.931
 3098SOL    HW210194   1.973   2.422   0.796
 3099SOL     OW10195   0.709   0.041   3.908
 3099SOL    HW110196   0.778   7.011   3.852
 3099SOL    HW210197   0.739   0.042   4.004
 3100SOL     OW10198   0.203   6.955   3.566
 3100SOL    HW110199   0.273   6.884   3.577
 3100SOL    HW210200   0.179   6.963   3.469
 3101SOL     OW10201   6.042   6.224   0.031
 3101SOL    HW110202   6.110   6.267   6.989
 3101SOL    HW210203   5.972   6.291   0.055
 3102SOL     OW10204   6.390   5.697   2.107
 3102SOL    HW110205   6.337   5.773   2.069
 3102SOL    HW210206   6.330   5.640   2.163
 3103SOL     OW10207   4.257   0.965   2.062
 3103SOL    HW110208   4.312   0.883   2.068
 3103SOL    HW210209   4.311   1.040   2.023
 3104SOL     OW10210   5.194   0.573   5.506
 3104SOL    HW110211   5.231   0.513   5.436
 3104SOL    HW210212   5.218   0.668   5.484
 3105SOL     OW10213   5.857   4.059   1.282
 3105SOL    HW110214   5.864   4.104   1.193
 3105SOL    HW210215   5.777   3.999   1.283
 3106SOL     OW10216   5.078   0.372   3.798
 3106SOL    HW110217   5.175   0.391   3.785
 3106SOL    HW210218   5.037   0.443   3.854
 3107SOL     OW10219   4.402   1.097   5.153
 3107SOL    HW110220   4.393   1.002   5.184
 3107SOL    HW210221   4.446   1.151   5.225
 3108SOL     OW10222   1.502   5.497   4.348
 3108SOL    HW110223   1.529   5.479   4.254
 3108SOL    HW210224   1.580   5.531   4.400
 3109SOL     OW10225   5.397   6.107   3.946
 3109SOL    HW110226   5.351   6.019   3.939
 3109SOL    HW210227   5.331   6.178   3.969
 3110SOL     OW10228   1.078   3.363   2.933
 3110SOL    HW110229   1.104   3.382   2.838
 3110SOL    HW210230   1.137   3.290   2.970
 3111SOL     OW10231   0.200   4.840   3.468
 3111SOL    HW110232   0.140   4.913   3.500
 3111SOL    HW210233   0.181   4.757   3.520
 3112SOL     OW10234   4.068   2.972   6.899
 3112SOL    HW110235   4.102   2.930   6.983
 3112SOL    HW210236   4.037   2.900   6.836
 3113SOL     OW10237   2.601   4.620   3.844
 3113SOL    HW110238   2.600   4.554   3.768
 3113SOL    HW210239   2.510   4.660   3.853
 3114SOL     OW10240   3.968   2.059   0.814
 3114SOL    HW110241   4.054   2.084   0.859
 3114SOL    HW210242   3.936   2.135   0.757
 3115SOL     OW10243   4.241   4.517   6.251
 3115SOL    HW110244   4.160   4.577   6.253
 3115SOL    HW210245   4.323   4.572   6.263
 3116SOL     OW10246   6.643   2.685   0.176
 3116SOL    HW110247   6.720   2.654   0.233
 3116SOL    HW210248   6.560   2.639   0.207
 3117SOL     OW10249   4.810   3.674   5.333
 3117SOL    HW110250   4.764   3.602   5.281
 3117SOL    HW210251   4.889   3.708   5.280
 3118SOL     OW10252   0.395   5.717   2.394
 3118SOL    HW110253   0.307   5.765   2.392
 3118SOL    HW210254   0.388   5.632   2.342
 3119SOL     OW10255   2.335   2.796   6.603
 3119SOL    HW110256   2.426   2.756   6.597
 3119SOL    HW210257   2.289   2.760   6.685
 3120SOL     OW10258   3.094   0.399   6.139
 3120SOL    HW110259   3.174   0.407   6.080
 3120SOL    HW210260   3.016   0.443   6.094
 3121SOL     OW10261   6.950   1.164   3.959
 3121SOL    HW110262   6.866   1.215   3.979
 3121SOL    HW210263   6.927   1.078   3.914
 3122SOL     OW10264   4.021   5.368   6.482
 3122SOL    HW110265   4.081   5.289   6.497
 3122SOL    HW210266   3.971   5.388   6.566
 3123SOL     OW10267   1.902   1.802   3.151
 3123SOL    HW110268   1.994   1.792   3.189
 3123SOL    HW210269   1.894   1.890   3.104
 3124SOL     OW10270   4.742   6.396   4.529
 3124SOL    HW110271   4.841   6.405   4.531
 3124SOL    HW210272   4.706   6.402   4.622
 3125SOL     OW10273   0.959   2.966   4.971
 3125SOL    HW110274   0.866   2.990   4.999
 3125SOL    HW210275   0.955   2.894   4.902
 3126SOL     OW10276   6.060   4.132   5.604
 3126SOL    HW110277   6.023   4.165   5.517
 3126SOL    HW210278   6.070   4.209   5.667
 3127SOL     OW10279   1.526   2.573   5.718
 3127SOL    HW110280   1.436   2.530   5.712
 3127SOL    HW210281   1.586   2.516   5.773
 3128SOL     OW10282   2.699   0.559   6.820
 3128SOL    HW110283   2.717   0.655   6.840
 3128SOL    HW210284   2.662   0.550   6.728
 3129SOL     OW10285   6.596   3.603   7.012
 3129SOL    HW110286   6.610   3.634   6.918
 3129SOL    HW210287   6.574   3.506   7.012
 3130SOL     OW10288   1.970   4.519   1.912
 3130SOL    HW110289   1.972   4.549   2.008
 3130SOL    HW210290   2.009   4.427   1.905
 3131SOL     OW10291   0.313   2.983   2.048
 3131SOL    HW110292   0.337   3.064   2.102
 3131SOL    HW210293   0.252   3.009   1.974
 3132SOL     OW10294   4.189   5.609   6.589
 3132SOL    HW110295   4.100   5.564   6.576
 3132SOL    HW210296   4.196   5.687   6.528
 3133SOL     OW10297   3.209   1.423   3.248
 3133SOL    HW110298   3.168   1.420   3.157
 3133SOL    HW210299   3.173   1.502   3.298
 3134SOL     OW10300   4.625   3.781   1.611
 3134SOL    HW110301   4.684   3.749   1.538
 3134SOL    HW210302   4.583   3.868   1.585
 3135SOL     OW10303   4.486   0.526   5.392
 3135SOL    HW110304   4.505   0.498   5.486
 3135SOL    HW210305   4.572   0.537   5.343
 3136SOL     OW10306   5.384   0.757   2.288
 3136SOL    HW110307   5.322   0.831   2.263
 3136SOL    HW210308   5.349   0.710   2.368
 3137SOL     OW10309   6.351   0.621   2.149
 3137SOL    HW110310   6.380   0.556   2.219
 3137SOL    HW210311   6.420   0.624   2.077
 3138SOL     OW10312   6.336   4.789   3.201
 3138SOL    HW110313   6.380   4.796   3.291
 3138SOL    HW210314   6.371   4.860   3.141
 3139SOL     OW10315   4.652   5.802   0.740
 3139SOL    HW110316   4.563   5.847   0.733
 3139SOL    HW210317   4.688   5.786   0.648
 3140SOL     OW10318   6.708   6.906   0.349
 3140SOL    HW110319   6.629   6.967   0.341
 3140SOL    HW210320   6.704   6.837   0.276
 3141SOL     OW10321   0.701   7.006   6.880
 3141SOL    HW110322   0.688   0.088   6.888
 3141SOL    HW210323   0.781   6.988   6.823
 3142SOL     OW10324   3.327   0.059   2.462
 3142SOL    HW110325   3.289   7.005   2.522
 3142SOL    HW210326   3.419   0.082   2.492
 3143SOL     OW10327   6.528   1.944   0.426
 3143SOL    HW110328   6.479   2.015   0.477
 3143SOL    HW210329   6.595   1.987   0.364
 3144SOL     OW10330   3.792   3.752   1.278
 3144SOL    HW110331   3.722   3.822   1.262
 3144SOL    HW210332   3.747   3.665   1.296
 3145SOL     OW10333   2.382   6.097   2.032
 3145SOL    HW110334   2.460   6.054   2.079
 3145SOL    HW210335   2.338   6.030   1.973
 3146SOL     OW10336   1.446   1.410   4.599
 3146SOL    HW110337   1.511   1.416   4.523
 3146SOL    HW210338   1.394   1.496   4.604
 3147SOL     OW10339   2.960   5.622   1.029
 3147SOL    HW110340   2.922   5.639   1.120
 3147SOL    HW210341   2.959   5.708   0.976
 3148SOL     OW10342   6.072   6.817   3.559
 3148SOL    HW110343   6.096   6.842   3.653
 3148SOL    HW210344   6.148   6.838   3.499
 3149SOL     OW10345   3.260   0.303   5.389
 3149SOL    HW110346   3.243   0.398   5.414
 3149SOL    HW210347   3.297   0.299   5.296
 3150SOL     OW10348   6.077   5.413   4.533
 3150SOL    HW110349   6.135   5.412   4.451
 3150SOL    HW210350   6.037   5.323   4.547
 3151SOL     OW10351   6.800   0.601   5.238
 3151SOL    HW110352   6.739   0.667   5.195
 3151SOL    HW210353   6.878   0.583   5.178
 3152SOL     OW10354   1.058   5.347   0.916
 3152SOL    HW110355   1.115   5.344   0.999
 3152SOL    HW210356   0.979   5.286   0.928
 3153SOL     OW10357   6.127   5.180   0.650
 3153SOL    HW110358   6.154   5.088   0.622
 3153SOL    HW210359   6.132   5.241   0.571
 3154SOL     OW10360   0.277   1.795   6.907
 3154SOL    HW110361   0.203   1.848   6.949
 3154SOL    HW210362   0.362   1.812   6.957
 3155SOL     OW10363   6.592   4.069   0.267
 3155SOL    HW110364   6.674   4.103   0.314
 3155SOL    HW210365   6.620   4.005   0.195
 3156SOL     OW10366   3.614   2.904   3.178
 3156SOL    HW110367   3.542   2.856   3.228
 3156SOL    HW210368   3.589   3.001   3.169
 3157SOL     OW10369   2.759   2.012   5.107
 3157SOL    HW110370   2.700   1.933   5.123
 3157SOL    HW210371   2.736   2.053   5.019
 3158SOL     OW10372   3.625   1.745   3.513
 3158SOL    HW110373   3.538   1.695   3.505
 3158SOL    HW210374   3.613   1.824   3.573
 3159SOL     OW10375   6.391   0.690   0.389
 3159SOL    HW110376   6.383   0.668   0.486
 3159SOL    HW210377   6.308   0.660   0.341
 3160SOL     OW10378   0.548   6.043   5.482
 3160SOL    HW110379   0.453   6.015   5.491
 3160SOL    HW210380   0.607   5.979   5.531
 3161SOL     OW10381   2.588   2.487   2.940
 3161SOL    HW110382   2.636   2.574   2.941
 3161SOL    HW210383   2.490   2.503   2.954
 3162SOL     OW10384   1.498   6.358   1.391
 3162SOL    HW110385   1.551   6.323   1.468
 3162SOL    HW210386   1.408   6.314   1.390
 3163SOL     OW10387   4.900   2.952   6.351
 3163SOL    HW110388   4.969   2.880   6.357
 3163SOL    HW210389   4.940   3.034   6.309
 3164SOL     OW10390   4.223   5.330   1.552
 3164SOL    HW110391   4.224   5.429   1.563
 3164SOL    HW210392   4.144   5.304   1.496
 3165SOL     OW10393   1.102   6.708   1.046
 3165SOL    HW110394   1.053   6.750   1.123
 3165SOL    HW210395   1.193   6.749   1.038
 3166SOL     OW10396   4.079   2.225   4.421
 3166SOL    HW110397   4.031   2.250   4.505
 3166SOL    HW210398   4.160   2.171   4.443
 3167SOL     OW10399   6.793   4.301   0.545
 3167SOL    HW110400   6.778   4.268   0.638
 3167SOL    HW210401   6.801   4.224   0.483
 3168SOL     OW10402   5.276   2.776   6.958
 3168SOL    HW110403   5.236   2.853   6.909
 3168SOL    HW210404   5.314   2.808   0.028
 3169SOL     OW10405   1.915   3.973   3.898
 3169SOL    HW110406   1.997   3.917   3.883
 3169SOL    HW210407   1.854   3.965   3.819
 3170SOL     OW10408   4.662   6.178   1.312
 3170SOL    HW110409   4.660   6.234   1.229
 3170SOL    HW210410   4.712   6.226   1.384
 3171SOL     OW10411   0.056   0.679   2.262
 3171SOL    HW110412   0.026   0.774   2.269
 3171SOL    HW210413   0.063   0.640   2.353
 3172SOL     OW10414   0.040   5.449   0.487
 3172SOL    HW110415   0.003   5.515   0.422
 3172SOL    HW210416   0.139   5.454   0.488
 3173SOL     OW10417   2.777   1.944   0.534
 3173SOL    HW110418   2.824   1.945   0.445
 3173SOL    HW210419   2.845   1.943   0.607
 3174SOL     OW10420   3.069   2.316   0.550
 3174SOL    HW110421   2.976   2.352   0.547
 3174SOL    HW210422   3.117   2.352   0.630
 3175SOL     OW10423   6.116   1.096   1.611
 3175SOL    HW110424   6.143   1.001   1.624
 3175SOL    HW210425   6.098   1.138   1.700
 3176SOL     OW10426   1.647   4.106   5.814
 3176SOL    HW110427   1.593   4.171   5.761
 3176SOL    HW210428   1.704   4.053   5.752
 3177SOL     OW10429   4.979   3.909   4.010
 3177SOL    HW110430   5.004   3.812   4.015
 3177SOL    HW210431   5.021   3.959   4.086
 3178SOL     OW10432   6.424   2.149   0.554
 3178SOL    HW110433   6.491   2.214   0.517
 3178SOL    HW210434   6.425   2.154   0.654
 3179SOL     OW10435   0.823   3.236   1.641
 3179SOL    HW110436   0.869   3.293   1.573
 3179SOL    HW210437   0.760   3.292   1.694
 3180SOL     OW10438   4.698   0.986   6.545
 3180SOL    HW110439   4.668   0.973   6.639
 3180SOL    HW210440   4.657   0.916   6.486
 3181SOL     OW10441   7.016   2.048   3.748
 3181SOL    HW110442   0.088   2.091   3.761
 3181SOL    HW210443   6.973   2.084   3.665
 3182SOL     OW10444   3.118   0.208   6.373
 3182SOL    HW110445   3.136   0.125   6.321
 3182SOL    HW210446   3.123   0.287   6.312
 3183SOL     OW10447   4.432   3.999   1.639
 3183SOL    HW110448   4.473   4.033   1.554
 3183SOL    HW210449   4.465   4.055   1.716
 3184SOL     OW10450   0.848   3.935   2.755
 3184SOL    HW110451   0.755   3.921   2.721
 3184SOL    HW210452   0.844   3.993   2.837
 3185SOL     OW10453   5.307   6.008   6.983
 3185SOL    HW110454   5.391   5.971   0.005
 3185SOL    HW210455   5.265   5.938   6.924
 3186SOL     OW10456   3.259   2.034   1.663
 3186SOL    HW110457   3.313   2.103   1.615
 3186SOL    HW210458   3.309   2.002   1.744
 3187SOL     OW10459   4.676   4.421   0.957
 3187SOL    HW110460   4.613   4.483   0.909
 3187SOL    HW210461   4.681   4.334   0.908
 3188SOL     OW10462   2.077   0.485   4.383
 3188SOL    HW110463   2.025   0.427   4.445
 3188SOL    HW210464   2.130   0.427   4.321
 3189SOL     OW10465   1.397   1.356   1.535
 3189SOL    HW110466   1.349   1.395   1.456
 3189SOL    HW210467   1.484   1.403   1.548
 3190SOL     OW10468   0.369   5.766   0.437
 3190SOL    HW110469   0.303   5.711   0.386
 3190SOL    HW210470   0.423   5.707   0.497
 3191SOL     OW10471   5.062   5.483   0.729
 3191SOL    HW110472   5.009   5.453   0.809
 3191SOL    HW210473   5.156   5.451   0.738
 3192SOL     OW10474   0.366   2.284   1.523
 3192SOL    HW110475   0.373   2.185   1.538
 3192SOL    HW210476   0.352   2.330   1.610
 3193SOL     OW10477   3.760   1.197   6.844
 3193SOL    HW110478   3.678   1.218   6.898
 3193SOL    HW210479   3.783   1.276   6.787
 3194SOL     OW10480   1.787   2.337   6.399
 3194SOL    HW110481   1.750   2.429   6.388
 3194SOL    HW210482   1.834   2.309   6.316
 3195SOL     OW10483   3.048   1.414   3.012
 3195SOL    HW110484   3.022   1.510   3.008
 3195SOL    HW210485   3.104   1.392   2.932
 3196SOL     OW10486   0.592   0.815   6.490
 3196SOL    HW110487   0.667   0.813   6.556
 3196SOL    HW210488   0.575   0.723   6.456
 3197SOL     OW10489   2.479   6.672   3.361
 3197SOL    HW110490   2.545   6.646   3.431
 3197SOL    HW210491   2.511   6.755   3.314
 3198SOL     OW10492   5.993   3.092   4.794
 3198SOL    HW110493   5.965   3.129   4.883
 3198SOL    HW210494   5.979   2.993   4.794
 3199SOL     OW10495   4.982   3.884   2.458
 3199SOL    HW110496   4.929   3.962   2.492
 3199SOL    HW210497   5.030   3.910   2.374
 3200SOL     OW10498   6.093   3.002   1.718
 3200SOL    HW110499   6.073   3.044   1.806
 3200SOL    HW210500   6.079   2.903   1.724
 3201SOL     OW10501   5.553   4.908   4.290
 3201SOL    HW110502   5.465   4.953   4.303
 3201SOL    HW210503   5.537   4.811   4.270
 3202SOL     OW10504   0.315   4.716   2.040
 3202SOL    HW110505   0.408   4.753   2.045
 3202SOL    HW210506   0.249   4.791   2.050
 3203SOL     OW10507   6.455   2.438   0.163
 3203SOL    HW110508   6.398   2.356   0.159
 3203SOL    HW210509   6.546   2.416   0.127
 3204SOL     OW10510   4.245   6.392   2.381
 3204SOL    HW110511   4.235   6.334   2.462
 3204SOL    HW210512   4.168   6.456   2.376
 3205SOL     OW10513   6.466   2.933   6.044
 3205SOL    HW110514   6.546   2.947   5.985
 3205SOL    HW210515   6.437   3.020   6.082
 3206SOL     OW10516   1.265   6.178   6.474
 3206SOL    HW110517   1.321   6.130   6.541
 3206SOL    HW210518   1.194   6.117   6.439
 3207SOL     OW10519   0.793   0.265   5.952
 3207SOL    HW110520   0.832   0.174   5.968
 3207SOL    HW210521   0.856   0.320   5.898
 3208SOL     OW10522   4.822   5.652   5.820
 3208SOL    HW110523   4.751   5.588   5.849
 3208SOL    HW210524   4.844   5.635   5.724
 3209SOL     OW10525   4.513   6.249   3.276
 3209SOL    HW110526   4.453   6.175   3.304
 3209SOL    HW210527   4.485   6.334   3.321
 3210SOL     OW10528   1.001   4.581   1.651
 3210SOL    HW110529   1.035   4.625   1.567
 3210SOL    HW210530   0.972   4.651   1.716
 3211SOL     OW10531   1.692   3.792   0.973
 3211SOL    HW110532   1.780   3.754   0.945
 3211SOL    HW210533   1.706   3.852   1.053
 3212SOL     OW10534   3.473   0.864   1.314
 3212SOL    HW110535   3.383   0.896   1.345
 3212SOL    HW210536   3.486   0.891   1.218
 3213SOL     OW10537   1.090   5.725   1.162
 3213SOL    HW110538   1.163   5.790   1.139
 3213SOL    HW210539   1.127   5.656   1.224
 3214SOL     OW10540   4.815   5.202   0.743
 3214SOL    HW110541   4.866   5.270   0.795
 3214SOL    HW210542   4.880   5.141   0.696
 3215SOL     OW10543   6.935   2.794   0.454
 3215SOL    HW110544   6.902   2.714   0.502
 3215SOL    HW210545   6.867   2.867   0.459
 3216SOL     OW10546   6.054   4.862   0.707
 3216SOL    HW110547   6.013   4.920   0.777
 3216SOL    HW210548   5.990   4.789   0.681
 3217SOL     OW10549   0.042   5.599   2.456
 3217SOL    HW110550   7.000   5.674   2.425
 3217SOL    HW210551   0.036   5.523   2.391
 3218SOL     OW10552   4.484   1.971   3.616
 3218SOL    HW110553   4.502   2.053   3.671
 3218SOL    HW210554   4.531   1.979   3.528
 3219SOL     OW10555   0.270   2.119   3.755
 3219SOL    HW110556   0.302   2.162   3.671
 3219SOL    HW210557   0.330   2.145   3.830
 3220SOL     OW10558   6.782   5.406   6.438
 3220SOL    HW110559   6.722   5.485   6.447
 3220SOL    HW210560   6.739   5.326   6.480
 3221SOL     OW10561   3.687   0.576   1.819
 3221SOL    HW110562   3.730   0.486   1.815
 3221SOL    HW210563   3.754   0.646   1.792
 3222SOL     OW10564   3.787   1.845   2.034
 3222SOL    HW110565   3.817   1.922   2.091
 3222SOL    HW210566   3.691   1.826   2.052
 3223SOL     OW10567   1.999   6.263   6.123
 3223SOL    HW110568   2.041   6.174   6.140
 3223SOL    HW210569   2.068   6.335   6.135
 3224SOL     OW10570   4.159   3.959   6.183
 3224SOL    HW110571   4.209   3.872   6.184
 3224SOL    HW210572   4.197   4.020   6.252
 3225SOL     OW10573   5.021   2.788   6.690
 3225SOL    HW110574   5.030   2.770   6.592
 3225SOL    HW210575   5.011   2.701   6.739
 3226SOL     OW10576   2.049   1.314   3.519
 3226SOL    HW110577   2.129   1.367   3.491
 3226SOL    HW210578   1.966   1.364   3.495
 3227SOL     OW10579   3.589   2.738   0.132
 3227SOL    HW110580   3.689   2.749   0.132
 3227SOL    HW210581   3.567   2.641   0.141
 3228SOL     OW10582   6.475   4.350   2.636
 3228SOL    HW110583   6.514   4.441   2.627
 3228SOL    HW210584   6.549   4.283   2.648
 3229SOL     OW10585   4.149   6.948   5.346
 3229SOL    HW110586   4.129   6.863   5.394
 3229SOL    HW210587   4.235   6.938   5.295
 3230SOL     OW10588   2.050   3.320   5.043
 3230SOL    HW110589   2.137   3.335   5.090
 3230SOL    HW210590   1.994   3.403   5.048
 3231SOL     OW10591   2.290   1.143   1.318
 3231SOL    HW110592   2.289   1.043   1.327
 3231SOL    HW210593   2.332   1.183   1.399
 3232SOL     OW10594   4.943   5.462   5.137
 3232SOL    HW110595   4.854   5.501   5.111
 3232SOL    HW210596   4.986   5.422   5.057
 3233SOL     OW10597   0.842   2.984   1.276
 3233SOL    HW110598   0.743   2.993   1.271
 3233SOL    HW210599   0.886   3.063   1.233
 3234SOL     OW10600   6.781   1.496   7.011
 3234SOL    HW110601   6.743   1.549   0.070
 3234SOL    HW210602   6.844   1.427   0.029
 3235SOL     OW10603   5.718   0.963   1.992
 3235SOL    HW110604   5.807   0.988   2.029
 3235SOL    HW210605   5.716   0.865   1.974
 3236SOL     OW10606   1.748   2.867   0.722
 3236SOL    HW110607   1.809   2.797   0.760
 3236SOL    HW210608   1.698   2.911   0.797
 3237SOL     OW10609   5.095   1.660   4.214
 3237SOL    HW110610   5.039   1.687   4.136
 3237SOL    HW210611   5.178   1.614   4.181
 3238SOL     OW10612   6.896   5.249   0.470
 3238SOL    HW110613   6.952   5.331   0.477
 3238SOL    HW210614   6.801   5.271   0.492
 3239SOL     OW10615   6.465   1.749   1.731
 3239SOL    HW110616   6.557   1.769   1.697
 3239SOL    HW210617   6.405   1.827   1.714
 3240SOL     OW10618   0.301   0.197   6.677
 3240SOL    HW110619   0.303   0.265   6.750
 3240SOL    HW210620   0.394   0.178   6.646
 3241SOL     OW10621   4.386   2.017   5.421
 3241SOL    HW110622   4.353   2.019   5.515
 3241SOL    HW210623   4.378   2.108   5.380
 3242SOL     OW10624   3.377   4.419   0.160
 3242SOL    HW110625   3.327   4.375   0.235
 3242SOL    HW210626   3.333   4.505   0.136
 3243SOL     OW10627   4.373   4.658   0.351
 3243SOL    HW110628   4.296   4.615   0.399
 3243SOL    HW210629   4.390   4.609   0.266
 3244SOL     OW10630   4.850   5.464   0.527
 3244SOL    HW110631   4.919   5.484   0.597
 3244SOL    HW210632   4.889   5.403   0.458
 3245SOL     OW10633   4.983   3.127   4.896
 3245SOL    HW110634   4.969   3.202   4.960
 3245SOL    HW210635   4.894   3.097   4.861
 3246SOL     OW10636   5.762   0.207   2.500
 3246SOL    HW110637   5.732   0.194   2.405
 3246SOL    HW210638   5.730   0.296   2.533
 3247SOL     OW10639   5.939   4.983   2.348
 3247SOL    HW110640   5.914   4.997   2.443
 3247SOL    HW210641   5.894   5.052   2.291
 3248SOL     OW10642   6.704   3.458   1.021
 3248SOL    HW110643   6.766   3.452   1.099
 3248SOL    HW210644   6.623   3.402   1.038
 3249SOL     OW10645   4.085   3.266   4.387
 3249SOL    HW110646   4.162   3.329   4.376
 3249SOL    HW210647   4.019   3.281   4.313
 3250SOL     OW10648   5.862   6.747   2.120
 3250SOL    HW110649   5.808   6.665   2.139
 3250SOL    HW210650   5.906   6.778   2.204
 3251SOL     OW10651   3.018   1.197   3.405
 3251SOL    HW110652   3.081   1.193   3.482
 3251SOL    HW210653   3.067   1.222   3.322
 3252SOL     OW10654   2.260   1.976   2.591
 3252SOL    HW110655   2.205   1.895   2.608
 3252SOL    HW210656   2.345   1.949   2.545
 3253SOL     OW10657   5.100   3.829   2.151
 3253SOL    HW110658   5.024   3.843   2.086
 3253SOL    HW210659   5.165   3.904   2.141
 3254SOL     OW10660   5.387   5.453   5.102
 3254SOL    HW110661   5.473   5.436   5.150
 3254SOL    HW210662   5.375   5.552   5.090
 3255SOL     OW10663   5.623   5.601   0.635
 3255SOL    HW110664   5.578   5.517   0.606
 3255SOL    HW210665   5.555   5.674   0.645
 3256SOL     OW10666   2.909   0.987   0.043
 3256SOL    HW110667   2.863   0.961   6.975
 3256SOL    HW210668   2.846   0.976   0.120
 3257SOL     OW10669   1.611   1.024   2.091
 3257SOL    HW110670   1.550   0.978   2.156
 3257SOL    HW210671   1.631   1.116   2.124
 3258SOL     OW10672   4.235   4.554   1.796
 3258SOL    HW110673   4.321   4.601   1.780
 3258SOL    HW210674   4.235   4.466   1.750
 3259SOL     OW10675   4.452   5.579   3.738
 3259SOL    HW110676   4.415   5.488   3.720
 3259SOL    HW210677   4.529   5.596   3.677
 3260SOL     OW10678   2.255   1.818   0.874
 3260SOL    HW110679   2.190   1.895   0.872
 3260SOL    HW210680   2.300   1.811   0.786
 3261SOL     OW10681   5.491   6.849   0.848
 3261SOL    HW110682   5.416   6.788   0.820
 3261SOL    HW210683   5.532   6.890   0.766
 3262SOL     OW10684   3.381   2.086   2.805
 3262SOL    HW110685   3.329   2.014   2.758
 3262SOL    HW210686   3.472   2.094   2.762
 3263SOL     OW10687   2.535   0.820   3.763
 3263SOL    HW110688   2.463   0.759   3.731
 3263SOL    HW210689   2.513   0.914   3.739
 3264SOL     OW10690   1.509   4.178   1.093
 3264SOL    HW110691   1.595   4.224   1.116
 3264SOL    HW210692   1.513   4.145   0.999
 3265SOL     OW10693   5.310   0.651   6.607
 3265SOL    HW110694   5.214   0.625   6.592
 3265SOL    HW210695   5.333   0.728   6.548
 3266SOL     OW10696   1.970   3.498   0.630
 3266SOL    HW110697   1.956   3.421   0.568
 3266SOL    HW210698   2.028   3.567   0.586
 3267SOL     OW10699   3.458   0.213   0.653
 3267SOL    HW110700   3.434   0.214   0.556
 3267SOL    HW210701   3.553   0.183   0.663
 3268SOL     OW10702   1.077   3.601   0.815
 3268SOL    HW110703   1.023   3.518   0.823
 3268SOL    HW210704   1.023   3.673   0.772
 3269SOL     OW10705   4.471   5.659   2.187
 3269SOL    HW110706   4.377   5.625   2.187
 3269SOL    HW210707   4.521   5.619   2.264
 3270SOL     OW10708   0.649   4.166   5.759
 3270SOL    HW110709   0.556   4.143   5.731
 3270SOL    HW210710   0.713   4.136   5.687
 3271SOL     OW10711   5.957   3.691   2.796
 3271SOL    HW110712   6.041   3.730   2.834
 3271SOL    HW210713   5.896   3.765   2.769
 3272SOL     OW10714   3.420   4.295   6.148
 3272SOL    HW110715   3.420   4.209   6.096
 3272SOL    HW210716   3.505   4.304   6.198
 3273SOL     OW10717   0.609   6.419   0.896
 3273SOL    HW110718   0.703   6.432   0.864
 3273SOL    HW210719   0.560   6.506   0.889
 3274SOL     OW10720   4.763   0.789   1.094
 3274SOL    HW110721   4.670   0.823   1.095
 3274SOL    HW210722   4.772   0.717   1.024
 3275SOL     OW10723   6.785   1.399   6.709
 3275SOL    HW110724   6.789   1.480   6.769
 3275SOL    HW210725   6.868   1.345   6.721
 3276SOL     OW10726   2.177   5.754   0.329
 3276SOL    HW110727   2.104   5.744   0.261
 3276SOL    HW210728   2.160   5.692   0.406
 3277SOL     OW10729   4.162   6.723   0.090
 3277SOL    HW110730   4.200   6.733   0.182
 3277SOL    HW210731   4.214   6.654   0.040
 3278SOL     OW10732   1.088   0.935   5.698
 3278SOL    HW110733   1.114   0.859   5.758
 3278SOL    HW210734   1.007   0.980   5.734
 3279SOL     OW10735   5.589   0.580   6.720
 3279SOL    HW110736   5.647   0.622   6.650
 3279SOL    HW210737   5.499   0.624   6.721
 3280SOL     OW10738   3.944   5.552   4.457
 3280SOL    HW110739   3.868   5.603   4.417
 3280SOL    HW210740   3.913   5.461   4.485
 3281SOL     OW10741   1.920   5.967   1.801
 3281SOL    HW110742   1.956   6.058   1.821
 3281SOL    HW210743   1.965   5.899   1.859
 3282SOL     OW10744   0.512   4.451   5.739
 3282SOL    HW110745   0.603   4.477   5.707
 3282SOL    HW210746   0.498   4.353   5.723
 3283SOL     OW10747   4.175   1.240   0.814
 3283SOL    HW110748   4.113   1.295   0.757
 3283SOL    HW210749   4.209   1.162   0.761
 3284SOL     OW10750   6.859   5.334   0.108
 3284SOL    HW110751   6.906   5.413   0.069
 3284SOL    HW210752   6.926   5.265   0.135
 3285SOL     OW10753   5.128   3.208   3.463
 3285SOL    HW110754   5.167   3.251   3.382
 3285SOL    HW210755   5.043   3.255   3.488
 3286SOL     OW10756   3.942   3.043   2.447
 3286SOL    HW110757   4.037   3.019   2.469
 3286SOL    HW210758   3.881   2.997   2.511
 3287SOL     OW10759   1.017   0.224   6.994
 3287SOL    HW110760   1.044   0.315   0.009
 3287SOL    HW210761   0.963   0.232   6.911
 3288SOL     OW10762   0.527   5.459   6.459
 3288SOL    HW110763   0.530   5.476   6.558
 3288SOL    HW210764   0.439   5.489   6.423
 3289SOL     OW10765   2.719   6.925   5.895
 3289SOL    HW110766   2.621   6.911   5.883
 3289SOL    HW210767   2.748   6.883   5.981
 3290SOL     OW10768   0.458   0.068   2.227
 3290SOL    HW110769   0.418   0.137   2.287
 3290SOL    HW210770   0.394   7.010   2.213
 3291SOL     OW10771   2.274   7.003   1.083
 3291SOL    HW110772   2.371   7.007   1.104
 3291SOL    HW210773   2.246   0.070   1.036
 3292SOL     OW10774   0.599   0.820   1.080
 3292SOL    HW110775   0.613   0.913   1.045
 3292SOL    HW210776   0.678   0.764   1.058
 3293SOL     OW10777   0.502   3.564   2.638
 3293SOL    HW110778   0.575   3.629   2.613
 3293SOL    HW210779   0.528   3.473   2.608
 3294SOL     OW10780   6.272   1.635   6.219
 3294SOL    HW110781   6.330   1.716   6.211
 3294SOL    HW210782   6.186   1.651   6.170
 3295SOL     OW10783   1.489   2.852   1.991
 3295SOL    HW110784   1.572   2.850   1.936
 3295SOL    HW210785   1.486   2.771   2.050
 3296SOL     OW10786   1.557   6.732   2.136
 3296SOL    HW110787   1.460   6.711   2.147
 3296SOL    HW210788   1.580   6.736   2.039
 3297SOL     OW10789   3.311   0.807   4.608
 3297SOL    HW110790   3.331   0.718   4.567
 3297SOL    HW210791   3.355   0.813   4.698
 3298SOL     OW10792   5.730   1.584   5.010
 3298SOL    HW110793   5.688   1.673   5.020
 3298SOL    HW210794   5.809   1.590   4.949
 3299SOL     OW10795   2.797   5.342   3.592
 3299SOL    HW110796   2.712   5.395   3.588
 3299SOL    HW210797   2.867   5.385   3.536
 3300SOL     OW10798   0.277   0.665   5.431
 3300SOL    HW110799   0.213   0.614   5.488
 3300SOL    HW210800   0.301   0.609   5.351
 3301SOL     OW10801   2.129   3.287   3.656
 3301SOL    HW110802   2.085   3.197   3.657
 3301SOL    HW210803   2.117   3.332   3.745
 3302SOL     OW10804   0.106   4.454   4.908
 3302SOL    HW110805   0.140   4.532   4.959
 3302SOL    HW210806   0.006   4.453   4.911
 3303SOL     OW10807   3.507   3.723   1.342
 3303SOL    HW110808   3.534   3.642   1.289
 3303SOL    HW210809   3.430   3.699   1.402
 3304SOL     OW10810   0.783   6.076   4.207
 3304SOL    HW110811   0.749   6.053   4.298
 3304SOL    HW210812   0.723   6.037   4.138
 3305SOL     OW10813   2.091   1.657   2.911
 3305SOL    HW110814   2.043   1.736   2.948
 3305SOL    HW210815   2.098   1.665   2.812
 3306SOL     OW10816   2.016   5.471   5.119
 3306SOL    HW110817   1.971   5.465   5.208
 3306SOL    HW210818   2.109   5.434   5.126
 3307SOL     OW10819   0.154   5.999   0.130
 3307SOL    HW110820   0.213   5.921   0.150
 3307SOL    HW210821   0.115   5.988   0.038
 3308SOL     OW10822   3.170   6.261   0.306
 3308SOL    HW110823   3.260   6.236   0.272
 3308SOL    HW210824   3.106   6.184   0.292
 3309SOL     OW10825   0.103   6.148   2.469
 3309SOL    HW110826   0.086   6.206   2.548
 3309SOL    HW210827   0.105   6.204   2.386
 3310SOL     OW10828   6.929   3.190   5.790
 3310SOL    HW110829   6.988   3.113   5.767
 3310SOL    HW210830   6.909   3.243   5.707
 3311SOL     OW10831   2.344   4.077   1.937
 3311SOL    HW110832   2.350   3.995   1.880
 3311SOL    HW210833   2.407   4.147   1.902
 3312SOL     OW10834   3.668   4.660   5.953
 3312SOL    HW110835   3.768   4.659   5.958
 3312SOL    HW210836   3.638   4.598   5.881
 3313SOL     OW10837   0.287   5.205   3.219
 3313SOL    HW110838   0.380   5.171   3.229
 3313SOL    HW210839   0.231   5.134   3.174
 3314SOL     OW10840   2.823   1.537   3.353
 3314SOL    HW110841   2.792   1.442   3.363
 3314SOL    HW210842   2.777   1.579   3.275
 3315SOL     OW10843   6.817   3.205   4.901
 3315SOL    HW110844   6.888   3.193   4.972
 3315SOL    HW210845   6.744   3.263   4.938
 3316SOL     OW10846   5.245   1.610   6.102
 3316SOL    HW110847   5.205   1.688   6.148
 3316SOL    HW210848   5.222   1.526   6.152
 3317SOL     OW10849   4.342   3.086   1.717
 3317SOL    HW110850   4.362   3.184   1.712
 3317SOL    HW210851   4.410   3.041   1.774
 3318SOL     OW10852   2.711   1.033   0.707
 3318SOL    HW110853   2.726   0.936   0.688
 3318SOL    HW210854   2.799   1.080   0.713
 3319SOL     OW10855   6.488   0.848   3.943
 3319SOL    HW110856   6.501   0.831   3.846
 3319SOL    HW210857   6.564   0.902   3.979
 3320SOL     OW10858   5.598   0.173   4.717
 3320SOL    HW110859   5.513   0.143   4.673
 3320SOL    HW210860   5.650   0.229   4.653
 3321SOL     OW10861   4.389   1.725   0.477
 3321SOL    HW110862   4.398   1.735   0.576
 3321SOL    HW210863   4.445   1.648   0.445
 3322SOL     OW10864   5.820   3.561   0.543
 3322SOL    HW110865   5.782   3.595   0.629
 3322SOL    HW210866   5.848   3.638   0.486
 3323SOL     OW10867   2.976   2.871   0.044
 3323SOL    HW110868   2.992   2.966   0.071
 3323SOL    HW210869   3.018   2.854   6.971
 3324SOL     OW10870   2.826   4.868   6.939
 3324SOL    HW110871   2.878   4.792   6.899
 3324SOL    HW210872   2.875   4.954   6.923
 3325SOL     OW10873   1.848   3.021   6.826
 3325SOL    HW110874   1.814   2.991   6.915
 3325SOL    HW210875   1.946   2.999   6.819
 3326SOL     OW10876   4.645   2.333   2.088
 3326SOL    HW110877   4.601   2.422   2.094
 3326SOL    HW210878   4.694   2.326   2.000
 3327SOL     OW10879   2.612   5.975   1.926
 3327SOL    HW110880   2.548   6.051   1.912
 3327SOL    HW210881   2.602   5.909   1.852
 3328SOL     OW10882   4.325   1.218   1.069
 3328SOL    HW110883   4.311   1.243   0.973
 3328SOL    HW210884   4.418   1.184   1.082
 3329SOL     OW10885   4.908   6.708   4.601
 3329SOL    HW110886   4.897   6.682   4.505
 3329SOL    HW210887   5.000   6.745   4.615
 3330SOL     OW10888   6.291   4.876   1.470
 3330SOL    HW110889   6.312   4.974   1.464
 3330SOL    HW210890   6.345   4.835   1.544
 3331SOL     OW10891   1.514   3.412   1.143
 3331SOL    HW110892   1.506   3.413   1.043
 3331SOL    HW210893   1.506   3.506   1.177
 3332SOL     OW10894   6.662   4.962   0.225
 3332SOL    HW110895   6.733   4.902   0.190
 3332SOL    HW210896   6.690   5.058   0.213
 3333SOL     OW10897   3.545   3.958   6.625
 3333SOL    HW110898   3.539   3.859   6.634
 3333SOL    HW210899   3.599   3.995   6.700
 3334SOL     OW10900   2.372   3.836   1.281
 3334SOL    HW110901   2.292   3.845   1.340
 3334SOL    HW210902   2.355   3.883   1.194
 3335SOL     OW10903   5.334   6.721   5.460
 3335SOL    HW110904   5.363   6.709   5.365
 3335SOL    HW210905   5.302   6.814   5.474
 3336SOL     OW10906   1.884   6.555   4.371
 3336SOL    HW110907   1.948   6.481   4.391
 3336SOL    HW210908   1.928   6.619   4.307
 3337SOL     OW10909   3.003   3.799   1.843
 3337SOL    HW110910   3.004   3.797   1.743
 3337SOL    HW210911   3.026   3.890   1.875
 3338SOL     OW10912   5.733   3.034   2.426
 3338SOL    HW110913   5.648   2.985   2.404
 3338SOL    HW210914   5.716   3.132   2.427
 3339SOL     OW10915   0.561   0.171   6.627
 3339SOL    HW110916   0.631   0.224   6.578
 3339SOL    HW210917   0.561   0.077   6.594
 3340SOL     OW10918   3.845   1.661   3.378
 3340SOL    HW110919   3.845   1.568   3.342
 3340SOL    HW210920   3.759   1.679   3.424
 3341SOL     OW10921   0.695   4.797   3.208
 3341SOL    HW110922   0.770   4.853   3.242
 3341SOL    HW210923   0.705   4.703   3.242
 3342SOL     OW10924   1.716   6.170   3.601
 3342SOL    HW110925   1.712   6.113   3.519
 3342SOL    HW210926   1.644   6.143   3.665
 3343SOL     OW10927   5.016   3.457   0.117
 3343SOL    HW110928   4.961   3.425   0.040
 3343SOL    HW210929   5.035   3.554   0.106
 3344SOL     OW10930   5.655   3.334   3.540
 3344SOL    HW110931   5.619   3.258   3.595
 3344SOL    HW210932   5.685   3.407   3.601
 3345SOL     OW10933   1.807   3.009   5.701
 3345SOL    HW110934   1.767   2.919   5.685
 3345SOL    HW210935   1.735   3.073   5.728
 3346SOL     OW10936   1.353   1.413   6.988
 3346SOL    HW110937   1.433   1.440   6.936
 3346SOL    HW210938   1.316   1.492   0.020
 3347SOL     OW10939   0.980   3.183   5.376
 3347SOL    HW110940   0.921   3.258   5.407
 3347SOL    HW210941   1.059   3.176   5.437
 3348SOL     OW10942   3.494   3.847   4.556
 3348SOL    HW110943   3.569   3.913   4.549
 3348SOL    HW210944   3.507   3.775   4.489
 3349SOL     OW10945   1.629   5.025   3.280
 3349SOL    HW110946   1.645   4.949   3.343
 3349SOL    HW210947   1.607   4.989   3.190
 3350SOL     OW10948   0.259   2.555   5.856
 3350SOL    HW110949   0.167   2.521   5.836
 3350SOL    HW210950   0.311   2.562   5.771
 3351SOL     OW10951   4.812   0.544   2.834
 3351SOL    HW110952   4.831   0.641   2.820
 3351SOL    HW210953   4.720   0.523   2.801
 3352SOL     OW10954   6.497   2.839   7.000
 3352SOL    HW110955   6.548   2.786   0.051
 3352SOL    HW210956   6.537   2.823   6.909
 3353SOL     OW10957   2.818   5.744   1.534
 3353SOL    HW110958   2.752   5.686   1.582
 3353SOL    HW210959   2.910   5.709   1.548
 3354SOL     OW10960   4.959   2.660   5.551
 3354SOL    HW110961   5.002   2.727   5.492
 3354SOL    HW210962   5.022   2.584   5.567
 3355SOL     OW10963   2.386   1.973   5.886
 3355SOL    HW110964   2.416   1.967   5.791
 3355SOL    HW210965   2.437   1.906   5.941
 3356SOL     OW10966   0.289   5.398   5.702
 3356SOL    HW110967   0.301   5.438   5.611
 3356SOL    HW210968   0.323   5.304   5.702
 3357SOL     OW10969   2.140   3.761   2.041
 3357SOL    HW110970   2.225   3.805   2.011
 3357SOL    HW210971   2.144   3.663   2.020
 3358SOL     OW10972   4.804   1.731   1.397
 3358SOL    HW110973   4.836   1.637   1.383
 3358SOL    HW210974   4.768   1.741   1.490
 3359SOL     OW10975   0.227   6.826   2.733
 3359SOL    HW110976   0.188   6.886   2.803
 3359SOL    HW210977   0.201   6.859   2.642
 3360SOL     OW10978   1.597   1.643   0.186
 3360SOL    HW110979   1.531   1.590   0.240
 3360SOL    HW210980   1.657   1.695   0.248
 3361SOL     OW10981   0.535   4.854   4.540
 3361SOL    HW110982   0.634   4.847   4.558
 3361SOL    HW210983   0.491   4.901   4.617
 3362SOL     OW10984   3.718   1.585   2.753
 3362SOL    HW110985   3.697   1.673   2.795
 3362SOL    HW210986   3.666   1.512   2.798
 3363SOL     OW10987   6.631   0.273   2.202
 3363SOL    HW110988   6.547   0.323   2.185
 3363SOL    HW210989   6.699   0.335   2.243
 3364SOL     OW10990   1.326   4.720   3.898
 3364SOL    HW110991   1.309   4.818   3.908
 3364SOL    HW210992   1.408   4.695   3.949
 3365SOL     OW10993   6.870   2.062   4.923
 3365SOL    HW110994   6.844   2.007   4.843
 3365SOL    HW210995   6.811   2.038   5.000
 3366SOL     OW10996   5.768   5.508   4.915
 3366SOL    HW110997   5.734   5.601   4.932
 3366SOL    HW210998   5.839   5.511   4.844
 3367SOL     OW10999   3.809   2.941   2.644
 3367SOL    HW111000   3.730   2.894   2.603
 3367SOL    HW211001   3.798   2.944   2.743
 3368SOL     OW11002   0.816   5.799   6.512
 3368SOL    HW111003   0.905   5.755   6.512
 3368SOL    HW211004   0.751   5.743   6.562
 3369SOL     OW11005   3.578   1.995   0.502
 3369SOL    HW111006   3.595   1.927   0.574
 3369SOL    HW211007   3.480   2.014   0.497
 3370SOL     OW11008   0.078   6.034   0.482
 3370SOL    HW111009   0.015   5.957   0.493
 3370SOL    HW211010   0.131   6.022   0.398
 3371SOL     OW11011   2.400   2.625   1.680
 3371SOL    HW111012   2.369   2.720   1.691
 3371SOL    HW211013   2.405   2.581   1.770
 3372SOL     OW11014   0.211   2.252   1.285
 3372SOL    HW111015   0.277   2.234   1.358
 3372SOL    HW211016   0.132   2.192   1.297
 3373SOL     OW11017   0.477   1.562   3.928
 3373SOL    HW111018   0.378   1.555   3.920
 3373SOL    HW211019   0.515   1.474   3.956
 3374SOL     OW11020   1.448   5.949   4.557
 3374SOL    HW111021   1.415   5.913   4.470
 3374SOL    HW211022   1.418   6.044   4.567
 3375SOL     OW11023   0.430   4.307   6.710
 3375SOL    HW111024   0.416   4.379   6.641
 3375SOL    HW211025   0.345   4.256   6.723
 3376SOL     OW11026   4.018   3.607   4.445
 3376SOL    HW111027   4.009   3.702   4.474
 3376SOL    HW211028   3.955   3.550   4.499
 3377SOL     OW11029   6.854   5.839   6.295
 3377SOL    HW111030   6.911   5.907   6.340
 3377SOL    HW211031   6.808   5.880   6.216
 3378SOL     OW11032   0.722   1.211   1.224
 3378SOL    HW111033   0.758   1.195   1.315
 3378SOL    HW211034   0.631   1.253   1.230
 3379SOL     OW11035   0.426   0.576   6.023
 3379SOL    HW111036   0.391   0.599   5.932
 3379SOL    HW211037   0.377   0.496   6.059
 3380SOL     OW11038   5.900   6.448   4.836
 3380SOL    HW111039   5.930   6.362   4.879
 3380SOL    HW211040   5.969   6.479   4.772
 3381SOL     OW11041   0.500   2.762   1.436
 3381SOL    HW111042   0.553   2.711   1.368
 3381SOL    HW211043   0.552   2.768   1.521
 3382SOL     OW11044   0.616   2.419   0.420
 3382SOL    HW111045   0.622   2.335   0.475
 3382SOL    HW211046   0.538   2.473   0.451
 3383SOL     OW11047   4.526   5.778   1.430
 3383SOL    HW111048   4.469   5.851   1.392
 3383SOL    HW211049   4.608   5.818   1.470
 3384SOL     OW11050   2.611   3.115   6.144
 3384SOL    HW111051   2.521   3.121   6.101
 3384SOL    HW211052   2.608   3.157   6.234
 3385SOL     OW11053   6.831   3.472   4.682
 3385SOL    HW111054   6.873   3.542   4.625
 3385SOL    HW211055   6.903   3.414   4.721
 3386SOL     OW11056   5.453   4.473   6.873
 3386SOL    HW111057   5.490   4.442   6.960
 3386SOL    HW211058   5.528   4.495   6.811
 3387SOL     OW11059   2.515   0.651   2.771
 3387SOL    HW111060   2.519   0.708   2.689
 3387SOL    HW211061   2.569   0.693   2.844
 3388SOL     OW11062   5.355   3.010   1.965
 3388SOL    HW111063   5.325   3.075   1.895
 3388SOL    HW211064   5.276   2.975   2.014
 3389SOL     OW11065   5.926   5.256   6.697
 3389SOL    HW111066   5.911   5.181   6.633
 3389SOL    HW211067   5.866   5.333   6.674
 3390SOL     OW11068   6.241   6.642   6.393
 3390SOL    HW111069   6.181   6.659   6.472
 3390SOL    HW211070   6.193   6.666   6.309
 3391SOL     OW11071   4.554   2.628   4.657
 3391SOL    HW111072   4.607   2.685   4.594
 3391SOL    HW211073   4.592   2.536   4.660
 3392SOL     OW11074   2.587   0.635   3.971
 3392SOL    HW111075   2.592   0.681   3.882
 3392SOL    HW211076   2.654   0.561   3.975
 3393SOL     OW11077   0.365   6.042   0.584
 3393SOL    HW111078   0.302   5.968   0.557
 3393SOL    HW211079   0.381   6.102   0.506
 3394SOL     OW11080   5.612   3.187   1.587
 3394SOL    HW111081   5.676   3.228   1.522
 3394SOL    HW211082   5.551   3.125   1.540
 3395SOL     OW11083   5.103   3.288   2.885
 3395SOL    HW111084   5.197   3.286   2.850
 3395SOL    HW211085   5.073   3.383   2.894
 3396SOL     OW11086   5.163   1.798   3.082
 3396SOL    HW111087   5.219   1.880   3.070
 3396SOL    HW211088   5.129   1.768   2.993
 3397SOL     OW11089   3.134   6.265   6.031
 3397SOL    HW111090   3.166   6.287   6.123
 3397SOL    HW211091   3.052   6.319   6.011
 3398SOL     OW11092   1.223   6.615   4.825
 3398SOL    HW111093   1.238   6.559   4.907
 3398SOL    HW211094   1.307   6.666   4.804
 3399SOL     OW11095   5.288   4.070   3.643
 3399SOL    HW111096   5.356   4.045   3.574
 3399SOL    HW211097   5.295   4.168   3.662
 3400SOL     OW11098   4.314   3.302   6.204
 3400SOL    HW111099   4.348   3.267   6.117
 3400SOL    HW211100   4.348   3.395   6.218
 3401SOL     OW11101   0.529   2.801   1.073
 3401SOL    HW111102   0.578   2.752   1.145
 3401SOL    HW211103   0.590   2.815   0.995
 3402SOL     OW11104   4.360   5.480   0.038
 3402SOL    HW111105   4.288   5.520   6.997
 3402SOL    HW211106   4.427   5.435   6.996
 3403SOL     OW11107   3.218   5.539   5.503
 3403SOL    HW111108   3.118   5.534   5.510
 3403SOL    HW211109   3.250   5.626   5.539
 3404SOL     OW11110   4.990   1.429   0.126
 3404SOL    HW111111   4.997   1.529   0.129
 3404SOL    HW211112   5.069   1.388   0.172
 3405SOL     OW11113   6.839   4.296   6.069
 3405SOL    HW111114   6.923   4.349   6.073
 3405SOL    HW211115   6.856   4.210   6.020
 3406SOL     OW11116   0.741   3.639   1.602
 3406SOL    HW111117   0.761   3.620   1.506
 3406SOL    HW211118   0.818   3.610   1.658
 3407SOL     OW11119   1.347   4.842   6.334
 3407SOL    HW111120   1.416   4.773   6.313
 3407SOL    HW211121   1.269   4.831   6.272
 3408SOL     OW11122   4.894   3.586   4.288
 3408SOL    HW111123   4.914   3.681   4.267
 3408SOL    HW211124   4.835   3.581   4.368
 3409SOL     OW11125   3.430   6.192   6.700
 3409SOL    HW111126   3.412   6.273   6.644
 3409SOL    HW211127   3.475   6.122   6.645
 3410SOL     OW11128   6.900   6.862   1.045
 3410SOL    HW111129   6.923   6.863   0.947
 3410SOL    HW211130   6.981   6.889   1.098
 3411SOL     OW11131   0.445   3.278   1.621
 3411SOL    HW111132   0.465   3.190   1.577
 3411SOL    HW211133   0.503   3.349   1.581
 3412SOL     OW11134   4.643   2.562   0.715
 3412SOL    HW111135   4.741   2.560   0.730
 3412SOL    HW211136   4.596   2.562   0.803
 3413SOL     OW11137   5.765   1.517   0.671
 3413SOL    HW111138   5.715   1.467   0.741
 3413SOL    HW211139   5.770   1.614   0.696
 3414SOL     OW11140   3.691   1.605   6.431
 3414SOL    HW111141   3.632   1.586   6.509
 3414SOL    HW211142   3.774   1.651   6.463
 3415SOL     OW11143   1.783   3.781   4.151
 3415SOL    HW111144   1.824   3.829   4.229
 3415SOL    HW211145   1.825   3.815   4.066
 3416SOL     OW11146   6.394   6.058   0.786
 3416SOL    HW111147   6.378   6.090   0.693
 3416SOL    HW211148   6.462   6.117   0.830
 3417SOL     OW11149   0.366   6.530   3.026
 3417SOL    HW111150   0.309   6.595   3.077
 3417SOL    HW211151   0.364   6.553   2.929
 3418SOL     OW11152   3.213   6.158   3.580
 3418SOL    HW111153   3.255   6.228   3.522
 3418SOL    HW211154   3.144   6.108   3.527
 3419SOL     OW11155   2.917   6.212   5.822
 3419SOL    HW111156   2.818   6.216   5.837
 3419SOL    HW211157   2.945   6.116   5.814
 3420SOL     OW11158   5.704   3.558   3.688
 3420SOL    HW111159   5.797   3.581   3.657
 3420SOL    HW211160   5.707   3.534   3.785
 3421SOL     OW11161   4.625   1.924   4.868
 3421SOL    HW111162   4.584   1.971   4.946
 3421SOL    HW211163   4.723   1.945   4.865
 3422SOL     OW11164   2.472   0.427   0.391
 3422SOL    HW111165   2.455   0.362   0.465
 3422SOL    HW211166   2.509   0.512   0.429
 3423SOL     OW11167   0.451   4.506   6.367
 3423SOL    HW111168   0.509   4.536   6.443
 3423SOL    HW211169   0.357   4.537   6.383
 3424SOL     OW11170   2.678   6.487   0.706
 3424SOL    HW111171   2.629   6.475   0.792
 3424SOL    HW211172   2.734   6.406   0.688
 3425SOL     OW11173   4.961   5.002   2.588
 3425SOL    HW111174   5.060   5.014   2.598
 3425SOL    HW211175   4.940   4.904   2.593
 3426SOL     OW11176   4.212   3.019   0.525
 3426SOL    HW111177   4.287   2.953   0.533
 3426SOL    HW211178   4.138   2.993   0.588
 3427SOL     OW11179   0.204   1.367   0.594
 3427SOL    HW111180   0.202   1.285   0.537
 3427SOL    HW211181   0.171   1.345   0.685
 3428SOL     OW11182   2.437   5.758   0.211
 3428SOL    HW111183   2.346   5.745   0.250
 3428SOL    HW211184   2.429   5.806   0.123
 3429SOL     OW11185   0.817   1.617   0.688
 3429SOL    HW111186   0.812   1.700   0.744
 3429SOL    HW211187   0.757   1.628   0.608
 3430SOL     OW11188   1.520   6.307   5.341
 3430SOL    HW111189   1.599   6.368   5.352
 3430SOL    HW211190   1.491   6.274   5.431
 3431SOL     OW11191   1.750   0.261   1.692
 3431SOL    HW111192   1.847   0.266   1.716
 3431SOL    HW211193   1.742   0.223   1.599
 3432SOL     OW11194   1.663   3.084   6.125
 3432SOL    HW111195   1.695   3.171   6.087
 3432SOL    HW211196   1.671   3.013   6.055
 3433SOL     OW11197   1.396   6.908   5.057
 3433SOL    HW111198   1.309   6.933   5.099
 3433SOL    HW211199   1.471   6.941   5.115
 3434SOL     OW11200   4.620   1.046   2.094
 3434SOL    HW111201   4.668   1.134   2.086
 3434SOL    HW211202   4.559   1.035   2.015
 3435SOL     OW11203   1.730   1.308   0.941
 3435SOL    HW111204   1.644   1.357   0.925
 3435SOL    HW211205   1.786   1.314   0.858
 3436SOL     OW11206   3.909   6.621   0.097
 3436SOL    HW111207   3.850   6.687   0.143
 3436SOL    HW211208   3.991   6.667   0.063
 3437SOL     OW11209   2.516   0.197   5.581
 3437SOL    HW111210   2.443   0.251   5.623
 3437SOL    HW211211   2.498   0.185   5.484
 3438SOL     OW11212   1.431   3.244   0.058
 3438SOL    HW111213   1.455   3.247   0.155
 3438SOL    HW211214   1.464   3.159   0.018
 3439SOL     OW11215   1.979   6.067   4.728
 3439SOL    HW111216   2.000   5.973   4.755
 3439SOL    HW211217   1.999   6.129   4.804
 3440SOL     OW11218   3.144   3.194   1.100
 3440SOL    HW111219   3.167   3.146   1.015
 3440SOL    HW211220   3.064   3.151   1.142
 3441SOL     OW11221   6.179   5.191   5.441
 3441SOL    HW111222   6.099   5.194   5.382
 3441SOL    HW211223   6.260   5.169   5.387
 3442SOL     OW11224   1.958   4.927   2.113
 3442SOL    HW111225   1.969   4.986   2.193
 3442SOL    HW211226   2.031   4.945   2.048
 3443SOL     OW11227   3.620   6.239   1.607
 3443SOL    HW111228   3.562   6.285   1.674
 3443SOL    HW211229   3.596   6.142   1.603
 3444SOL     OW11230   5.423   5.421   6.363
 3444SOL    HW111231   5.371   5.440   6.446
 3444SOL    HW211232   5.359   5.405   6.287
 3445SOL     OW11233   6.035   5.478   2.999
 3445SOL    HW111234   5.973   5.448   2.927
 3445SOL    HW211235   6.125   5.439   2.985
 3446SOL     OW11236   6.416   1.450   1.704
 3446SOL    HW111237   6.472   1.383   1.753
 3446SOL    HW211238   6.426   1.540   1.747
 3447SOL     OW11239   5.275   5.344   0.791
 3447SOL    HW111240   5.270   5.263   0.732
 3447SOL    HW211241   5.364   5.346   0.837
 3448SOL     OW11242   3.838   0.732   6.788
 3448SOL    HW111243   3.762   0.785   6.825
 3448SOL    HW211244   3.896   0.701   6.862
 3449SOL     OW11245   5.490   5.898   4.892
 3449SOL    HW111246   5.584   5.923   4.869
 3449SOL    HW211247   5.454   5.835   4.824
 3450SOL     OW11248   6.838   2.702   6.823
 3450SOL    HW111249   6.875   2.785   6.782
 3450SOL    HW211250   6.741   2.694   6.800
 3451SOL     OW11251   2.404   6.087   0.955
 3451SOL    HW111252   2.355   6.158   0.904
 3451SOL    HW211253   2.464   6.037   0.892
 3452SOL     OW11254   6.058   1.098   6.257
 3452SOL    HW111255   5.964   1.132   6.258
 3452SOL    HW211256   6.120   1.170   6.286
 3453SOL     OW11257   6.628   5.756   6.707
 3453SOL    HW111258   6.533   5.787   6.715
 3453SOL    HW211259   6.686   5.834   6.683
 3454SOL     OW11260   0.902   2.736   4.831
 3454SOL    HW111261   0.827   2.770   4.775
 3454SOL    HW211262   0.893   2.637   4.843
 3455SOL     OW11263   2.464   2.153   4.148
 3455SOL    HW111264   2.557   2.147   4.185
 3455SOL    HW211265   2.462   2.218   4.072
 3456SOL     OW11266   5.265   5.349   1.956
 3456SOL    HW111267   5.279   5.352   1.857
 3456SOL    HW211268   5.290   5.259   1.991
 3457SOL     OW11269   2.787   5.612   3.277
 3457SOL    HW111270   2.713   5.577   3.220
 3457SOL    HW211271   2.855   5.540   3.292
 3458SOL     OW11272   4.794   0.846   2.493
 3458SOL    HW111273   4.802   0.896   2.406
 3458SOL    HW211274   4.748   0.903   2.561
 3459SOL     OW11275   5.624   3.539   2.679
 3459SOL    HW111276   5.703   3.520   2.737
 3459SOL    HW211277   5.653   3.597   2.602
 3460SOL     OW11278   2.526   2.610   0.390
 3460SOL    HW111279   2.626   2.616   0.385
 3460SOL    HW211280   2.495   2.646   0.478
 3461SOL     OW11281   4.983   4.177   5.274
 3461SOL    HW111282   5.051   4.166   5.346
 3461SOL    HW211283   4.963   4.274   5.260
 3462SOL     OW11284   7.001   4.385   3.970
 3462SOL    HW111285   0.002   4.290   3.996
 3462SOL    HW211286   0.015   4.400   3.876
 3463SOL     OW11287   1.128   4.403   1.942
 3463SOL    HW111288   1.216   4.383   1.900
 3463SOL    HW211289   1.059   4.339   1.907
 3464SOL     OW11290   6.592   4.334   5.673
 3464SOL    HW111291   6.647   4.391   5.734
 3464SOL    HW211292   6.496   4.335   5.702
 3465SOL     OW11293   1.495   1.886   2.051
 3465SOL    HW111294   1.590   1.865   2.076
 3465SOL    HW211295   1.438   1.805   2.063
 3466SOL     OW11296   6.944   4.668   6.711
 3466SOL    HW111297   6.956   4.569   6.704
 3466SOL    HW211298   0.014   4.712   6.732
 3467SOL     OW11299   2.109   2.529   0.185
 3467SOL    HW111300   2.120   2.580   0.270
 3467SOL    HW211301   2.059   2.584   0.119
 3468SOL     OW11302   4.316   6.590   2.920
 3468SOL    HW111303   4.260   6.524   2.870
 3468SOL    HW211304   4.412   6.564   2.915
 3469SOL     OW11305   5.409   0.428   2.969
 3469SOL    HW111306   5.426   0.339   3.010
 3469SOL    HW211307   5.482   0.491   2.996
 3470SOL     OW11308   6.477   4.119   1.277
 3470SOL    HW111309   6.379   4.100   1.275
 3470SOL    HW211310   6.503   4.151   1.368
 3471SOL     OW11311   3.926   5.133   4.327
 3471SOL    HW111312   3.840   5.092   4.299
 3471SOL    HW211313   3.977   5.162   4.246
 3472SOL     OW11314   2.340   1.006   1.965
 3472SOL    HW111315   2.269   0.936   1.977
 3472SOL    HW211316   2.409   0.996   2.037
 3473SOL     OW11317   0.551   2.028   0.936
 3473SOL    HW111318   0.464   2.078   0.938
 3473SOL    HW211319   0.623   2.085   0.976
 3474SOL     OW11320   1.455   5.354   2.575
 3474SOL    HW111321   1.522   5.281   2.567
 3474SOL    HW211322   1.376   5.334   2.516
 3475SOL     OW11323   0.584   5.233   4.046
 3475SOL    HW111324   0.560   5.180   4.128
 3475SOL    HW211325   0.504   5.242   3.987
 3476SOL     OW11326   3.056   1.962   3.325
 3476SOL    HW111327   3.039   2.060   3.336
 3476SOL    HW211328   3.109   1.947   3.242
 3477SOL     OW11329   2.777   4.836   1.186
 3477SOL    HW111330   2.758   4.876   1.276
 3477SOL    HW211331   2.694   4.793   1.150
 3478SOL     OW11332   2.273   5.965   5.000
 3478SOL    HW111333   2.295   5.909   4.921
 3478SOL    HW211334   2.175   5.957   5.020
 3479SOL     OW11335   1.628   0.886   2.948
 3479SOL    HW111336   1.623   0.811   2.883
 3479SOL    HW211337   1.541   0.935   2.950
 3480SOL     OW11338   0.418   6.678   5.169
 3480SOL    HW111339   0.514   6.656   5.149
 3480SOL    HW211340   0.383   6.615   5.238
 3481SOL     OW11341   4.498   0.007   0.289
 3481SOL    HW111342   4.533   0.078   0.228
 3481SOL    HW211343   4.525   0.027   0.383
 3482SOL     OW11344   5.898   1.813   1.482
 3482SOL    HW111345   5.870   1.741   1.545
 3482SOL    HW211346   5.998   1.818   1.479
 3483SOL     OW11347   4.903   1.406   1.766
 3483SOL    HW111348   4.949   1.431   1.681
 3483SOL    HW211349   4.808   1.435   1.762
 3484SOL     OW11350   2.442   3.668   0.979
 3484SOL    HW111351   2.357   3.675   0.926
 3484SOL    HW211352   2.419   3.658   1.076
 3485SOL     OW11353   1.749   1.092   4.132
 3485SOL    HW111354   1.745   1.182   4.090
 3485SOL    HW211355   1.817   1.036   4.085
 3486SOL     OW11356   3.213   1.350   2.788
 3486SOL    HW111357   3.213   1.450   2.801
 3486SOL    HW211358   3.266   1.328   2.705
 3487SOL     OW11359   5.687   2.641   5.994
 3487SOL    HW111360   5.659   2.583   5.917
 3487SOL    HW211361   5.778   2.612   6.025
 3488SOL     OW11362   6.211   1.871   4.831
 3488SOL    HW111363   6.135   1.935   4.842
 3488SOL    HW211364   6.288   1.919   4.789
 3489SOL     OW11365   3.046   0.171   0.530
 3489SOL    HW111366   2.996   0.110   0.591
 3489SOL    HW211367   3.113   0.223   0.583
 3490SOL     OW11368   4.199   4.796   0.145
 3490SOL    HW111369   4.246   4.731   0.205
 3490SOL    HW211370   4.253   4.880   0.139
 3491SOL     OW11371   5.566   3.070   5.078
 3491SOL    HW111372   5.646   3.044   5.132
 3491SOL    HW211373   5.488   3.084   5.139
 3492SOL     OW11374   0.661   5.965   1.181
 3492SOL    HW111375   0.664   5.891   1.248
 3492SOL    HW211376   0.737   5.954   1.116
 3493SOL     OW11377   5.205   4.158   6.430
 3493SOL    HW111378   5.110   4.168   6.461
 3493SOL    HW211379   5.249   4.248   6.432
 3494SOL     OW11380   3.791   0.924   1.895
 3494SOL    HW111381   3.855   0.849   1.912
 3494SOL    HW211382   3.698   0.887   1.889
 3495SOL     OW11383   4.677   5.301   2.043
 3495SOL    HW111384   4.637   5.372   1.985
 3495SOL    HW211385   4.704   5.223   1.987
 3496SOL     OW11386   6.852   4.122   0.342
 3496SOL    HW111387   6.848   4.036   0.291
 3496SOL    HW211388   6.922   4.182   0.303
 3497SOL     OW11389   3.199   0.774   3.224
 3497SOL    HW111390   3.170   0.842   3.157
 3497SOL    HW211391   3.297   0.786   3.243
 3498SOL     OW11392   2.328   2.357   0.986
 3498SOL    HW111393   2.263   2.344   1.061
 3498SOL    HW211394   2.321   2.451   0.952
 3499SOL     OW11395   4.814   2.992   3.945
 3499SOL    HW111396   4.902   2.949   3.924
 3499SOL    HW211397   4.757   2.927   3.995
 3500SOL     OW11398   1.444   3.559   5.015
 3500SOL    HW111399   1.500   3.620   4.960
 3500SOL    HW211400   1.461   3.464   4.987
 3501SOL     OW11401   1.854   5.368   4.298
 3501SOL    HW111402   1.878   5.441   4.234
 3501SOL    HW211403   1.767   5.328   4.270
 3502SOL     OW11404   6.147   2.725   2.281
 3502SOL    HW111405   6.143   2.741   2.182
 3502SOL    HW211406   6.062   2.758   2.323
 3503SOL     OW11407   6.753   6.399   4.804
 3503SOL    HW111408   6.822   6.340   4.846
 3503SOL    HW211409   6.736   6.369   4.711
 3504SOL     OW11410   2.146   2.116   1.136
 3504SOL    HW111411   2.167   2.073   1.048
 3504SOL    HW211412   2.162   2.050   1.210
 3505SOL     OW11413   5.154   4.780   4.667
 3505SOL    HW111414   5.213   4.845   4.619
 3505SOL    HW211415   5.203   4.694   4.679
 3506SOL     OW11416   4.943   5.653   6.320
 3506SOL    HW111417   4.949   5.744   6.278
 3506SOL    HW211418   5.025   5.601   6.296
 3507SOL     OW11419   2.343   0.830   0.403
 3507SOL    HW111420   2.419   0.787   0.452
 3507SOL    HW211421   2.325   0.780   0.319
 3508SOL     OW11422   2.982   2.150   6.208
 3508SOL    HW111423   3.071   2.196   6.208
 3508SOL    HW211424   2.936   2.168   6.121
 3509SOL     OW11425   5.768   6.906   5.681
 3509SOL    HW111426   5.829   6.981   5.654
 3509SOL    HW211427   5.798   6.868   5.768
 3510SOL     OW11428   1.869   2.258   1.447
 3510SOL    HW111429   1.796   2.270   1.515
 3510SOL    HW211430   1.927   2.339   1.446
 3511SOL     OW11431   2.006   4.573   0.637
 3511SOL    HW111432   2.038   4.480   0.658
 3511SOL    HW211433   1.941   4.569   0.561
 3512SOL     OW11434   0.294   4.743   0.401
 3512SOL    HW111435   0.254   4.711   0.487
 3512SOL    HW211436   0.228   4.731   0.327
 3513SOL     OW11437   6.201   3.586   0.248
 3513SOL    HW111438   6.141   3.508   0.233
 3513SOL    HW211439   6.149   3.660   0.290
 3514SOL     OW11440   0.183   1.685   1.909
 3514SOL    HW111441   0.263   1.710   1.854
 3514SOL    HW211442   0.210   1.616   1.976
 3515SOL     OW11443   4.254   6.728   3.350
 3515SOL    HW111444   4.203   6.788   3.410
 3515SOL    HW211445   4.237   6.753   3.255
 3516SOL     OW11446   4.618   6.805   0.816
 3516SOL    HW111447   4.707   6.763   0.801
 3516SOL    HW211448   4.547   6.749   0.773
 3517SOL     OW11449   0.895   1.937   0.715
 3517SOL    HW111450   0.957   1.911   0.642
 3517SOL    HW211451   0.876   2.035   0.710
 3518SOL     OW11452   5.643   3.821   5.087
 3518SOL    HW111453   5.581   3.890   5.124
 3518SOL    HW211454   5.619   3.802   4.992
 3519SOL     OW11455   0.975   0.823   6.225
 3519SOL    HW111456   0.933   0.789   6.310
 3519SOL    HW211457   0.939   0.770   6.148
 3520SOL     OW11458   2.977   5.066   6.833
 3520SOL    HW111459   3.057   5.077   6.893
 3520SOL    HW211460   2.986   5.126   6.754
 3521SOL     OW11461   5.550   3.354   0.449
 3521SOL    HW111462   5.557   3.420   0.373
 3521SOL    HW211463   5.561   3.261   0.414
 3522SOL     OW11464   5.819   5.229   1.830
 3522SOL    HW111465   5.903   5.217   1.777
 3522SOL    HW211466   5.787   5.324   1.820
 3523SOL     OW11467   2.907   5.170   5.430
 3523SOL    HW111468   2.843   5.245   5.447
 3523SOL    HW211469   2.882   5.092   5.488
 3524SOL     OW11470   3.571   1.127   1.144
 3524SOL    HW111471   3.618   1.089   1.064
 3524SOL    HW211472   3.473   1.110   1.136
 3525SOL     OW11473   0.964   4.214   1.882
 3525SOL    HW111474   0.900   4.259   1.945
 3525SOL    HW211475   0.933   4.121   1.864
 3526SOL     OW11476   2.671   6.606   3.536
 3526SOL    HW111477   2.655   6.524   3.591
 3526SOL    HW211478   2.762   6.600   3.495
 3527SOL     OW11479   6.174   3.726   5.995
 3527SOL    HW111480   6.188   3.720   5.897
 3527SOL    HW211481   6.141   3.638   6.030
 3528SOL     OW11482   1.060   5.274   3.642
 3528SOL    HW111483   1.071   5.234   3.551
 3528SOL    HW211484   1.038   5.202   3.708
 3529SOL     OW11485   5.174   6.531   6.277
 3529SOL    HW111486   5.137   6.561   6.365
 3529SOL    HW211487   5.263   6.488   6.290
 3530SOL     OW11488   1.456   5.126   3.460
 3530SOL    HW111489   1.432   5.216   3.426
 3530SOL    HW211490   1.530   5.088   3.403
 3531SOL     OW11491   4.486   3.879   1.134
 3531SOL    HW111492   4.572   3.856   1.087
 3531SOL    HW211493   4.433   3.796   1.149
 3532SOL     OW11494   2.399   1.043   0.695
 3532SOL    HW111495   2.400   1.041   0.595
 3532SOL    HW211496   2.493   1.052   0.729
 3533SOL     OW11497   1.646   2.060   2.425
 3533SOL    HW111498   1.655   1.986   2.492
 3533SOL    HW211499   1.737   2.095   2.403
 3534SOL     OW11500   5.677   0.995   4.966
 3534SOL    HW111501   5.635   1.022   5.053
 3534SOL    HW211502   5.610   1.002   4.893
 3535SOL     OW11503   0.854   6.224   0.662
 3535SOL    HW111504   0.822   6.131   0.647
 3535SOL    HW211505   0.911   6.227   0.743
 3536SOL     OW11506   1.984   2.187   4.153
 3536SOL    HW111507   1.936   2.153   4.073
 3536SOL    HW211508   2.047   2.117   4.187
 3537SOL     OW11509   2.470   5.315   0.610
 3537SOL    HW111510   2.472   5.271   0.520
 3537SOL    HW211511   2.513   5.405   0.604
 3538SOL     OW11512   1.784   0.140   5.068
 3538SOL    HW111513   1.820   0.232   5.078
 3538SOL    HW211514   1.710   0.140   5.000
 3539SOL     OW11515   5.565   3.523   6.331
 3539SOL    HW111516   5.533   3.452   6.268
 3539SOL    HW211517   5.489   3.555   6.387
 3540SOL     OW11518   1.995   2.367   5.464
 3540SOL    HW111519   1.947   2.286   5.496
 3540SOL    HW211520   2.012   2.428   5.541
 3541SOL     OW11521   2.566   2.451   5.975
 3541SOL    HW111522   2.480   2.501   5.982
 3541SOL    HW211523   2.585   2.405   6.062
 3542SOL     OW11524   0.516   3.799   1.597
 3542SOL    HW111525   0.457   3.769   1.672
 3542SOL    HW211526   0.605   3.753   1.604
 3543SOL     OW11527   0.882   3.152   5.840
 3543SOL    HW111528   0.844   3.151   5.747
 3543SOL    HW211529   0.916   3.244   5.861
 3544SOL     OW11530   2.194   5.090   6.115
 3544SOL    HW111531   2.125   5.052   6.176
 3544SOL    HW211532   2.279   5.103   6.166
 3545SOL     OW11533   3.651   5.159   0.464
 3545SOL    HW111534   3.563   5.186   0.502
 3545SOL    HW211535   3.647   5.064   0.434
 3546SOL     OW11536   6.784   4.657   2.913
 3546SOL    HW111537   6.749   4.746   2.940
 3546SOL    HW211538   6.860   4.668   2.850
 3547SOL     OW11539   5.748   4.491   4.427
 3547SOL    HW111540   5.659   4.445   4.419
 3547SOL    HW211541   5.808   4.461   4.353
 3548SOL     OW11542   5.381   0.443   5.820
 3548SOL    HW111543   5.428   0.528   5.796
 3548SOL    HW211544   5.391   0.377   5.745
 3549SOL     OW11545   0.556   4.505   6.107
 3549SOL    HW111546   0.626   4.438   6.080
 3549SOL    HW211547   0.538   4.495   6.205
 3550SOL     OW11548   5.590   2.851   4.471
 3550SOL    HW111549   5.585   2.907   4.389
 3550SOL    HW211550   5.620   2.759   4.447
 3551SOL     OW11551   3.852   1.587   3.993
 3551SOL    HW111552   3.902   1.579   3.907
 3551SOL    HW211553   3.771   1.644   3.980
 3552SOL     OW11554   5.907   0.111   1.835
 3552SOL    HW111555   5.890   0.029   1.781
 3552SOL    HW211556   5.821   0.161   1.847
 3553SOL     OW11557   3.827   5.528   0.518
 3553SOL    HW111558   3.807   5.549   0.422
 3553SOL    HW211559   3.869   5.438   0.525
 3554SOL     OW11560   4.866   2.288   0.729
 3554SOL    HW111561   4.951   2.236   0.723
 3554SOL    HW211562   4.806   2.246   0.798
 3555SOL     OW11563   0.819   3.675   4.953
 3555SOL    HW111564   0.898   3.614   4.953
 3555SOL    HW211565   0.738   3.625   4.921
 3556SOL     OW11566   4.113   0.258   4.131
 3556SOL    HW111567   4.102   0.352   4.164
 3556SOL    HW211568   4.023   0.216   4.119
 3557SOL     OW11569   1.420   0.588   3.678
 3557SOL    HW111570   1.465   0.499   3.687
 3557SOL    HW211571   1.464   0.654   3.738
 3558SOL     OW11572   1.174   5.763   2.483
 3558SOL    HW111573   1.089   5.763   2.430
 3558SOL    HW211574   1.153   5.756   2.580
 3559SOL     OW11575   0.953   6.091   5.230
 3559SOL    HW111576   0.902   6.172   5.259
 3559SOL    HW211577   0.898   6.039   5.165
 3560SOL     OW11578   2.775   5.011   2.715
 3560SOL    HW111579   2.833   5.091   2.704
 3560SOL    HW211580   2.698   5.034   2.775
 3561SOL     OW11581   4.663   3.996   5.243
 3561SOL    HW111582   4.743   3.948   5.207
 3561SOL    HW211583   4.631   3.950   5.325
 3562SOL     OW11584   3.616   1.066   2.724
 3562SOL    HW111585   3.666   1.031   2.645
 3562SOL    HW211586   3.680   1.112   2.786
 3563SOL     OW11587   6.285   2.231   0.249
 3563SOL    HW111588   6.274   2.156   0.315
 3563SOL    HW211589   6.198   2.249   0.204
 3564SOL     OW11590   1.035   4.496   2.655
 3564SOL    HW111591   0.963   4.476   2.587
 3564SOL    HW211592   1.025   4.590   2.686
 3565SOL     OW11593   2.560   6.290   4.591
 3565SOL    HW111594   2.608   6.377   4.596
 3565SOL    HW211595   2.529   6.274   4.497
 3566SOL     OW11596   6.438   3.000   6.651
 3566SOL    HW111597   6.445   3.099   6.659
 3566SOL    HW211598   6.359   2.976   6.594
 3567SOL     OW11599   0.745   1.992   6.654
 3567SOL    HW111600   0.740   2.076   6.708
 3567SOL    HW211601   0.732   2.014   6.557
 3568SOL     OW11602   4.934   4.299   4.456
 3568SOL    HW111603   4.903   4.227   4.394
 3568SOL    HW211604   4.858   4.330   4.513
 3569SOL     OW11605   2.447   2.088   6.119
 3569SOL    HW111606   2.513   2.025   6.161
 3569SOL    HW211607   2.420   2.052   6.029
 3570SOL     OW11608   5.036   0.246   5.871
 3570SOL    HW111609   5.109   0.177   5.880
 3570SOL    HW211610   5.078   0.336   5.858
 3571SOL     OW11611   1.081   5.217   5.889
 3571SOL    HW111612   1.162   5.186   5.839
 3571SOL    HW211613   1.049   5.304   5.851
 3572SOL     OW11614   6.130   4.351   2.859
 3572SOL    HW111615   6.187   4.272   2.883
 3572SOL    HW211616   6.170   4.397   2.780
 3573SOL     OW11617   0.431   4.816   3.607
 3573SOL    HW111618   0.361   4.848   3.543
 3573SOL    HW211619   0.445   4.886   3.677
 3574SOL     OW11620   0.199   3.714   1.071
 3574SOL    HW111621   0.179   3.616   1.069
 3574SOL    HW211622   0.185   3.749   1.163
 3575SOL     OW11623   4.939   4.726   2.926
 3575SOL    HW111624   4.948   4.775   3.013
 3575SOL    HW211625   4.867   4.768   2.871
 3576SOL     OW11626   0.013   1.818   5.668
 3576SOL    HW111627   0.076   1.777   5.734
 3576SOL    HW211628   6.998   1.747   5.605
 3577SOL     OW11629   1.949   2.260   6.097
 3577SOL    HW111630   2.014   2.185   6.113
 3577SOL    HW211631   1.981   2.317   6.022
 3578SOL     OW11632   3.238   2.301   0.764
 3578SOL    HW111633   3.216   2.240   0.840
 3578SOL    HW211634   3.337   2.315   0.759
 3579SOL     OW11635   6.202   2.870   4.487
 3579SOL    HW111636   6.187   2.890   4.583
 3579SOL    HW211637   6.121   2.899   4.434
 3580SOL     OW11638   5.875   3.424   1.641
 3580SOL    HW111639   5.909   3.397   1.551
 3580SOL    HW211640   5.844   3.519   1.638
 3581SOL     OW11641   0.649   6.321   3.558
 3581SOL    HW111642   0.730   6.296   3.611
 3581SOL    HW211643   0.675   6.333   3.462
 3582SOL     OW11644   0.886   2.406   5.579
 3582SOL    HW111645   0.958   2.346   5.614
 3582SOL    HW211646   0.869   2.480   5.645
 3583SOL     OW11647   1.219   3.778   6.178
 3583SOL    HW111648   1.278   3.773   6.097
 3583SOL    HW211649   1.157   3.856   6.168
 3584SOL     OW11650   6.281   5.294   6.448
 3584SOL    HW111651   6.216   5.290   6.373
 3584SOL    HW211652   6.246   5.355   6.520
 3585SOL     OW11653   3.894   0.247   4.841
 3585SOL    HW111654   3.861   0.156   4.865
 3585SOL    HW211655   3.822   0.315   4.860
 3586SOL     OW11656   6.805   1.495   4.679
 3586SOL    HW111657   6.755   1.518   4.596
 3586SOL    HW211658   6.897   1.465   4.655
 3587SOL     OW11659   3.003   5.670   6.639
 3587SOL    HW111660   3.098   5.642   6.627
 3587SOL    HW211661   2.983   5.681   6.736
 3588SOL     OW11662   1.666   2.265   6.083
 3588SOL    HW111663   1.622   2.176   6.075
 3588SOL    HW211664   1.764   2.253   6.095
 3589SOL     OW11665   3.805   1.542   4.878
 3589SOL    HW111666   3.860   1.553   4.795
 3589SOL    HW211667   3.723   1.598   4.872
 3590SOL     OW11668   0.926   2.853   6.555
 3590SOL    HW111669   0.939   2.759   6.521
 3590SOL    HW211670   0.843   2.892   6.514
 3591SOL     OW11671   5.148   3.572   6.327
 3591SOL    HW111672   5.075   3.511   6.359
 3591SOL    HW211673   5.217   3.583   6.399
 3592SOL     OW11674   0.192   4.963   1.606
 3592SOL    HW111675   0.184   4.933   1.701
 3592SOL    HW211676   0.224   4.886   1.550
 3593SOL     OW11677   0.824   5.761   4.759
 3593SOL    HW111678   0.754   5.832   4.763
 3593SOL    HW211679   0.781   5.671   4.756
 3594SOL     OW11680   4.349   0.371   3.205
 3594SOL    HW111681   4.273   0.309   3.227
 3594SOL    HW211682   4.431   0.342   3.254
 3595SOL     OW11683   3.341   5.862   0.330
 3595SOL    HW111684   3.368   5.919   0.408
 3595SOL    HW211685   3.254   5.817   0.350
 3596SOL     OW11686   6.318   3.091   3.041
 3596SOL    HW111687   6.408   3.134   3.049
 3596SOL    HW211688   6.264   3.113   3.122
 3597SOL     OW11689   1.821   2.160   4.799
 3597SOL    HW111690   1.751   2.102   4.758
 3597SOL    HW211691   1.905   2.154   4.745
 3598SOL     OW11692   1.011   5.459   5.749
 3598SOL    HW111693   0.969   5.457   5.658
 3598SOL    HW211694   0.952   5.512   5.811
 3599SOL     OW11695   6.808   1.906   6.010
 3599SOL    HW111696   6.889   1.847   6.004
 3599SOL    HW211697   6.817   1.966   6.089
 3600SOL     OW11698   0.857   3.603   1.197
 3600SOL    HW111699   0.829   3.512   1.226
 3600SOL    HW211700   0.952   3.602   1.167
 3601SOL     OW11701   5.320   4.421   6.490
 3601SOL    HW111702   5.266   4.435   6.573
 3601SOL    HW211703   5.396   4.487   6.488
 3602SOL     OW11704   1.787   2.441   0.732
 3602SOL    HW111705   1.760   2.358   0.780
 3602SOL    HW211706   1.762   2.433   0.635
 3603SOL     OW11707   3.313   0.364   3.378
 3603SOL    HW111708   3.319   0.282   3.322
 3603SOL    HW211709   3.227   0.412   3.359
 3604SOL     OW11710   6.657   5.155   3.189
 3604SOL    HW111711   6.724   5.147   3.264
 3604SOL    HW211712   6.700   5.200   3.111
 3605SOL     OW11713   6.561   3.803   4.754
 3605SOL    HW111714   6.647   3.799   4.804
 3605SOL    HW211715   6.552   3.723   4.695
 3606SOL     OW11716   6.932   0.152   4.944
 3606SOL    HW111717   0.006   0.132   4.979
 3606SOL    HW211718   6.939   0.208   4.861
 3607SOL     OW11719   5.643   5.585   1.955
 3607SOL    HW111720   5.561   5.640   1.938
 3607SOL    HW211721   5.677   5.548   1.868
 3608SOL     OW11722   5.824   2.204   3.738
 3608SOL    HW111723   5.898   2.198   3.806
 3608SOL    HW211724   5.764   2.280   3.761
 3609SOL     OW11725   1.215   7.007   4.069
 3609SOL    HW111726   1.168   6.939   4.013
 3609SOL    HW211727   1.179   7.005   4.162
 3610SOL     OW11728   1.540   6.910   5.316
 3610SOL    HW111729   1.599   6.836   5.283
 3610SOL    HW211730   1.492   6.879   5.399
 3611SOL     OW11731   4.477   5.679   5.634
 3611SOL    HW111732   4.509   5.770   5.607
 3611SOL    HW211733   4.417   5.686   5.714
 3612SOL     OW11734   6.477   0.028   0.257
 3612SOL    HW111735   6.457   0.015   0.160
 3612SOL    HW211736   6.461   0.123   0.282
 3613SOL     OW11737   4.756   5.162   1.786
 3613SOL    HW111738   4.728   5.080   1.837
 3613SOL    HW211739   4.844   5.193   1.821
 3614SOL     OW11740   4.106   3.082   1.501
 3614SOL    HW111741   4.190   3.091   1.556
 3614SOL    HW211742   4.053   3.004   1.534
 3615SOL     OW11743   5.070   5.410   6.769
 3615SOL    HW111744   5.162   5.376   6.786
 3615SOL    HW211745   5.074   5.494   6.716
 3616SOL     OW11746   0.736   2.233   6.832
 3616SOL    HW111747   0.687   2.321   6.833
 3616SOL    HW211748   0.730   2.190   6.921
 3617SOL     OW11749   3.907   1.603   6.911
 3617SOL    HW111750   3.854   1.549   6.845
 3617SOL    HW211751   3.846   1.663   6.961
 3618SOL     OW11752   1.858   2.522   5.238
 3618SOL    HW111753   1.883   2.437   5.284
 3618SOL    HW211754   1.882   2.600   5.296
 3619SOL     OW11755   5.619   3.005   4.701
 3619SOL    HW111756   5.574   3.093   4.719
 3619SOL    HW211757   5.609   2.982   4.604
 3620SOL     OW11758   6.220   6.182   5.985
 3620SOL    HW111759   6.138   6.202   6.038
 3620SOL    HW211760   6.237   6.257   5.921
 3621SOL     OW11761   3.425   2.830   4.907
 3621SOL    HW111762   3.411   2.773   4.988
 3621SOL    HW211763   3.516   2.871   4.910
 3622SOL     OW11764   1.924   1.787   5.140
 3622SOL    HW111765   1.880   1.698   5.149
 3622SOL    HW211766   1.951   1.820   5.230
 3623SOL     OW11767   6.283   5.850   4.079
 3623SOL    HW111768   6.358   5.914   4.063
 3623SOL    HW211769   6.239   5.828   3.991
 3624SOL     OW11770   1.727   6.797   1.473
 3624SOL    HW111771   1.650   6.735   1.456
 3624SOL    HW211772   1.782   6.762   1.549
 3625SOL     OW11773   6.219   2.654   6.668
 3625SOL    HW111774   6.181   2.588   6.733
 3625SOL    HW211775   6.204   2.747   6.703
 3626SOL     OW11776   1.127   1.797   5.833
 3626SOL    HW111777   1.085   1.768   5.748
 3626SOL    HW211778   1.218   1.756   5.841
 3627SOL     OW11779   3.338   2.920   3.012
 3627SOL    HW111780   3.387   3.006   3.002
 3627SOL    HW211781   3.326   2.899   3.109
 3628SOL     OW11782   1.738   1.112   1.629
 3628SOL    HW111783   1.810   1.176   1.655
 3628SOL    HW211784   1.654   1.134   1.680
 3629SOL     OW11785   0.183   0.900   5.326
 3629SOL    HW111786   0.240   0.824   5.358
 3629SOL    HW211787   0.193   0.910   5.227
 3630SOL     OW11788   5.402   2.655   3.713
 3630SOL    HW111789   5.479   2.646   3.650
 3630SOL    HW211790   5.349   2.571   3.713
 3631SOL     OW11791   2.044   0.880   3.556
 3631SOL    HW111792   2.047   0.788   3.595
 3631SOL    HW211793   2.061   0.875   3.458
 3632SOL     OW11794   5.632   5.909   1.564
 3632SOL    HW111795   5.603   5.930   1.657
 3632SOL    HW211796   5.552   5.911   1.503
 3633SOL     OW11797   4.281   1.795   5.849
 3633SOL    HW111798   4.235   1.842   5.774
 3633SOL    HW211799   4.333   1.862   5.903
 3634SOL     OW11800   1.486   4.140   4.551
 3634SOL    HW111801   1.567   4.082   4.541
 3634SOL    HW211802   1.514   4.229   4.588
 3635SOL     OW11803   3.720   0.381   6.892
 3635SOL    HW111804   3.684   0.288   6.887
 3635SOL    HW211805   3.699   0.421   6.982
 3636SOL     OW11806   0.683   5.667   0.939
 3636SOL    HW111807   0.680   5.766   0.926
 3636SOL    HW211808   0.778   5.635   0.935
 3637SOL     OW11809   0.017   1.739   2.169
 3637SOL    HW111810   0.097   1.734   2.229
 3637SOL    HW211811   0.004   1.651   2.123
 3638SOL     OW11812   0.738   4.501   3.583
 3638SOL    HW111813   0.832   4.481   3.608
 3638SOL    HW211814   0.704   4.578   3.637
 3639SOL     OW11815   3.246   4.775   0.660
 3639SOL    HW111816   3.236   4.709   0.735
 3639SOL    HW211817   3.169   4.838   0.660
 3640SOL     OW11818   4.464   0.497   0.825
 3640SOL    HW111819   4.558   0.528   0.820
 3640SOL    HW211820   4.432   0.474   0.733
 3641SOL     OW11821   5.132   3.820   2.660
 3641SOL    HW111822   5.229   3.820   2.639
 3641SOL    HW211823   5.080   3.846   2.578
 3642SOL     OW11824   5.663   0.654   7.013
 3642SOL    HW111825   5.630   0.747   0.012
 3642SOL    HW211826   5.628   0.620   6.926
 3643SOL     OW11827   3.102   5.896   4.583
 3643SOL    HW111828   3.073   5.812   4.538
 3643SOL    HW211829   3.033   5.967   4.568
 3644SOL     OW11830   6.819   1.096   1.433
 3644SOL    HW111831   6.803   1.187   1.473
 3644SOL    HW211832   6.803   1.100   1.335
 3645SOL     OW11833   0.573   2.348   3.428
 3645SOL    HW111834   0.608   2.414   3.495
 3645SOL    HW211835   0.634   2.348   3.348
 3646SOL     OW11836   0.943   4.077   6.144
 3646SOL    HW111837   0.878   4.076   6.220
 3646SOL    HW211838   0.894   4.068   6.058
 3647SOL     OW11839   2.229   5.194   5.805
 3647SOL    HW111840   2.313   5.192   5.859
 3647SOL    HW211841   2.208   5.102   5.772
 3648SOL     OW11842   3.907   4.787   1.845
 3648SOL    HW111843   3.824   4.738   1.872
 3648SOL    HW211844   3.885   4.883   1.830
 3649SOL     OW11845   5.124   3.106   1.797
 3649SOL    HW111846   5.034   3.141   1.823
 3649SOL    HW211847   5.193   3.177   1.812
 3650SOL     OW11848   7.010   5.621   1.464
 3650SOL    HW111849   6.946   5.698   1.455
 3650SOL    HW211850   6.979   5.545   1.407
 3651SOL     OW11851   1.017   6.747   4.962
 3651SOL    HW111852   0.970   6.822   4.916
 3651SOL    HW211853   1.098   6.720   4.909
 3652SOL     OW11854   5.316   6.581   3.349
 3652SOL    HW111855   5.326   6.531   3.263
 3652SOL    HW211856   5.345   6.676   3.337
 3653SOL     OW11857   0.959   1.510   3.764
 3653SOL    HW111858   0.925   1.557   3.682
 3653SOL    HW211859   0.904   1.537   3.843
 3654SOL     OW11860   3.127   3.907   0.830
 3654SOL    HW111861   3.048   3.870   0.783
 3654SOL    HW211862   3.108   4.001   0.860
 3655SOL     OW11863   2.120   5.790   4.416
 3655SOL    HW111864   2.147   5.703   4.376
 3655SOL    HW211865   2.031   5.779   4.461
 3656SOL     OW11866   0.426   4.288   1.440
 3656SOL    HW111867   0.463   4.360   1.499
 3656SOL    HW211868   0.339   4.257   1.477
 3657SOL     OW11869   5.384   5.711   5.700
 3657SOL    HW111870   5.414   5.714   5.605
 3657SOL    HW211871   5.388   5.803   5.739
 3658SOL     OW11872   1.928   5.118   6.002
 3658SOL    HW111873   2.008   5.175   6.023
 3658SOL    HW211874   1.959   5.030   5.967
 3659SOL     OW11875   1.914   3.879   6.109
 3659SOL    HW111876   1.971   3.801   6.082
 3659SOL    HW211877   1.827   3.847   6.145
 3660SOL     OW11878   5.616   6.429   3.739
 3660SOL    HW111879   5.545   6.498   3.733
 3660SOL    HW211880   5.695   6.457   3.684
 3661SOL     OW11881   5.688   0.234   5.191
 3661SOL    HW111882   5.750   0.307   5.218
 3661SOL    HW211883   5.690   0.222   5.092
 3662SOL     OW11884   3.225   0.623   3.985
 3662SOL    HW111885   3.227   0.683   4.065
 3662SOL    HW211886   3.131   0.596   3.965
 3663SOL     OW11887   2.003   1.712   6.809
 3663SOL    HW111888   2.070   1.669   6.870
 3663SOL    HW211889   1.962   1.791   6.855
 3664SOL     OW11890   4.897   2.643   1.379
 3664SOL    HW111891   4.883   2.598   1.467
 3664SOL    HW211892   4.862   2.737   1.384
 3665SOL     OW11893   1.563   6.671   4.882
 3665SOL    HW111894   1.613   6.598   4.836
 3665SOL    HW211895   1.500   6.631   4.949
 3666SOL     OW11896   0.832   3.436   3.061
 3666SOL    HW111897   0.906   3.439   2.994
 3666SOL    HW211898   0.870   3.444   3.153
 3667SOL     OW11899   1.009   1.523   3.324
 3667SOL    HW111900   0.935   1.519   3.391
 3667SOL    HW211901   0.996   1.602   3.263
 3668SOL     OW11902   1.393   1.064   1.296
 3668SOL    HW111903   1.477   1.105   1.259
 3668SOL    HW211904   1.408   1.037   1.391
 3669SOL     OW11905   5.075   1.190   3.751
 3669SOL    HW111906   5.082   1.140   3.838
 3669SOL    HW211907   4.991   1.244   3.750
 3670SOL     OW11908   1.795   5.005   6.719
 3670SOL    HW111909   1.837   5.093   6.738
 3670SOL    HW211910   1.702   5.019   6.684
 3671SOL     OW11911   0.035   2.055   4.230
 3671SOL    HW111912   0.013   1.997   4.152
 3671SOL    HW211913   0.058   1.998   4.309
 3672SOL     OW11914   5.234   1.614   1.475
 3672SOL    HW111915   5.307   1.606   1.544
 3672SOL    HW211916   5.159   1.551   1.499
 3673SOL     OW11917   3.651   6.126   6.878
 3673SOL    HW111918   3.589   6.204   6.875
 3673SOL    HW211919   3.616   6.058   6.943
 3674SOL     OW11920   1.504   5.467   6.294
 3674SOL    HW111921   1.550   5.393   6.245
 3674SOL    HW211922   1.571   5.537   6.318
 3675SOL     OW11923   2.073   3.014   4.000
 3675SOL    HW111924   2.001   3.009   4.069
 3675SOL    HW211925   2.157   3.048   4.042
 3676SOL     OW11926   5.550   4.468   2.945
 3676SOL    HW111927   5.543   4.536   3.018
 3676SOL    HW211928   5.622   4.402   2.968
 3677SOL     OW11929   2.194   6.547   3.622
 3677SOL    HW111930   2.282   6.594   3.632
 3677SOL    HW211931   2.155   6.529   3.712
 3678SOL     OW11932   0.116   1.621   4.252
 3678SOL    HW111933   0.140   1.718   4.266
 3678SOL    HW211934   0.199   1.566   4.257
 3679SOL     OW11935   0.715   0.588   3.828
 3679SOL    HW111936   0.698   0.490   3.816
 3679SOL    HW211937   0.632   0.632   3.861
 3680SOL     OW11938   5.279   3.055   3.887
 3680SOL    HW111939   5.299   3.116   3.964
 3680SOL    HW211940   5.291   3.105   3.801
 3681SOL     OW11941   0.143   0.923   6.627
 3681SOL    HW111942   0.142   0.941   6.725
 3681SOL    HW211943   0.232   0.951   6.589
 3682SOL     OW11944   5.488   2.345   7.012
 3682SOL    HW111945   5.525   2.437   0.011
 3682SOL    HW211946   5.402   2.334   0.045
 3683SOL     OW11947   6.926   1.404   3.697
 3683SOL    HW111948   6.853   1.336   3.707
 3683SOL    HW211949   7.014   1.357   3.693
 3684SOL     OW11950   1.576   4.589   0.167
 3684SOL    HW111951   1.637   4.513   0.145
 3684SOL    HW211952   1.541   4.629   0.082
 3685SOL     OW11953   1.367   6.067   6.808
 3685SOL    HW111954   1.341   6.158   6.839
 3685SOL    HW211955   1.327   5.998   6.869
 3686SOL     OW11956   5.146   5.805   4.246
 3686SOL    HW111957   5.070   5.843   4.193
 3686SOL    HW211958   5.188   5.730   4.195
 3687SOL     OW11959   3.157   6.203   4.859
 3687SOL    HW111960   3.181   6.107   4.843
 3687SOL    HW211961   3.232   6.261   4.828
 3688SOL     OW11962   0.542   3.804   6.449
 3688SOL    HW111963   0.606   3.734   6.417
 3688SOL    HW211964   0.448   3.776   6.427
 3689SOL     OW11965   2.076   6.919   5.676
 3689SOL    HW111966   2.157   6.978   5.668
 3689SOL    HW211967   2.038   6.902   5.585
 3690SOL     OW11968   4.159   6.281   0.557
 3690SOL    HW111969   4.121   6.215   0.492
 3690SOL    HW211970   4.243   6.320   0.519
 3691SOL     OW11971   2.478   1.676   6.072
 3691SOL    HW111972   2.564   1.724   6.087
 3691SOL    HW211973   2.470   1.649   5.976
 3692SOL     OW11974   6.806   5.471   5.247
 3692SOL    HW111975   6.810   5.529   5.165
 3692SOL    HW211976   6.714   5.434   5.257
 3693SOL     OW11977   2.097   3.695   3.216
 3693SOL    HW111978   2.095   3.639   3.133
 3693SOL    HW211979   2.043   3.652   3.288
 3694SOL     OW11980   1.552   6.463   2.726
 3694SOL    HW111981   1.541   6.527   2.651
 3694SOL    HW211982   1.605   6.384   2.695
 3695SOL     OW11983   6.341   3.312   1.952
 3695SOL    HW111984   6.414   3.353   1.898
 3695SOL    HW211985   6.334   3.359   2.040
 3696SOL     OW11986   3.849   6.430   4.560
 3696SOL    HW111987   3.803   6.518   4.573
 3696SOL    HW211988   3.942   6.435   4.598
 3697SOL     OW11989   0.112   6.491   2.554
 3697SOL    HW111990   0.194   6.520   2.604
 3697SOL    HW211991   0.050   6.445   2.617
 3698SOL     OW11992   3.303   1.080   4.538
 3698SOL    HW111993   3.279   0.986   4.558
 3698SOL    HW211994   3.221   1.130   4.510
 3699SOL     OW11995   1.271   2.593   4.226
 3699SOL    HW111996   1.336   2.633   4.290
 3699SOL    HW211997   1.319   2.538   4.158
 3700SOL     OW11998   0.763   5.105   4.653
 3700SOL    HW111999   0.783   5.037   4.583
 3700SOL    HW212000   0.701   5.174   4.616
 3701SOL     OW12001   1.307   1.067   4.321
 3701SOL    HW112002   1.361   1.146   4.349
 3701SOL    HW212003   1.329   1.042   4.227
 3702SOL     OW12004   5.556   6.846   3.107
 3702SOL    HW112005   5.611   6.905   3.048
 3702SOL    HW212006   5.608   6.763   3.130
 3703SOL     OW12007   5.505   0.332   5.385
 3703SOL    HW112008   5.503   0.431   5.378
 3703SOL    HW212009   5.569   0.295   5.317
 3704SOL     OW12010   3.803   1.505   0.854
 3704SOL    HW112011   3.772   1.455   0.772
 3704SOL    HW212012   3.831   1.597   0.828
 3705SOL     OW12013   4.460   4.538   4.218
 3705SOL    HW112014   4.400   4.617   4.220
 3705SOL    HW212015   4.526   4.544   4.293
 3706SOL     OW12016   1.538   3.741   0.305
 3706SOL    HW112017   1.482   3.794   0.242
 3706SOL    HW212018   1.543   3.788   0.393
 3707SOL     OW12019   5.116   4.542   3.665
 3707SOL    HW112020   5.174   4.498   3.734
 3707SOL    HW212021   5.174   4.590   3.599
 3708SOL     OW12022   6.768   0.781   6.880
 3708SOL    HW112023   6.843   0.727   6.843
 3708SOL    HW212024   6.697   0.720   6.914
 3709SOL     OW12025   3.604   0.624   1.322
 3709SOL    HW112026   3.564   0.538   1.353
 3709SOL    HW212027   3.534   0.696   1.325
 3710SOL     OW12028   6.014   5.388   5.143
 3710SOL    HW112029   5.953   5.458   5.182
 3710SOL    HW212030   6.035   5.320   5.213
 3711SOL     OW12031   0.653   6.661   4.216
 3711SOL    HW112032   0.745   6.692   4.192
 3711SOL    HW212033   0.649   6.639   4.313
 3712SOL     OW12034   0.261   4.804   6.301
 3712SOL    HW112035   0.213   4.888   6.325
 3712SOL    HW212036   0.317   4.820   6.219
 3713SOL     OW12037   0.678   6.453   6.140
 3713SOL    HW112038   0.720   6.366   6.168
 3713SOL    HW212039   0.650   6.447   6.045
 3714SOL     OW12040   5.474   5.904   5.934
 3714SOL    HW112041   5.449   5.969   5.862
 3714SOL    HW212042   5.556   5.937   5.982
 3715SOL     OW12043   0.828   3.757   1.945
 3715SOL    HW112044   0.865   3.820   1.876
 3715SOL    HW212045   0.751   3.801   1.992
 3716SOL     OW12046   6.212   6.858   4.348
 3716SOL    HW112047   6.194   6.955   4.330
 3716SOL    HW212048   6.297   6.850   4.400
 3717SOL     OW12049   6.824   6.761   6.923
 3717SOL    HW112050   6.891   6.686   6.927
 3717SOL    HW212051   6.775   6.757   6.835
 3718SOL     OW12052   0.908   0.716   6.994
 3718SOL    HW112053   0.840   0.789   7.001
 3718SOL    HW212054   0.991   0.744   0.025
 3719SOL     OW12055   5.176   3.775   1.838
 3719SOL    HW112056   5.135   3.863   1.812
 3719SOL    HW212057   5.275   3.786   1.847
 3720SOL     OW12058   6.040   2.832   6.370
 3720SOL    HW112059   6.106   2.818   6.296
 3720SOL    HW212060   6.010   2.744   6.406
 3721SOL     OW12061   6.597   4.429   1.700
 3721SOL    HW112062   6.529   4.363   1.732
 3721SOL    HW212063   6.581   4.449   1.604
 3722SOL     OW12064   6.211   6.123   0.504
 3722SOL    HW112065   6.261   6.188   0.447
 3722SOL    HW212066   6.151   6.172   0.567
 3723SOL     OW12067   5.706   5.532   1.140
 3723SOL    HW112068   5.720   5.631   1.127
 3723SOL    HW212069   5.666   5.493   1.058
 3724SOL     OW12070   2.021   4.178   4.881
 3724SOL    HW112071   1.958   4.101   4.872
 3724SOL    HW212072   1.991   4.253   4.822
 3725SOL     OW12073   6.801   5.720   0.280
 3725SOL    HW112074   6.754   5.642   0.322
 3725SOL    HW212075   6.809   5.704   0.181
 3726SOL     OW12076   5.866   3.318   0.435
 3726SOL    HW112077   5.804   3.239   0.445
 3726SOL    HW212078   5.819   3.401   0.464
 3727SOL     OW12079   6.643   1.235   5.089
 3727SOL    HW112080   6.649   1.236   4.989
 3727SOL    HW212081   6.551   1.207   5.117
 3728SOL     OW12082   1.227   3.534   6.307
 3728SOL    HW112083   1.300   3.481   6.264
 3728SOL    HW212084   1.249   3.631   6.302
 3729SOL     OW12085   1.365   2.382   4.043
 3729SOL    HW112086   1.322   2.395   3.954
 3729SOL    HW212087   1.377   2.284   4.060
 3730SOL     OW12088   2.534   5.656   5.639
 3730SOL    HW112089   2.545   5.608   5.552
 3730SOL    HW212090   2.485   5.597   5.704
 3731SOL     OW12091   0.665   1.561   0.430
 3731SOL    HW112092   0.684   1.553   0.332
 3731SOL    HW212093   0.639   1.655   0.452
 3732SOL     OW12094   2.990   1.773   0.066
 3732SOL    HW112095   2.996   1.696   0.004
 3732SOL    HW212096   3.073   1.830   0.057
 3733SOL     OW12097   1.654   3.437   3.079
 3733SOL    HW112098   1.602   3.516   3.111
 3733SOL    HW212099   1.593   3.374   3.031
 3734SOL     OW12100   5.093   0.348   1.195
 3734SOL    HW112101   5.107   0.430   1.250
 3734SOL    HW212102   5.071   0.271   1.256
 3735SOL     OW12103   2.431   1.548   2.850
 3735SOL    HW112104   2.450   1.474   2.786
 3735SOL    HW212105   2.333   1.547   2.873
 3736SOL     OW12106   6.902   2.075   0.915
 3736SOL    HW112107   6.994   2.111   0.935
 3736SOL    HW212108   6.904   2.025   0.829
 3737SOL     OW12109   5.777   1.207   4.069
 3737SOL    HW112110   5.858   1.150   4.055
 3737SOL    HW212111   5.743   1.194   4.163
 3738SOL     OW12112   0.172   0.524   2.485
 3738SOL    HW112113   0.235   0.458   2.444
 3738SOL    HW212114   0.213   0.561   2.568
 3739SOL     OW12115   2.166   5.049   0.564
 3739SOL    HW112116   2.246   4.993   0.541
 3739SOL    HW212117   2.087   4.989   0.579
 3740SOL     OW12118   6.164   1.104   0.952
 3740SOL    HW112119   6.235   1.170   0.975
 3740SOL    HW212120   6.151   1.101   0.853
 3741SOL     OW12121   5.435   3.057   6.643
 3741SOL    HW112122   5.467   3.055   6.737
 3741SOL    HW212123   5.458   3.145   6.601
 3742SOL     OW12124   2.532   2.053   6.594
 3742SOL    HW112125   2.465   1.980   6.607
 3742SOL    HW212126   2.485   2.141   6.590
 3743SOL     OW12127   5.385   3.666   0.615
 3743SOL    HW112128   5.410   3.577   0.653
 3743SOL    HW212129   5.430   3.678   0.526
 3744SOL     OW12130   1.625   6.212   2.233
 3744SOL    HW112131   1.538   6.207   2.281
 3744SOL    HW212132   1.612   6.258   2.145
 3745SOL     OW12133   4.228   4.876   1.723
 3745SOL    HW112134   4.265   4.943   1.659
 3745SOL    HW212135   4.256   4.901   1.816
 3746SOL     OW12136   5.564   0.598   3.733
 3746SOL    HW112137   5.646   0.655   3.722
 3746SOL    HW212138   5.538   0.559   3.645
 3747SOL     OW12139   2.315   6.247   5.093
 3747SOL    HW112140   2.344   6.154   5.073
 3747SOL    HW212141   2.306   6.259   5.192
 3748SOL     OW12142   5.791   1.133   1.750
 3748SOL    HW112143   5.706   1.134   1.698
 3748SOL    HW212144   5.776   1.087   1.838
 3749SOL     OW12145   2.050   5.363   3.831
 3749SOL    HW112146   2.093   5.371   3.741
 3749SOL    HW212147   2.120   5.372   3.902
 3750SOL     OW12148   0.348   4.814   1.175
 3750SOL    HW112149   0.298   4.873   1.113
 3750SOL    HW212150   0.402   4.748   1.123
 3751SOL     OW12151   6.433   3.442   1.125
 3751SOL    HW112152   6.440   3.445   1.026
 3751SOL    HW212153   6.343   3.476   1.153
 3752SOL     OW12154   5.916   6.879   0.818
 3752SOL    HW112155   5.855   6.957   0.809
 3752SOL    HW212156   5.864   6.794   0.811
 3753SOL     OW12157   6.741   0.598   3.728
 3753SOL    HW112158   6.727   0.514   3.675
 3753SOL    HW212159   6.684   0.670   3.691
 3754SOL     OW12160   3.613   0.576   0.937
 3754SOL    HW112161   3.651   0.563   0.845
 3754SOL    HW212162   3.686   0.563   1.005
 3755SOL     OW12163   4.684   5.412   4.347
 3755SOL    HW112164   4.753   5.473   4.386
 3755SOL    HW212165   4.598   5.462   4.335
 3756SOL     OW12166   2.909   5.463   6.886
 3756SOL    HW112167   2.853   5.545   6.870
 3756SOL    HW212168   2.866   5.407   6.956
 3757SOL     OW12169   4.905   6.120   6.803
 3757SOL    HW112170   4.959   6.056   6.857
 3757SOL    HW212171   4.908   6.092   6.707
 3758SOL     OW12172   2.407   1.238   4.786
 3758SOL    HW112173   2.492   1.290   4.796
 3758SOL    HW212174   2.330   1.301   4.776
 3759SOL     OW12175   4.806   6.288   6.131
 3759SOL    HW112176   4.764   6.205   6.169
 3759SOL    HW212177   4.891   6.308   6.178
 3760SOL     OW12178   2.124   0.962   4.481
 3760SOL    HW112179   2.213   0.995   4.450
 3760SOL    HW212180   2.133   0.920   4.571
 3761SOL     OW12181   1.382   0.943   4.719
 3761SOL    HW112182   1.329   1.026   4.734
 3761SOL    HW212183   1.439   0.955   4.637
 3762SOL     OW12184   1.265   4.141   0.917
 3762SOL    HW112185   1.263   4.225   0.971
 3762SOL    HW212186   1.227   4.158   0.826
 3763SOL     OW12187   6.873   3.969   0.863
 3763SOL    HW112188   6.871   3.879   0.820
 3763SOL    HW212189   6.926   3.965   0.948
 3764SOL     OW12190   1.652   0.169   2.744
 3764SOL    HW112191   1.630   0.224   2.825
 3764SOL    HW212192   1.726   0.105   2.767
 3765SOL     OW12193   5.012   1.304   1.066
 3765SOL    HW112194   5.061   1.238   1.122
 3765SOL    HW212195   4.945   1.257   1.008
 3766SOL     OW12196   1.672   1.426   4.432
 3766SOL    HW112197   1.744   1.408   4.365
 3766SOL    HW212198   1.694   1.509   4.483
 3767SOL     OW12199   1.866   4.655   6.826
 3767SOL    HW112200   1.936   4.710   6.780
 3767SOL    HW212201   1.819   4.711   6.895
 3768SOL     OW12202   1.420   6.870   4.235
 3768SOL    HW112203   1.350   6.921   4.186
 3768SOL    HW212204   1.511   6.896   4.201
 3769SOL     OW12205   6.410   6.416   4.784
 3769SOL    HW112206   6.463   6.333   4.765
 3769SOL    HW212207   6.463   6.478   4.841
 3770SOL     OW12208   1.286   1.112   6.244
 3770SOL    HW112209   1.275   1.164   6.329
 3770SOL    HW212210   1.334   1.168   6.177
 3771SOL     OW12211   5.178   3.193   0.066
 3771SOL    HW112212   5.088   3.192   0.024
 3771SOL    HW212213   5.169   3.191   0.165
 3772SOL     OW12214   0.494   1.403   6.391
 3772SOL    HW112215   0.412   1.436   6.438
 3772SOL    HW212216   0.475   1.314   6.350
 3773SOL     OW12217   5.899   3.003   5.963
 3773SOL    HW112218   5.936   2.988   6.055
 3773SOL    HW212219   5.971   3.036   5.903
 3774SOL     OW12220   6.834   5.857   1.017
 3774SOL    HW112221   6.792   5.775   1.058
 3774SOL    HW212222   6.882   5.908   1.088
 3775SOL     OW12223   4.217   5.140   2.084
 3775SOL    HW112224   4.154   5.063   2.092
 3775SOL    HW212225   4.233   5.179   2.174
 3776SOL     OW12226   4.103   1.671   0.226
 3776SOL    HW112227   4.165   1.749   0.225
 3776SOL    HW212228   4.058   1.665   0.315
 3777SOL     OW12229   3.559   6.062   3.950
 3777SOL    HW112230   3.615   5.999   3.896
 3777SOL    HW212231   3.542   6.023   4.040
 3778SOL     OW12232   3.414   5.032   2.550
 3778SOL    HW112233   3.321   4.996   2.562
 3778SOL    HW212234   3.413   5.131   2.567
 3779SOL     OW12235   1.513   4.219   0.420
 3779SOL    HW112236   1.439   4.257   0.364
 3779SOL    HW212237   1.474   4.163   0.493
 3780SOL     OW12238   5.955   4.936   4.753
 3780SOL    HW112239   6.050   4.919   4.779
 3780SOL    HW212240   5.914   4.850   4.722
 3781SOL     OW12241   0.742   6.011   4.493
 3781SOL    HW112242   0.833   5.971   4.502
 3781SOL    HW212243   0.674   5.937   4.489
 3782SOL     OW12244   2.495   0.381   3.762
 3782SOL    HW112245   2.514   0.310   3.694
 3782SOL    HW212246   2.429   0.446   3.724
 3783SOL     OW12247   5.676   5.836   3.102
 3783SOL    HW112248   5.727   5.750   3.106
 3783SOL    HW212249   5.675   5.879   3.193
 3784SOL     OW12250   4.732   2.753   3.200
 3784SOL    HW112251   4.644   2.745   3.153
 3784SOL    HW212252   4.779   2.665   3.199
 3785SOL     OW12253   1.902   2.873   6.100
 3785SOL    HW112254   1.824   2.853   6.041
 3785SOL    HW212255   1.891   2.826   6.188
 3786SOL     OW12256   2.259   5.654   3.559
 3786SOL    HW112257   2.167   5.692   3.549
 3786SOL    HW212258   2.315   5.684   3.482
 3787SOL     OW12259   5.679   1.381   2.810
 3787SOL    HW112260   5.665   1.466   2.759
 3787SOL    HW212261   5.714   1.403   2.901
 3788SOL     OW12262   0.613   4.812   4.268
 3788SOL    HW112263   0.575   4.830   4.358
 3788SOL    HW212264   0.707   4.778   4.277
 3789SOL     OW12265   6.833   2.829   4.823
 3789SOL    HW112266   6.861   2.741   4.784
 3789SOL    HW212267   6.858   2.902   4.759
 3790SOL     OW12268   1.329   4.405   5.488
 3790SOL    HW112269   1.338   4.442   5.580
 3790SOL    HW212270   1.253   4.452   5.441
 3791SOL     OW12271   4.977   0.947   6.510
 3791SOL    HW112272   4.880   0.972   6.514
 3791SOL    HW212273   4.989   0.873   6.444
 3792SOL     OW12274   0.989   2.470   4.802
 3792SOL    HW112275   1.006   2.525   4.720
 3792SOL    HW212276   0.928   2.395   4.779
 3793SOL     OW12277   5.089   6.648   2.148
 3793SOL    HW112278   5.052   6.559   2.173
 3793SOL    HW212279   5.014   6.711   2.128
 3794SOL     OW12280   2.382   3.182   0.977
 3794SOL    HW112281   2.437   3.264   0.962
 3794SOL    HW212282   2.442   3.102   0.975
 3795SOL     OW12283   3.957   6.348   0.199
 3795SOL    HW112284   3.977   6.445   0.189
 3795SOL    HW212285   4.023   6.306   0.262
 3796SOL     OW12286   3.174   2.048   2.561
 3796SOL    HW112287   3.236   2.077   2.489
 3796SOL    HW212288   3.089   2.101   2.556
 3797SOL     OW12289   6.896   3.689   1.571
 3797SOL    HW112290   6.814   3.725   1.527
 3797SOL    HW212291   6.964   3.666   1.502
 3798SOL     OW12292   2.841   5.374   3.011
 3798SOL    HW112293   2.891   5.374   3.098
 3798SOL    HW212294   2.891   5.429   2.944
 3799SOL     OW12295   6.845   2.662   4.030
 3799SOL    HW112296   6.945   2.663   4.036
 3799SOL    HW212297   6.810   2.575   4.066
 3800SOL     OW12298   5.951   3.637   3.614
 3800SOL    HW112299   5.984   3.656   3.522
 3800SOL    HW212300   6.018   3.668   3.681
 3801SOL     OW12301   5.947   0.020   2.465
 3801SOL    HW112302   6.031   0.065   2.496
 3801SOL    HW212303   5.869   0.080   2.484
 3802SOL     OW12304   1.334   2.172   2.155
 3802SOL    HW112305   1.405   2.206   2.216
 3802SOL    HW212306   1.314   2.240   2.085
 3803SOL     OW12307   3.380   2.719   1.744
 3803SOL    HW112308   3.388   2.752   1.650
 3803SOL    HW212309   3.463   2.744   1.795
 3804SOL     OW12310   4.589   1.650   4.057
 3804SOL    HW112311   4.532   1.727   4.028
 3804SOL    HW212312   4.610   1.660   4.155
 3805SOL     OW12313   2.687   2.687   1.697
 3805SOL    HW112314   2.707   2.600   1.741
 3805SOL    HW212315   2.597   2.682   1.653
 3806SOL     OW12316   3.183   3.752   6.317
 3806SOL    HW112317   3.126   3.831   6.294
 3806SOL    HW212318   3.131   3.668   6.304
 3807SOL     OW12319   1.381   6.164   2.983
 3807SOL    HW112320   1.427   6.164   3.072
 3807SOL    HW212321   1.330   6.078   2.972
 3808SOL     OW12322   5.003   0.906   1.046
 3808SOL    HW112323   5.026   0.879   0.953
 3808SOL    HW212324   4.912   0.872   1.069
 3809SOL     OW12325   5.159   3.117   1.392
 3809SOL    HW112326   5.095   3.154   1.459
 3809SOL    HW212327   5.144   3.018   1.382
 3810SOL     OW12328   4.523   2.552   3.634
 3810SOL    HW112329   4.445   2.495   3.609
 3810SOL    HW212330   4.592   2.548   3.562
 3811SOL     OW12331   1.196   4.696   4.539
 3811SOL    HW112332   1.112   4.749   4.547
 3811SOL    HW212333   1.182   4.605   4.577
 3812SOL     OW12334   5.180   6.088   5.053
 3812SOL    HW112335   5.193   6.034   5.136
 3812SOL    HW212336   5.096   6.142   5.062
 3813SOL     OW12337   4.643   3.849   0.865
 3813SOL    HW112338   4.697   3.876   0.786
 3813SOL    HW212339   4.552   3.822   0.836
 3814SOL     OW12340   0.066   0.083   6.795
 3814SOL    HW112341   0.151   0.123   6.763
 3814SOL    HW212342   0.086   0.015   6.866
 3815SOL     OW12343   4.479   2.184   0.477
 3815SOL    HW112344   4.418   2.253   0.516
 3815SOL    HW212345   4.485   2.105   0.539
 3816SOL     OW12346   1.279   5.884   0.244
 3816SOL    HW112347   1.373   5.849   0.238
 3816SOL    HW212348   1.276   5.977   0.207
 3817SOL     OW12349   4.907   4.094   2.645
 3817SOL    HW112350   5.005   4.114   2.656
 3817SOL    HW212351   4.876   4.132   2.557
 3818SOL     OW12352   6.356   0.910   6.634
 3818SOL    HW112353   6.263   0.923   6.599
 3818SOL    HW212354   6.420   0.962   6.578
 3819SOL     OW12355   5.281   5.029   2.031
 3819SOL    HW112356   5.346   4.953   2.024
 3819SOL    HW212357   5.272   5.058   2.126
 3820SOL     OW12358   5.039   6.775   4.009
 3820SOL    HW112359   4.977   6.853   3.999
 3820SOL    HW212360   5.133   6.809   4.022
 3821SOL     OW12361   2.456   1.452   0.949
 3821SOL    HW112362   2.398   1.509   1.008
 3821SOL    HW212363   2.442   1.478   0.854
 3822SOL     OW12364   2.327   0.554   1.087
 3822SOL    HW112365   2.238   0.508   1.093
 3822SOL    HW212366   2.399   0.493   1.118
 3823SOL     OW12367   3.394   3.347   6.059
 3823SOL    HW112368   3.400   3.278   5.988
 3823SOL    HW212369   3.369   3.435   6.019
 3824SOL     OW12370   6.754   2.272   0.572
 3824SOL    HW112371   6.672   2.292   0.519
 3824SOL    HW212372   6.733   2.280   0.670
 3825SOL     OW12373   0.701   5.956   0.655
 3825SOL    HW112374   0.780   5.917   0.704
 3825SOL    HW212375   0.617   5.937   0.707
 3826SOL     OW12376   0.853   2.900   6.191
 3826SOL    HW112377   0.916   2.823   6.195
 3826SOL    HW212378   0.905   2.985   6.202
 3827SOL     OW12379   1.833   1.916   1.757
 3827SOL    HW112380   1.835   1.916   1.657
 3827SOL    HW212381   1.811   2.008   1.790
 3828SOL     OW12382   3.571   2.828   2.248
 3828SOL    HW112383   3.599   2.733   2.257
 3828SOL    HW212384   3.548   2.865   2.338
 3829SOL     OW12385   1.726   4.643   3.676
 3829SOL    HW112386   1.783   4.695   3.739
 3829SOL    HW212387   1.698   4.557   3.719
 3830SOL     OW12388   0.630   1.463   4.460
 3830SOL    HW112389   0.665   1.369   4.469
 3830SOL    HW212390   0.592   1.493   4.548
 3831SOL     OW12391   4.656   2.371   1.518
 3831SOL    HW112392   4.564   2.388   1.484
 3831SOL    HW212393   4.660   2.280   1.559
 3832SOL     OW12394   5.579   0.986   2.561
 3832SOL    HW112395   5.628   1.034   2.633
 3832SOL    HW212396   5.521   0.915   2.601
 3833SOL     OW12397   0.419   6.134   5.981
 3833SOL    HW112398   0.403   6.177   5.892
 3833SOL    HW212399   0.517   6.120   5.994
 3834SOL     OW12400   4.816   4.084   2.143
 3834SOL    HW112401   4.826   3.995   2.099
 3834SOL    HW212402   4.728   4.124   2.118
 3835SOL     OW12403   3.601   5.592   4.326
 3835SOL    HW112404   3.557   5.507   4.354
 3835SOL    HW212405   3.604   5.655   4.403
 3836SOL     OW12406   1.666   4.160   6.146
 3836SOL    HW112407   1.703   4.187   6.057
 3836SOL    HW212408   1.608   4.233   6.182
 3837SOL     OW12409   4.778   4.905   6.186
 3837SOL    HW112410   4.838   4.974   6.224
 3837SOL    HW212411   4.719   4.946   6.117
 3838SOL     OW12412   0.078   3.995   4.577
 3838SOL    HW112413   0.008   4.049   4.623
 3838SOL    HW212414   0.107   3.920   4.637
 3839SOL     OW12415   4.664   0.740   3.461
 3839SOL    HW112416   4.670   0.668   3.391
 3839SOL    HW212417   4.738   0.806   3.447
 3840SOL     OW12418   2.247   0.694   5.921
 3840SOL    HW112419   2.148   0.681   5.916
 3840SOL    HW212420   2.287   0.620   5.973
 3841SOL     OW12421   0.270   3.128   5.149
 3841SOL    HW112422   0.270   3.029   5.168
 3841SOL    HW212423   0.360   3.154   5.114
 3842SOL     OW12424   1.789   3.272   6.733
 3842SOL    HW112425   1.804   3.179   6.767
 3842SOL    HW212426   1.710   3.273   6.672
 3843SOL     OW12427   6.278   4.443   2.276
 3843SOL    HW112428   6.212   4.492   2.219
 3843SOL    HW212429   6.311   4.504   2.348
 3844SOL     OW12430   0.637   2.337   6.156
 3844SOL    HW112431   0.723   2.374   6.122
 3844SOL    HW212432   0.590   2.289   6.082
 3845SOL     OW12433   3.656   3.572   4.543
 3845SOL    HW112434   3.736   3.514   4.532
 3845SOL    HW212435   3.612   3.552   4.631
 3846SOL     OW12436   0.881   5.482   3.612
 3846SOL    HW112437   0.948   5.408   3.617
 3846SOL    HW212438   0.795   5.452   3.653
 3847SOL     OW12439   6.271   0.740   4.340
 3847SOL    HW112440   6.216   0.719   4.260
 3847SOL    HW212441   6.368   0.743   4.314
 3848SOL     OW12442   3.554   5.768   3.054
 3848SOL    HW112443   3.498   5.700   3.007
 3848SOL    HW212444   3.650   5.755   3.029
 3849SOL     OW12445   1.218   1.477   5.463
 3849SOL    HW112446   1.197   1.435   5.552
 3849SOL    HW212447   1.303   1.438   5.427
 3850SOL     OW12448   2.947   2.964   0.632
 3850SOL    HW112449   2.984   2.886   0.683
 3850SOL    HW212450   2.851   2.948   0.611
 3851SOL     OW12451   1.675   4.353   2.511
 3851SOL    HW112452   1.719   4.326   2.596
 3851SOL    HW212453   1.632   4.443   2.522
 3852SOL     OW12454   4.095   6.862   3.773
 3852SOL    HW112455   4.170   6.798   3.760
 3852SOL    HW212456   4.012   6.812   3.798
 3853SOL     OW12457   0.895   3.733   3.218
 3853SOL    HW112458   0.928   3.780   3.299
 3853SOL    HW212459   0.800   3.706   3.233
 3854SOL     OW12460   1.247   3.266   2.047
 3854SOL    HW112461   1.150   3.283   2.028
 3854SOL    HW212462   1.301   3.347   2.024
 3855SOL     OW12463   5.404   6.199   6.422
 3855SOL    HW112464   5.329   6.173   6.360
 3855SOL    HW212465   5.374   6.187   6.517
 3856SOL     OW12466   6.841   6.605   5.311
 3856SOL    HW112467   6.771   6.538   5.336
 3856SOL    HW212468   6.797   6.689   5.280
 3857SOL     OW12469   0.682   5.779   6.249
 3857SOL    HW112470   0.750   5.785   6.175
 3857SOL    HW212471   0.729   5.780   6.337
 3858SOL     OW12472   1.378   6.748   5.855
 3858SOL    HW112473   1.437   6.813   5.806
 3858SOL    HW212474   1.432   6.667   5.879
 3859SOL     OW12475   6.469   2.167   3.141
 3859SOL    HW112476   6.376   2.144   3.170
 3859SOL    HW212477   6.509   2.231   3.205
 3860SOL     OW12478   2.309   0.342   5.745
 3860SOL    HW112479   2.322   0.389   5.832
 3860SOL    HW212480   2.253   0.398   5.684
 3861SOL     OW12481   4.517   4.458   3.429
 3861SOL    HW112482   4.492   4.383   3.368
 3861SOL    HW212483   4.526   4.423   3.522
 3862SOL     OW12484   1.251   0.260   4.695
 3862SOL    HW112485   1.181   0.327   4.672
 3862SOL    HW212486   1.334   0.307   4.724
 3863SOL     OW12487   4.208   2.877   5.944
 3863SOL    HW112488   4.163   2.946   6.001
 3863SOL    HW212489   4.305   2.871   5.969
 3864SOL     OW12490   2.508   0.793   5.725
 3864SOL    HW112491   2.466   0.813   5.814
 3864SOL    HW212492   2.480   0.703   5.694
 3865SOL     OW12493   3.528   6.759   0.063
 3865SOL    HW112494   3.545   6.671   0.019
 3865SOL    HW212495   3.460   6.747   0.135
 3866SOL     OW12496   3.918   1.156   1.802
 3866SOL    HW112497   3.872   1.076   1.840
 3866SOL    HW212498   3.937   1.141   1.705
 3867SOL     OW12499   1.308   4.227   4.023
 3867SOL    HW112500   1.355   4.260   3.942
 3867SOL    HW212501   1.374   4.213   4.097
 3868SOL     OW12502   3.443   0.116   0.382
 3868SOL    HW112503   3.440   0.167   0.296
 3868SOL    HW212504   3.534   0.075   0.392
 3869SOL     OW12505   6.525   3.210   5.248
 3869SOL    HW112506   6.428   3.203   5.226
 3869SOL    HW212507   6.573   3.255   5.173
 3870SOL     OW12508   4.500   5.533   0.422
 3870SOL    HW112509   4.521   5.445   0.465
 3870SOL    HW212510   4.494   5.522   0.323
 3871SOL     OW12511   4.069   0.404   2.648
 3871SOL    HW112512   4.036   0.495   2.672
 3871SOL    HW212513   4.064   0.344   2.728
 3872SOL     OW12514   3.610   3.275   2.687
 3872SOL    HW112515   3.521   3.268   2.643
 3872SOL    HW212516   3.599   3.320   2.776
 3873SOL     OW12517   6.564   4.105   1.582
 3873SOL    HW112518   6.634   4.155   1.531
 3873SOL    HW212519   6.528   4.163   1.655
 3874SOL     OW12520   3.869   5.874   6.386
 3874SOL    HW112521   3.896   5.936   6.312
 3874SOL    HW212522   3.815   5.798   6.348
 3875SOL     OW12523   1.767   2.759   1.469
 3875SOL    HW112524   1.667   2.758   1.475
 3875SOL    HW212525   1.805   2.690   1.530
 3876SOL     OW12526   5.795   4.937   0.173
 3876SOL    HW112527   5.842   4.934   0.085
 3876SOL    HW212528   5.837   5.007   0.231
 3877SOL     OW12529   6.896   2.843   0.051
 3877SOL    HW112530   6.993   2.828   0.070
 3877SOL    HW212531   6.866   2.780   6.995
 3878SOL     OW12532   2.437   6.479   4.995
 3878SOL    HW112533   2.367   6.548   4.977
 3878SOL    HW212534   2.395   6.400   5.040
 3879SOL     OW12535   5.203   6.524   1.220
 3879SOL    HW112536   5.286   6.549   1.170
 3879SOL    HW212537   5.209   6.429   1.250
 3880SOL     OW12538   6.160   4.998   3.391
 3880SOL    HW112539   6.100   4.967   3.317
 3880SOL    HW212540   6.169   4.925   3.459
 3881SOL     OW12541   1.256   4.676   1.140
 3881SOL    HW112542   1.262   4.596   1.199
 3881SOL    HW212543   1.183   4.736   1.172
 3882SOL     OW12544   6.897   1.544   4.934
 3882SOL    HW112545   6.919   1.638   4.961
 3882SOL    HW212546   6.837   1.546   4.854
 3883SOL     OW12547   4.510   1.616   3.618
 3883SOL    HW112548   4.472   1.569   3.538
 3883SOL    HW212549   4.514   1.714   3.599
 3884SOL     OW12550   1.078   5.673   3.636
 3884SOL    HW112551   0.994   5.623   3.619
 3884SOL    HW212552   1.117   5.645   3.723
 3885SOL     OW12553   6.402   0.627   3.476
 3885SOL    HW112554   6.399   0.602   3.573
 3885SOL    HW212555   6.441   0.552   3.423
 3886SOL     OW12556   6.427   5.626   5.115
 3886SOL    HW112557   6.504   5.573   5.080
 3886SOL    HW212558   6.386   5.679   5.041
 3887SOL     OW12559   5.941   0.980   5.397
 3887SOL    HW112560   5.982   0.974   5.306
 3887SOL    HW212561   5.949   1.074   5.432
 3888SOL     OW12562   0.798   0.775   6.707
 3888SOL    HW112563   0.778   0.680   6.684
 3888SOL    HW212564   0.837   0.780   6.799
 3889SOL     OW12565   6.726   2.709   6.507
 3889SOL    HW112566   6.796   2.708   6.436
 3889SOL    HW212567   6.683   2.619   6.513
 3890SOL     OW12568   5.731   5.636   2.773
 3890SOL    HW112569   5.680   5.626   2.688
 3890SOL    HW212570   5.792   5.715   2.766
 3891SOL     OW12571   5.522   5.143   3.888
 3891SOL    HW112572   5.442   5.187   3.929
 3891SOL    HW212573   5.603   5.163   3.943
 3892SOL     OW12574   0.624   2.379   2.077
 3892SOL    HW112575   0.700   2.331   2.123
 3892SOL    HW212576   0.555   2.403   2.145
 3893SOL     OW12577   2.789   5.370   1.684
 3893SOL    HW112578   2.860   5.398   1.749
 3893SOL    HW212579   2.758   5.277   1.707
 3894SOL     OW12580   2.633   2.142   1.083
 3894SOL    HW112581   2.582   2.107   1.004
 3894SOL    HW212582   2.728   2.158   1.056
 3895SOL     OW12583   1.721   0.083   5.332
 3895SOL    HW112584   1.665   0.001   5.331
 3895SOL    HW212585   1.754   0.102   5.239
 3896SOL     OW12586   0.205   1.944   6.291
 3896SOL    HW112587   0.210   1.846   6.273
 3896SOL    HW212588   0.134   1.962   6.359
 3897SOL     OW12589   3.683   0.163   2.243
 3897SOL    HW112590   3.652   0.070   2.223
 3897SOL    HW212591   3.709   0.169   2.340
 3898SOL     OW12592   3.398   3.583   3.646
 3898SOL    HW112593   3.424   3.674   3.677
 3898SOL    HW212594   3.473   3.519   3.663
 3899SOL     OW12595   5.066   0.411   4.148
 3899SOL    HW112596   5.165   0.425   4.140
 3899SOL    HW212597   5.019   0.465   4.078
 3900SOL     OW12598   4.860   2.910   2.969
 3900SOL    HW112599   4.771   2.906   3.014
 3900SOL    HW212600   4.915   2.831   2.997
 3901SOL     OW12601   2.999   6.728   5.950
 3901SOL    HW112602   3.044   6.714   6.038
 3901SOL    HW212603   2.900   6.718   5.961
 3902SOL     OW12604   6.133   3.535   1.687
 3902SOL    HW112605   6.139   3.584   1.774
 3902SOL    HW212606   6.038   3.508   1.670
 3903SOL     OW12607   4.617   3.877   6.696
 3903SOL    HW112608   4.594   3.934   6.616
 3903SOL    HW212609   4.534   3.847   6.741
 3904SOL     OW12610   2.281   0.021   6.171
 3904SOL    HW112611   2.290   0.070   6.084
 3904SOL    HW212612   2.299   6.941   6.156
 3905SOL     OW12613   5.611   6.713   6.274
 3905SOL    HW112614   5.549   6.637   6.294
 3905SOL    HW212615   5.705   6.678   6.266
 3906SOL     OW12616   1.553   4.861   5.545
 3906SOL    HW112617   1.612   4.868   5.464
 3906SOL    HW212618   1.463   4.898   5.523
 3907SOL     OW12619   6.463   0.552   3.979
 3907SOL    HW112620   6.512   0.637   3.996
 3907SOL    HW212621   6.403   0.531   4.056
 3908SOL     OW12622   1.792   0.973   6.742
 3908SOL    HW112623   1.737   1.057   6.741
 3908SOL    HW212624   1.875   0.987   6.687
 3909SOL     OW12625   0.170   4.574   6.387
 3909SOL    HW112626   0.070   4.583   6.396
 3909SOL    HW212627   0.209   4.664   6.365
 3910SOL     OW12628   3.606   3.749   2.046
 3910SOL    HW112629   3.605   3.685   1.969
 3910SOL    HW212630   3.662   3.828   2.023
 3911SOL     OW12631   5.177   1.269   0.230
 3911SOL    HW112632   5.228   1.264   0.316
 3911SOL    HW212633   5.209   1.198   0.168
 3912SOL     OW12634   3.545   1.030   6.186
 3912SOL    HW112635   3.521   0.978   6.269
 3912SOL    HW212636   3.470   1.022   6.120
 3913SOL     OW12637   2.664   6.664   6.814
 3913SOL    HW112638   2.736   6.594   6.815
 3913SOL    HW212639   2.575   6.620   6.814
 3914SOL     OW12640   4.954   0.948   1.484
 3914SOL    HW112641   4.875   0.975   1.538
 3914SOL    HW212642   4.935   0.862   1.437
 3915SOL     OW12643   4.389   6.553   0.366
 3915SOL    HW112644   4.330   6.580   0.442
 3915SOL    HW212645   4.452   6.628   0.344
 3916SOL     OW12646   2.373   6.713   2.860
 3916SOL    HW112647   2.299   6.670   2.808
 3916SOL    HW212648   2.368   6.813   2.850
 3917SOL     OW12649   1.437   4.159   1.718
 3917SOL    HW112650   1.481   4.072   1.739
 3917SOL    HW212651   1.486   4.205   1.644
 3918SOL     OW12652   3.852   6.383   1.680
 3918SOL    HW112653   3.884   6.421   1.594
 3918SOL    HW212654   3.792   6.305   1.662
 3919SOL     OW12655   3.452   0.330   6.598
 3919SOL    HW112656   3.437   0.426   6.620
 3919SOL    HW212657   3.493   0.284   6.677
 3920SOL     OW12658   3.112   0.964   6.554
 3920SOL    HW112659   3.074   0.879   6.590
 3920SOL    HW212660   3.062   1.042   6.592
 3921SOL     OW12661   0.119   2.010   6.995
 3921SOL    HW112662   0.174   2.064   6.930
 3921SOL    HW212663   0.159   2.018   0.069
 3922SOL     OW12664   4.493   5.068   1.356
 3922SOL    HW112665   4.522   5.112   1.441
 3922SOL    HW212666   4.453   5.137   1.295
 3923SOL     OW12667   5.990   2.151   0.455
 3923SOL    HW112668   5.925   2.204   0.401
 3923SOL    HW212669   6.021   2.072   0.401
 3924SOL     OW12670   0.633   5.153   2.802
 3924SOL    HW112671   0.627   5.195   2.893
 3924SOL    HW212672   0.581   5.068   2.801
 3925SOL     OW12673   4.213   4.559   1.101
 3925SOL    HW112674   4.308   4.529   1.097
 3925SOL    HW212675   4.152   4.483   1.078
 3926SOL     OW12676   0.223   0.072   4.912
 3926SOL    HW112677   0.226   0.125   4.827
 3926SOL    HW212678   0.270   0.121   4.985
 3927SOL     OW12679   6.880   2.560   4.757
 3927SOL    HW112680   6.782   2.560   4.781
 3927SOL    HW212681   6.896   2.492   4.685
 3928SOL     OW12682   3.455   5.647   3.854
 3928SOL    HW112683   3.482   5.666   3.760
 3928SOL    HW212684   3.388   5.715   3.884
 3929SOL     OW12685   0.251   1.576   6.516
 3929SOL    HW112686   0.198   1.654   6.548
 3929SOL    HW212687   0.191   1.496   6.509
 3930SOL     OW12688   1.144   1.950   3.802
 3930SOL    HW112689   1.050   1.952   3.770
 3930SOL    HW212690   1.204   1.989   3.733
 3931SOL     OW12691   1.806   1.518   2.080
 3931SOL    HW112692   1.888   1.506   2.135
 3931SOL    HW212693   1.736   1.455   2.111
 3932SOL     OW12694   1.930   4.522   3.980
 3932SOL    HW112695   1.852   4.472   4.019
 3932SOL    HW212696   2.011   4.505   4.036
 3933SOL     OW12697   1.722   6.691   0.347
 3933SOL    HW112698   1.769   6.653   0.426
 3933SOL    HW212699   1.717   6.790   0.355
 3934SOL     OW12700   6.964   1.335   2.863
 3934SOL    HW112701   6.976   1.288   2.775
 3934SOL    HW212702   6.962   1.434   2.848
 3935SOL     OW12703   1.172   1.386   5.743
 3935SOL    HW112704   1.249   1.408   5.802
 3935SOL    HW212705   1.086   1.396   5.794
 3936SOL     OW12706   0.070   5.925   5.163
 3936SOL    HW112707   0.124   5.988   5.220
 3936SOL    HW212708   6.991   5.927   5.194
 3937SOL     OW12709   6.364   6.300   1.879
 3937SOL    HW112710   6.340   6.394   1.906
 3937SOL    HW212711   6.340   6.237   1.953
 3938SOL     OW12712   6.171   4.031   4.024
 3938SOL    HW112713   6.099   4.099   4.034
 3938SOL    HW212714   6.229   4.032   4.105
 3939SOL     OW12715   2.637   1.587   3.093
 3939SOL    HW112716   2.597   1.496   3.096
 3939SOL    HW212717   2.664   1.609   2.999
 3940SOL     OW12718   2.845   4.679   1.677
 3940SOL    HW112719   2.911   4.653   1.606
 3940SOL    HW212720   2.862   4.626   1.760
 3941SOL     OW12721   5.961   0.254   4.617
 3941SOL    HW112722   5.943   0.174   4.560
 3941SOL    HW212723   6.053   0.289   4.598
 3942SOL     OW12724   0.673   6.302   5.429
 3942SOL    HW112725   0.641   6.382   5.479
 3942SOL    HW212726   0.622   6.221   5.460
 3943SOL     OW12727   0.878   3.399   2.607
 3943SOL    HW112728   0.915   3.386   2.515
 3943SOL    HW212729   0.907   3.488   2.642
 3944SOL     OW12730   6.094   3.932   6.165
 3944SOL    HW112731   6.152   3.908   6.243
 3944SOL    HW212732   6.112   3.869   6.089
 3945SOL     OW12733   1.141   2.521   3.099
 3945SOL    HW112734   1.240   2.527   3.102
 3945SOL    HW212735   1.108   2.564   3.015
 3946SOL     OW12736   0.136   3.920   6.711
 3946SOL    HW112737   0.080   3.838   6.697
 3946SOL    HW212738   0.144   3.938   6.809
 3947SOL     OW12739   5.684   5.223   0.484
 3947SOL    HW112740   5.742   5.265   0.414
 3947SOL    HW212741   5.725   5.238   0.574
 3948SOL     OW12742   1.703   3.714   6.928
 3948SOL    HW112743   1.639   3.651   6.883
 3948SOL    HW212744   1.658   3.802   6.942
 3949SOL     OW12745   6.737   6.998   3.359
 3949SOL    HW112746   6.757   0.053   3.293
 3949SOL    HW212747   6.641   7.003   3.386
 3950SOL     OW12748   3.812   3.897   1.763
 3950SOL    HW112749   3.748   3.908   1.687
 3950SOL    HW212750   3.802   3.806   1.803
 3951SOL     OW12751   0.692   0.956   0.002
 3951SOL    HW112752   0.643   1.027   0.053
 3951SOL    HW212753   0.634   0.924   6.944
 3952SOL     OW12754   6.205   3.498   4.292
 3952SOL    HW112755   6.178   3.587   4.256
 3952SOL    HW212756   6.196   3.429   4.220
 3953SOL     OW12757   3.552   4.030   6.362
 3953SOL    HW112758   3.543   3.947   6.308
 3953SOL    HW212759   3.548   4.008   6.460
 3954SOL     OW12760   5.714   4.804   5.248
 3954SOL    HW112761   5.804   4.791   5.207
 3954SOL    HW212762   5.647   4.745   5.202
 3955SOL     OW12763   5.148   6.711   0.036
 3955SOL    HW112764   5.086   6.743   0.108
 3955SOL    HW212765   5.143   6.611   0.030
 3956SOL     OW12766   0.734   2.308   4.825
 3956SOL    HW112767   0.664   2.298   4.754
 3956SOL    HW212768   0.699   2.270   4.911
 3957SOL     OW12769   3.980   6.500   3.097
 3957SOL    HW112770   3.933   6.516   3.184
 3957SOL    HW212771   4.032   6.582   3.072
 3958SOL     OW12772   6.231   6.367   6.499
 3958SOL    HW112773   6.238   6.464   6.476
 3958SOL    HW212774   6.263   6.312   6.422
 3959SOL     OW12775   3.092   6.441   1.455
 3959SOL    HW112776   3.187   6.411   1.468
 3959SOL    HW212777   3.092   6.533   1.415
 3960SOL     OW12778   5.990   2.563   6.041
 3960SOL    HW112779   6.010   2.592   5.948
 3960SOL    HW212780   6.072   2.573   6.098
 3961SOL     OW12781   5.474   1.891   1.832
 3961SOL    HW112782   5.429   1.857   1.915
 3961SOL    HW212783   5.458   1.990   1.824
 3962SOL     OW12784   0.918   5.896   0.130
 3962SOL    HW112785   0.931   5.857   0.221
 3962SOL    HW212786   0.917   5.996   0.136
 3963SOL     OW12787   5.288   4.965   3.457
 3963SOL    HW112788   5.291   5.032   3.531
 3963SOL    HW212789   5.291   5.013   3.369
 3964SOL     OW12790   4.069   4.977   4.870
 3964SOL    HW112791   4.153   4.924   4.864
 3964SOL    HW212792   4.003   4.929   4.928
 3965SOL     OW12793   3.763   4.467   6.240
 3965SOL    HW112794   3.751   4.528   6.319
 3965SOL    HW212795   3.704   4.497   6.165
 3966SOL     OW12796   6.936   4.816   0.316
 3966SOL    HW112797   6.929   4.840   0.219
 3966SOL    HW212798   7.004   4.743   0.327
 3967SOL     OW12799   1.101   5.054   2.691
 3967SOL    HW112800   1.013   5.100   2.683
 3967SOL    HW212801   1.139   5.069   2.782
 3968SOL     OW12802   6.038   0.956   1.271
 3968SOL    HW112803   5.993   0.964   1.182
 3968SOL    HW212804   5.984   1.004   1.340
 3969SOL     OW12805   0.325   4.210   2.795
 3969SOL    HW112806   0.411   4.223   2.844
 3969SOL    HW212807   0.307   4.112   2.786
 3970SOL     OW12808   4.755   5.355   3.665
 3970SOL    HW112809   4.779   5.431   3.604
 3970SOL    HW212810   4.765   5.383   3.760
 3971SOL     OW12811   2.720   5.151   2.156
 3971SOL    HW112812   2.694   5.186   2.246
 3971SOL    HW212813   2.681   5.060   2.143
 3972SOL     OW12814   1.127   5.484   1.324
 3972SOL    HW112815   1.207   5.467   1.381
 3972SOL    HW212816   1.140   5.442   1.234
 3973SOL     OW12817   3.045   3.351   4.991
 3973SOL    HW112818   3.055   3.256   5.020
 3973SOL    HW212819   2.997   3.403   5.061
 3974SOL     OW12820   1.161   0.298   5.616
 3974SOL    HW112821   1.113   0.211   5.614
 3974SOL    HW212822   1.249   0.288   5.570
 3975SOL     OW12823   6.022   0.275   5.937
 3975SOL    HW112824   6.020   0.323   5.850
 3975SOL    HW212825   5.997   0.179   5.924
 3976SOL     OW12826   1.681   5.172   1.106
 3976SOL    HW112827   1.754   5.110   1.136
 3976SOL    HW212828   1.690   5.189   1.008
 3977SOL     OW12829   3.202   4.921   5.811
 3977SOL    HW112830   3.265   4.865   5.864
 3977SOL    HW212831   3.176   4.872   5.727
 3978SOL     OW12832   5.367   0.237   4.540
 3978SOL    HW112833   5.452   0.246   4.488
 3978SOL    HW212834   5.310   0.165   4.499
 3979SOL     OW12835   2.258   6.229   1.659
 3979SOL    HW112836   2.294   6.137   1.642
 3979SOL    HW212837   2.283   6.289   1.583
 3980SOL     OW12838   0.028   4.511   5.696
 3980SOL    HW112839   6.985   4.534   5.773
 3980SOL    HW212840   7.010   4.556   5.613
 3981SOL     OW12841   1.214   1.977   6.067
 3981SOL    HW112842   1.172   1.916   6.000
 3981SOL    HW212843   1.213   1.935   6.157
 3982SOL     OW12844   2.839   0.590   4.209
 3982SOL    HW112845   2.902   0.667   4.208
 3982SOL    HW212846   2.786   0.592   4.293
 3983SOL     OW12847   3.302   6.046   4.312
 3983SOL    HW112848   3.369   6.117   4.290
 3983SOL    HW212849   3.327   6.003   4.399
 3984SOL     OW12850   2.403   0.617   1.899
 3984SOL    HW112851   2.476   0.679   1.870
 3984SOL    HW212852   2.316   0.648   1.859
 3985SOL     OW12853   2.551   4.023   0.165
 3985SOL    HW112854   2.577   4.099   0.106
 3985SOL    HW212855   2.620   3.950   0.160
 3986SOL     OW12856   0.431   1.916   3.440
 3986SOL    HW112857   0.472   2.001   3.473
 3986SOL    HW212858   0.350   1.895   3.495
 3987SOL     OW12859   1.277   4.996   4.613
 3987SOL    HW112860   1.223   4.940   4.674
 3987SOL    HW212861   1.305   5.080   4.660
 3988SOL     OW12862   3.535   2.361   5.903
 3988SOL    HW112863   3.582   2.350   5.991
 3988SOL    HW212864   3.444   2.321   5.909
 3989SOL     OW12865   5.867   0.810   6.766
 3989SOL    HW112866   5.961   0.777   6.761
 3989SOL    HW212867   5.844   0.858   6.682
 3990SOL     OW12868   6.028   1.735   4.113
 3990SOL    HW112869   6.034   1.686   4.026
 3990SOL    HW212870   6.112   1.719   4.165
 3991SOL     OW12871   6.638   2.387   3.515
 3991SOL    HW112872   6.587   2.370   3.431
 3991SOL    HW212873   6.641   2.303   3.569
 3992SOL     OW12874   4.684   1.828   6.028
 3992SOL    HW112875   4.586   1.848   6.025
 3992SOL    HW212876   4.728   1.893   6.090
 3993SOL     OW12877   1.639   1.784   3.638
 3993SOL    HW112878   1.555   1.784   3.584
 3993SOL    HW212879   1.714   1.820   3.582
 3994SOL     OW12880   1.373   2.596   4.925
 3994SOL    HW112881   1.359   2.535   5.003
 3994SOL    HW212882   1.289   2.647   4.907
 3995SOL     OW12883   2.228   4.127   3.862
 3995SOL    HW112884   2.199   4.031   3.867
 3995SOL    HW212885   2.201   4.165   3.773
 3996SOL     OW12886   1.489   0.718   4.872
 3996SOL    HW112887   1.422   0.675   4.933
 3996SOL    HW212888   1.466   0.814   4.859
 3997SOL     OW12889   4.849   3.761   3.786
 3997SOL    HW112890   4.835   3.860   3.791
 3997SOL    HW212891   4.887   3.729   3.873
 3998SOL     OW12892   5.377   1.634   2.292
 3998SOL    HW112893   5.443   1.559   2.279
 3998SOL    HW212894   5.362   1.680   2.205
 3999SOL     OW12895   5.784   3.947   2.981
 3999SOL    HW112896   5.775   3.909   2.889
 3999SOL    HW212897   5.738   3.887   3.047
 4000SOL     OW12898   3.257   5.798   2.741
 4000SOL    HW112899   3.206   5.832   2.662
 4000SOL    HW212900   3.354   5.820   2.730
 4001SOL     OW12901   2.325   2.771   4.607
 4001SOL    HW112902   2.306   2.832   4.684
 4001SOL    HW212903   2.264   2.692   4.612
 4002SOL     OW12904   3.415   3.756   6.176
 4002SOL    HW112905   3.327   3.786   6.212
 4002SOL    HW212906   3.460   3.695   6.242
 4003SOL     OW12907   2.265   0.439   6.010
 4003SOL    HW112908   2.171   0.407   6.022
 4003SOL    HW212909   2.317   0.425   6.095
 4004SOL     OW12910   6.109   3.098   4.093
 4004SOL    HW112911   6.042   3.111   4.019
 4004SOL    HW212912   6.108   3.002   4.122
 4005SOL     OW12913   5.164   4.866   1.232
 4005SOL    HW112914   5.178   4.767   1.243
 4005SOL    HW212915   5.229   4.914   1.291
 4006SOL     OW12916   4.474   4.904   2.336
 4006SOL    HW112917   4.374   4.911   2.345
 4006SOL    HW212918   4.512   4.994   2.315
 4007SOL     OW12919   0.691   2.722   2.139
 4007SOL    HW112920   0.776   2.764   2.107
 4007SOL    HW212921   0.628   2.712   2.062
 4008SOL     OW12922   3.934   1.461   5.798
 4008SOL    HW112923   4.002   1.414   5.742
 4008SOL    HW212924   3.976   1.541   5.841
 4009SOL     OW12925   4.417   2.546   0.525
 4009SOL    HW112926   4.465   2.512   0.444
 4009SOL    HW212927   4.481   2.553   0.601
 4010SOL     OW12928   2.277   3.349   1.461
 4010SOL    HW112929   2.328   3.429   1.430
 4010SOL    HW212930   2.266   3.284   1.385
 4011SOL     OW12931   1.036   6.763   2.267
 4011SOL    HW112932   0.960   6.788   2.207
 4011SOL    HW212933   1.003   6.752   2.360
 4012SOL     OW12934   4.736   4.979   1.995
 4012SOL    HW112935   4.691   4.911   2.052
 4012SOL    HW212936   4.816   5.015   2.043
 4013SOL     OW12937   3.214   0.657   0.770
 4013SOL    HW112938   3.179   0.750   0.782
 4013SOL    HW212939   3.140   0.592   0.783
 4014SOL     OW12940   3.829   5.531   4.173
 4014SOL    HW112941   3.743   5.530   4.224
 4014SOL    HW212942   3.838   5.618   4.124
 4015SOL     OW12943   3.950   4.669   6.587
 4015SOL    HW112944   4.034   4.616   6.599
 4015SOL    HW212945   3.972   4.760   6.554
 4016SOL     OW12946   1.491   5.007   6.694
 4016SOL    HW112947   1.445   4.963   6.772
 4016SOL    HW212948   1.460   5.101   6.686
 4017SOL     OW12949   0.656   6.152   6.985
 4017SOL    HW112950   0.623   6.154   6.890
 4017SOL    HW212951   0.737   6.209   6.993
 4018SOL     OW12952   5.613   6.405   1.476
 4018SOL    HW112953   5.690   6.355   1.517
 4018SOL    HW212954   5.648   6.462   1.401
 4019SOL     OW12955   6.306   4.010   2.549
 4019SOL    HW112956   6.338   4.082   2.488
 4019SOL    HW212957   6.352   4.017   2.637
 4020SOL     OW12958   6.995   2.537   5.516
 4020SOL    HW112959   6.903   2.547   5.553
 4020SOL    HW212960   7.014   2.612   5.453
 4021SOL     OW12961   3.082   3.848   5.086
 4021SOL    HW112962   3.099   3.947   5.083
 4021SOL    HW212963   3.050   3.817   4.997
 4022SOL     OW12964   4.691   6.676   6.633
 4022SOL    HW112965   4.646   6.587   6.622
 4022SOL    HW212966   4.788   6.662   6.655
 4023SOL     OW12967   6.964   0.917   3.802
 4023SOL    HW112968   6.912   0.911   3.717
 4023SOL    HW212969   6.926   0.855   3.869
 4024SOL     OW12970   2.423   5.349   4.469
 4024SOL    HW112971   2.345   5.314   4.521
 4024SOL    HW212972   2.454   5.279   4.405
 4025SOL     OW12973   0.417   6.465   4.322
 4025SOL    HW112974   0.436   6.369   4.301
 4025SOL    HW212975   0.502   6.512   4.344
 4026SOL     OW12976   6.463   0.189   3.120
 4026SOL    HW112977   6.435   0.136   3.040
 4026SOL    HW212978   6.482   0.283   3.092
 4027SOL     OW12979   3.116   2.509   0.910
 4027SOL    HW112980   3.063   2.593   0.899
 4027SOL    HW212981   3.209   2.523   0.878
 4028SOL     OW12982   2.359   2.181   2.974
 4028SOL    HW112983   2.313   2.193   2.886
 4028SOL    HW212984   2.408   2.094   2.974
 4029SOL     OW12985   3.373   5.182   5.823
 4029SOL    HW112986   3.377   5.224   5.733
 4029SOL    HW212987   3.312   5.103   5.821
 4030SOL     OW12988   1.336   1.782   1.437
 4030SOL    HW112989   1.416   1.775   1.377
 4030SOL    HW212990   1.270   1.710   1.413
 4031SOL     OW12991   4.937   6.262   3.474
 4031SOL    HW112992   4.942   6.298   3.567
 4031SOL    HW212993   4.978   6.170   3.471
 4032SOL     OW12994   6.066   0.364   2.660
 4032SOL    HW112995   6.027   0.289   2.714
 4032SOL    HW212996   6.091   0.331   2.569
 4033SOL     OW12997   2.422   3.559   1.364
 4033SOL    HW112998   2.510   3.511   1.363
 4033SOL    HW212999   2.434   3.652   1.329
 4034SOL     OW13000   6.640   1.371   4.280
 4034SOL    HW113001   6.628   1.468   4.300
 4034SOL    HW213002   6.642   1.320   4.365
 4035SOL     OW13003   6.256   2.770   0.401
 4035SOL    HW113004   6.278   2.760   0.305
 4035SOL    HW213005   6.243   2.680   0.443
 4036SOL     OW13006   4.551   5.570   2.428
 4036SOL    HW113007   4.511   5.610   2.510
 4036SOL    HW213008   4.642   5.535   2.449
 4037SOL     OW13009   2.396   1.716   0.338
 4037SOL    HW113010   2.469   1.737   0.403
 4037SOL    HW213011   2.419   1.631   0.289
 4038SOL     OW13012   4.599   3.500   1.596
 4038SOL    HW113013   4.584   3.599   1.598
 4038SOL    HW213014   4.688   3.480   1.636
 4039SOL     OW13015   4.748   4.142   1.795
 4039SOL    HW113016   4.766   4.205   1.720
 4039SOL    HW213017   4.651   4.145   1.819
 4040SOL     OW13018   3.372   6.817   6.208
 4040SOL    HW113019   3.430   6.889   6.169
 4040SOL    HW213020   3.418   6.776   6.287
 4041SOL     OW13021   1.511   4.795   1.507
 4041SOL    HW113022   1.609   4.819   1.506
 4041SOL    HW213023   1.475   4.799   1.414
 4042SOL     OW13024   6.271   5.616   3.184
 4042SOL    HW113025   6.194   5.649   3.130
 4042SOL    HW213026   6.277   5.516   3.176
 4043SOL     OW13027   5.391   1.388   4.277
 4043SOL    HW113028   5.484   1.374   4.310
 4043SOL    HW213029   5.389   1.464   4.212
 4044SOL     OW13030   4.739   0.312   3.044
 4044SOL    HW113031   4.648   0.322   3.004
 4044SOL    HW213032   4.750   0.220   3.081
 4045SOL     OW13033   2.619   5.584   5.306
 4045SOL    HW113034   2.521   5.586   5.287
 4045SOL    HW213035   2.670   5.590   5.220
 4046SOL     OW13036   1.208   1.723   3.962
 4046SOL    HW113037   1.175   1.789   3.894
 4046SOL    HW213038   1.135   1.705   4.028
 4047SOL     OW13039   1.593   1.879   0.773
 4047SOL    HW113040   1.655   1.836   0.839
 4047SOL    HW213041   1.501   1.839   0.783
 4048SOL     OW13042   5.002   2.109   2.137
 4048SOL    HW113043   4.926   2.103   2.202
 4048SOL    HW213044   4.972   2.161   2.057
 4049SOL     OW13045   6.181   5.210   6.072
 4049SOL    HW113046   6.239   5.137   6.037
 4049SOL    HW213047   6.129   5.250   5.997
 4050SOL     OW13048   1.536   6.890   1.239
 4050SOL    HW113049   1.628   6.930   1.241
 4050SOL    HW213050   1.522   6.835   1.322
 4051SOL     OW13051   3.883   2.196   6.589
 4051SOL    HW113052   3.922   2.132   6.524
 4051SOL    HW213053   3.934   2.282   6.586
 4052SOL     OW13054   6.904   1.056   2.667
 4052SOL    HW113055   6.868   1.052   2.761
 4052SOL    HW213056   6.829   1.079   2.605
 4053SOL     OW13057   3.375   4.908   4.111
 4053SOL    HW113058   3.283   4.869   4.119
 4053SOL    HW213059   3.404   4.905   4.016
 4054SOL     OW13060   6.509   3.736   1.748
 4054SOL    HW113061   6.607   3.730   1.764
 4054SOL    HW213062   6.481   3.666   1.682
 4055SOL     OW13063   3.268   3.159   6.435
 4055SOL    HW113064   3.315   3.141   6.348
 4055SOL    HW213065   3.171   3.177   6.417
 4056SOL     OW13066   3.335   4.016   1.098
 4056SOL    HW113067   3.287   3.934   1.127
 4056SOL    HW213068   3.297   4.049   1.011
 4057SOL     OW13069   5.870   2.518   1.842
 4057SOL    HW113070   5.813   2.476   1.912
 4057SOL    HW213071   5.879   2.616   1.859
 4058SOL     OW13072   2.065   0.437   3.874
 4058SOL    HW113073   2.057   0.485   3.787
 4058SOL    HW213074   1.983   0.452   3.928
 4059SOL     OW13075   1.258   2.466   3.800
 4059SOL    HW113076   1.316   2.546   3.817
 4059SOL    HW213077   1.308   2.399   3.745
 4060SOL     OW13078   5.012   5.751   4.513
 4060SOL    HW113079   4.995   5.699   4.429
 4060SOL    HW213080   5.099   5.722   4.553
 4061SOL     OW13081   2.974   4.946   1.776
 4061SOL    HW113082   2.938   4.853   1.763
 4061SOL    HW213083   3.068   4.940   1.810
 4062SOL     OW13084   2.264   2.340   2.179
 4062SOL    HW113085   2.239   2.279   2.254
 4062SOL    HW213086   2.317   2.417   2.214
 4063SOL     OW13087   6.418   6.132   5.354
 4063SOL    HW113088   6.508   6.102   5.386
 4063SOL    HW213089   6.405   6.102   5.260
 4064SOL     OW13090   1.840   6.590   3.866
 4064SOL    HW113091   1.756   6.638   3.888
 4064SOL    HW213092   1.850   6.510   3.925
 4065SOL     OW13093   0.429   0.237   0.949
 4065SOL    HW113094   0.334   0.235   0.979
 4065SOL    HW213095   0.436   0.193   0.859
 4066SOL     OW13096   5.286   6.065   3.117
 4066SOL    HW113097   5.210   6.001   3.132
 4066SOL    HW213098   5.254   6.159   3.132
 4067SOL     OW13099   6.620   2.969   2.742
 4067SOL    HW113100   6.637   2.919   2.827
 4067SOL    HW213101   6.633   2.908   2.664
 4068SOL     OW13102   3.418   0.776   4.858
 4068SOL    HW113103   3.505   0.726   4.868
 4068SOL    HW213104   3.434   0.874   4.872
 4069SOL     OW13105   3.601   5.046   5.925
 4069SOL    HW113106   3.523   5.108   5.918
 4069SOL    HW213107   3.684   5.092   5.895
 4070SOL     OW13108   0.668   3.201   2.284
 4070SOL    HW113109   0.609   3.266   2.236
 4070SOL    HW213110   0.702   3.133   2.219
 4071SOL     OW13111   1.454   0.661   5.343
 4071SOL    HW113112   1.399   0.693   5.420
 4071SOL    HW213113   1.437   0.719   5.263
 4072SOL     OW13114   0.446   5.897   4.345
 4072SOL    HW113115   0.357   5.866   4.312
 4072SOL    HW213116   0.449   5.890   4.445
 4073SOL     OW13117   2.255   6.004   6.345
 4073SOL    HW113118   2.186   5.969   6.281
 4073SOL    HW213119   2.329   5.938   6.355
 4074SOL     OW13120   6.853   2.777   1.817
 4074SOL    HW113121   6.794   2.858   1.819
 4074SOL    HW213122   6.915   2.779   1.895
 4075SOL     OW13123   4.084   1.857   2.624
 4075SOL    HW113124   4.159   1.894   2.569
 4075SOL    HW213125   4.019   1.809   2.564
 4076SOL     OW13126   2.953   3.225   5.640
 4076SOL    HW113127   2.996   3.215   5.550
 4076SOL    HW213128   3.013   3.276   5.700
 4077SOL     OW13129   3.925   0.665   0.342
 4077SOL    HW113130   3.884   0.752   0.317
 4077SOL    HW213131   3.902   0.643   0.437
 4078SOL     OW13132   6.722   5.662   2.117
 4078SOL    HW113133   6.651   5.720   2.078
 4078SOL    HW213134   6.776   5.622   2.042
 4079SOL     OW13135   1.100   2.112   4.110
 4079SOL    HW113136   1.079   2.074   4.201
 4079SOL    HW213137   1.197   2.100   4.091
 4080SOL     OW13138   2.855   3.625   6.516
 4080SOL    HW113139   2.855   3.637   6.616
 4080SOL    HW213140   2.860   3.714   6.472
 4081SOL     OW13141   2.221   2.022   4.179
 4081SOL    HW113142   2.312   2.064   4.177
 4081SOL    HW213143   2.212   1.959   4.102
 4082SOL     OW13144   1.518   2.881   0.213
 4082SOL    HW113145   1.476   2.852   0.300
 4082SOL    HW213146   1.461   2.848   0.137
 4083SOL     OW13147   6.692   4.458   2.001
 4083SOL    HW113148   6.709   4.367   1.965
 4083SOL    HW213149   6.619   4.502   1.950
 4084SOL     OW13150   4.309   2.206   3.098
 4084SOL    HW113151   4.220   2.230   3.135
 4084SOL    HW213152   4.310   2.109   3.074
 4085SOL     OW13153   2.543   5.938   0.787
 4085SOL    HW113154   2.538   5.878   0.867
 4085SOL    HW213155   2.630   5.922   0.740
 4086SOL     OW13156   0.660   5.228   1.343
 4086SOL    HW113157   0.592   5.184   1.284
 4086SOL    HW213158   0.739   5.255   1.288
 4087SOL     OW13159   1.673   1.672   3.234
 4087SOL    HW113160   1.667   1.603   3.162
 4087SOL    HW213161   1.756   1.727   3.222
 4088SOL     OW13162   6.336   0.794   6.946
 4088SOL    HW113163   6.350   0.845   6.861
 4088SOL    HW213164   6.393   0.835   0.001
 4089SOL     OW13165   5.673   4.676   3.865
 4089SOL    HW113166   5.667   4.622   3.949
 4089SOL    HW213167   5.711   4.767   3.886
 4090SOL     OW13168   1.102   5.024   4.906
 4090SOL    HW113169   1.144   4.944   4.950
 4090SOL    HW213170   1.157   5.105   4.925
 4091SOL     OW13171   0.860   6.321   6.976
 4091SOL    HW113172   0.846   6.416   6.949
 4091SOL    HW213173   0.943   6.286   6.933
 4092SOL     OW13174   5.625   2.992   4.229
 4092SOL    HW113175   5.684   2.977   4.150
 4092SOL    HW213176   5.529   2.994   4.200
 4093SOL     OW13177   4.862   5.970   2.095
 4093SOL    HW113178   4.853   6.059   2.140
 4093SOL    HW213179   4.954   5.934   2.110
 4094SOL     OW13180   1.791   5.235   5.780
 4094SOL    HW113181   1.866   5.299   5.765
 4094SOL    HW213182   1.795   5.200   5.873
 4095SOL     OW13183   0.650   4.399   0.831
 4095SOL    HW113184   0.733   4.451   0.850
 4095SOL    HW213185   0.612   4.427   0.743
 4096SOL     OW13186   4.968   0.737   6.331
 4096SOL    HW113187   4.944   0.647   6.367
 4096SOL    HW213188   5.015   0.727   6.244
 4097SOL     OW13189   3.921   4.935   4.620
 4097SOL    HW113190   4.015   4.903   4.606
 4097SOL    HW213191   3.910   4.966   4.715
 4098SOL     OW13192   0.715   2.111   1.925
 4098SOL    HW113193   0.777   2.165   1.981
 4098SOL    HW213194   0.760   2.026   1.898
 4099SOL     OW13195   3.746   5.210   1.522
 4099SOL    HW113196   3.705   5.123   1.497
 4099SOL    HW213197   3.677   5.282   1.520
 4100SOL     OW13198   6.810   6.445   4.345
 4100SOL    HW113199   6.896   6.394   4.337
 4100SOL    HW213200   6.827   6.534   4.388
 4101SOL     OW13201   6.810   0.995   0.140
 4101SOL    HW113202   6.793   1.079   0.193
 4101SOL    HW213203   6.834   1.019   0.046
 4102SOL     OW13204   0.552   1.125   0.695
 4102SOL    HW113205   0.644   1.098   0.665
 4102SOL    HW213206   0.529   1.213   0.654
 4103SOL     OW13207   0.390   6.775   0.371
 4103SOL    HW113208   0.396   6.749   0.275
 4103SOL    HW213209   0.478   6.758   0.416
 4104SOL     OW13210   6.829   5.237   2.999
 4104SOL    HW113211   6.860   5.325   3.037
 4104SOL    HW213212   6.848   5.235   2.901
 4105SOL     OW13213   5.446   0.008   2.103
 4105SOL    HW113214   5.370   0.070   2.126
 4105SOL    HW213215   5.525   0.029   2.160
 4106SOL     OW13216   6.975   3.239   2.746
 4106SOL    HW113217   6.957   3.302   2.821
 4106SOL    HW213218   6.903   3.248   2.677
 4107SOL     OW13219   1.390   5.077   1.095
 4107SOL    HW113220   1.490   5.078   1.098
 4107SOL    HW213221   1.360   5.070   1.000
 4108SOL     OW13222   6.612   5.530   4.768
 4108SOL    HW113223   6.530   5.512   4.714
 4108SOL    HW213224   6.602   5.490   4.859
 4109SOL     OW13225   6.430   6.781   4.467
 4109SOL    HW113226   6.494   6.807   4.540
 4109SOL    HW213227   6.430   6.682   4.457
 4110SOL     OW13228   4.280   4.050   5.514
 4110SOL    HW113229   4.190   4.072   5.552
 4110SOL    HW213230   4.305   4.121   5.448
 4111SOL     OW13231   5.383   4.122   6.654
 4111SOL    HW113232   5.328   4.102   6.573
 4111SOL    HW213233   5.423   4.213   6.646
 4112SOL     OW13234   4.978   6.257   5.160
 4112SOL    HW113235   4.945   6.277   5.253
 4112SOL    HW213236   4.993   6.343   5.112
 4113SOL     OW13237   5.295   5.713   5.094
 4113SOL    HW113238   5.329   5.805   5.074
 4113SOL    HW213239   5.195   5.713   5.085
 4114SOL     OW13240   4.482   2.445   4.082
 4114SOL    HW113241   4.382   2.441   4.086
 4114SOL    HW213242   4.517   2.468   4.173
 4115SOL     OW13243   2.971   5.180   2.069
 4115SOL    HW113244   2.877   5.164   2.099
 4115SOL    HW213245   3.033   5.129   2.129
 4116SOL     OW13246   3.647   1.798   2.549
 4116SOL    HW113247   3.688   1.736   2.616
 4116SOL    HW213248   3.573   1.752   2.501
 4117SOL     OW13249   1.236   3.666   2.676
 4117SOL    HW113250   1.281   3.619   2.752
 4117SOL    HW213251   1.137   3.650   2.680
 4118SOL     OW13252   4.972   6.139   0.697
 4118SOL    HW113253   4.905   6.101   0.760
 4118SOL    HW213254   5.064   6.119   0.730
 4119SOL     OW13255   3.449   1.523   4.104
 4119SOL    HW113256   3.469   1.460   4.180
 4119SOL    HW213257   3.481   1.615   4.128
 4120SOL     OW13258   4.416   0.440   6.268
 4120SOL    HW113259   4.390   0.363   6.210
 4120SOL    HW213260   4.477   0.408   6.341
 4121SOL     OW13261   6.476   0.168   3.599
 4121SOL    HW113262   6.480   0.256   3.645
 4121SOL    HW213263   6.507   0.096   3.662
 4122SOL     OW13264   1.122   6.083   4.392
 4122SOL    HW113265   1.136   6.180   4.408
 4122SOL    HW213266   1.077   6.041   4.471
 4123SOL     OW13267   4.219   4.687   5.419
 4123SOL    HW113268   4.219   4.762   5.485
 4123SOL    HW213269   4.137   4.631   5.431
 4124SOL     OW13270   6.559   6.591   0.666
 4124SOL    HW113271   6.582   6.611   0.571
 4124SOL    HW213272   6.641   6.567   0.717
 4125SOL     OW13273   4.660   1.768   2.422
 4125SOL    HW113274   4.594   1.839   2.400
 4125SOL    HW213275   4.619   1.703   2.486
 4126SOL     OW13276   1.906   3.624   3.712
 4126SOL    HW113277   1.874   3.538   3.673
 4126SOL    HW213278   1.829   3.688   3.718
 4127SOL     OW13279   5.799   4.048   5.415
 4127SOL    HW113280   5.820   3.951   5.410
 4127SOL    HW213281   5.883   4.101   5.400
 4128SOL     OW13282   0.918   2.994   0.880
 4128SOL    HW113283   0.981   3.026   0.810
 4128SOL    HW213284   0.961   3.005   0.970
 4129SOL     OW13285   3.973   1.040   0.014
 4129SOL    HW113286   4.018   0.992   6.956
 4129SOL    HW213287   3.916   1.113   6.993
 4130SOL     OW13288   6.426   2.799   0.699
 4130SOL    HW113289   6.358   2.825   0.631
 4130SOL    HW213290   6.473   2.881   0.732
 4131SOL     OW13291   0.209   1.559   3.888
 4131SOL    HW113292   0.202   1.470   3.842
 4131SOL    HW213293   0.129   1.572   3.947
 4132SOL     OW13294   4.759   4.043   3.485
 4132SOL    HW113295   4.680   4.072   3.431
 4132SOL    HW213296   4.784   3.949   3.461
 4133SOL     OW13297   3.112   6.146   1.496
 4133SOL    HW113298   3.095   6.071   1.433
 4133SOL    HW213299   3.062   6.228   1.466
 4134SOL     OW13300   2.583   3.959   1.401
 4134SOL    HW113301   2.515   3.911   1.345
 4134SOL    HW213302   2.576   3.927   1.496
 4135SOL     OW13303   0.506   1.964   2.241
 4135SOL    HW113304   0.558   2.036   2.287
 4135SOL    HW213305   0.539   1.875   2.272
 4136SOL     OW13306   1.554   3.024   3.159
 4136SOL    HW113307   1.596   3.104   3.202
 4136SOL    HW213308   1.456   3.041   3.147
 4137SOL     OW13309   1.122   3.400   1.686
 4137SOL    HW113310   1.045   3.448   1.728
 4137SOL    HW213311   1.099   3.303   1.675
 4138SOL     OW13312   4.312   5.941   2.829
 4138SOL    HW113313   4.300   5.843   2.810
 4138SOL    HW213314   4.317   5.955   2.928
 4139SOL     OW13315   2.069   1.891   5.709
 4139SOL    HW113316   2.010   1.897   5.790
 4139SOL    HW213317   2.159   1.858   5.736
 4140SOL     OW13318   3.253   0.546   5.591
 4140SOL    HW113319   3.211   0.632   5.620
 4140SOL    HW213320   3.331   0.565   5.531
 4141SOL     OW13321   5.096   6.860   1.062
 4141SOL    HW113322   5.127   6.907   1.145
 4141SOL    HW213323   5.018   6.909   1.024
 4142SOL     OW13324   6.881   4.834   0.892
 4142SOL    HW113325   6.919   4.809   0.803
 4142SOL    HW213326   6.782   4.820   0.890
 4143SOL     OW13327   5.281   1.681   0.954
 4143SOL    HW113328   5.291   1.582   0.940
 4143SOL    HW213329   5.291   1.703   1.050
 4144SOL     OW13330   5.459   1.698   0.237
 4144SOL    HW113331   5.499   1.629   0.177
 4144SOL    HW213332   5.483   1.678   0.332
 4145SOL     OW13333   0.314   6.417   1.916
 4145SOL    HW113334   0.372   6.494   1.889
 4145SOL    HW213335   0.230   6.418   1.861
 4146SOL     OW13336   6.594   0.653   2.777
 4146SOL    HW113337   6.669   0.691   2.723
 4146SOL    HW213338   6.536   0.727   2.810
 4147SOL     OW13339   5.041   4.761   6.230
 4147SOL    HW113340   5.030   4.664   6.253
 4147SOL    HW213341   4.952   4.801   6.211
 4148SOL     OW13342   1.823   0.408   5.029
 4148SOL    HW113343   1.783   0.464   4.956
 4148SOL    HW213344   1.879   0.466   5.088
 4149SOL     OW13345   0.091   4.078   1.020
 4149SOL    HW113346   0.185   4.059   1.048
 4149SOL    HW213347   0.091   4.128   0.933
 4150SOL     OW13348   0.852   6.731   6.150
 4150SOL    HW113349   0.913   6.809   6.162
 4150SOL    HW213350   0.906   6.647   6.139
 4151SOL     OW13351   3.242   6.651   5.869
 4151SOL    HW113352   3.156   6.661   5.919
 4151SOL    HW213353   3.226   6.599   5.785
 4152SOL     OW13354   4.577   5.902   1.050
 4152SOL    HW113355   4.576   5.855   0.962
 4152SOL    HW213356   4.525   5.849   1.117
 4153SOL     OW13357   5.268   5.215   0.461
 4153SOL    HW113358   5.255   5.129   0.412
 4153SOL    HW213359   5.279   5.290   0.395
 4154SOL     OW13360   6.932   5.062   3.198
 4154SOL    HW113361   6.896   5.095   3.111
 4154SOL    HW213362   0.006   5.022   3.184
 4155SOL     OW13363   6.960   1.477   2.522
 4155SOL    HW113364   6.920   1.543   2.586
 4155SOL    HW213365   6.889   1.440   2.463
 4156SOL     OW13366   6.111   5.805   4.666
 4156SOL    HW113367   6.079   5.836   4.577
 4156SOL    HW213368   6.162   5.878   4.711
 4157SOL     OW13369   4.699   5.459   3.930
 4157SOL    HW113370   4.669   5.386   3.992
 4157SOL    HW213371   4.624   5.524   3.916
 4158SOL     OW13372   6.858   3.399   1.249
 4158SOL    HW113373   6.907   3.487   1.251
 4158SOL    HW213374   6.900   3.336   1.315
 4159SOL     OW13375   2.133   3.297   3.170
 4159SOL    HW113376   2.136   3.198   3.156
 4159SOL    HW213377   2.151   3.318   3.266
 4160SOL     OW13378   5.820   0.828   0.420
 4160SOL    HW113379   5.812   0.809   0.322
 4160SOL    HW213380   5.821   0.742   0.471
 4161SOL     OW13381   1.011   1.868   0.956
 4161SOL    HW113382   1.023   1.953   1.007
 4161SOL    HW213383   0.996   1.889   0.859
 4162SOL     OW13384   6.774   5.669   0.008
 4162SOL    HW113385   6.689   5.713   0.036
 4162SOL    HW213386   6.773   5.654   6.926
 4163SOL     OW13387   4.490   0.320   2.960
 4163SOL    HW113388   4.417   0.306   3.027
 4163SOL    HW213389   4.472   0.265   2.878
 4164SOL     OW13390   1.727   6.660   5.607
 4164SOL    HW113391   1.801   6.622   5.664
 4164SOL    HW213392   1.675   6.727   5.661
 4165SOL     OW13393   4.421   0.313   6.002
 4165SOL    HW113394   4.374   0.285   5.919
 4165SOL    HW213395   4.511   0.268   6.006
 4166SOL     OW13396   5.227   2.501   0.539
 4166SOL    HW113397   5.174   2.561   0.599
 4166SOL    HW213398   5.260   2.422   0.591
 4167SOL     OW13399   1.638   4.069   0.859
 4167SOL    HW113400   1.634   3.969   0.868
 4167SOL    HW213401   1.732   4.100   0.873
 4168SOL     OW13402   6.947   4.491   1.225
 4168SOL    HW113403   6.940   4.480   1.324
 4168SOL    HW213404   6.932   4.403   1.180
 4169SOL     OW13405   6.024   4.591   4.709
 4169SOL    HW113406   6.005   4.493   4.708
 4169SOL    HW213407   6.116   4.606   4.745
 4170SOL     OW13408   4.420   3.908   5.718
 4170SOL    HW113409   4.433   3.811   5.699
 4170SOL    HW213410   4.358   3.947   5.650
 4171SOL     OW13411   6.100   6.060   1.053
 4171SOL    HW113412   6.194   6.035   1.077
 4171SOL    HW213413   6.079   6.029   0.960
 4172SOL     OW13414   1.399   1.409   5.884
 4172SOL    HW113415   1.479   1.409   5.824
 4172SOL    HW213416   1.394   1.495   5.934
 4173SOL     OW13417   5.386   4.340   5.016
 4173SOL    HW113418   5.302   4.365   5.063
 4173SOL    HW213419   5.457   4.320   5.083
 4174SOL     OW13420   4.881   1.461   3.072
 4174SOL    HW113421   4.872   1.467   3.171
 4174SOL    HW213422   4.797   1.494   3.029
 4175SOL     OW13423   2.297   5.497   4.750
 4175SOL    HW113424   2.356   5.488   4.830
 4175SOL    HW213425   2.348   5.472   4.668
 4176SOL     OW13426   2.875   5.921   1.805
 4176SOL    HW113427   2.828   5.836   1.778
 4176SOL    HW213428   2.807   5.987   1.837
 4177SOL     OW13429   6.168   4.876   5.155
 4177SOL    HW113430   6.157   4.924   5.068
 4177SOL    HW213431   6.083   4.881   5.208
 4178SOL     OW13432   4.910   6.673   4.326
 4178SOL    HW113433   5.004   6.640   4.328
 4178SOL    HW213434   4.903   6.747   4.258
 4179SOL     OW13435   5.267   3.335   3.242
 4179SOL    HW113436   5.224   3.422   3.267
 4179SOL    HW213437   5.354   3.353   3.195
 4180SOL     OW13438   5.236   4.593   1.286
 4180SOL    HW113439   5.333   4.568   1.295
 4180SOL    HW213440   5.190   4.580   1.374
 4181SOL     OW13441   2.906   1.404   0.397
 4181SOL    HW113442   2.880   1.335   0.329
 4181SOL    HW213443   2.926   1.359   0.484
 4182SOL     OW13444   0.888   6.688   3.610
 4182SOL    HW113445   0.837   6.659   3.529
 4182SOL    HW213446   0.985   6.672   3.595
 4183SOL     OW13447   3.076   1.503   7.009
 4183SOL    HW113448   3.159   1.510   6.954
 4183SOL    HW213449   3.066   1.409   0.025
 4184SOL     OW13450   4.755   5.870   1.562
 4184SOL    HW113451   4.834   5.840   1.510
 4184SOL    HW213452   4.778   5.952   1.614
 4185SOL     OW13453   0.459   5.043   2.287
 4185SOL    HW113454   0.428   4.976   2.354
 4185SOL    HW213455   0.548   5.081   2.316
 4186SOL     OW13456   2.352   5.104   0.162
 4186SOL    HW113457   2.277   5.114   0.228
 4186SOL    HW213458   2.320   5.128   0.071
 4187SOL     OW13459   3.311   3.035   5.653
 4187SOL    HW113460   3.246   2.962   5.673
 4187SOL    HW213461   3.405   3.000   5.664
 4188SOL     OW13462   4.739   6.879   5.193
 4188SOL    HW113463   4.759   6.873   5.290
 4188SOL    HW213464   4.664   6.942   5.178
 4189SOL     OW13465   2.775   4.873   5.283
 4189SOL    HW113466   2.716   4.795   5.264
 4189SOL    HW213467   2.814   4.906   5.197
 4190SOL     OW13468   1.035   0.689   0.572
 4190SOL    HW113469   0.987   0.738   0.499
 4190SOL    HW213470   0.978   0.689   0.654
 4191SOL     OW13471   4.601   4.331   3.183
 4191SOL    HW113472   4.618   4.400   3.114
 4191SOL    HW213473   4.662   4.253   3.169
 4192SOL     OW13474   0.952   0.584   4.010
 4192SOL    HW113475   0.942   0.522   4.088
 4192SOL    HW213476   0.894   0.552   3.935
 4193SOL     OW13477   0.778   1.336   1.969
 4193SOL    HW113478   0.813   1.408   1.910
 4193SOL    HW213479   0.797   1.247   1.929
 4194SOL     OW13480   5.553   0.796   4.496
 4194SOL    HW113481   5.490   0.721   4.518
 4194SOL    HW213482   5.627   0.798   4.564
 4195SOL     OW13483   3.754   6.670   2.058
 4195SOL    HW113484   3.796   6.596   2.005
 4195SOL    HW213485   3.783   6.664   2.153
 4196SOL     OW13486   5.376   2.119   3.492
 4196SOL    HW113487   5.415   2.076   3.573
 4196SOL    HW213488   5.447   2.126   3.421
 4197SOL     OW13489   5.173   5.545   6.232
 4197SOL    HW113490   5.233   5.574   6.157
 4197SOL    HW213491   5.176   5.446   6.242
 4198SOL     OW13492   5.718   2.169   0.043
 4198SOL    HW113493   5.744   2.204   0.133
 4198SOL    HW213494   5.627   2.203   0.018
 4199SOL     OW13495   2.141   2.798   5.626
 4199SOL    HW113496   2.202   2.770   5.700
 4199SOL    HW213497   2.168   2.889   5.593
 4200SOL     OW13498   3.827   6.388   6.279
 4200SOL    HW113499   3.827   6.468   6.339
 4200SOL    HW213500   3.768   6.407   6.200
 4201SOL     OW13501   5.822   6.344   3.489
 4201SOL    HW113502   5.827   6.266   3.426
 4201SOL    HW213503   5.914   6.364   3.524
 4202SOL     OW13504   4.258   5.546   6.031
 4202SOL    HW113505   4.196   5.493   5.973
 4202SOL    HW213506   4.311   5.609   5.974
 4203SOL     OW13507   4.587   5.273   0.244
 4203SOL    HW113508   4.507   5.302   0.192
 4203SOL    HW213509   4.577   5.177   0.270
 4204SOL     OW13510   4.002   3.845   2.818
 4204SOL    HW113511   3.919   3.819   2.867
 4204SOL    HW213512   4.054   3.911   2.874
 4205SOL     OW13513   3.682   5.907   3.772
 4205SOL    HW113514   3.729   5.820   3.789
 4205SOL    HW213515   3.605   5.892   3.711
 4206SOL     OW13516   6.960   0.101   5.994
 4206SOL    HW113517   6.863   0.116   5.976
 4206SOL    HW213518   6.973   0.010   6.032
 4207SOL     OW13519   1.612   1.949   0.520
 4207SOL    HW113520   1.695   2.004   0.516
 4207SOL    HW213521   1.595   1.922   0.615
 4208SOL     OW13522   0.483   3.112   6.041
 4208SOL    HW113523   0.464   3.159   5.955
 4208SOL    HW213524   0.576   3.077   6.040
 4209SOL     OW13525   0.584   0.561   4.844
 4209SOL    HW113526   0.517   0.540   4.773
 4209SOL    HW213527   0.578   0.493   4.917
 4210SOL     OW13528   2.922   3.401   2.295
 4210SOL    HW113529   2.848   3.392   2.228
 4210SOL    HW213530   2.952   3.496   2.300
 4211SOL     OW13531   4.344   5.760   5.861
 4211SOL    HW113532   4.401   5.798   5.934
 4211SOL    HW213533   4.291   5.834   5.819
 4212SOL     OW13534   5.748   1.803   2.940
 4212SOL    HW113535   5.755   1.859   3.022
 4212SOL    HW213536   5.829   1.815   2.883
 4213SOL     OW13537   1.884   1.319   1.709
 4213SOL    HW113538   1.947   1.289   1.637
 4213SOL    HW213539   1.930   1.386   1.768
 4214SOL     OW13540   1.412   4.729   5.147
 4214SOL    HW113541   1.479   4.737   5.073
 4214SOL    HW213542   1.443   4.659   5.212
 4215SOL     OW13543   6.410   6.004   5.108
 4215SOL    HW113544   6.502   5.964   5.108
 4215SOL    HW213545   6.346   5.941   5.065
 4216SOL     OW13546   1.093   1.626   2.900
 4216SOL    HW113547   1.071   1.634   2.803
 4216SOL    HW213548   1.095   1.717   2.942
 4217SOL     OW13549   0.807   0.550   2.168
 4217SOL    HW113550   0.811   0.602   2.253
 4217SOL    HW213551   0.777   0.457   2.187
 4218SOL     OW13552   4.483   0.916   1.842
 4218SOL    HW113553   4.394   0.950   1.811
 4218SOL    HW213554   4.499   0.824   1.806
 4219SOL     OW13555   3.440   5.461   4.039
 4219SOL    HW113556   3.442   5.545   3.985
 4219SOL    HW213557   3.402   5.386   3.984
 4220SOL     OW13558   5.357   2.922   3.592
 4220SOL    HW113559   5.401   2.837   3.619
 4220SOL    HW213560   5.257   2.910   3.592
 4221SOL     OW13561   6.543   5.291   6.513
 4221SOL    HW113562   6.526   5.371   6.570
 4221SOL    HW213563   6.456   5.257   6.477
 4222SOL     OW13564   5.988   1.680   3.236
 4222SOL    HW113565   5.892   1.661   3.257
 4222SOL    HW213566   6.006   1.778   3.248
 4223SOL     OW13567   3.610   3.384   6.240
 4223SOL    HW113568   3.536   3.355   6.180
 4223SOL    HW213569   3.574   3.446   6.310
 4224SOL     OW13570   5.251   3.275   3.723
 4224SOL    HW113571   5.161   3.314   3.744
 4224SOL    HW213572   5.254   3.251   3.626
 4225SOL     OW13573   4.210   0.733   5.947
 4225SOL    HW113574   4.178   0.647   5.988
 4225SOL    HW213575   4.309   0.729   5.935
 4226SOL     OW13576   0.816   0.197   2.624
 4226SOL    HW113577   0.832   0.291   2.653
 4226SOL    HW213578   0.731   0.163   2.664
 4227SOL     OW13579   3.444   4.477   0.688
 4227SOL    HW113580   3.395   4.517   0.766
 4227SOL    HW213581   3.472   4.550   0.625
 4228SOL     OW13582   0.989   3.957   5.213
 4228SOL    HW113583   0.979   3.935   5.116
 4228SOL    HW213584   0.910   3.921   5.263
 4229SOL     OW13585   5.150   5.292   5.847
 4229SOL    HW113586   5.066   5.306   5.794
 4229SOL    HW213587   5.220   5.356   5.816
 4230SOL     OW13588   1.339   6.950   3.075
 4230SOL    HW113589   1.279   7.014   3.028
 4230SOL    HW213590   1.391   6.999   3.145
 4231SOL     OW13591   6.259   6.242   5.017
 4231SOL    HW113592   6.313   6.323   5.038
 4231SOL    HW213593   6.303   6.161   5.057
 4232SOL     OW13594   6.794   4.897   2.477
 4232SOL    HW113595   6.858   4.837   2.430
 4232SOL    HW213596   6.811   4.894   2.575
 4233SOL     OW13597   6.750   0.274   6.464
 4233SOL    HW113598   6.808   0.201   6.500
 4233SOL    HW213599   6.763   0.357   6.517
 4234SOL     OW13600   2.374   6.910   5.567
 4234SOL    HW113601   2.375   6.868   5.477
 4234SOL    HW213602   2.426   6.995   5.564
 4235SOL     OW13603   5.839   3.539   5.810
 4235SOL    HW113604   5.777   3.593   5.866
 4235SOL    HW213605   5.828   3.442   5.831
 4236SOL     OW13606   7.012   3.762   2.612
 4236SOL    HW113607   6.947   3.839   2.607
 4236SOL    HW213608   6.992   3.708   2.694
 4237SOL     OW13609   5.856   5.385   2.804
 4237SOL    HW113610   5.816   5.476   2.790
 4237SOL    HW213611   5.784   5.316   2.802
 4238SOL     OW13612   3.124   5.151   2.854
 4238SOL    HW113613   3.127   5.250   2.838
 4238SOL    HW213614   3.052   5.130   2.919
 4239SOL     OW13615   5.406   1.824   3.257
 4239SOL    HW113616   5.390   1.759   3.183
 4239SOL    HW213617   5.397   1.917   3.224
 4240SOL     OW13618   2.673   0.107   0.409
 4240SOL    HW113619   2.591   0.099   0.465
 4240SOL    HW213620   2.752   0.075   0.461
 4241SOL     OW13621   6.138   0.656   0.256
 4241SOL    HW113622   6.081   0.690   0.182
 4241SOL    HW213623   6.101   0.687   0.344
 4242SOL     OW13624   2.320   0.686   3.166
 4242SOL    HW113625   2.289   0.699   3.071
 4242SOL    HW213626   2.330   0.776   3.209
 4243SOL     OW13627   6.584   3.184   3.114
 4243SOL    HW113628   6.650   3.234   3.171
 4243SOL    HW213629   6.627   3.099   3.081
 4244SOL     OW13630   5.033   4.314   1.754
 4244SOL    HW113631   4.976   4.370   1.814
 4244SOL    HW213632   5.128   4.344   1.762
 4245SOL     OW13633   6.529   0.884   5.878
 4245SOL    HW113634   6.450   0.837   5.917
 4245SOL    HW213635   6.504   0.977   5.852
 4246SOL     OW13636   6.448   3.436   2.528
 4246SOL    HW113637   6.514   3.484   2.471
 4246SOL    HW213638   6.484   3.346   2.553
 4247SOL     OW13639   2.485   4.779   3.571
 4247SOL    HW113640   2.507   4.877   3.579
 4247SOL    HW213641   2.563   4.732   3.529
 4248SOL     OW13642   2.067   1.498   3.763
 4248SOL    HW113643   2.109   1.494   3.673
 4248SOL    HW213644   1.972   1.529   3.753
 4249SOL     OW13645   5.335   1.873   4.288
 4249SOL    HW113646   5.280   1.813   4.229
 4249SOL    HW213647   5.416   1.825   4.319
 4250SOL     OW13648   7.014   5.728   3.806
 4250SOL    HW113649   7.013   5.748   3.708
 4250SOL    HW213650   6.924   5.695   3.834
 4251SOL     OW13651   5.904   3.575   1.286
 4251SOL    HW113652   5.935   3.662   1.250
 4251SOL    HW213653   5.828   3.590   1.350
 4252SOL     OW13654   6.673   6.522   6.377
 4252SOL    HW113655   6.613   6.599   6.401
 4252SOL    HW213656   6.666   6.452   6.448
 4253SOL     OW13657   3.092   6.429   0.571
 4253SOL    HW113658   3.044   6.426   0.659
 4253SOL    HW213659   3.043   6.371   0.505
 4254SOL     OW13660   1.385   3.408   2.481
 4254SOL    HW113661   1.411   3.504   2.481
 4254SOL    HW213662   1.337   3.386   2.396
 4255SOL     OW13663   6.838   4.584   3.885
 4255SOL    HW113664   6.898   4.516   3.926
 4255SOL    HW213665   6.885   4.673   3.883
 4256SOL     OW13666   1.898   6.252   1.110
 4256SOL    HW113667   1.936   6.238   1.201
 4256SOL    HW213668   1.838   6.332   1.111
 4257SOL     OW13669   3.134   0.687   4.269
 4257SOL    HW113670   3.125   0.706   4.367
 4257SOL    HW213671   3.200   0.751   4.229
 4258SOL     OW13672   3.280   5.951   1.268
 4258SOL    HW113673   3.305   5.862   1.307
 4258SOL    HW213674   3.180   5.960   1.268
 4259SOL     OW13675   1.831   0.560   1.070
 4259SOL    HW113676   1.797   0.650   1.041
 4259SOL    HW213677   1.756   0.507   1.108
 4260SOL     OW13678   5.811   0.509   2.301
 4260SOL    HW113679   5.741   0.573   2.269
 4260SOL    HW213680   5.802   0.497   2.400
 4261SOL     OW13681   1.940   0.727   2.411
 4261SOL    HW113682   1.966   0.818   2.443
 4261SOL    HW213683   1.842   0.725   2.391
 4262SOL     OW13684   0.964   3.791   6.531
 4262SOL    HW113685   1.040   3.855   6.543
 4262SOL    HW213686   0.891   3.815   6.595
 4263SOL     OW13687   2.707   0.783   2.935
 4263SOL    HW113688   2.790   0.795   2.881
 4263SOL    HW213689   2.731   0.786   3.032
 4264SOL     OW13690   6.182   1.988   4.326
 4264SOL    HW113691   6.214   1.897   4.299
 4264SOL    HW213692   6.250   2.056   4.299
 4265SOL     OW13693   4.314   0.739   0.490
 4265SOL    HW113694   4.332   0.735   0.588
 4265SOL    HW213695   4.302   0.835   0.462
 4266SOL     OW13696   1.523   6.402   6.773
 4266SOL    HW113697   1.496   6.424   6.680
 4266SOL    HW213698   1.532   6.487   6.826
 4267SOL     OW13699   2.142   3.671   3.591
 4267SOL    HW113700   2.056   3.645   3.634
 4267SOL    HW213701   2.148   3.771   3.587
 4268SOL     OW13702   1.154   5.720   0.005
 4268SOL    HW113703   1.230   5.686   0.061
 4268SOL    HW213704   1.068   5.685   0.040
 4269SOL     OW13705   2.885   0.553   2.154
 4269SOL    HW113706   2.846   0.461   2.147
 4269SOL    HW213707   2.952   0.556   2.228
 4270SOL     OW13708   4.121   3.645   2.978
 4270SOL    HW113709   4.112   3.725   2.919
 4270SOL    HW213710   4.121   3.562   2.922
 4271SOL     OW13711   6.496   1.118   6.938
 4271SOL    HW113712   6.506   1.035   6.992
 4271SOL    HW213713   6.400   1.134   6.917
 4272SOL     OW13714   6.476   2.146   4.511
 4272SOL    HW113715   6.435   2.122   4.423
 4272SOL    HW213716   6.467   2.244   4.527
 4273SOL     OW13717   3.702   6.941   5.309
 4273SOL    HW113718   3.789   6.989   5.303
 4273SOL    HW213719   3.716   6.843   5.293
 4274SOL     OW13720   1.105   0.618   1.659
 4274SOL    HW113721   1.100   0.651   1.565
 4274SOL    HW213722   1.014   0.624   1.701
 4275SOL     OW13723   6.163   2.212   4.647
 4275SOL    HW113724   6.197   2.190   4.738
 4275SOL    HW213725   6.064   2.196   4.643
 4276SOL     OW13726   2.455   5.538   3.890
 4276SOL    HW113727   2.388   5.534   3.964
 4276SOL    HW213728   2.476   5.633   3.868
 4277SOL     OW13729   5.965   4.756   3.261
 4277SOL    HW113730   5.988   4.750   3.163
 4277SOL    HW213731   5.988   4.670   3.306
 4278SOL     OW13732   0.099   6.919   5.072
 4278SOL    HW113733   0.141   6.900   5.160
 4278SOL    HW213734   0.158   6.979   5.018
 4279SOL     OW13735   3.448   1.089   3.518
 4279SOL    HW113736   3.547   1.093   3.529
 4279SOL    HW213737   3.404   1.139   3.592
 4280SOL     OW13738   5.712   0.175   6.132
 4280SOL    HW113739   5.614   0.165   6.112
 4280SOL    HW213740   5.751   0.086   6.155
 4281SOL     OW13741   6.653   4.613   3.149
 4281SOL    HW113742   6.556   4.594   3.134
 4281SOL    HW213743   6.701   4.611   3.061
 4282SOL     OW13744   3.346   4.626   0.388
 4282SOL    HW113745   3.437   4.619   0.348
 4282SOL    HW213746   3.353   4.657   0.482
 4283SOL     OW13747   1.770   0.624   3.464
 4283SOL    HW113748   1.704   0.699   3.472
 4283SOL    HW213749   1.790   0.607   3.368
 4284SOL     OW13750   3.607   3.967   1.115
 4284SOL    HW113751   3.511   3.991   1.125
 4284SOL    HW213752   3.664   4.037   1.158
 4285SOL     OW13753   1.598   0.258   5.825
 4285SOL    HW113754   1.594   0.280   5.922
 4285SOL    HW213755   1.665   0.316   5.780
 4286SOL     OW13756   5.350   6.259   5.594
 4286SOL    HW113757   5.365   6.358   5.597
 4286SOL    HW213758   5.259   6.241   5.556
 4287SOL     OW13759   5.613   0.643   6.012
 4287SOL    HW113760   5.522   0.638   5.970
 4287SOL    HW213761   5.626   0.565   6.073
 4288SOL     OW13762   0.797   5.753   2.912
 4288SOL    HW113763   0.792   5.781   2.816
 4288SOL    HW213764   0.751   5.821   2.969
 4289SOL     OW13765   6.379   3.149   6.170
 4289SOL    HW113766   6.307   3.158   6.239
 4289SOL    HW213767   6.359   3.209   6.093
 4290SOL     OW13768   1.590   6.415   3.783
 4290SOL    HW113769   1.614   6.371   3.697
 4290SOL    HW213770   1.523   6.357   3.831
 4291SOL     OW13771   4.931   3.747   0.270
 4291SOL    HW113772   4.940   3.776   0.175
 4291SOL    HW213773   4.840   3.710   0.286
 4292SOL     OW13774   5.587   3.111   0.273
 4292SOL    HW113775   5.642   3.028   0.278
 4292SOL    HW213776   5.504   3.093   0.220
 4293SOL     OW13777   3.079   3.117   0.093
 4293SOL    HW113778   3.097   3.207   0.054
 4293SOL    HW213779   3.052   3.127   0.189
 4294SOL     OW13780   2.352   1.797   6.293
 4294SOL    HW113781   2.388   1.888   6.310
 4294SOL    HW213782   2.394   1.760   6.210
 4295SOL     OW13783   3.331   6.010   5.074
 4295SOL    HW113784   3.308   5.990   4.979
 4295SOL    HW213785   3.300   5.935   5.132
 4296SOL     OW13786   3.232   6.920   0.431
 4296SOL    HW113787   3.233   6.948   0.527
 4296SOL    HW213788   3.265   6.995   0.374
 4297SOL     OW13789   5.253   0.196   1.055
 4297SOL    HW113790   5.261   0.111   1.107
 4297SOL    HW213791   5.183   0.254   1.096
 4298SOL     OW13792   4.357   5.194   0.515
 4298SOL    HW113793   4.347   5.095   0.508
 4298SOL    HW213794   4.354   5.234   0.423
 4299SOL     OW13795   1.214   2.911   6.461
 4299SOL    HW113796   1.125   2.881   6.495
 4299SOL    HW213797   1.244   2.992   6.512
 4300SOL     OW13798   3.196   6.864   0.011
 4300SOL    HW113799   3.250   6.808   0.074
 4300SOL    HW213800   3.219   6.961   0.025
 4301SOL     OW13801   4.297   0.513   1.580
 4301SOL    HW113802   4.296   0.416   1.602
 4301SOL    HW213803   4.204   0.545   1.565
 4302SOL     OW13804   0.702   0.106   6.205
 4302SOL    HW113805   0.753   0.149   6.131
 4302SOL    HW213806   0.674   0.014   6.178
 4303SOL     OW13807   0.073   5.178   3.925
 4303SOL    HW113808   0.126   5.223   3.997
 4303SOL    HW213809   0.070   5.237   3.844
 4304SOL     OW13810   3.140   3.037   2.794
 4304SOL    HW113811   3.215   3.092   2.758
 4304SOL    HW213812   3.171   2.943   2.808
 4305SOL     OW13813   0.427   6.736   5.961
 4305SOL    HW113814   0.333   6.749   5.931
 4305SOL    HW213815   0.451   6.639   5.956
 4306SOL     OW13816   4.554   5.048   4.705
 4306SOL    HW113817   4.638   5.068   4.755
 4306SOL    HW213818   4.539   5.117   4.634
 4307SOL     OW13819   5.573   4.012   5.643
 4307SOL    HW113820   5.517   4.083   5.600
 4307SOL    HW213821   5.578   3.932   5.583
 4308SOL     OW13822   6.172   4.651   1.125
 4308SOL    HW113823   6.177   4.666   1.224
 4308SOL    HW213824   6.171   4.739   1.078
 4309SOL     OW13825   1.097   1.104   0.398
 4309SOL    HW113826   1.197   1.094   0.396
 4309SOL    HW213827   1.059   1.068   0.312
 4310SOL     OW13828   1.707   2.594   1.992
 4310SOL    HW113829   1.705   2.675   1.932
 4310SOL    HW213830   1.792   2.594   2.044
 4311SOL     OW13831   1.728   6.289   2.615
 4311SOL    HW113832   1.784   6.316   2.536
 4311SOL    HW213833   1.764   6.204   2.653
 4312SOL     OW13834   1.470   6.103   1.876
 4312SOL    HW113835   1.532   6.068   1.946
 4312SOL    HW213836   1.403   6.033   1.851
 4313SOL     OW13837   4.936   2.017   0.929
 4313SOL    HW113838   4.964   1.994   1.022
 4313SOL    HW213839   4.836   2.014   0.922
 4314SOL     OW13840   6.006   1.407   4.377
 4314SOL    HW113841   6.018   1.373   4.284
 4314SOL    HW213842   6.066   1.356   4.439
 4315SOL     OW13843   2.584   6.843   3.184
 4315SOL    HW113844   2.667   6.889   3.216
 4315SOL    HW213845   2.606   6.790   3.102
 4316SOL     OW13846   5.183   1.018   1.906
 4316SOL    HW113847   5.264   1.016   1.963
 4316SOL    HW213848   5.180   0.935   1.849
 4317SOL     OW13849   5.535   2.340   4.938
 4317SOL    HW113850   5.585   2.425   4.954
 4317SOL    HW213851   5.587   2.263   4.974
 4318SOL     OW13852   0.062   2.245   4.942
 4318SOL    HW113853   0.057   2.275   4.847
 4318SOL    HW213854   7.013   2.171   4.958
 4319SOL     OW13855   2.004   1.311   0.563
 4319SOL    HW113856   2.010   1.345   0.657
 4319SOL    HW213857   1.908   1.299   0.538
 4320SOL     OW13858   4.387   5.100   0.887
 4320SOL    HW113859   4.316   5.168   0.871
 4320SOL    HW213860   4.380   5.028   0.818
 4321SOL     OW13861   0.584   5.176   5.507
 4321SOL    HW113862   0.645   5.102   5.536
 4321SOL    HW213863   0.491   5.156   5.536
 4322SOL     OW13864   6.121   2.929   6.835
 4322SOL    HW113865   6.048   2.959   6.774
 4322SOL    HW213866   6.161   3.009   6.881
 4323SOL     OW13867   4.611   3.832   0.212
 4323SOL    HW113868   4.539   3.881   0.261
 4323SOL    HW213869   4.617   3.865   0.118
 4324SOL     OW13870   6.125   4.479   6.642
 4324SOL    HW113871   6.200   4.414   6.632
 4324SOL    HW213872   6.115   4.503   6.739
 4325SOL     OW13873   2.552   1.458   1.359
 4325SOL    HW113874   2.607   1.540   1.342
 4325SOL    HW213875   2.586   1.383   1.303
 4326SOL     OW13876   4.356   4.664   3.243
 4326SOL    HW113877   4.380   4.583   3.296
 4326SOL    HW213878   4.438   4.700   3.199
 4327SOL     OW13879   5.687   5.938   2.167
 4327SOL    HW113880   5.643   5.954   2.255
 4327SOL    HW213881   5.768   5.996   2.159
 4328SOL     OW13882   4.276   4.201   5.847
 4328SOL    HW113883   4.204   4.132   5.860
 4328SOL    HW213884   4.259   4.278   5.909
 4329SOL     OW13885   4.683   2.312   5.404
 4329SOL    HW113886   4.762   2.280   5.456
 4329SOL    HW213887   4.691   2.411   5.389
 4330SOL     OW13888   1.646   5.855   4.685
 4330SOL    HW113889   1.658   5.916   4.764
 4330SOL    HW213890   1.560   5.878   4.639
 4331SOL     OW13891   6.168   1.376   1.802
 4331SOL    HW113892   6.243   1.405   1.743
 4331SOL    HW213893   6.155   1.445   1.874
 4332SOL     OW13894   5.006   2.896   2.317
 4332SOL    HW113895   4.978   2.955   2.394
 4332SOL    HW213896   4.933   2.893   2.249
 4333SOL     OW13897   4.464   1.083   5.601
 4333SOL    HW113898   4.371   1.048   5.593
 4333SOL    HW213899   4.488   1.091   5.698
 4334SOL     OW13900   1.522   2.114   2.873
 4334SOL    HW113901   1.529   2.205   2.914
 4334SOL    HW213902   1.504   2.124   2.775
 4335SOL     OW13903   3.052   3.903   2.406
 4335SOL    HW113904   3.071   3.997   2.376
 4335SOL    HW213905   3.069   3.895   2.504
 4336SOL     OW13906   3.399   6.562   6.082
 4336SOL    HW113907   3.382   6.579   5.985
 4336SOL    HW213908   3.371   6.643   6.135
 4337SOL     OW13909   1.201   4.449   0.594
 4337SOL    HW113910   1.264   4.499   0.535
 4337SOL    HW213911   1.222   4.351   0.590
 4338SOL     OW13912   6.275   6.894   6.099
 4338SOL    HW113913   6.297   6.991   6.101
 4338SOL    HW213914   6.359   6.840   6.093
 4339SOL     OW13915   4.357   3.204   5.955
 4339SOL    HW113916   4.292   3.243   5.890
 4339SOL    HW213917   4.416   3.138   5.908
 4340SOL     OW13918   6.269   3.205   0.922
 4340SOL    HW113919   6.266   3.107   0.937
 4340SOL    HW213920   6.191   3.248   0.967
 4341SOL     OW13921   0.916   5.407   1.579
 4341SOL    HW113922   0.951   5.348   1.652
 4341SOL    HW213923   0.978   5.404   1.500
 4342SOL     OW13924   4.907   3.823   3.413
 4342SOL    HW113925   4.938   3.861   3.327
 4342SOL    HW213926   4.970   3.750   3.442
 4343SOL     OW13927   2.914   6.331   5.181
 4343SOL    HW113928   2.837   6.268   5.192
 4343SOL    HW213929   2.929   6.349   5.083
 4344SOL     OW13930   0.411   4.104   1.981
 4344SOL    HW113931   0.428   4.062   1.892
 4344SOL    HW213932   0.346   4.179   1.970
 4345SOL     OW13933   3.241   4.483   5.696
 4345SOL    HW113934   3.250   4.450   5.790
 4345SOL    HW213935   3.331   4.486   5.652
 4346SOL     OW13936   1.927   3.850   2.901
 4346SOL    HW113937   1.834   3.813   2.901
 4346SOL    HW213938   1.993   3.777   2.882
 4347SOL     OW13939   5.818   0.005   2.107
 4347SOL    HW113940   5.830   6.923   2.119
 4347SOL    HW213941   5.900   0.044   2.066
 4348SOL     OW13942   0.329   5.596   3.600
 4348SOL    HW113943   0.390   5.666   3.562
 4348SOL    HW213944   0.351   5.507   3.560
 4349SOL     OW13945   5.569   2.086   2.948
 4349SOL    HW113946   5.536   2.004   2.900
 4349SOL    HW213947   5.629   2.058   3.024
 4350SOL     OW13948   3.375   1.800   4.024
 4350SOL    HW113949   3.331   1.719   3.985
 4350SOL    HW213950   3.472   1.800   4.000
 4351SOL     OW13951   1.469   6.205   0.990
 4351SOL    HW113952   1.436   6.299   0.999
 4351SOL    HW213953   1.392   6.145   0.967
 4352SOL     OW13954   6.060   4.024   2.419
 4352SOL    HW113955   6.142   4.005   2.474
 4352SOL    HW213956   6.029   3.939   2.375
 4353SOL     OW13957   4.306   2.648   6.428
 4353SOL    HW113958   4.251   2.730   6.412
 4353SOL    HW213959   4.299   2.588   6.348
 4354SOL     OW13960   1.946   0.636   5.950
 4354SOL    HW113961   1.888   0.714   5.972
 4354SOL    HW213962   1.943   0.569   6.025
 4355SOL     OW13963   2.490   0.845   2.554
 4355SOL    HW113964   2.501   0.794   2.469
 4355SOL    HW213965   2.549   0.926   2.553
 4356SOL     OW13966   5.246   3.563   0.241
 4356SOL    HW113967   5.238   3.464   0.231
 4356SOL    HW213968   5.170   3.598   0.297
 4357SOL     OW13969   6.498   0.871   1.065
 4357SOL    HW113970   6.453   0.799   1.012
 4357SOL    HW213971   6.541   0.830   1.146
 4358SOL     OW13972   6.949   0.602   0.811
 4358SOL    HW113973   0.000   0.569   0.876
 4358SOL    HW213974   6.942   0.701   0.818
 4359SOL     OW13975   1.166   1.225   6.019
 4359SOL    HW113976   1.252   1.179   5.994
 4359SOL    HW213977   1.152   1.218   6.118
 4360SOL     OW13978   0.592   3.580   3.675
 4360SOL    HW113979   0.606   3.679   3.672
 4360SOL    HW213980   0.505   3.557   3.630
 4361SOL     OW13981   2.011   3.346   1.549
 4361SOL    HW113982   2.105   3.331   1.520
 4361SOL    HW213983   2.010   3.379   1.644
 4362SOL     OW13984   6.508   5.172   3.441
 4362SOL    HW113985   6.437   5.180   3.371
 4362SOL    HW213986   6.598   5.163   3.397
 4363SOL     OW13987   5.141   2.360   0.900
 4363SOL    HW113988   5.129   2.288   0.832
 4363SOL    HW213989   5.131   2.322   0.992
 4364SOL     OW13990   3.262   4.071   3.619
 4364SOL    HW113991   3.249   3.972   3.614
 4364SOL    HW213992   3.182   4.113   3.661
 4365SOL     OW13993   2.817   0.858   1.548
 4365SOL    HW113994   2.872   0.941   1.546
 4365SOL    HW213995   2.774   0.844   1.459
 4366SOL     OW13996   6.602   6.973   6.694
 4366SOL    HW113997   6.646   0.003   6.771
 4366SOL    HW213998   6.548   0.021   6.641
 4367SOL     OW13999   2.536   4.560   4.133
 4367SOL    HW114000   2.523   4.510   4.047
 4367SOL    HW214001   2.504   4.505   4.209
 4368SOL     OW14002   3.895   5.907   1.141
 4368SOL    HW114003   3.890   5.944   1.234
 4368SOL    HW214004   3.925   5.979   1.078
 4369SOL     OW14005   4.415   5.210   2.939
 4369SOL    HW114006   4.472   5.291   2.930
 4369SOL    HW214007   4.372   5.209   3.029
 4370SOL     OW14008   3.691   4.689   1.602
 4370SOL    HW114009   3.629   4.706   1.525
 4370SOL    HW214010   3.638   4.671   1.685
 4371SOL     OW14011   1.558   2.280   2.275
 4371SOL    HW114012   1.605   2.196   2.302
 4371SOL    HW214013   1.585   2.354   2.337
 4372SOL     OW14014   2.217   2.341   4.112
 4372SOL    HW114015   2.161   2.266   4.146
 4372SOL    HW214016   2.285   2.305   4.048
 4373SOL     OW14017   5.109   1.373   6.813
 4373SOL    HW114018   5.174   1.402   6.883
 4373SOL    HW214019   5.028   1.432   6.817
 4374SOL     OW14020   1.179   1.577   1.405
 4374SOL    HW114021   1.166   1.501   1.342
 4374SOL    HW214022   1.091   1.623   1.420
 4375SOL     OW14023   4.124   6.505   3.462
 4375SOL    HW114024   4.044   6.533   3.515
 4375SOL    HW214025   4.173   6.587   3.429
 4376SOL     OW14026   6.413   0.049   2.909
 4376SOL    HW114027   6.469   6.983   2.923
 4376SOL    HW214028   6.356   0.036   2.828
 4377SOL     OW14029   5.983   5.740   7.001
 4377SOL    HW114030   5.886   5.761   7.012
 4377SOL    HW214031   5.996   5.640   7.005
 4378SOL     OW14032   2.131   2.759   2.623
 4378SOL    HW114033   2.137   2.859   2.622
 4378SOL    HW214034   2.036   2.731   2.608
 4379SOL     OW14035   2.237   2.204   2.439
 4379SOL    HW114036   2.241   2.295   2.482
 4379SOL    HW214037   2.248   2.134   2.510
 4380SOL     OW14038   1.271   6.644   3.162
 4380SOL    HW114039   1.172   6.633   3.161
 4380SOL    HW214040   1.302   6.681   3.075
 4381SOL     OW14041   2.346   3.768   5.380
 4381SOL    HW114042   2.384   3.717   5.457
 4381SOL    HW214043   2.408   3.843   5.356
 4382SOL     OW14044   5.895   3.804   6.383
 4382SOL    HW114045   5.886   3.710   6.351
 4382SOL    HW214046   5.961   3.852   6.326
 4383SOL     OW14047   0.646   2.285   5.816
 4383SOL    HW114048   0.592   2.368   5.805
 4383SOL    HW214049   0.587   2.205   5.805
 4384SOL     OW14050   5.750   1.545   6.070
 4384SOL    HW114051   5.661   1.579   6.039
 4384SOL    HW214052   5.760   1.449   6.044
 4385SOL     OW14053   6.093   2.789   5.067
 4385SOL    HW114054   6.124   2.813   5.159
 4385SOL    HW214055   5.995   2.802   5.060
 4386SOL     OW14056   2.542   3.419   6.753
 4386SOL    HW114057   2.569   3.332   6.793
 4386SOL    HW214058   2.446   3.439   6.776
 4387SOL     OW14059   6.594   1.270   1.822
 4387SOL    HW114060   6.545   1.223   1.895
 4387SOL    HW214061   6.693   1.259   1.836
 4388SOL     OW14062   5.373   1.383   6.498
 4388SOL    HW114063   5.455   1.333   6.524
 4388SOL    HW214064   5.372   1.471   6.546
 4389SOL     OW14065   0.414   4.099   0.710
 4389SOL    HW114066   0.502   4.106   0.757
 4389SOL    HW214067   0.386   4.189   0.678
 4390SOL     OW14068   3.583   0.915   1.606
 4390SOL    HW114069   3.579   0.956   1.697
 4390SOL    HW214070   3.638   0.831   1.610
 4391SOL     OW14071   1.285   5.538   6.718
 4391SOL    HW114072   1.280   5.535   6.618
 4391SOL    HW214073   1.352   5.606   6.747
 4392SOL     OW14074   6.965   3.241   6.287
 4392SOL    HW114075   6.949   3.161   6.344
 4392SOL    HW214076   6.943   3.220   6.192
 4393SOL     OW14077   5.947   0.882   2.313
 4393SOL    HW114078   5.869   0.852   2.368
 4393SOL    HW214079   5.998   0.802   2.281
 4394SOL     OW14080   5.522   5.602   2.613
 4394SOL    HW114081   5.450   5.671   2.612
 4394SOL    HW214082   5.513   5.543   2.532
 4395SOL     OW14083   3.376   0.082   1.612
 4395SOL    HW114084   3.416   0.048   1.697
 4395SOL    HW214085   3.445   0.082   1.540
 4396SOL     OW14086   1.853   2.473   4.275
 4396SOL    HW114087   1.778   2.538   4.264
 4396SOL    HW214088   1.827   2.404   4.343
 4397SOL     OW14089   0.676   1.025   4.701
 4397SOL    HW114090   0.641   0.940   4.660
 4397SOL    HW214091   0.703   1.088   4.628
 4398SOL     OW14092   0.652   4.758   5.363
 4398SOL    HW114093   0.570   4.815   5.368
 4398SOL    HW214094   0.729   4.814   5.330
 4399SOL     OW14095   1.972   0.859   1.364
 4399SOL    HW114096   1.891   0.892   1.315
 4399SOL    HW214097   2.026   0.937   1.395
 4400SOL     OW14098   3.664   6.451   6.060
 4400SOL    HW114099   3.700   6.444   5.967
 4400SOL    HW214100   3.570   6.484   6.056
 4401SOL     OW14101   4.906   6.368   6.503
 4401SOL    HW114102   4.959   6.351   6.420
 4401SOL    HW214103   4.814   6.398   6.479
 4402SOL     OW14104   2.884   0.080   0.958
 4402SOL    HW114105   2.921   0.121   1.041
 4402SOL    HW214106   2.785   0.067   0.969
 4403SOL     OW14107   0.929   0.185   3.392
 4403SOL    HW114108   0.979   0.163   3.308
 4403SOL    HW214109   0.957   0.275   3.426
 4404SOL     OW14110   0.385   4.178   5.741
 4404SOL    HW114111   0.365   4.108   5.810
 4404SOL    HW214112   0.299   4.210   5.701
 4405SOL     OW14113   1.641   4.562   1.925
 4405SOL    HW114114   1.731   4.597   1.949
 4405SOL    HW214115   1.596   4.626   1.863
 4406SOL     OW14116   0.167   3.996   0.543
 4406SOL    HW114117   0.123   4.061   0.604
 4406SOL    HW214118   0.241   3.949   0.592
 4407SOL     OW14119   6.711   5.146   0.756
 4407SOL    HW114120   6.742   5.196   0.837
 4407SOL    HW214121   6.691   5.211   0.682
 4408SOL     OW14122   3.094   1.345   1.565
 4408SOL    HW114123   3.153   1.401   1.507
 4408SOL    HW214124   3.015   1.398   1.594
 4409SOL     OW14125   4.885   0.091   2.663
 4409SOL    HW114126   4.873   0.091   2.762
 4409SOL    HW214127   4.974   0.130   2.640
 4410SOL     OW14128   1.124   5.425   6.910
 4410SOL    HW114129   1.047   5.487   6.925
 4410SOL    HW214130   1.185   5.466   6.841
 4411SOL     OW14131   3.499   4.071   3.890
 4411SOL    HW114132   3.415   4.093   3.940
 4411SOL    HW214133   3.505   4.129   3.809
 4412SOL     OW14134   4.158   6.651   5.152
 4412SOL    HW114135   4.185   6.558   5.174
 4412SOL    HW214136   4.106   6.689   5.229
 4413SOL     OW14137   6.380   5.520   4.627
 4413SOL    HW114138   6.323   5.599   4.608
 4413SOL    HW214139   6.361   5.448   4.559
 4414SOL     OW14140   3.756   4.185   1.230
 4414SOL    HW114141   3.675   4.238   1.253
 4414SOL    HW214142   3.814   4.175   1.311
 4415SOL     OW14143   4.201   3.385   0.076
 4415SOL    HW114144   4.143   3.387   7.012
 4415SOL    HW214145   4.201   3.292   0.115
 4416SOL     OW14146   2.361   0.672   4.130
 4416SOL    HW114147   2.378   0.614   4.210
 4416SOL    HW214148   2.434   0.657   4.063
 4417SOL     OW14149   5.862   4.329   3.200
 4417SOL    HW114150   5.843   4.396   3.272
 4417SOL    HW214151   5.949   4.283   3.220
 4418SOL     OW14152   5.886   1.615   2.197
 4418SOL    HW114153   5.867   1.711   2.175
 4418SOL    HW214154   5.851   1.594   2.288
 4419SOL     OW14155   5.756   5.964   6.674
 4419SOL    HW114156   5.810   6.011   6.743
 4419SOL    HW214157   5.739   6.026   6.597
 4420SOL     OW14158   5.422   1.435   1.636
 4420SOL    HW114159   5.455   1.478   1.719
 4420SOL    HW214160   5.371   1.352   1.659
 4421SOL     OW14161   1.747   0.739   5.272
 4421SOL    HW114162   1.657   0.719   5.309
 4421SOL    HW214163   1.739   0.761   5.174
 4422SOL     OW14164   3.307   4.188   6.378
 4422SOL    HW114165   3.397   4.147   6.391
 4422SOL    HW214166   3.309   4.246   6.297
 4423SOL     OW14167   1.360   3.100   5.739
 4423SOL    HW114168   1.352   3.001   5.727
 4423SOL    HW214169   1.432   3.136   5.680
 4424SOL     OW14170   5.436   0.956   4.290
 4424SOL    HW114171   5.351   0.906   4.306
 4424SOL    HW214172   5.510   0.913   4.341
 4425SOL     OW14173   3.365   5.096   0.377
 4425SOL    HW114174   3.281   5.083   0.324
 4425SOL    HW214175   3.354   5.174   0.439
 4426SOL     OW14176   0.192   0.922   4.693
 4426SOL    HW114177   0.200   1.009   4.646
 4426SOL    HW214178   0.139   0.858   4.637
 4427SOL     OW14179   0.607   6.350   2.420
 4427SOL    HW114180   0.548   6.292   2.476
 4427SOL    HW214181   0.608   6.316   2.326
 4428SOL     OW14182   2.882   0.240   2.403
 4428SOL    HW114183   2.875   0.258   2.304
 4428SOL    HW214184   2.791   0.216   2.438
 4429SOL     OW14185   2.916   0.002   2.769
 4429SOL    HW114186   2.834   0.042   2.729
 4429SOL    HW214187   2.905   6.920   2.777
 4430SOL     OW14188   5.018   3.778   4.635
 4430SOL    HW114189   5.073   3.862   4.634
 4430SOL    HW214190   4.983   3.763   4.727
 4431SOL     OW14191   2.042   0.958   2.504
 4431SOL    HW114192   2.096   0.909   2.573
 4431SOL    HW214193   1.964   1.002   2.548
 4432SOL     OW14194   3.424   3.370   5.336
 4432SOL    HW114195   3.358   3.381   5.262
 4432SOL    HW214196   3.512   3.341   5.297
 4433SOL     OW14197   4.555   0.888   4.828
 4433SOL    HW114198   4.653   0.894   4.809
 4433SOL    HW214199   4.509   0.969   4.792
 4434SOL     OW14200   5.043   1.972   4.131
 4434SOL    HW114201   5.028   1.949   4.227
 4434SOL    HW214202   4.955   1.987   4.086
 4435SOL     OW14203   4.691   3.416   1.370
 4435SOL    HW114204   4.651   3.430   1.460
 4435SOL    HW214205   4.657   3.331   1.331
 4436SOL     OW14206   4.609   1.133   1.421
 4436SOL    HW114207   4.583   1.214   1.474
 4436SOL    HW214208   4.646   1.064   1.484
 4437SOL     OW14209   5.702   1.555   3.069
 4437SOL    HW114210   5.627   1.534   3.132
 4437SOL    HW214211   5.691   1.649   3.036
 4438SOL     OW14212   5.625   6.857   0.077
 4438SOL    HW114213   5.697   6.875   0.144
 4438SOL    HW214214   5.643   6.769   0.032
 4439SOL     OW14215   0.257   5.342   1.730
 4439SOL    HW114216   0.227   5.342   1.825
 4439SOL    HW214217   0.356   5.349   1.726
 4440SOL     OW14218   2.117   5.250   0.395
 4440SOL    HW114219   2.149   5.173   0.449
 4440SOL    HW214220   2.018   5.261   0.410
 4441SOL     OW14221   6.760   1.837   2.725
 4441SOL    HW114222   6.812   1.898   2.784
 4441SOL    HW214223   6.670   1.820   2.764
 4442SOL     OW14224   2.801   5.566   4.265
 4442SOL    HW114225   2.791   5.471   4.293
 4442SOL    HW214226   2.728   5.621   4.306
 4443SOL     OW14227   0.141   2.927   0.522
 4443SOL    HW114228   0.069   2.861   0.503
 4443SOL    HW214229   0.152   2.988   0.443
 4444SOL     OW14230   3.077   4.814   6.055
 4444SOL    HW114231   3.170   4.800   6.089
 4444SOL    HW214232   3.058   4.912   6.047
 4445SOL     OW14233   0.438   0.338   1.381
 4445SOL    HW114234   0.341   0.361   1.390
 4445SOL    HW214235   0.489   0.418   1.351
 4446SOL     OW14236   5.771   1.273   2.461
 4446SOL    HW114237   5.765   1.206   2.387
 4446SOL    HW214238   5.716   1.242   2.538
 4447SOL     OW14239   5.062   3.792   6.146
 4447SOL    HW114240   5.058   3.738   6.229
 4447SOL    HW214241   5.136   3.859   6.153
 4448SOL     OW14242   2.862   3.946   1.417
 4448SOL    HW114243   2.912   3.916   1.336
 4448SOL    HW214244   2.768   3.969   1.392
 4449SOL     OW14245   5.373   0.445   6.296
 4449SOL    HW114246   5.322   0.465   6.212
 4449SOL    HW214247   5.389   0.531   6.345
 4450SOL     OW14248   3.590   2.885   4.386
 4450SOL    HW114249   3.571   2.967   4.332
 4450SOL    HW214250   3.653   2.908   4.460
 4451SOL     OW14251   5.776   4.617   3.594
 4451SOL    HW114252   5.770   4.644   3.691
 4451SOL    HW214253   5.728   4.685   3.538
 4452SOL     OW14254   5.573   6.495   4.514
 4452SOL    HW114255   5.662   6.540   4.522
 4452SOL    HW214256   5.581   6.399   4.542
 4453SOL     OW14257   0.590   2.356   1.787
 4453SOL    HW114258   0.493   2.381   1.789
 4453SOL    HW214259   0.620   2.330   1.878
 4454SOL     OW14260   1.302   2.085   6.967
 4454SOL    HW114261   1.246   2.157   6.926
 4454SOL    HW214262   1.294   2.089   0.049
 4455SOL     OW14263   4.172   6.111   6.291
 4455SOL    HW114264   4.187   6.023   6.247
 4455SOL    HW214265   4.258   6.144   6.330
 4456SOL     OW14266   3.544   6.256   2.281
 4456SOL    HW114267   3.482   6.311   2.338
 4456SOL    HW214268   3.631   6.304   2.270
 4457SOL     OW14269   4.670   1.787   1.954
 4457SOL    HW114270   4.629   1.703   1.989
 4457SOL    HW214271   4.763   1.768   1.922
 4458SOL     OW14272   1.432   2.545   6.615
 4458SOL    HW114273   1.340   2.561   6.650
 4458SOL    HW214274   1.426   2.508   6.522
 4459SOL     OW14275   4.001   0.525   5.226
 4459SOL    HW114276   4.097   0.515   5.251
 4459SOL    HW214277   3.944   0.503   5.305
 4460SOL     OW14278   3.253   2.548   5.745
 4460SOL    HW114279   3.165   2.506   5.769
 4460SOL    HW214280   3.308   2.482   5.693
 4461SOL     OW14281   1.227   0.904   1.746
 4461SOL    HW114282   1.278   0.821   1.768
 4461SOL    HW214283   1.194   0.947   1.830
 4462SOL     OW14284   5.949   4.467   2.064
 4462SOL    HW114285   5.992   4.554   2.089
 4462SOL    HW214286   5.963   4.401   2.139
 4463SOL     OW14287   5.677   1.885   6.126
 4463SOL    HW114288   5.589   1.845   6.152
 4463SOL    HW214289   5.751   1.824   6.152
 4464SOL     OW14290   6.462   5.050   0.796
 4464SOL    HW114291   6.466   4.985   0.872
 4464SOL    HW214292   6.554   5.084   0.776
 4465SOL     OW14293   2.665   5.563   1.163
 4465SOL    HW114294   2.583   5.534   1.211
 4465SOL    HW214295   2.722   5.484   1.142
 4466SOL     OW14296   1.635   2.202   3.531
 4466SOL    HW114297   1.653   2.244   3.442
 4466SOL    HW214298   1.552   2.147   3.526
 4467SOL     OW14299   2.027   0.131   2.491
 4467SOL    HW114300   1.939   0.095   2.522
 4467SOL    HW214301   2.093   0.127   2.566
 4468SOL     OW14302   2.027   2.759   0.771
 4468SOL    HW114303   2.112   2.811   0.768
 4468SOL    HW214304   2.046   2.661   0.768
 4469SOL     OW14305   4.116   0.790   1.662
 4469SOL    HW114306   4.086   0.818   1.570
 4469SOL    HW214307   4.180   0.858   1.698
 4470SOL     OW14308   5.918   2.168   2.256
 4470SOL    HW114309   5.932   2.262   2.289
 4470SOL    HW214310   5.932   2.165   2.157
 4471SOL     OW14311   0.646   1.742   6.760
 4471SOL    HW114312   0.673   1.836   6.739
 4471SOL    HW214313   0.566   1.718   6.705
 4472SOL     OW14314   1.353   3.163   3.570
 4472SOL    HW114315   1.344   3.224   3.649
 4472SOL    HW214316   1.447   3.129   3.564
 4473SOL     OW14317   6.567   2.879   4.583
 4473SOL    HW114318   6.645   2.871   4.521
 4473SOL    HW214319   6.552   2.792   4.629
 4474SOL     OW14320   2.993   1.056   1.566
 4474SOL    HW114321   3.009   1.152   1.586
 4474SOL    HW214322   3.069   1.021   1.510
 4475SOL     OW14323   1.556   4.132   2.837
 4475SOL    HW114324   1.493   4.059   2.863
 4475SOL    HW214325   1.575   4.127   2.739
 4476SOL     OW14326   3.656   0.012   3.664
 4476SOL    HW114327   3.693   0.105   3.661
 4476SOL    HW214328   3.556   0.016   3.659
 4477SOL     OW14329   1.798   6.735   5.196
 4477SOL    HW114330   1.834   6.725   5.103
 4477SOL    HW214331   1.865   6.783   5.253
 4478SOL     OW14332   3.770   0.455   2.964
 4478SOL    HW114333   3.739   0.499   2.880
 4478SOL    HW214334   3.793   0.524   3.032
 4479SOL     OW14335   0.806   1.033   1.905
 4479SOL    HW114336   0.822   0.957   1.968
 4479SOL    HW214337   0.713   1.026   1.867
 4480SOL     OW14338   2.036   3.931   5.631
 4480SOL    HW114339   2.114   3.993   5.617
 4480SOL    HW214340   1.955   3.971   5.589
 4481SOL     OW14341   2.550   6.569   5.238
 4481SOL    HW114342   2.639   6.529   5.262
 4481SOL    HW214343   2.523   6.536   5.148
 4482SOL     OW14344   1.126   3.984   4.663
 4482SOL    HW114345   1.139   4.073   4.619
 4482SOL    HW214346   1.205   3.926   4.645
 4483SOL     OW14347   5.544   2.794   1.982
 4483SOL    HW114348   5.493   2.874   2.013
 4483SOL    HW214349   5.624   2.824   1.930
 4484SOL     OW14350   3.112   3.034   5.996
 4484SOL    HW114351   3.122   3.092   5.915
 4484SOL    HW214352   3.173   2.955   5.987
 4485SOL     OW14353   5.173   1.727   5.368
 4485SOL    HW114354   5.174   1.655   5.438
 4485SOL    HW214355   5.154   1.814   5.412
 4486SOL     OW14356   5.479   4.651   5.230
 4486SOL    HW114357   5.479   4.625   5.327
 4486SOL    HW214358   5.513   4.575   5.175
 4487SOL     OW14359   2.072   3.082   6.013
 4487SOL    HW114360   1.996   3.017   6.017
 4487SOL    HW214361   2.158   3.031   6.000
 4488SOL     OW14362   6.746   3.106   6.487
 4488SOL    HW114363   6.725   3.008   6.481
 4488SOL    HW214364   6.661   3.159   6.480
 4489SOL     OW14365   5.755   5.879   3.902
 4489SOL    HW114366   5.802   5.794   3.926
 4489SOL    HW214367   5.804   5.925   3.828
 4490SOL     OW14368   6.321   2.580   3.144
 4490SOL    HW114369   6.312   2.628   3.057
 4490SOL    HW214370   6.291   2.640   3.218
 4491SOL     OW14371   6.669   2.268   4.798
 4491SOL    HW114372   6.627   2.283   4.887
 4491SOL    HW214373   6.765   2.242   4.810
 4492SOL     OW14374   5.587   3.903   1.226
 4492SOL    HW114375   5.588   3.810   1.262
 4492SOL    HW214376   5.580   3.901   1.126
 4493SOL     OW14377   4.317   5.491   5.071
 4493SOL    HW114378   4.373   5.451   5.143
 4493SOL    HW214379   4.260   5.564   5.109
 4494SOL     OW14380   6.693   1.029   6.210
 4494SOL    HW114381   6.704   0.967   6.288
 4494SOL    HW214382   6.736   0.989   6.129
 4495SOL     OW14383   3.899   6.321   4.316
 4495SOL    HW114384   3.854   6.367   4.393
 4495SOL    HW214385   3.988   6.363   4.299
 4496SOL     OW14386   5.809   5.916   1.338
 4496SOL    HW114387   5.734   5.920   1.404
 4496SOL    HW214388   5.896   5.931   1.385
 4497SOL     OW14389   4.710   1.216   6.825
 4497SOL    HW114390   4.643   1.243   6.894
 4497SOL    HW214391   4.702   1.118   6.807
 4498SOL     OW14392   0.127   3.683   0.306
 4498SOL    HW114393   0.066   3.611   0.273
 4498SOL    HW214394   0.080   3.738   0.375
 4499SOL     OW14395   6.546   3.550   4.665
 4499SOL    HW114396   6.474   3.487   4.693
 4499SOL    HW214397   6.635   3.515   4.696
 4500SOL     OW14398   3.232   3.345   3.953
 4500SOL    HW114399   3.284   3.312   3.876
 4500SOL    HW214400   3.265   3.436   3.980
 4501SOL     OW14401   0.260   3.491   3.984
 4501SOL    HW114402   0.283   3.411   3.928
 4501SOL    HW214403   0.340   3.520   4.035
 4502SOL     OW14404   0.987   2.940   6.817
 4502SOL    HW114405   0.986   2.873   6.891
 4502SOL    HW214406   0.937   2.904   6.739
 4503SOL     OW14407   3.383   6.844   1.978
 4503SOL    HW114408   3.395   6.941   1.956
 4503SOL    HW214409   3.288   6.828   2.005
 4504SOL     OW14410   6.588   0.253   4.813
 4504SOL    HW114411   6.680   0.273   4.780
 4504SOL    HW214412   6.528   0.234   4.734
 4505SOL     OW14413   5.601   5.059   1.769
 4505SOL    HW114414   5.602   4.962   1.794
 4505SOL    HW214415   5.684   5.103   1.804
 4506SOL     OW14416   4.238   2.249   3.424
 4506SOL    HW114417   4.317   2.302   3.394
 4506SOL    HW214418   4.160   2.268   3.365
 4507SOL     OW14419   5.136   4.655   2.090
 4507SOL    HW114420   5.213   4.615   2.139
 4507SOL    HW214421   5.050   4.622   2.130
 4508SOL     OW14422   0.652   4.547   6.667
 4508SOL    HW114423   0.648   4.647   6.657
 4508SOL    HW214424   0.740   4.514   6.633
 4509SOL     OW14425   4.463   2.202   2.705
 4509SOL    HW114426   4.408   2.271   2.753
 4509SOL    HW214427   4.469   2.119   2.762
 4510SOL     OW14428   4.163   1.049   3.974
 4510SOL    HW114429   4.214   1.112   4.033
 4510SOL    HW214430   4.224   0.976   3.944
 4511SOL     OW14431   6.479   3.118   0.076
 4511SOL    HW114432   6.505   3.029   0.038
 4511SOL    HW214433   6.490   3.116   0.175
 4512SOL     OW14434   3.186   0.939   5.604
 4512SOL    HW114435   3.265   1.000   5.604
 4512SOL    HW214436   3.113   0.978   5.548
 4513SOL     OW14437   5.850   5.303   0.271
 4513SOL    HW114438   5.912   5.228   0.293
 4513SOL    HW214439   5.901   5.389   0.273
 4514SOL     OW14440   4.357   1.107   6.732
 4514SOL    HW114441   4.340   1.185   6.793
 4514SOL    HW214442   4.394   1.140   6.646
 4515SOL     OW14443   6.751   1.605   5.783
 4515SOL    HW114444   6.753   1.683   5.845
 4515SOL    HW214445   6.657   1.588   5.753
 4516SOL     OW14446   2.157   0.119   0.207
 4516SOL    HW114447   2.116   0.210   0.219
 4516SOL    HW214448   2.256   0.129   0.194
 4517SOL     OW14449   4.234   0.636   6.715
 4517SOL    HW114450   4.172   0.631   6.794
 4517SOL    HW214451   4.237   0.730   6.681
 4518SOL     OW14452   6.845   0.710   2.685
 4518SOL    HW114453   6.861   0.791   2.628
 4518SOL    HW214454   6.917   0.642   2.668
 4519SOL     OW14455   6.313   0.880   1.512
 4519SOL    HW114456   6.322   0.889   1.413
 4519SOL    HW214457   6.404   0.875   1.553
 4520SOL     OW14458   4.336   6.615   4.647
 4520SOL    HW114459   4.425   6.582   4.677
 4520SOL    HW214460   4.345   6.665   4.561
 4521SOL     OW14461   5.765   1.794   4.191
 4521SOL    HW114462   5.731   1.847   4.269
 4521SOL    HW214463   5.864   1.805   4.185
 4522SOL     OW14464   6.229   6.375   3.394
 4522SOL    HW114465   6.206   6.424   3.310
 4522SOL    HW214466   6.219   6.437   3.472
 4523SOL     OW14467   0.673   4.274   0.298
 4523SOL    HW114468   0.717   4.210   0.361
 4523SOL    HW214469   0.629   4.222   0.224
 4524SOL     OW14470   6.070   2.504   3.442
 4524SOL    HW114471   6.122   2.427   3.478
 4524SOL    HW214472   6.024   2.476   3.358
 4525SOL     OW14473   4.993   0.976   5.024
 4525SOL    HW114474   5.036   0.887   5.031
 4525SOL    HW214475   4.912   0.979   5.083
 4526SOL     OW14476   6.339   0.678   0.990
 4526SOL    HW114477   6.267   0.621   0.953
 4526SOL    HW214478   6.355   0.654   1.086
 4527SOL     OW14479   5.011   0.924   3.681
 4527SOL    HW114480   5.031   1.014   3.720
 4527SOL    HW214481   5.093   0.868   3.682
 4528SOL     OW14482   5.084   0.194   0.238
 4528SOL    HW114483   5.103   0.100   0.212
 4528SOL    HW214484   5.035   0.196   0.325
 4529SOL     OW14485   3.238   0.787   5.383
 4529SOL    HW114486   3.331   0.754   5.400
 4529SOL    HW214487   3.210   0.846   5.459
 4530SOL     OW14488   2.098   4.582   5.977
 4530SOL    HW114489   2.074   4.490   5.947
 4530SOL    HW214490   2.189   4.606   5.943
 4531SOL     OW14491   0.383   3.348   4.896
 4531SOL    HW114492   0.361   3.440   4.929
 4531SOL    HW214493   0.477   3.347   4.862
 4532SOL     OW14494   5.964   2.068   3.314
 4532SOL    HW114495   6.050   2.088   3.268
 4532SOL    HW214496   5.980   2.006   3.391
 4533SOL     OW14497   1.080   1.104   1.900
 4533SOL    HW114498   0.982   1.085   1.903
 4533SOL    HW214499   1.099   1.166   1.824
 4534SOL     OW14500   4.771   4.132   4.316
 4534SOL    HW114501   4.800   4.054   4.370
 4534SOL    HW214502   4.695   4.179   4.362
 4535SOL     OW14503   4.240   0.920   2.315
 4535SOL    HW114504   4.172   0.846   2.320
 4535SOL    HW214505   4.261   0.939   2.220
 4536SOL     OW14506   4.117   1.400   3.750
 4536SOL    HW114507   4.043   1.444   3.698
 4536SOL    HW214508   4.176   1.471   3.789
 4537SOL     OW14509   4.592   3.012   6.716
 4537SOL    HW114510   4.516   3.053   6.766
 4537SOL    HW214511   4.564   2.990   6.623
 4538SOL     OW14512   2.200   0.191   4.003
 4538SOL    HW114513   2.115   0.194   4.056
 4538SOL    HW214514   2.193   0.254   3.926
 4539SOL     OW14515   2.742   0.445   4.996
 4539SOL    HW114516   2.818   0.508   4.980
 4539SOL    HW214517   2.660   0.496   5.021
 4540SOL     OW14518   3.255   2.299   5.632
 4540SOL    HW114519   3.306   2.234   5.575
 4540SOL    HW214520   3.199   2.358   5.573
 4541SOL     OW14521   6.099   2.351   0.640
 4541SOL    HW114522   6.071   2.268   0.593
 4541SOL    HW214523   6.101   2.427   0.575
 4542SOL     OW14524   6.730   1.355   2.374
 4542SOL    HW114525   6.719   1.318   2.282
 4542SOL    HW214526   6.658   1.422   2.393
 4543SOL     OW14527   4.641   1.771   1.615
 4543SOL    HW114528   4.546   1.797   1.598
 4543SOL    HW214529   4.687   1.844   1.665
 4544SOL     OW14530   2.900   6.404   6.065
 4544SOL    HW114531   2.941   6.495   6.060
 4544SOL    HW214532   2.807   6.407   6.029
 4545SOL     OW14533   5.065   4.109   4.753
 4545SOL    HW114534   5.129   4.099   4.830
 4545SOL    HW214535   5.035   4.204   4.747
 4546SOL     OW14536   1.405   0.898   5.975
 4546SOL    HW114537   1.323   0.875   5.923
 4546SOL    HW214538   1.429   0.994   5.960
 4547SOL     OW14539   5.780   2.320   2.954
 4547SOL    HW114540   5.714   2.392   2.973
 4547SOL    HW214541   5.731   2.237   2.928
 4548SOL     OW14542   0.810   3.884   4.340
 4548SOL    HW114543   0.764   3.962   4.298
 4548SOL    HW214544   0.778   3.800   4.297
 4549SOL     OW14545   6.934   4.421   1.531
 4549SOL    HW114546   0.010   4.448   1.505
 4549SOL    HW214547   6.912   4.461   1.620
 4550SOL     OW14548   0.826   5.475   2.856
 4550SOL    HW114549   0.847   5.427   2.942
 4550SOL    HW214550   0.829   5.574   2.871
 4551SOL     OW14551   0.225   1.852   5.406
 4551SOL    HW114552   0.165   1.883   5.333
 4551SOL    HW214553   0.302   1.802   5.367
 4552SOL     OW14554   6.470   3.376   0.872
 4552SOL    HW114555   6.520   3.375   0.785
 4552SOL    HW214556   6.427   3.288   0.886
 4553SOL     OW14557   3.292   4.661   0.030
 4553SOL    HW114558   3.268   4.757   0.042
 4553SOL    HW214559   3.209   4.607   0.017
 4554SOL     OW14560   5.508   0.424   1.272
 4554SOL    HW114561   5.563   0.490   1.324
 4554SOL    HW214562   5.564   0.384   1.199
 4555SOL     OW14563   3.078   2.057   5.945
 4555SOL    HW114564   3.031   1.975   5.976
 4555SOL    HW214565   3.015   2.114   5.892
 4556SOL     OW14566   4.971   3.361   3.945
 4556SOL    HW114567   4.947   3.458   3.957
 4556SOL    HW214568   4.921   3.306   4.012
 4557SOL     OW14569   4.588   5.953   5.781
 4557SOL    HW114570   4.551   5.917   5.696
 4557SOL    HW214571   4.521   6.014   5.823
 4558SOL     OW14572   0.914   4.719   5.085
 4558SOL    HW114573   0.899   4.787   5.156
 4558SOL    HW214574   0.829   4.706   5.032
 4559SOL     OW14575   0.193   4.245   1.610
 4559SOL    HW114576   0.128   4.234   1.686
 4559SOL    HW214577   0.278   4.283   1.645
 4560SOL     OW14578   5.200   4.110   2.021
 4560SOL    HW114579   5.243   4.082   2.107
 4560SOL    HW214580   5.142   4.189   2.038
 4561SOL     OW14581   1.716   1.798   2.174
 4561SOL    HW114582   1.791   1.756   2.124
 4561SOL    HW214583   1.753   1.853   2.250
 4562SOL     OW14584   2.667   6.212   5.207
 4562SOL    HW114585   2.631   6.212   5.113
 4562SOL    HW214586   2.692   6.118   5.232
 4563SOL     OW14587   0.077   3.020   1.260
 4563SOL    HW114588   0.001   2.964   1.227
 4563SOL    HW214589   0.163   2.968   1.253
 4564SOL     OW14590   6.869   6.101   1.309
 4564SOL    HW114591   6.773   6.128   1.310
 4564SOL    HW214592   6.926   6.180   1.333
 4565SOL     OW14593   0.858   1.049   5.370
 4565SOL    HW114594   0.841   0.972   5.308
 4565SOL    HW214595   0.956   1.056   5.390
 4566SOL     OW14596   6.565   2.646   0.520
 4566SOL    HW114597   6.661   2.641   0.549
 4566SOL    HW214598   6.514   2.703   0.584
 4567SOL     OW14599   6.244   0.542   6.944
 4567SOL    HW114600   6.294   0.624   6.970
 4567SOL    HW214601   6.217   0.492   0.009
 4568SOL     OW14602   2.291   4.073   5.872
 4568SOL    HW114603   2.293   4.056   5.773
 4568SOL    HW214604   2.202   4.045   5.908
 4569SOL     OW14605   1.707   1.960   2.742
 4569SOL    HW114606   1.645   2.009   2.802
 4569SOL    HW214607   1.794   2.010   2.736
 4570SOL     OW14608   0.554   6.829   3.831
 4570SOL    HW114609   0.615   6.754   3.802
 4570SOL    HW214610   0.608   6.911   3.846
 4571SOL     OW14611   4.075   4.366   6.392
 4571SOL    HW114612   4.138   4.424   6.341
 4571SOL    HW214613   4.019   4.313   6.329
 4572SOL     OW14614   1.292   6.605   6.913
 4572SOL    HW114615   1.282   6.608   6.813
 4572SOL    HW214616   1.378   6.647   6.939
 4573SOL     OW14617   6.411   6.942   0.740
 4573SOL    HW114618   6.400   6.918   0.837
 4573SOL    HW214619   6.361   0.010   0.721
 4574SOL     OW14620   5.874   3.918   0.644
 4574SOL    HW114621   5.787   3.902   0.692
 4574SOL    HW214622   5.872   3.871   0.556
 4575SOL     OW14623   6.040   1.084   6.000
 4575SOL    HW114624   6.019   1.175   5.965
 4575SOL    HW214625   6.057   1.090   6.099
 4576SOL     OW14626   2.243   6.523   6.133
 4576SOL    HW114627   2.190   6.529   6.218
 4576SOL    HW214628   2.286   6.433   6.127
 4577SOL     OW14629   1.195   2.222   4.669
 4577SOL    HW114630   1.143   2.175   4.597
 4577SOL    HW214631   1.137   2.291   4.712
 4578SOL     OW14632   0.616   3.167   5.079
 4578SOL    HW114633   0.586   3.231   5.150
 4578SOL    HW214634   0.716   3.161   5.079
 4579SOL     OW14635   4.297   1.042   2.786
 4579SOL    HW114636   4.200   1.063   2.792
 4579SOL    HW214637   4.314   0.986   2.705
 4580SOL     OW14638   5.136   4.791   0.498
 4580SOL    HW114639   5.113   4.771   0.593
 4580SOL    HW214640   5.055   4.780   0.441
 4581SOL     OW14641   2.485   4.547   2.549
 4581SOL    HW114642   2.474   4.504   2.638
 4581SOL    HW214643   2.578   4.585   2.542
 4582SOL     OW14644   5.513   6.773   4.877
 4582SOL    HW114645   5.485   6.683   4.910
 4582SOL    HW214646   5.461   6.844   4.924
 4583SOL     OW14647   2.815   2.201   5.980
 4583SOL    HW114648   2.796   2.253   5.897
 4583SOL    HW214649   2.749   2.226   6.051
 4584SOL     OW14650   0.021   4.833   5.796
 4584SOL    HW114651   0.117   4.808   5.808
 4584SOL    HW214652   6.980   4.766   5.842
 4585SOL     OW14653   2.764   6.465   2.879
 4585SOL    HW114654   2.804   6.473   2.787
 4585SOL    HW214655   2.765   6.369   2.906
 4586SOL     OW14656   3.249   5.594   0.985
 4586SOL    HW114657   3.149   5.596   0.986
 4586SOL    HW214658   3.282   5.623   0.896
 4587SOL     OW14659   3.525   3.947   2.532
 4587SOL    HW114660   3.463   3.869   2.537
 4587SOL    HW214661   3.501   4.014   2.602
 4588SOL     OW14662   3.508   3.578   5.510
 4588SOL    HW114663   3.601   3.612   5.494
 4588SOL    HW214664   3.486   3.509   5.441
 4589SOL     OW14665   6.094   1.022   2.530
 4589SOL    HW114666   6.074   0.972   2.446
 4589SOL    HW214667   6.193   1.020   2.546
 4590SOL     OW14668   5.431   6.182   1.357
 4590SOL    HW114669   5.426   6.175   1.258
 4590SOL    HW214670   5.509   6.240   1.382
 4591SOL     OW14671   0.647   6.279   4.611
 4591SOL    HW114672   0.602   6.283   4.700
 4591SOL    HW214673   0.647   6.184   4.579
 4592SOL     OW14674   2.843   1.672   1.872
 4592SOL    HW114675   2.846   1.650   1.969
 4592SOL    HW214676   2.920   1.732   1.849
 4593SOL     OW14677   4.606   5.410   3.189
 4593SOL    HW114678   4.557   5.355   3.256
 4593SOL    HW214679   4.581   5.506   3.199
 4594SOL     OW14680   2.994   1.242   2.652
 4594SOL    HW114681   2.958   1.290   2.572
 4594SOL    HW214682   3.058   1.301   2.700
 4595SOL     OW14683   4.208   2.902   6.368
 4595SOL    HW114684   4.163   2.912   6.279
 4595SOL    HW214685   4.156   2.951   6.437
 4596SOL     OW14686   6.004   6.810   2.346
 4596SOL    HW114687   5.980   6.900   2.381
 4596SOL    HW214688   6.043   6.755   2.420
 4597SOL     OW14689   4.089   5.168   6.138
 4597SOL    HW114690   4.054   5.261   6.132
 4597SOL    HW214691   4.162   5.164   6.207
 4598SOL     OW14692   2.531   5.929   6.525
 4598SOL    HW114693   2.587   6.010   6.510
 4598SOL    HW214694   2.589   5.848   6.532
 4599SOL     OW14695   0.900   5.241   1.221
 4599SOL    HW114696   0.964   5.189   1.277
 4599SOL    HW214697   0.923   5.338   1.224
 4600SOL     OW14698   1.139   5.235   5.540
 4600SOL    HW114699   1.073   5.309   5.530
 4600SOL    HW214700   1.141   5.181   5.456
 4601SOL     OW14701   2.279   0.610   5.471
 4601SOL    HW114702   2.238   0.533   5.519
 4601SOL    HW214703   2.269   0.693   5.526
 4602SOL     OW14704   1.887   6.252   1.397
 4602SOL    HW114705   1.817   6.181   1.409
 4602SOL    HW214706   1.903   6.298   1.484
 4603SOL     OW14707   3.167   6.574   0.900
 4603SOL    HW114708   3.262   6.591   0.871
 4603SOL    HW214709   3.124   6.660   0.924
 4604SOL     OW14710   4.190   0.470   0.899
 4604SOL    HW114711   4.144   0.386   0.870
 4604SOL    HW214712   4.276   0.480   0.850
 4605SOL     OW14713   2.700   0.503   3.170
 4605SOL    HW114714   2.736   0.460   3.087
 4605SOL    HW214715   2.699   0.602   3.158
 4606SOL     OW14716   1.214   6.510   1.777
 4606SOL    HW114717   1.218   6.600   1.820
 4606SOL    HW214718   1.121   6.494   1.742
 4607SOL     OW14719   2.027   2.461   1.441
 4607SOL    HW114720   2.101   2.440   1.504
 4607SOL    HW214721   1.971   2.535   1.479
 4608SOL     OW14722   0.530   6.257   3.986
 4608SOL    HW114723   0.613   6.308   4.005
 4608SOL    HW214724   0.467   6.314   3.933
 4609SOL     OW14725   4.528   5.300   6.834
 4609SOL    HW114726   4.608   5.327   6.887
 4609SOL    HW214727   4.496   5.377   6.780
 4610SOL     OW14728   5.058   3.215   0.647
 4610SOL    HW114729   5.112   3.139   0.682
 4610SOL    HW214730   5.116   3.296   0.638
 4611SOL     OW14731   0.459   5.614   5.851
 4611SOL    HW114732   0.400   5.541   5.817
 4611SOL    HW214733   0.480   5.598   5.947
 4612SOL     OW14734   1.410   5.599   0.123
 4612SOL    HW114735   1.482   5.548   0.076
 4612SOL    HW214736   1.447   5.682   0.162
 4613SOL     OW14737   2.649   6.324   2.061
 4613SOL    HW114738   2.608   6.359   1.977
 4613SOL    HW214739   2.683   6.400   2.115
 4614SOL     OW14740   0.053   3.323   4.738
 4614SOL    HW114741   0.034   3.227   4.718
 4614SOL    HW214742   0.102   3.330   4.825
 4615SOL     OW14743   2.197   6.751   0.271
 4615SOL    HW114744   2.251   6.757   0.186
 4615SOL    HW214745   2.115   6.807   0.263
 4616SOL     OW14746   6.543   0.443   5.043
 4616SOL    HW114747   6.538   0.380   4.966
 4616SOL    HW214748   6.610   0.409   5.110
 4617SOL     OW14749   0.643   2.520   2.360
 4617SOL    HW114750   0.737   2.513   2.393
 4617SOL    HW214751   0.637   2.593   2.292
 4618SOL     OW14752   2.178   2.972   4.817
 4618SOL    HW114753   2.258   2.991   4.873
 4618SOL    HW214754   2.101   3.029   4.847
 4619SOL     OW14755   3.331   6.352   3.431
 4619SOL    HW114756   3.431   6.360   3.422
 4619SOL    HW214757   3.288   6.378   3.345
 4620SOL     OW14758   2.195   4.500   0.309
 4620SOL    HW114759   2.209   4.428   0.241
 4620SOL    HW214760   2.097   4.509   0.328
 4621SOL     OW14761   5.495   1.168   2.292
 4621SOL    HW114762   5.474   1.212   2.379
 4621SOL    HW214763   5.591   1.142   2.290
 4622SOL     OW14764   2.341   4.496   0.564
 4622SOL    HW114765   2.419   4.549   0.531
 4622SOL    HW214766   2.270   4.494   0.494
 4623SOL     OW14767   5.519   6.557   0.425
 4623SOL    HW114768   5.498   6.611   0.344
 4623SOL    HW214769   5.437   6.544   0.480
 4624SOL     OW14770   4.470   6.878   3.434
 4624SOL    HW114771   4.390   6.826   3.407
 4624SOL    HW214772   4.443   6.971   3.459
 4625SOL     OW14773   2.303   3.938   1.022
 4625SOL    HW114774   2.323   3.903   0.931
 4625SOL    HW214775   2.206   3.962   1.028
 4626SOL     OW14776   4.988   4.503   2.559
 4626SOL    HW114777   5.081   4.505   2.597
 4626SOL    HW214778   4.963   4.596   2.529
 4627SOL     OW14779   2.395   4.640   4.424
 4627SOL    HW114780   2.392   4.575   4.349
 4627SOL    HW214781   2.376   4.594   4.510
 4628SOL     OW14782   5.967   4.684   3.862
 4628SOL    HW114783   6.062   4.685   3.893
 4628SOL    HW214784   5.907   4.710   3.938
 4629SOL     OW14785   2.233   5.190   5.392
 4629SOL    HW114786   2.146   5.187   5.441
 4629SOL    HW214787   2.216   5.179   5.294
 4630SOL     OW14788   3.122   5.425   2.834
 4630SOL    HW114789   3.209   5.433   2.884
 4630SOL    HW214790   3.098   5.514   2.795
 4631SOL     OW14791   2.106   6.187   2.717
 4631SOL    HW114792   2.021   6.142   2.690
 4631SOL    HW214793   2.144   6.235   2.637
 4632SOL     OW14794   3.593   4.985   2.328
 4632SOL    HW114795   3.582   5.085   2.329
 4632SOL    HW214796   3.522   4.943   2.385
 4633SOL     OW14797   5.096   6.997   4.833
 4633SOL    HW114798   5.067   0.005   4.741
 4633SOL    HW214799   5.023   6.945   4.878
 4634SOL     OW14800   2.962   5.405   5.804
 4634SOL    HW114801   2.943   5.403   5.902
 4634SOL    HW214802   2.974   5.312   5.770
 4635SOL     OW14803   5.234   3.917   1.453
 4635SOL    HW114804   5.199   3.875   1.369
 4635SOL    HW214805   5.291   3.996   1.430
 4636SOL     OW14806   1.850   4.391   6.792
 4636SOL    HW114807   1.854   4.491   6.790
 4636SOL    HW214808   1.775   4.360   6.733
 4637SOL     OW14809   0.977   6.854   0.788
 4637SOL    HW114810   1.013   6.787   0.854
 4637SOL    HW214811   0.878   6.844   0.781
 4638SOL     OW14812   4.843   4.178   6.625
 4638SOL    HW114813   4.887   4.186   6.535
 4638SOL    HW214814   4.756   4.130   6.615
 4639SOL     OW14815   2.983   4.539   6.071
 4639SOL    HW114816   3.020   4.522   6.163
 4639SOL    HW214817   3.023   4.623   6.034
 4640SOL     OW14818   5.018   3.969   3.639
 4640SOL    HW114819   4.972   3.928   3.561
 4640SOL    HW214820   5.114   3.986   3.615
 4641SOL     OW14821   2.029   6.996   5.248
 4641SOL    HW114822   2.010   6.925   5.316
 4641SOL    HW214823   1.992   6.968   5.160
 4642SOL     OW14824   0.394   5.299   3.835
 4642SOL    HW114825   0.359   5.223   3.780
 4642SOL    HW214826   0.334   5.313   3.914
 4643SOL     OW14827   6.055   2.966   0.840
 4643SOL    HW114828   5.981   3.030   0.821
 4643SOL    HW214829   6.069   2.907   0.760
 4644SOL     OW14830   6.768   5.180   4.932
 4644SOL    HW114831   6.823   5.114   4.984
 4644SOL    HW214832   6.671   5.160   4.944
 4645SOL     OW14833   0.858   0.953   4.289
 4645SOL    HW114834   0.839   0.942   4.191
 4645SOL    HW214835   0.932   0.892   4.315
 4646SOL     OW14836   1.828   5.807   3.779
 4646SOL    HW114837   1.839   5.707   3.778
 4646SOL    HW214838   1.909   5.850   3.740
 4647SOL     OW14839   1.627   0.718   3.149
 4647SOL    HW114840   1.635   0.790   3.080
 4647SOL    HW214841   1.550   0.658   3.127
 4648SOL     OW14842   3.820   0.948   2.539
 4648SOL    HW114843   3.857   1.024   2.486
 4648SOL    HW214844   3.855   0.861   2.504
 4649SOL     OW14845   5.442   6.866   6.688
 4649SOL    HW114846   5.467   6.926   6.763
 4649SOL    HW214847   5.485   6.899   6.603
 4650SOL     OW14848   4.558   5.118   2.694
 4650SOL    HW114849   4.531   5.143   2.787
 4650SOL    HW214850   4.485   5.141   2.630
 4651SOL     OW14851   6.803   2.587   0.595
 4651SOL    HW114852   6.828   2.608   0.689
 4651SOL    HW214853   6.853   2.505   0.565
 4652SOL     OW14854   6.515   6.883   4.047
 4652SOL    HW114855   6.566   6.833   3.977
 4652SOL    HW214856   6.539   6.980   4.043
 4653SOL     OW14857   5.514   4.518   0.910
 4653SOL    HW114858   5.417   4.518   0.888
 4653SOL    HW214859   5.568   4.517   0.826
 4654SOL     OW14860   1.029   6.983   0.393
 4654SOL    HW114861   1.039   6.893   0.352
 4654SOL    HW214862   0.994   0.031   0.326
 4655SOL     OW14863   5.008   4.220   1.433
 4655SOL    HW114864   4.955   4.156   1.376
 4655SOL    HW214865   4.951   4.255   1.506
 4656SOL     OW14866   1.124   0.876   2.782
 4656SOL    HW114867   1.193   0.811   2.815
 4656SOL    HW214868   1.163   0.968   2.782
 4657SOL     OW14869   5.091   6.156   1.881
 4657SOL    HW114870   5.163   6.191   1.821
 4657SOL    HW214871   5.030   6.097   1.829
 4658SOL     OW14872   3.769   1.183   2.906
 4658SOL    HW114873   3.809   1.181   2.998
 4658SOL    HW214874   3.704   1.259   2.900
 4659SOL     OW14875   3.220   4.853   5.018
 4659SOL    HW114876   3.250   4.773   5.070
 4659SOL    HW214877   3.120   4.856   5.016
 4660SOL     OW14878   1.325   4.459   6.088
 4660SOL    HW114879   1.249   4.396   6.090
 4660SOL    HW214880   1.293   4.552   6.109
 4661SOL     OW14881   3.001   4.349   5.624
 4661SOL    HW114882   3.069   4.422   5.639
 4661SOL    HW214883   2.980   4.343   5.526
 4662SOL     OW14884   3.244   0.116   5.556
 4662SOL    HW114885   3.145   0.107   5.561
 4662SOL    HW214886   3.267   0.183   5.486
 4663SOL     OW14887   0.328   2.430   2.192
 4663SOL    HW114888   0.314   2.388   2.282
 4663SOL    HW214889   0.280   2.518   2.190
 4664SOL     OW14890   1.400   1.438   0.701
 4664SOL    HW114891   1.342   1.362   0.730
 4664SOL    HW214892   1.346   1.501   0.645
 4665SOL     OW14893   3.558   6.926   6.720
 4665SOL    HW114894   3.466   6.932   6.683
 4665SOL    HW214895   3.556   6.879   6.808
 4666SOL     OW14896   1.205   2.551   0.609
 4666SOL    HW114897   1.206   2.506   0.519
 4666SOL    HW214898   1.213   2.650   0.597
 4667SOL     OW14899   6.206   3.495   2.644
 4667SOL    HW114900   6.211   3.590   2.675
 4667SOL    HW214901   6.296   3.464   2.615
 4668SOL     OW14902   4.281   2.064   2.534
 4668SOL    HW114903   4.216   2.100   2.467
 4668SOL    HW214904   4.320   2.141   2.586
 4669SOL     OW14905   4.963   5.909   6.245
 4669SOL    HW114906   5.020   5.926   6.165
 4669SOL    HW214907   4.898   5.984   6.256
 4670SOL     OW14908   3.098   2.382   5.422
 4670SOL    HW114909   3.140   2.355   5.335
 4670SOL    HW214910   3.014   2.433   5.404
 4671SOL     OW14911   6.463   2.631   1.441
 4671SOL    HW114912   6.427   2.540   1.419
 4671SOL    HW214913   6.413   2.669   1.519
 4672SOL     OW14914   2.723   4.611   6.196
 4672SOL    HW114915   2.816   4.596   6.160
 4672SOL    HW214916   2.725   4.687   6.261
 4673SOL     OW14917   5.262   0.160   1.808
 4673SOL    HW114918   5.248   0.208   1.895
 4673SOL    HW214919   5.192   0.090   1.797
 4674SOL     OW14920   5.431   0.129   6.118
 4674SOL    HW114921   5.372   0.111   6.040
 4674SOL    HW214922   5.378   0.122   6.203
 4675SOL     OW14923   1.666   1.411   6.160
 4675SOL    HW114924   1.738   1.443   6.222
 4675SOL    HW214925   1.708   1.378   6.075
 4676SOL     OW14926   0.224   6.308   3.664
 4676SOL    HW114927   0.303   6.354   3.704
 4676SOL    HW214928   0.206   6.223   3.715
 4677SOL     OW14929   2.599   1.370   6.363
 4677SOL    HW114930   2.553   1.385   6.276
 4677SOL    HW214931   2.692   1.335   6.347
 4678SOL     OW14932   1.722   4.432   3.344
 4678SOL    HW114933   1.809   4.479   3.359
 4678SOL    HW214934   1.739   4.339   3.312
 4679SOL     OW14935   4.063   0.418   0.398
 4679SOL    HW114936   4.028   0.511   0.387
 4679SOL    HW214937   3.989   0.357   0.427
 4680SOL     OW14938   3.275   1.642   0.201
 4680SOL    HW114939   3.308   1.736   0.187
 4680SOL    HW214940   3.183   1.633   0.164
 4681SOL     OW14941   5.258   5.193   6.649
 4681SOL    HW114942   5.303   5.106   6.630
 4681SOL    HW214943   5.226   5.194   6.744
 4682SOL     OW14944   4.593   4.480   5.540
 4682SOL    HW114945   4.514   4.467   5.601
 4682SOL    HW214946   4.590   4.411   5.467
 4683SOL     OW14947   4.153   4.697   2.534
 4683SOL    HW114948   4.147   4.602   2.563
 4683SOL    HW214949   4.070   4.722   2.484
 4684SOL     OW14950   5.961   0.705   4.913
 4684SOL    HW114951   6.023   0.783   4.904
 4684SOL    HW214952   5.879   0.733   4.964
 4685SOL     OW14953   1.082   6.032   5.608
 4685SOL    HW114954   1.175   6.009   5.580
 4685SOL    HW214955   1.072   6.132   5.612
 4686SOL     OW14956   3.903   5.275   0.515
 4686SOL    HW114957   3.939   5.266   0.608
 4686SOL    HW214958   3.818   5.223   0.506
 4687SOL     OW14959   6.308   3.872   4.635
 4687SOL    HW114960   6.258   3.790   4.664
 4687SOL    HW214961   6.385   3.845   4.578
 4688SOL     OW14962   5.490   4.268   4.580
 4688SOL    HW114963   5.505   4.170   4.577
 4688SOL    HW214964   5.399   4.289   4.543
 4689SOL     OW14965   5.125   1.018   0.036
 4689SOL    HW114966   5.095   0.937   0.087
 4689SOL    HW214967   5.046   1.075   0.014
 4690SOL     OW14968   1.174   0.419   6.740
 4690SOL    HW114969   1.165   0.451   6.834
 4690SOL    HW214970   1.206   0.494   6.682
 4691SOL     OW14971   2.511   5.000   1.672
 4691SOL    HW114972   2.607   4.997   1.646
 4691SOL    HW214973   2.495   5.079   1.731
 4692SOL     OW14974   5.943   5.844   1.827
 4692SOL    HW114975   5.906   5.789   1.752
 4692SOL    HW214976   5.944   5.941   1.799
 4693SOL     OW14977   1.132   1.778   3.445
 4693SOL    HW114978   1.086   1.835   3.513
 4693SOL    HW214979   1.092   1.686   3.446
 4694SOL     OW14980   1.911   0.707   0.126
 4694SOL    HW114981   1.859   0.781   0.084
 4694SOL    HW214982   1.932   0.730   0.221
 4695SOL     OW14983   1.356   3.074   1.878
 4695SOL    HW114984   1.415   3.007   1.923
 4695SOL    HW214985   1.341   3.151   1.940
 4696SOL     OW14986   0.309   4.336   0.142
 4696SOL    HW114987   0.367   4.284   0.079
 4696SOL    HW214988   0.363   4.364   0.221
 4697SOL     OW14989   1.827   3.128   0.599
 4697SOL    HW114990   1.802   3.033   0.583
 4697SOL    HW214991   1.789   3.159   0.686
 4698SOL     OW14992   4.265   5.162   2.561
 4698SOL    HW114993   4.241   5.087   2.499
 4698SOL    HW214994   4.242   5.249   2.517
 4699SOL     OW14995   1.563   6.611   2.395
 4699SOL    HW114996   1.483   6.554   2.417
 4699SOL    HW214997   1.558   6.638   2.298
 4700SOL     OW14998   6.980   1.348   3.279
 4700SOL    HW114999   6.927   1.422   3.238
 4700SOL    HW215000   0.054   1.345   3.238
 4701SOL     OW15001   2.471   2.749   0.661
 4701SOL    HW115002   2.387   2.800   0.646
 4701SOL    HW215003   2.449   2.657   0.693
 4702SOL     OW15004   4.524   4.857   7.012
 4702SOL    HW115005   4.460   4.932   6.995
 4702SOL    HW215006   4.605   4.868   6.954
 4703SOL     OW15007   0.675   1.761   1.654
 4703SOL    HW115008   0.696   1.820   1.732
 4703SOL    HW215009   0.703   1.806   1.570
 4704SOL     OW15010   0.662   6.370   0.241
 4704SOL    HW115011   0.685   6.406   0.331
 4704SOL    HW215012   0.615   6.282   0.251
 4705SOL     OW15013   3.433   2.901   2.005
 4705SOL    HW115014   3.336   2.884   2.025
 4705SOL    HW215015   3.490   2.850   2.070
 4706SOL     OW15016   3.264   0.117   0.041
 4706SOL    HW115017   3.180   0.130   0.094
 4706SOL    HW215018   3.319   0.201   0.046
 4707SOL     OW15019   1.883   6.927   0.986
 4707SOL    HW115020   1.910   0.000   0.952
 4707SOL    HW215021   1.857   6.934   1.082
 4708SOL     OW15022   1.198   1.530   6.335
 4708SOL    HW115023   1.103   1.506   6.358
 4708SOL    HW215024   1.203   1.628   6.314
 4709SOL     OW15025   4.578   5.417   5.598
 4709SOL    HW115026   4.541   5.508   5.616
 4709SOL    HW215027   4.666   5.426   5.551
 4710SOL     OW15028   5.042   6.943   5.527
 4710SOL    HW115029   5.101   7.015   5.491
 4710SOL    HW215030   5.044   6.946   5.627
 4711SOL     OW15031   6.074   1.319   1.440
 4711SOL    HW115032   6.134   1.397   1.459
 4711SOL    HW215033   6.099   1.243   1.501
 4712SOL     OW15034   2.681   4.357   0.283
 4712SOL    HW115035   2.777   4.329   0.279
 4712SOL    HW215036   2.649   4.381   0.192
 4713SOL     OW15037   3.815   4.263   0.717
 4713SOL    HW115038   3.759   4.262   0.800
 4713SOL    HW215039   3.776   4.201   0.650
 4714SOL     OW15040   0.567   1.939   6.383
 4714SOL    HW115041   0.509   1.875   6.434
 4714SOL    HW215042   0.518   2.025   6.368
 4715SOL     OW15043   5.699   2.458   2.538
 4715SOL    HW115044   5.668   2.375   2.585
 4715SOL    HW215045   5.648   2.536   2.572
 4716SOL     OW15046   4.634   5.923   6.448
 4716SOL    HW115047   4.693   5.911   6.528
 4716SOL    HW215048   4.565   5.851   6.448
 4717SOL     OW15049   6.933   6.982   3.886
 4717SOL    HW115050   7.007   6.915   3.892
 4717SOL    HW215051   6.891   6.977   3.795
 4718SOL     OW15052   5.178   2.479   1.786
 4718SOL    HW115053   5.256   2.541   1.795
 4718SOL    HW215054   5.109   2.520   1.727
 4719SOL     OW15055   4.656   3.158   1.668
 4719SOL    HW115056   4.653   3.105   1.752
 4719SOL    HW215057   4.563   3.189   1.645
 4720SOL     OW15058   2.247   5.623   6.069
 4720SOL    HW115059   2.302   5.695   6.111
 4720SOL    HW215060   2.227   5.553   6.137
 4721SOL     OW15061   6.398   2.249   2.218
 4721SOL    HW115062   6.314   2.232   2.270
 4721SOL    HW215063   6.448   2.325   2.261
 4722SOL     OW15064   1.055   5.989   6.470
 4722SOL    HW115065   0.965   6.025   6.496
 4722SOL    HW215066   1.044   5.899   6.427
 4723SOL     OW15067   2.617   3.817   5.806
 4723SOL    HW115068   2.660   3.730   5.830
 4723SOL    HW215069   2.604   3.872   5.889
 4724SOL     OW15070   5.954   6.581   3.006
 4724SOL    HW115071   5.932   6.561   2.911
 4724SOL    HW215072   5.870   6.584   3.060
 4725SOL     OW15073   6.376   5.385   1.521
 4725SOL    HW115074   6.277   5.387   1.510
 4725SOL    HW215075   6.416   5.467   1.478
 4726SOL     OW15076   1.218   2.291   6.053
 4726SOL    HW115077   1.167   2.287   5.967
 4726SOL    HW215078   1.199   2.209   6.107
 4727SOL     OW15079   1.260   5.911   1.093
 4727SOL    HW115080   1.337   5.937   1.151
 4727SOL    HW215081   1.257   5.971   1.013
 4728SOL     OW15082   5.962   1.042   2.040
 4728SOL    HW115083   6.019   1.086   2.109
 4728SOL    HW215084   6.019   1.012   1.963
 4729SOL     OW15085   3.489   1.805   0.685
 4729SOL    HW115086   3.403   1.773   0.646
 4729SOL    HW215087   3.515   1.745   0.761
 4730SOL     OW15088   3.409   6.159   5.520
 4730SOL    HW115089   3.467   6.226   5.566
 4730SOL    HW215090   3.327   6.204   5.486
 4731SOL     OW15091   4.225   0.348   6.736
 4731SOL    HW115092   4.127   0.334   6.727
 4731SOL    HW215093   4.245   0.446   6.735
 4732SOL     OW15094   1.387   4.110   6.035
 4732SOL    HW115095   1.456   4.165   6.081
 4732SOL    HW215096   1.422   4.079   5.946
 4733SOL     OW15097   1.079   4.046   3.815
 4733SOL    HW115098   1.152   4.003   3.870
 4733SOL    HW215099   1.034   4.116   3.870
 4734SOL     OW15100   3.862   2.729   0.103
 4734SOL    HW115101   3.951   2.774   0.109
 4734SOL    HW215102   3.856   2.679   0.017
 4735SOL     OW15103   6.120   5.706   3.912
 4735SOL    HW115104   6.042   5.656   3.950
 4735SOL    HW215105   6.092   5.753   3.828
 4736SOL     OW15106   6.573   1.511   5.219
 4736SOL    HW115107   6.588   1.471   5.310
 4736SOL    HW215108   6.493   1.468   5.177
 4737SOL     OW15109   2.591   4.577   1.931
 4737SOL    HW115110   2.553   4.654   1.880
 4737SOL    HW215111   2.690   4.580   1.926
 4738SOL     OW15112   0.537   6.254   3.010
 4738SOL    HW115113   0.596   6.209   2.943
 4738SOL    HW215114   0.514   6.190   3.083
 4739SOL     OW15115   3.794   0.760   3.374
 4739SOL    HW115116   3.758   0.737   3.465
 4739SOL    HW215117   3.881   0.810   3.385
 4740SOL     OW15118   0.748   1.519   1.551
 4740SOL    HW115119   0.743   1.601   1.608
 4740SOL    HW215120   0.680   1.524   1.478
 4741SOL     OW15121   4.748   3.280   0.684
 4741SOL    HW115122   4.687   3.280   0.605
 4741SOL    HW215123   4.813   3.204   0.676
 4742SOL     OW15124   3.331   6.972   6.579
 4742SOL    HW115125   3.277   0.023   6.630
 4742SOL    HW215126   3.347   7.005   6.486
 4743SOL     OW15127   1.604   3.324   3.894
 4743SOL    HW115128   1.614   3.400   3.957
 4743SOL    HW215129   1.616   3.238   3.943
 4744SOL     OW15130   1.791   4.084   0.391
 4744SOL    HW115131   1.793   4.028   0.308
 4744SOL    HW215132   1.696   4.100   0.419
 4745SOL     OW15133   2.956   4.694   6.806
 4745SOL    HW115134   2.928   4.598   6.815
 4745SOL    HW215135   3.045   4.698   6.761
 4746SOL     OW15136   5.308   5.670   2.328
 4746SOL    HW115137   5.354   5.582   2.341
 4746SOL    HW215138   5.299   5.716   2.417
 4747SOL     OW15139   1.577   3.534   6.644
 4747SOL    HW115140   1.550   3.485   6.727
 4747SOL    HW215141   1.593   3.468   6.570
 4748SOL     OW15142   1.766   4.726   0.777
 4748SOL    HW115143   1.856   4.755   0.809
 4748SOL    HW215144   1.708   4.806   0.762
 4749SOL     OW15145   2.382   6.524   5.700
 4749SOL    HW115146   2.451   6.576   5.751
 4749SOL    HW215147   2.426   6.472   5.627
 4750SOL     OW15148   0.350   4.120   3.959
 4750SOL    HW115149   0.380   4.050   3.894
 4750SOL    HW215150   0.382   4.209   3.928
 4751SOL     OW15151   4.062   1.751   2.034
 4751SOL    HW115152   4.095   1.829   1.981
 4751SOL    HW215153   3.975   1.773   2.077
 4752SOL     OW15154   4.470   0.695   6.190
 4752SOL    HW115155   4.435   0.606   6.219
 4752SOL    HW215156   4.570   0.690   6.184
 4753SOL     OW15157   5.443   0.228   4.036
 4753SOL    HW115158   5.475   0.218   4.130
 4753SOL    HW215159   5.446   0.140   3.990
 4754SOL     OW15160   6.005   6.105   4.648
 4754SOL    HW115161   6.071   6.147   4.586
 4754SOL    HW215162   6.032   6.124   4.743
 4755SOL     OW15163   2.607   0.629   0.765
 4755SOL    HW115164   2.630   0.707   0.824
 4755SOL    HW215165   2.595   0.548   0.822
 4756SOL     OW15166   5.661   2.858   0.360
 4756SOL    HW115167   5.650   2.868   0.459
 4756SOL    HW215168   5.580   2.815   0.321
 4757SOL     OW15169   2.449   1.732   1.062
 4757SOL    HW115170   2.512   1.794   1.014
 4757SOL    HW215171   2.360   1.733   1.017
 4758SOL     OW15172   2.199   6.271   3.772
 4758SOL    HW115173   2.106   6.257   3.805
 4758SOL    HW215174   2.252   6.188   3.786
 4759SOL     OW15175   6.051   4.552   5.385
 4759SOL    HW115176   6.051   4.646   5.352
 4759SOL    HW215177   6.143   4.526   5.414
 4760SOL     OW15178   2.218   2.327   0.620
 4760SOL    HW115179   2.149   2.348   0.689
 4760SOL    HW215180   2.174   2.291   0.538
 4761SOL     OW15181   0.913   6.027   0.441
 4761SOL    HW115182   0.826   5.980   0.460
 4761SOL    HW215183   0.907   6.073   0.353
 4762SOL     OW15184   0.616   6.209   2.141
 4762SOL    HW115185   0.592   6.113   2.130
 4762SOL    HW215186   0.668   6.240   2.061
 4763SOL     OW15187   5.982   6.908   3.145
 4763SOL    HW115188   6.005   6.932   3.051
 4763SOL    HW215189   5.944   6.989   3.191
 4764SOL     OW15190   4.931   3.847   4.372
 4764SOL    HW115191   5.008   3.894   4.328
 4764SOL    HW215192   4.950   3.837   4.469
 4765SOL     OW15193   5.048   1.060   4.003
 4765SOL    HW115194   5.141   1.075   4.038
 4765SOL    HW215195   4.985   1.124   4.046
 4766SOL     OW15196   5.273   6.198   4.498
 4766SOL    HW115197   5.242   6.291   4.479
 4766SOL    HW215198   5.259   6.177   4.595
 4767SOL     OW15199   3.327   5.749   5.642
 4767SOL    HW115200   3.399   5.753   5.572
 4767SOL    HW215201   3.298   5.842   5.664
 4768SOL     OW15202   4.641   2.270   6.166
 4768SOL    HW115203   4.667   2.232   6.077
 4768SOL    HW215204   4.563   2.219   6.201
 4769SOL     OW15205   4.649   4.241   6.847
 4769SOL    HW115206   4.681   4.171   6.911
 4769SOL    HW215207   4.725   4.299   6.819
 4770SOL     OW15208   0.580   1.036   4.383
 4770SOL    HW115209   0.517   0.969   4.420
 4770SOL    HW215210   0.657   0.989   4.340
 4771SOL     OW15211   2.762   6.210   5.510
 4771SOL    HW115212   2.828   6.191   5.583
 4771SOL    HW215213   2.757   6.130   5.449
 4772SOL     OW15214   3.918   4.926   1.087
 4772SOL    HW115215   3.985   4.936   1.160
 4772SOL    HW215216   3.964   4.930   0.998
 4773SOL     OW15217   6.920   5.448   3.488
 4773SOL    HW115218   6.882   5.541   3.481
 4773SOL    HW215219   6.897   5.410   3.577
 4774SOL     OW15220   1.638   3.238   1.451
 4774SOL    HW115221   1.622   3.199   1.360
 4774SOL    HW215222   1.558   3.224   1.509
 4775SOL     OW15223   5.255   6.846   2.475
 4775SOL    HW115224   5.286   6.798   2.557
 4775SOL    HW215225   5.279   6.794   2.394
 4776SOL     OW15226   1.279   6.570   5.349
 4776SOL    HW115227   1.200   6.560   5.289
 4776SOL    HW215228   1.307   6.479   5.381
 4777SOL     OW15229   2.088   5.222   1.096
 4777SOL    HW115230   2.165   5.283   1.116
 4777SOL    HW215231   2.015   5.274   1.053
 4778SOL     OW15232   6.161   2.517   3.977
 4778SOL    HW115233   6.179   2.585   3.906
 4778SOL    HW215234   6.105   2.443   3.939
 4779SOL     OW15235   6.210   5.583   2.328
 4779SOL    HW115236   6.296   5.574   2.377
 4779SOL    HW215237   6.153   5.653   2.371
 4780SOL     OW15238   5.968   1.195   0.060
 4780SOL    HW115239   5.913   1.112   0.051
 4780SOL    HW215240   5.986   1.213   0.156
 4781SOL     OW15241   2.234   5.817   2.553
 4781SOL    HW115242   2.272   5.854   2.469
 4781SOL    HW215243   2.135   5.830   2.554
 4782SOL     OW15244   5.491   5.522   0.296
 4782SOL    HW115245   5.526   5.492   0.385
 4782SOL    HW215246   5.407   5.472   0.274
 4783SOL     OW15247   4.964   3.771   0.010
 4783SOL    HW115248   4.874   3.787   6.987
 4783SOL    HW215249   5.032   3.825   6.976
 4784SOL     OW15250   6.325   3.782   6.818
 4784SOL    HW115251   6.412   3.738   6.797
 4784SOL    HW215252   6.341   3.869   6.864
 4785SOL     OW15253   1.555   6.624   2.992
 4785SOL    HW115254   1.602   6.567   2.924
 4785SOL    HW215255   1.465   6.650   2.958
 4786SOL     OW15256   2.197   1.129   0.093
 4786SOL    HW115257   2.158   1.160   0.179
 4786SOL    HW215258   2.183   1.030   0.083
 4787SOL     OW15259   4.003   1.332   2.435
 4787SOL    HW115260   4.045   1.243   2.454
 4787SOL    HW215261   4.050   1.376   2.359
 4788SOL     OW15262   0.074   6.074   6.317
 4788SOL    HW115263   0.048   6.166   6.346
 4788SOL    HW215264   0.105   6.022   6.396
 4789SOL     OW15265   4.574   1.909   1.314
 4789SOL    HW115266   4.657   1.885   1.366
 4789SOL    HW215267   4.514   1.964   1.373
 4790SOL     OW15268   6.144   2.287   5.158
 4790SOL    HW115269   6.230   2.304   5.112
 4790SOL    HW215270   6.068   2.305   5.095
 4791SOL     OW15271   0.323   2.748   1.726
 4791SOL    HW115272   0.356   2.745   1.631
 4791SOL    HW215273   0.376   2.816   1.777
 4792SOL     OW15274   2.107   4.560   3.664
 4792SOL    HW115275   2.177   4.493   3.686
 4792SOL    HW215276   2.069   4.597   3.749
 4793SOL     OW15277   1.766   3.063   5.066
 4793SOL    HW115278   1.691   3.128   5.080
 4793SOL    HW215279   1.833   3.073   5.139
 4794SOL     OW15280   4.745   0.219   4.541
 4794SOL    HW115281   4.713   0.162   4.466
 4794SOL    HW215282   4.751   0.315   4.511
 4795SOL     OW15283   6.014   2.088   4.137
 4795SOL    HW115284   6.080   2.038   4.192
 4795SOL    HW215285   5.922   2.050   4.151
 4796SOL     OW15286   4.906   2.033   4.867
 4796SOL    HW115287   4.933   1.971   4.941
 4796SOL    HW215288   4.893   2.125   4.904
 4797SOL     OW15289   1.227   6.108   5.285
 4797SOL    HW115290   1.131   6.136   5.280
 4797SOL    HW215291   1.270   6.121   5.196
 4798SOL     OW15292   0.728   3.822   5.191
 4798SOL    HW115293   0.762   3.776   5.108
 4798SOL    HW215294   0.650   3.879   5.167
 4799SOL     OW15295   4.817   1.667   0.447
 4799SOL    HW115296   4.841   1.683   0.351
 4799SOL    HW215297   4.726   1.627   0.453
 4800SOL     OW15298   2.897   2.614   6.425
 4800SOL    HW115299   2.828   2.562   6.476
 4800SOL    HW215300   2.871   2.619   6.329
 4801SOL     OW15301   2.898   2.315   6.744
 4801SOL    HW115302   2.852   2.275   6.824
 4801SOL    HW215303   2.990   2.344   6.769
 4802SOL     OW15304   1.220   6.759   1.900
 4802SOL    HW115305   1.275   6.738   1.981
 4802SOL    HW215306   1.262   6.835   1.851
 4803SOL     OW15307   0.035   5.031   0.477
 4803SOL    HW115308   6.997   4.958   0.437
 4803SOL    HW215309   7.000   5.117   0.473
 4804SOL     OW15310   6.282   5.889   1.490
 4804SOL    HW115311   6.208   5.954   1.468
 4804SOL    HW215312   6.256   5.834   1.569
 4805SOL     OW15313   6.194   2.125   2.365
 4805SOL    HW115314   6.191   2.122   2.465
 4805SOL    HW215315   6.101   2.139   2.329
 4806SOL     OW15316   1.322   4.527   2.672
 4806SOL    HW115317   1.359   4.481   2.753
 4806SOL    HW215318   1.224   4.513   2.667
 4807SOL     OW15319   0.932   4.784   0.367
 4807SOL    HW115320   0.849   4.812   0.319
 4807SOL    HW215321   0.997   4.744   0.302
 4808SOL     OW15322   5.055   4.595   0.234
 4808SOL    HW115323   5.127   4.575   0.301
 4808SOL    HW215324   5.002   4.674   0.265
 4809SOL     OW15325   3.467   4.884   0.525
 4809SOL    HW115326   3.421   4.954   0.471
 4809SOL    HW215327   3.400   4.836   0.582
 4810SOL     OW15328   1.648   5.142   2.705
 4810SOL    HW115329   1.588   5.064   2.687
 4810SOL    HW215330   1.701   5.126   2.788
 4811SOL     OW15331   2.597   3.873   1.678
 4811SOL    HW115332   2.688   3.915   1.681
 4811SOL    HW215333   2.607   3.773   1.674
 4812SOL     OW15334   0.001   5.382   2.260
 4812SOL    HW115335   0.046   5.295   2.242
 4812SOL    HW215336   6.919   5.372   2.246
 4813SOL     OW15337   6.234   1.979   6.795
 4813SOL    HW115338   6.219   1.902   6.733
 4813SOL    HW215339   6.312   2.033   6.762
 4814SOL     OW15340   0.287   3.350   1.290
 4814SOL    HW115341   0.226   3.337   1.368
 4814SOL    HW215342   0.314   3.260   1.253
 4815SOL     OW15343   5.349   3.822   2.437
 4815SOL    HW115344   5.317   3.855   2.347
 4815SOL    HW215345   5.391   3.732   2.427
 4816SOL     OW15346   2.193   4.249   1.045
 4816SOL    HW115347   2.160   4.337   1.011
 4816SOL    HW215348   2.163   4.176   0.984
 4817SOL     OW15349   1.359   1.555   6.658
 4817SOL    HW115350   1.261   1.562   6.639
 4817SOL    HW215351   1.401   1.487   6.597
 4818SOL     OW15352   0.701   6.509   4.452
 4818SOL    HW115353   0.689   6.417   4.489
 4818SOL    HW215354   0.740   6.569   4.522
 4819SOL     OW15355   1.447   2.267   0.340
 4819SOL    HW115356   1.421   2.191   0.281
 4819SOL    HW215357   1.547   2.277   0.339
 4820SOL     OW15358   6.317   2.632   2.470
 4820SOL    HW115359   6.246   2.659   2.405
 4820SOL    HW215360   6.279   2.569   2.537
 4821SOL     OW15361   0.862   6.442   2.414
 4821SOL    HW115362   0.906   6.434   2.325
 4821SOL    HW215363   0.762   6.439   2.402
 4822SOL     OW15364   2.143   3.430   4.604
 4822SOL    HW115365   2.115   3.465   4.694
 4822SOL    HW215366   2.088   3.349   4.582
 4823SOL     OW15367   1.961   0.367   4.587
 4823SOL    HW115368   2.022   0.292   4.612
 4823SOL    HW215369   1.869   0.347   4.622
 4824SOL     OW15370   5.262   1.787   4.627
 4824SOL    HW115371   5.356   1.818   4.611
 4824SOL    HW215372   5.201   1.866   4.624
 4825SOL     OW15373   1.795   2.760   4.146
 4825SOL    HW115374   1.819   2.782   4.241
 4825SOL    HW215375   1.707   2.713   4.145
 4826SOL     OW15376   6.267   1.373   6.616
 4826SOL    HW115377   6.200   1.440   6.583
 4826SOL    HW215378   6.236   1.336   6.703
 4827SOL     OW15379   6.015   1.544   0.559
 4827SOL    HW115380   6.022   1.603   0.479
 4827SOL    HW215381   5.954   1.586   0.626
 4828SOL     OW15382   5.410   2.991   0.596
 4828SOL    HW115383   5.326   2.974   0.545
 4828SOL    HW215384   5.462   2.906   0.607
 4829SOL     OW15385   4.015   6.745   6.282
 4829SOL    HW115386   4.103   6.739   6.331
 4829SOL    HW215387   3.947   6.690   6.330
 4830SOL     OW15388   4.296   6.669   3.774
 4830SOL    HW115389   4.341   6.606   3.712
 4830SOL    HW215390   4.291   6.629   3.865
 4831SOL     OW15391   0.107   4.561   6.087
 4831SOL    HW115392   0.151   4.617   6.158
 4831SOL    HW215393   0.177   4.518   6.031
 4832SOL     OW15394   3.413   3.315   4.197
 4832SOL    HW115395   3.347   3.387   4.221
 4832SOL    HW215396   3.470   3.347   4.121
 4833SOL     OW15397   4.710   2.385   3.087
 4833SOL    HW115398   4.685   2.310   3.026
 4833SOL    HW215399   4.810   2.393   3.090
 4834SOL     OW15400   3.940   6.344   1.302
 4834SOL    HW115401   4.023   6.290   1.316
 4834SOL    HW215402   3.870   6.287   1.257
 4835SOL     OW15403   6.074   1.612   6.813
 4835SOL    HW115404   6.003   1.551   6.848
 4835SOL    HW215405   6.156   1.603   6.868
 4836SOL     OW15406   5.464   3.223   4.680
 4836SOL    HW115407   5.427   3.279   4.606
 4836SOL    HW215408   5.394   3.161   4.714
 4837SOL     OW15409   6.649   4.134   2.734
 4837SOL    HW115410   6.562   4.087   2.748
 4837SOL    HW215411   6.701   4.136   2.819
 4838SOL     OW15412   0.990   5.081   0.179
 4838SOL    HW115413   0.937   5.069   0.263
 4838SOL    HW215414   0.928   5.101   0.103
 4839SOL     OW15415   1.852   3.237   6.381
 4839SOL    HW115416   1.851   3.137   6.380
 4839SOL    HW215417   1.912   3.271   6.309
 4840SOL     OW15418   6.675   4.465   6.346
 4840SOL    HW115419   6.773   4.483   6.356
 4840SOL    HW215420   6.662   4.372   6.311
 4841SOL     OW15421   2.522   5.542   1.792
 4841SOL    HW115422   2.595   5.562   1.857
 4841SOL    HW215423   2.562   5.515   1.704
 4842SOL     OW15424   3.615   5.370   3.106
 4842SOL    HW115425   3.561   5.364   3.190
 4842SOL    HW215426   3.663   5.284   3.091
 4843SOL     OW15427   6.700   3.160   1.083
 4843SOL    HW115428   6.625   3.121   1.136
 4843SOL    HW215429   6.768   3.199   1.146
 4844SOL     OW15430   0.956   3.155   6.196
 4844SOL    HW115431   0.932   3.169   6.292
 4844SOL    HW215432   1.004   3.236   6.161
 4845SOL     OW15433   5.102   5.282   6.393
 4845SOL    HW115434   5.160   5.239   6.462
 4845SOL    HW215435   5.040   5.347   6.437
 4846SOL     OW15436   0.016   3.144   3.628
 4846SOL    HW115437   6.955   3.168   3.569
 4846SOL    HW215438   0.060   3.061   3.594
 4847SOL     OW15439   2.159   0.405   6.604
 4847SOL    HW115440   2.197   0.477   6.662
 4847SOL    HW215441   2.233   0.365   6.548
 4848SOL     OW15442   1.753   0.886   4.326
 4848SOL    HW115443   1.745   0.948   4.248
 4848SOL    HW215444   1.849   0.863   4.341
 4849SOL     OW15445   0.938   5.573   0.099
 4849SOL    HW115446   0.950   5.501   0.168
 4849SOL    HW215447   0.887   5.649   0.138
 4850SOL     OW15448   3.673   1.523   2.121
 4850SOL    HW115449   3.638   1.445   2.174
 4850SOL    HW215450   3.737   1.490   2.053
 4851SOL     OW15451   4.074   6.929   5.750
 4851SOL    HW115452   4.168   6.935   5.717
 4851SOL    HW215453   4.059   6.838   5.788
 4852SOL     OW15454   1.508   5.789   5.287
 4852SOL    HW115455   1.545   5.880   5.306
 4852SOL    HW215456   1.428   5.798   5.227
 4853SOL     OW15457   3.430   0.951   2.868
 4853SOL    HW115458   3.379   1.034   2.886
 4853SOL    HW215459   3.488   0.964   2.788
 4854SOL     OW15460   4.352   6.585   1.461
 4854SOL    HW115461   4.288   6.639   1.407
 4854SOL    HW215462   4.397   6.645   1.528
 4855SOL     OW15463   5.977   2.830   4.081
 4855SOL    HW115464   5.996   2.733   4.097
 4855SOL    HW215465   5.962   2.876   4.169
 4856SOL     OW15466   1.280   3.135   3.104
 4856SOL    HW115467   1.269   3.229   3.139
 4856SOL    HW215468   1.222   3.073   3.157
 4857SOL     OW15469   3.334   1.732   4.789
 4857SOL    HW115470   3.294   1.783   4.865
 4857SOL    HW215471   3.359   1.795   4.715
 4858SOL     OW15472   0.541   0.283   4.470
 4858SOL    HW115473   0.593   0.353   4.520
 4858SOL    HW215474   0.502   0.218   4.535
 4859SOL     OW15475   1.002   6.951   4.270
 4859SOL    HW115476   1.077   6.931   4.333
 4859SOL    HW215477   0.986   6.873   4.210
 4860SOL     OW15478   4.313   4.322   1.696
 4860SOL    HW115479   4.380   4.271   1.749
 4860SOL    HW215480   4.334   4.314   1.598
 4861SOL     OW15481   5.993   5.478   6.963
 4861SOL    HW115482   6.074   5.427   6.993
 4861SOL    HW215483   5.955   5.434   6.882
 4862SOL     OW15484   2.429   4.527   4.965
 4862SOL    HW115485   2.438   4.428   4.960
 4862SOL    HW215486   2.487   4.562   5.038
 4863SOL     OW15487   5.082   3.851   0.975
 4863SOL    HW115488   5.144   3.904   0.917
 4863SOL    HW215489   5.124   3.837   1.064
 4864SOL     OW15490   4.562   1.315   2.378
 4864SOL    HW115491   4.464   1.332   2.389
 4864SOL    HW215492   4.607   1.319   2.468
 4865SOL     OW15493   2.310   6.766   4.311
 4865SOL    HW115494   2.373   6.836   4.277
 4865SOL    HW215495   2.330   6.746   4.407
 4866SOL     OW15496   6.422   4.240   1.767
 4866SOL    HW115497   6.379   4.270   1.852
 4866SOL    HW215498   6.363   4.173   1.721
 4867SOL     OW15499   4.221   5.554   2.145
 4867SOL    HW115500   4.189   5.472   2.097
 4867SOL    HW215501   4.213   5.634   2.084
 4868SOL     OW15502   6.696   5.148   2.386
 4868SOL    HW115503   6.723   5.051   2.384
 4868SOL    HW215504   6.597   5.155   2.382
 4869SOL     OW15505   0.773   1.099   1.553
 4869SOL    HW115506   0.707   1.152   1.606
 4869SOL    HW215507   0.742   1.004   1.545
 4870SOL     OW15508   0.043   5.981   1.679
 4870SOL    HW115509   6.993   5.952   1.610
 4870SOL    HW215510   0.115   6.035   1.636
 4871SOL     OW15511   0.850   0.843   5.145
 4871SOL    HW115512   0.760   0.863   5.185
 4871SOL    HW215513   0.885   0.925   5.100
 4872SOL     OW15514   6.589   5.955   3.706
 4872SOL    HW115515   6.610   6.046   3.741
 4872SOL    HW215516   6.547   5.964   3.615
 4873SOL     OW15517   6.539   4.959   3.624
 4873SOL    HW115518   6.493   4.874   3.599
 4873SOL    HW215519   6.530   5.025   3.549
 4874SOL     OW15520   6.182   2.922   2.870
 4874SOL    HW115521   6.195   2.944   2.773
 4874SOL    HW215522   6.238   2.984   2.925
 4875SOL     OW15523   5.821   2.885   1.372
 4875SOL    HW115524   5.850   2.963   1.427
 4875SOL    HW215525   5.900   2.845   1.326
 4876SOL     OW15526   5.730   1.431   4.320
 4876SOL    HW115527   5.824   1.437   4.353
 4876SOL    HW215528   5.698   1.336   4.325
 4877SOL     OW15529   1.069   1.901   6.470
 4877SOL    HW115530   1.056   1.878   6.566
 4877SOL    HW215531   1.081   1.999   6.460
 4878SOL     OW15532   6.574   0.440   3.042
 4878SOL    HW115533   6.657   0.496   3.039
 4878SOL    HW215534   6.498   0.489   2.999
 4879SOL     OW15535   4.485   5.321   3.409
 4879SOL    HW115536   4.487   5.342   3.507
 4879SOL    HW215537   4.431   5.238   3.394
 4880SOL     OW15538   5.538   3.400   0.180
 4880SOL    HW115539   5.463   3.438   0.126
 4880SOL    HW215540   5.543   3.301   0.166
 4881SOL     OW15541   1.693   1.286   6.394
 4881SOL    HW115542   1.723   1.191   6.398
 4881SOL    HW215543   1.645   1.302   6.307
 4882SOL     OW15544   4.803   1.652   4.859
 4882SOL    HW115545   4.877   1.638   4.794
 4882SOL    HW215546   4.826   1.728   4.920
 4883SOL     OW15547   5.361   4.130   1.804
 4883SOL    HW115548   5.286   4.117   1.869
 4883SOL    HW215549   5.331   4.104   1.712
 4884SOL     OW15550   3.074   0.249   1.103
 4884SOL    HW115551   3.004   0.253   1.174
 4884SOL    HW215552   3.164   0.263   1.145
 4885SOL     OW15553   1.431   5.478   2.826
 4885SOL    HW115554   1.528   5.476   2.849
 4885SOL    HW215555   1.419   5.449   2.731
 4886SOL     OW15556   0.396   6.052   1.102
 4886SOL    HW115557   0.339   6.041   1.184
 4886SOL    HW215558   0.484   6.008   1.117
 4887SOL     OW15559   0.636   0.519   3.022
 4887SOL    HW115560   0.536   0.527   3.016
 4887SOL    HW215561   0.672   0.594   3.078
 4888SOL     OW15562   1.995   6.642   4.643
 4888SOL    HW115563   2.090   6.630   4.673
 4888SOL    HW215564   1.978   6.587   4.562
 4889SOL     OW15565   6.362   0.963   6.227
 4889SOL    HW115566   6.295   1.031   6.256
 4889SOL    HW215567   6.394   0.985   6.135
 4890SOL     OW15568   0.970   1.825   6.715
 4890SOL    HW115569   0.875   1.853   6.703
 4890SOL    HW215570   1.012   1.878   6.788
 4891SOL     OW15571   1.511   4.749   6.957
 4891SOL    HW115572   1.551   4.707   6.876
 4891SOL    HW215573   1.434   4.807   6.931
 4892SOL     OW15574   3.408   6.329   1.817
 4892SOL    HW115575   3.366   6.258   1.873
 4892SOL    HW215576   3.416   6.414   1.870
 4893SOL     OW15577   6.880   4.054   1.609
 4893SOL    HW115578   6.955   4.009   1.561
 4893SOL    HW215579   6.838   4.123   1.549
 4894SOL     OW15580   2.114   1.667   2.634
 4894SOL    HW115581   2.127   1.700   2.541
 4894SOL    HW215582   2.075   1.575   2.631
 4895SOL     OW15583   0.544   5.055   3.281
 4895SOL    HW115584   0.578   4.964   3.258
 4895SOL    HW215585   0.543   5.066   3.381
 4896SOL     OW15586   1.708   5.619   1.999
 4896SOL    HW115587   1.620   5.611   2.045
 4896SOL    HW215588   1.778   5.570   2.052
 4897SOL     OW15589   2.526   4.152   6.333
 4897SOL    HW115590   2.586   4.220   6.375
 4897SOL    HW215591   2.531   4.160   6.234
 4898SOL     OW15592   3.475   1.335   3.894
 4898SOL    HW115593   3.533   1.254   3.906
 4898SOL    HW215594   3.478   1.390   3.978
 4899SOL     OW15595   6.274   5.325   3.038
 4899SOL    HW115596   6.254   5.276   2.953
 4899SOL    HW215597   6.366   5.364   3.033
 4900SOL     OW15598   1.873   5.794   4.536
 4900SOL    HW115599   1.774   5.800   4.548
 4900SOL    HW215600   1.919   5.848   4.606
 4901SOL     OW15601   3.296   6.349   6.252
 4901SOL    HW115602   3.338   6.416   6.191
 4901SOL    HW215603   3.354   6.268   6.258
 4902SOL     OW15604   2.819   1.865   4.620
 4902SOL    HW115605   2.797   1.767   4.617
 4902SOL    HW215606   2.907   1.880   4.576
 4903SOL     OW15607   3.080   5.884   6.851
 4903SOL    HW115608   3.135   5.934   6.784
 4903SOL    HW215609   3.140   5.846   6.922
 4904SOL     OW15610   1.801   0.516   3.973
 4904SOL    HW115611   1.757   0.453   4.037
 4904SOL    HW215612   1.788   0.610   4.004
 4905SOL     OW15613   3.611   0.734   2.343
 4905SOL    HW115614   3.549   0.659   2.320
 4905SOL    HW215615   3.607   0.751   2.441
 4906SOL     OW15616   4.811   2.333   5.792
 4906SOL    HW115617   4.776   2.253   5.841
 4906SOL    HW215618   4.876   2.303   5.722
 4907SOL     OW15619   4.419   5.698   1.171
 4907SOL    HW115620   4.446   5.674   1.265
 4907SOL    HW215621   4.337   5.755   1.173
 4908SOL     OW15622   5.057   4.905   6.666
 4908SOL    HW115623   5.012   4.985   6.625
 4908SOL    HW215624   5.016   4.886   6.755
 4909SOL     OW15625   6.864   0.292   4.234
 4909SOL    HW115626   6.790   0.259   4.293
 4909SOL    HW215627   6.923   0.216   4.208
 4910SOL     OW15628   5.187   6.574   4.831
 4910SOL    HW115629   5.282   6.570   4.860
 4910SOL    HW215630   5.174   6.651   4.769
 4911SOL     OW15631   1.020   3.771   4.130
 4911SOL    HW115632   1.087   3.747   4.200
 4911SOL    HW215633   0.928   3.756   4.165
 4912SOL     OW15634   5.309   1.511   6.961
 4912SOL    HW115635   5.389   1.554   6.920
 4912SOL    HW215636   5.336   1.430   7.012
 4913SOL     OW15637   3.599   3.423   4.782
 4913SOL    HW115638   3.637   3.406   4.873
 4913SOL    HW215639   3.590   3.337   4.733
 4914SOL     OW15640   3.702   6.840   5.652
 4914SOL    HW115641   3.667   6.932   5.665
 4914SOL    HW215642   3.792   6.844   5.609
 4915SOL     OW15643   4.470   0.449   4.498
 4915SOL    HW115644   4.568   0.441   4.516
 4915SOL    HW215645   4.433   0.360   4.473
 4916SOL     OW15646   1.595   0.794   3.822
 4916SOL    HW115647   1.557   0.777   3.913
 4916SOL    HW215648   1.694   0.787   3.826
 4917SOL     OW15649   1.764   4.794   1.215
 4917SOL    HW115650   1.811   4.872   1.173
 4917SOL    HW215651   1.671   4.788   1.179
 4918SOL     OW15652   3.882   6.225   2.603
 4918SOL    HW115653   3.920   6.234   2.694
 4918SOL    HW215654   3.831   6.138   2.597
 4919SOL     OW15655   3.016   1.994   6.665
 4919SOL    HW115656   3.057   1.997   6.756
 4919SOL    HW215657   3.037   2.078   6.616
 4920SOL     OW15658   5.464   0.609   5.090
 4920SOL    HW115659   5.421   0.695   5.060
 4920SOL    HW215660   5.481   0.614   5.189
 4921SOL     OW15661   1.714   4.350   0.596
 4921SOL    HW115662   1.685   4.281   0.530
 4921SOL    HW215663   1.643   4.421   0.603
 4922SOL     OW15664   1.954   2.869   4.645
 4922SOL    HW115665   2.040   2.818   4.645
 4922SOL    HW215666   1.903   2.849   4.729
 4923SOL     OW15667   3.973   1.759   0.761
 4923SOL    HW115668   3.961   1.858   0.773
 4923SOL    HW215669   4.063   1.733   0.796
 4924SOL     OW15670   2.359   1.613   5.650
 4924SOL    HW115671   2.412   1.551   5.708
 4924SOL    HW215672   2.412   1.697   5.634
 4925SOL     OW15673   5.596   6.632   2.172
 4925SOL    HW115674   5.506   6.644   2.129
 4925SOL    HW215675   5.604   6.693   2.251
 4926SOL     OW15676   5.375   2.129   0.334
 4926SOL    HW115677   5.436   2.070   0.282
 4926SOL    HW215678   5.290   2.142   0.284
 4927SOL     OW15679   4.112   3.584   4.148
 4927SOL    HW115680   4.117   3.581   4.248
 4927SOL    HW215681   4.084   3.675   4.119
 4928SOL     OW15682   1.172   0.157   6.742
 4928SOL    HW115683   1.218   0.246   6.751
 4928SOL    HW215684   1.074   0.169   6.756
 4929SOL     OW15685   1.016   4.917   4.142
 4929SOL    HW115686   1.055   4.943   4.231
 4929SOL    HW215687   1.076   4.850   4.098
 4930SOL     OW15688   4.396   0.657   3.153
 4930SOL    HW115689   4.366   0.727   3.089
 4930SOL    HW215690   4.360   0.568   3.126
 4931SOL     OW15691   0.010   0.122   0.633
 4931SOL    HW115692   6.964   0.096   0.559
 4931SOL    HW215693   0.024   0.044   0.694
 4932SOL     OW15694   2.644   3.377   1.736
 4932SOL    HW115695   2.696   3.354   1.818
 4932SOL    HW215696   2.553   3.410   1.762
 4933SOL     OW15697   1.972   0.235   3.612
 4933SOL    HW115698   1.885   0.283   3.627
 4933SOL    HW215699   2.017   0.220   3.700
 4934SOL     OW15700   2.671   5.182   2.914
 4934SOL    HW115701   2.618   5.149   2.992
 4934SOL    HW215702   2.731   5.256   2.944
 4935SOL     OW15703   1.428   1.400   6.427
 4935SOL    HW115704   1.368   1.467   6.384
 4935SOL    HW215705   1.376   1.316   6.446
 4936SOL     OW15706   1.774   4.805   1.502
 4936SOL    HW115707   1.768   4.781   1.406
 4936SOL    HW215708   1.849   4.755   1.545
 4937SOL     OW15709   6.649   2.684   5.963
 4937SOL    HW115710   6.617   2.709   6.055
 4937SOL    HW215711   6.699   2.598   5.968
 4938SOL     OW15712   2.287   6.234   6.166
 4938SOL    HW115713   2.327   6.166   6.105
 4938SOL    HW215714   2.244   6.187   6.244
 4939SOL     OW15715   6.391   2.163   4.250
 4939SOL    HW115716   6.358   2.255   4.231
 4939SOL    HW215717   6.469   2.143   4.191
 4940SOL     OW15718   0.954   1.064   5.061
 4940SOL    HW115719   1.033   1.101   5.109
 4940SOL    HW215720   0.943   1.111   4.973
 4941SOL     OW15721   5.039   2.852   5.312
 4941SOL    HW115722   4.957   2.894   5.351
 4941SOL    HW215723   5.021   2.823   5.218
 4942SOL     OW15724   5.490   3.574   5.760
 4942SOL    HW115725   5.529   3.655   5.715
 4942SOL    HW215726   5.465   3.596   5.854
 4943SOL     OW15727   4.563   3.545   5.901
 4943SOL    HW115728   4.646   3.490   5.896
 4943SOL    HW215729   4.569   3.609   5.978
 4944SOL     OW15730   2.480   4.309   1.826
 4944SOL    HW115731   2.481   4.313   1.726
 4944SOL    HW215732   2.519   4.393   1.863
 4945SOL     OW15733   1.292   0.246   4.245
 4945SOL    HW115734   1.217   0.304   4.275
 4945SOL    HW215735   1.318   0.182   4.318
 4946SOL     OW15736   1.443   5.187   6.976
 4946SOL    HW115737   1.368   5.206   0.023
 4946SOL    HW215738   1.462   5.089   6.976
 4947SOL     OW15739   2.052   0.611   0.881
 4947SOL    HW115740   2.080   0.525   0.837
 4947SOL    HW215741   1.984   0.591   0.952
 4948SOL     OW15742   1.780   3.146   2.786
 4948SOL    HW115743   1.760   3.185   2.696
 4948SOL    HW215744   1.793   3.220   2.852
 4949SOL     OW15745   5.817   4.590   5.747
 4949SOL    HW115746   5.867   4.663   5.796
 4949SOL    HW215747   5.813   4.612   5.650
 4950SOL     OW15748   1.707   5.121   4.450
 4950SOL    HW115749   1.792   5.077   4.421
 4950SOL    HW215750   1.649   5.054   4.495
 4951SOL     OW15751   5.699   0.668   4.798
 4951SOL    HW115752   5.609   0.661   4.841
 4951SOL    HW215753   5.768   0.632   4.860
 4952SOL     OW15754   0.691   0.519   5.949
 4952SOL    HW115755   0.726   0.427   5.968
 4952SOL    HW215756   0.598   0.527   5.985
 4953SOL     OW15757   1.938   6.895   3.266
 4953SOL    HW115758   1.939   6.906   3.366
 4953SOL    HW215759   1.926   6.985   3.223
 4954SOL     OW15760   3.894   3.196   0.154
 4954SOL    HW115761   3.891   3.186   0.055
 4954SOL    HW215762   3.937   3.283   0.178
 4955SOL     OW15763   3.170   6.658   6.836
 4955SOL    HW115764   3.129   6.716   6.908
 4955SOL    HW215765   3.259   6.625   6.867
 4956SOL     OW15766   2.197   6.605   4.977
 4956SOL    HW115767   2.178   6.552   5.060
 4956SOL    HW215768   2.119   6.597   4.914
 4957SOL     OW15769   5.368   2.169   2.234
 4957SOL    HW115770   5.326   2.191   2.145
 4957SOL    HW215771   5.439   2.100   2.221
 4958SOL     OW15772   0.259   5.140   5.633
 4958SOL    HW115773   0.181   5.168   5.576
 4958SOL    HW215774   0.237   5.054   5.678
 4959SOL     OW15775   6.096   1.981   0.272
 4959SOL    HW115776   6.083   1.984   0.173
 4959SOL    HW215777   6.167   1.913   0.294
 4960SOL     OW15778   3.546   4.977   3.427
 4960SOL    HW115779   3.538   4.965   3.328
 4960SOL    HW215780   3.455   4.969   3.469
 4961SOL     OW15781   4.053   0.943   5.864
 4961SOL    HW115782   4.086   0.861   5.910
 4961SOL    HW215783   4.021   1.009   5.932
 4962SOL     OW15784   5.581   2.589   0.005
 4962SOL    HW115785   5.585   2.658   6.950
 4962SOL    HW215786   5.575   2.635   0.094
 4963SOL     OW15787   6.734   6.307   0.609
 4963SOL    HW115788   6.769   6.386   0.659
 4963SOL    HW215789   6.669   6.257   0.666
 4964SOL     OW15790   2.974   0.776   3.990
 4964SOL    HW115791   2.950   0.756   3.895
 4964SOL    HW215792   3.056   0.834   3.992
 4965SOL     OW15793   0.253   1.151   2.104
 4965SOL    HW115794   0.192   1.089   2.055
 4965SOL    HW215795   0.275   1.112   2.193
 4966SOL     OW15796   2.817   6.546   5.369
 4966SOL    HW115797   2.817   6.534   5.468
 4966SOL    HW215798   2.850   6.462   5.325
 4967SOL     OW15799   3.969   4.890   5.385
 4967SOL    HW115800   3.960   4.870   5.287
 4967SOL    HW215801   4.029   4.969   5.397
 4968SOL     OW15802   6.618   2.133   4.098
 4968SOL    HW115803   6.596   2.125   4.001
 4968SOL    HW215804   6.656   2.224   4.116
 4969SOL     OW15805   2.605   5.534   3.052
 4969SOL    HW115806   2.688   5.482   3.032
 4969SOL    HW215807   2.532   5.472   3.079
 4970SOL     OW15808   2.552   2.544   2.616
 4970SOL    HW115809   2.552   2.489   2.532
 4970SOL    HW215810   2.644   2.576   2.634
 4971SOL     OW15811   5.583   6.012   3.359
 4971SOL    HW115812   5.512   5.944   3.377
 4971SOL    HW215813   5.602   6.064   3.442
 4972SOL     OW15814   1.032   3.976   0.917
 4972SOL    HW115815   0.998   3.933   0.834
 4972SOL    HW215816   1.123   4.015   0.899
 4973SOL     OW15817   1.329   6.509   2.507
 4973SOL    HW115818   1.242   6.465   2.483
 4973SOL    HW215819   1.311   6.597   2.552
 4974SOL     OW15820   6.373   4.100   0.909
 4974SOL    HW115821   6.452   4.138   0.957
 4974SOL    HW215822   6.299   4.085   0.975
 4975SOL     OW15823   6.450   3.871   5.492
 4975SOL    HW115824   6.384   3.935   5.454
 4975SOL    HW215825   6.443   3.870   5.592
 4976SOL     OW15826   2.169   1.103   3.652
 4976SOL    HW115827   2.128   1.191   3.626
 4976SOL    HW215828   2.136   1.031   3.590
 4977SOL     OW15829   3.855   4.649   6.920
 4977SOL    HW115830   3.904   4.736   6.923
 4977SOL    HW215831   3.767   4.658   6.968
 4978SOL     OW15832   6.883   4.051   4.721
 4978SOL    HW115833   6.886   4.096   4.811
 4978SOL    HW215834   6.788   4.030   4.698
 4979SOL     OW15835   6.882   0.067   6.591
 4979SOL    HW115836   6.943   0.085   6.669
 4979SOL    HW215837   6.838   6.994   6.603
 4980SOL     OW15838   5.347   6.476   2.992
 4980SOL    HW115839   5.432   6.437   3.027
 4980SOL    HW215840   5.276   6.405   2.989
 4981SOL     OW15841   4.985   5.337   0.070
 4981SOL    HW115842   5.029   5.309   7.001
 4981SOL    HW215843   4.901   5.387   0.049
 4982SOL     OW15844   2.972   1.026   5.484
 4982SOL    HW115845   2.891   1.082   5.502
 4982SOL    HW215846   3.012   1.052   5.396
 4983SOL     OW15847   6.151   3.690   5.129
 4983SOL    HW115848   6.063   3.706   5.083
 4983SOL    HW215849   6.194   3.608   5.092
 4984SOL     OW15850   5.488   4.066   3.458
 4984SOL    HW115851   5.537   3.983   3.431
 4984SOL    HW215852   5.437   4.102   3.381
 4985SOL     OW15853   6.209   6.933   3.288
 4985SOL    HW115854   6.135   6.927   3.221
 4985SOL    HW215855   6.198   7.017   3.342
 4986SOL     OW15856   7.009   4.216   1.780
 4986SOL    HW115857   6.960   4.164   1.710
 4986SOL    HW215858   6.944   4.252   1.847
 4987SOL     OW15859   1.238   0.648   2.450
 4987SOL    HW115860   1.165   0.584   2.477
 4987SOL    HW215861   1.303   0.601   2.390
 4988SOL     OW15862   5.262   0.622   2.501
 4988SOL    HW115863   5.173   0.662   2.521
 4988SOL    HW215864   5.305   0.593   2.586
 4989SOL     OW15865   4.949   0.123   1.273
 4989SOL    HW115866   4.894   0.040   1.274
 4989SOL    HW215867   4.987   0.139   1.365
 4990SOL     OW15868   2.731   2.342   5.742
 4990SOL    HW115869   2.637   2.368   5.762
 4990SOL    HW215870   2.732   2.265   5.679
 4991SOL     OW15871   5.930   5.286   3.700
 4991SOL    HW115872   5.839   5.245   3.687
 4991SOL    HW215873   5.942   5.311   3.796
 4992SOL     OW15874   4.902   0.875   3.439
 4992SOL    HW115875   4.955   0.832   3.366
 4992SOL    HW215876   4.950   0.863   3.526
 4993SOL     OW15877   2.509   5.855   4.046
 4993SOL    HW115878   2.575   5.784   4.024
 4993SOL    HW215879   2.435   5.854   3.979
 4994SOL     OW15880   1.842   1.094   3.697
 4994SOL    HW115881   1.870   1.023   3.762
 4994SOL    HW215882   1.905   1.094   3.619
 4995SOL     OW15883   0.178   2.041   5.634
 4995SOL    HW115884   0.148   1.948   5.613
 4995SOL    HW215885   0.173   2.098   5.552
 4996SOL     OW15886   0.717   1.569   2.959
 4996SOL    HW115887   0.720   1.601   2.865
 4996SOL    HW215888   0.746   1.473   2.963
 4997SOL     OW15889   5.461   2.792   2.833
 4997SOL    HW115890   5.366   2.764   2.845
 4997SOL    HW215891   5.480   2.871   2.892
 4998SOL     OW15892   2.256   4.276   5.012
 4998SOL    HW115893   2.305   4.189   5.023
 4998SOL    HW215894   2.172   4.260   4.961
 4999SOL     OW15895   6.490   3.810   0.174
 4999SOL    HW115896   6.394   3.837   0.164
 4999SOL    HW215897   6.517   3.754   0.095
 5000SOL     OW15898   3.049   6.791   3.392
 5000SOL    HW115899   2.958   6.832   3.393
 5000SOL    HW215900   3.089   6.799   3.301
 5001SOL     OW15901   0.332   3.851   0.781
 5001SOL    HW115902   0.290   3.834   0.870
 5001SOL    HW215903   0.374   3.941   0.781
 5002SOL     OW15904   0.397   3.413   3.042
 5002SOL    HW115905   0.446   3.361   2.971
 5002SOL    HW215906   0.458   3.482   3.081
 5003SOL     OW15907   2.615   6.420   2.498
 5003SOL    HW115908   2.632   6.331   2.456
 5003SOL    HW215909   2.541   6.412   2.565
 5004SOL     OW15910   3.329   5.703   6.127
 5004SOL    HW115911   3.318   5.620   6.181
 5004SOL    HW215912   3.274   5.696   6.044
 5005SOL     OW15913   3.538   2.710   0.923
 5005SOL    HW115914   3.625   2.700   0.875
 5005SOL    HW215915   3.464   2.723   0.856
 5006SOL     OW15916   5.425   0.497   0.532
 5006SOL    HW115917   5.328   0.521   0.521
 5006SOL    HW215918   5.445   0.414   0.481
 5007SOL     OW15919   1.341   6.896   0.613
 5007SOL    HW115920   1.268   6.960   0.638
 5007SOL    HW215921   1.403   6.940   0.549
 5008SOL     OW15922   6.405   6.871   2.169
 5008SOL    HW115923   6.315   6.829   2.181
 5008SOL    HW215924   6.474   6.815   2.214
 5009SOL     OW15925   0.846   0.099   0.926
 5009SOL    HW115926   0.924   0.045   0.959
 5009SOL    HW215927   0.867   0.133   0.835
 5010SOL     OW15928   3.976   3.819   2.549
 5010SOL    HW115929   4.000   3.812   2.645
 5010SOL    HW215930   4.012   3.739   2.500
 5011SOL     OW15931   1.917   3.909   2.067
 5011SOL    HW115932   1.994   3.845   2.060
 5011SOL    HW215933   1.903   3.953   1.978
 5012SOL     OW15934   6.077   4.181   5.943
 5012SOL    HW115935   6.022   4.264   5.931
 5012SOL    HW215936   6.035   4.124   6.014
 5013SOL     OW15937   5.065   1.427   6.233
 5013SOL    HW115938   5.083   1.359   6.304
 5013SOL    HW215939   4.985   1.400   6.180
 5014SOL     OW15940   5.822   4.209   0.609
 5014SOL    HW115941   5.792   4.163   0.525
 5014SOL    HW215942   5.907   4.168   0.641
 5015SOL     OW15943   5.041   1.956   4.621
 5015SOL    HW115944   5.030   2.034   4.560
 5015SOL    HW215945   4.984   1.969   4.702
 5016SOL     OW15946   1.996   2.095   6.790
 5016SOL    HW115947   1.941   2.176   6.769
 5016SOL    HW215948   1.948   2.038   6.856
 5017SOL     OW15949   1.909   2.685   0.043
 5017SOL    HW115950   1.903   2.656   6.965
 5017SOL    HW215951   1.854   2.768   0.057
 5018SOL     OW15952   0.349   3.982   2.218
 5018SOL    HW115953   0.381   4.019   2.131
 5018SOL    HW215954   0.250   3.968   2.214
 5019SOL     OW15955   1.133   4.934   6.564
 5019SOL    HW115956   1.051   4.978   6.526
 5019SOL    HW215957   1.198   4.917   6.490
 5020SOL     OW15958   5.185   0.208   6.257
 5020SOL    HW115959   5.162   0.178   6.349
 5020SOL    HW215960   5.245   0.289   6.263
 5021SOL     OW15961   0.575   1.309   6.022
 5021SOL    HW115962   0.586   1.214   6.051
 5021SOL    HW215963   0.580   1.369   6.102
 5022SOL     OW15964   0.783   1.537   6.626
 5022SOL    HW115965   0.767   1.454   6.678
 5022SOL    HW215966   0.769   1.617   6.685
 5023SOL     OW15967   6.699   2.822   1.514
 5023SOL    HW115968   6.669   2.901   1.461
 5023SOL    HW215969   6.642   2.743   1.491
 5024SOL     OW15970   5.837   5.499   1.755
 5024SOL    HW115971   5.845   5.579   1.696
 5024SOL    HW215972   5.920   5.488   1.809
 5025SOL     OW15973   3.267   1.581   2.245
 5025SOL    HW115974   3.268   1.680   2.240
 5025SOL    HW215975   3.281   1.542   2.154
 5026SOL     OW15976   6.181   5.893   5.931
 5026SOL    HW115977   6.171   5.991   5.949
 5026SOL    HW215978   6.262   5.878   5.875
 5027SOL     OW15979   0.150   6.683   2.330
 5027SOL    HW115980   0.185   6.638   2.412
 5027SOL    HW215981   0.058   6.718   2.348
 5028SOL     OW15982   0.193   1.699   2.817
 5028SOL    HW115983   0.254   1.645   2.759
 5028SOL    HW215984   0.239   1.784   2.844
 5029SOL     OW15985   6.669   2.600   2.754
 5029SOL    HW115986   6.616   2.517   2.736
 5029SOL    HW215987   6.679   2.651   2.669
 5030SOL     OW15988   0.103   0.153   0.230
 5030SOL    HW115989   0.072   0.101   0.151
 5030SOL    HW215990   0.198   0.127   0.251
 5031SOL     OW15991   5.755   0.132   4.941
 5031SOL    HW115992   5.768   0.044   4.988
 5031SOL    HW215993   5.685   0.121   4.870
 5032SOL     OW15994   2.192   2.639   1.013
 5032SOL    HW115995   2.142   2.554   1.028
 5032SOL    HW215996   2.132   2.717   1.032
 5033SOL     OW15997   2.632   6.643   5.783
 5033SOL    HW115998   2.667   6.717   5.840
 5033SOL    HW215999   2.708   6.598   5.736
 5034SOL     OW16000   5.064   0.461   2.755
 5034SOL    HW116001   4.969   0.486   2.737
 5034SOL    HW216002   5.070   0.411   2.841
 5035SOL     OW16003   0.452   4.394   0.375
 5035SOL    HW116004   0.470   4.458   0.450
 5035SOL    HW216005   0.533   4.337   0.361
 5036SOL     OW16006   0.768   5.161   0.388
 5036SOL    HW116007   0.762   5.145   0.487
 5036SOL    HW216008   0.698   5.106   0.342
 5037SOL     OW16009   5.120   3.135   3.119
 5037SOL    HW116010   5.164   3.212   3.164
 5037SOL    HW216011   5.078   3.165   3.033
 5038SOL     OW16012   2.262   3.994   6.197
 5038SOL    HW116013   2.292   4.046   6.117
 5038SOL    HW216014   2.316   4.022   6.277
 5039SOL     OW16015   3.141   4.387   5.308
 5039SOL    HW116016   3.084   4.439   5.243
 5039SOL    HW216017   3.091   4.305   5.337
 5040SOL     OW16018   2.390   5.120   6.302
 5040SOL    HW116019   2.387   5.061   6.384
 5040SOL    HW216020   2.474   5.103   6.251
 5041SOL     OW16021   1.580   1.360   2.103
 5041SOL    HW116022   1.499   1.393   2.055
 5041SOL    HW216023   1.560   1.349   2.200
 5042SOL     OW16024   6.484   3.112   0.348
 5042SOL    HW116025   6.389   3.082   0.348
 5042SOL    HW216026   6.508   3.146   0.439
 5043SOL     OW16027   3.446   0.088   6.172
 5043SOL    HW116028   3.542   0.114   6.180
 5043SOL    HW216029   3.388   0.161   6.209
 5044SOL     OW16030   0.643   6.723   0.457
 5044SOL    HW116031   0.722   6.675   0.419
 5044SOL    HW216032   0.669   6.816   0.483
 5045SOL     OW16033   5.124   1.256   6.423
 5045SOL    HW116034   5.063   1.235   6.499
 5045SOL    HW216035   5.213   1.286   6.459
 5046SOL     OW16036   3.446   4.118   2.717
 5046SOL    HW116037   3.380   4.168   2.661
 5046SOL    HW216038   3.419   4.124   2.813
 5047SOL     OW16039   6.640   3.547   2.397
 5047SOL    HW116040   6.735   3.522   2.418
 5047SOL    HW216041   6.632   3.646   2.391
 5048SOL     OW16042   0.248   1.405   2.204
 5048SOL    HW116043   0.327   1.467   2.209
 5048SOL    HW216044   0.273   1.325   2.150
 5049SOL     OW16045   6.386   1.718   5.450
 5049SOL    HW116046   6.348   1.733   5.359
 5049SOL    HW216047   6.460   1.783   5.467
 5050SOL     OW16048   1.457   0.704   1.257
 5050SOL    HW116049   1.449   0.743   1.348
 5050SOL    HW216050   1.468   0.778   1.190
 5051SOL     OW16051   4.690   4.925   1.215
 5051SOL    HW116052   4.620   4.981   1.259
 5051SOL    HW216053   4.646   4.846   1.171
 5052SOL     OW16054   2.120   6.844   6.447
 5052SOL    HW116055   2.027   6.878   6.451
 5052SOL    HW216056   2.184   6.915   6.476
 5053SOL     OW16057   2.148   3.959   2.789
 5053SOL    HW116058   2.075   3.919   2.845
 5053SOL    HW216059   2.198   3.886   2.743
 5054SOL     OW16060   3.395   6.299   4.798
 5054SOL    HW116061   3.439   6.235   4.736
 5054SOL    HW216062   3.440   6.388   4.792
 5055SOL     OW16063   1.569   0.528   5.614
 5055SOL    HW116064   1.567   0.510   5.516
 5055SOL    HW216065   1.655   0.494   5.653
 5056SOL     OW16066   6.645   4.521   0.524
 5056SOL    HW116067   6.694   4.434   0.521
 5056SOL    HW216068   6.630   4.554   0.431
 5057SOL     OW16069   6.821   6.057   5.240
 5057SOL    HW116070   6.782   6.080   5.329
 5057SOL    HW216071   6.769   5.981   5.200
 5058SOL     OW16072   2.879   3.179   5.278
 5058SOL    HW116073   2.788   3.153   5.310
 5058SOL    HW216074   2.874   3.264   5.227
 5059SOL     OW16075   5.808   1.786   3.621
 5059SOL    HW116076   5.823   1.698   3.665
 5059SOL    HW216077   5.773   1.852   3.688
 5060SOL     OW16078   1.209   1.744   5.340
 5060SOL    HW116079   1.209   1.660   5.394
 5060SOL    HW216080   1.284   1.741   5.274
 5061SOL     OW16081   3.888   3.480   2.748
 5061SOL    HW116082   3.968   3.458   2.802
 5061SOL    HW216083   3.883   3.418   2.669
 5062SOL     OW16084   5.169   1.230   3.325
 5062SOL    HW116085   5.149   1.297   3.396
 5062SOL    HW216086   5.198   1.144   3.367
 5063SOL     OW16087   1.229   6.982   2.531
 5063SOL    HW116088   1.279   0.042   2.572
 5063SOL    HW216089   1.261   6.969   2.437
 5064SOL     OW16090   4.909   3.943   1.928
 5064SOL    HW116091   4.828   3.992   1.896
 5064SOL    HW216092   4.991   3.987   1.892
 5065SOL     OW16093   1.689   1.858   4.063
 5065SOL    HW116094   1.719   1.768   4.034
 5065SOL    HW216095   1.589   1.860   4.070
 5066SOL     OW16096   4.118   4.773   0.937
 5066SOL    HW116097   4.166   4.722   1.008
 5066SOL    HW216098   4.033   4.726   0.913
 5067SOL     OW16099   3.569   1.005   2.284
 5067SOL    HW116100   3.626   1.085   2.303
 5067SOL    HW216101   3.625   0.922   2.288
 5068SOL     OW16102   2.594   5.158   6.810
 5068SOL    HW116103   2.611   5.081   6.872
 5068SOL    HW216104   2.660   5.157   6.736
 5069SOL     OW16105   2.280   3.252   5.491
 5069SOL    HW116106   2.273   3.172   5.431
 5069SOL    HW216107   2.368   3.298   5.476
 5070SOL     OW16108   4.551   4.456   3.978
 5070SOL    HW116109   4.503   4.486   4.061
 5070SOL    HW216110   4.621   4.388   4.003
 5071SOL     OW16111   4.235   1.234   3.168
 5071SOL    HW116112   4.153   1.272   3.124
 5071SOL    HW216113   4.244   1.138   3.142
 5072SOL     OW16114   1.029   1.044   1.577
 5072SOL    HW116115   0.934   1.073   1.571
 5072SOL    HW216116   1.047   1.007   1.669
 5073SOL     OW16117   1.042   5.088   1.397
 5073SOL    HW116118   0.992   5.053   1.476
 5073SOL    HW216119   1.133   5.117   1.425
 5074SOL     OW16120   3.562   2.357   0.881
 5074SOL    HW116121   3.601   2.280   0.932
 5074SOL    HW216122   3.512   2.417   0.944
 5075SOL     OW16123   0.982   2.596   6.436
 5075SOL    HW116124   0.919   2.519   6.438
 5075SOL    HW216125   1.014   2.611   6.343
 5076SOL     OW16126   5.155   0.586   0.609
 5076SOL    HW116127   5.089   0.517   0.578
 5076SOL    HW216128   5.195   0.557   0.695
 5077SOL     OW16129   2.279   4.069   5.578
 5077SOL    HW116130   2.270   4.169   5.579
 5077SOL    HW216131   2.365   4.044   5.534
 5078SOL     OW16132   0.403   1.138   4.157
 5078SOL    HW116133   0.308   1.130   4.187
 5078SOL    HW216134   0.464   1.114   4.233
 5079SOL     OW16135   1.963   3.144   4.874
 5079SOL    HW116136   2.008   3.215   4.929
 5079SOL    HW216137   1.900   3.092   4.932
 5080SOL     OW16138   5.987   6.274   6.119
 5080SOL    HW116139   5.975   6.255   6.217
 5080SOL    HW216140   5.903   6.253   6.071
 5081SOL     OW16141   3.587   3.169   5.193
 5081SOL    HW116142   3.685   3.154   5.186
 5081SOL    HW216143   3.541   3.130   5.113
 5082SOL     OW16144   5.459   5.544   1.646
 5082SOL    HW116145   5.447   5.588   1.735
 5082SOL    HW216146   5.393   5.581   1.581
 5083SOL     OW16147   2.596   0.158   2.877
 5083SOL    HW116148   2.536   0.237   2.864
 5083SOL    HW216149   2.541   0.076   2.895
 5084SOL     OW16150   0.083   4.203   4.156
 5084SOL    HW116151   0.167   4.150   4.165
 5084SOL    HW216152   0.076   4.268   4.231
 5085SOL     OW16153   5.931   2.595   6.466
 5085SOL    HW116154   5.924   2.495   6.467
 5085SOL    HW216155   5.843   2.633   6.437
 5086SOL     OW16156   1.069   5.643   3.341
 5086SOL    HW116157   1.113   5.707   3.404
 5086SOL    HW216158   1.101   5.550   3.359
 5087SOL     OW16159   1.930   5.209   3.068
 5087SOL    HW116160   2.015   5.222   3.016
 5087SOL    HW216161   1.909   5.293   3.118
 5088SOL     OW16162   6.040   0.300   4.180
 5088SOL    HW116163   5.944   0.327   4.193
 5088SOL    HW216164   6.067   0.319   4.086
 5089SOL     OW16165   5.696   3.948   3.818
 5089SOL    HW116166   5.792   3.961   3.797
 5089SOL    HW216167   5.686   3.875   3.884
 5090SOL     OW16168   2.145   3.871   2.405
 5090SOL    HW116169   2.142   3.971   2.407
 5090SOL    HW216170   2.239   3.841   2.385
 5091SOL     OW16171   0.295   1.411   1.575
 5091SOL    HW116172   0.325   1.332   1.627
 5091SOL    HW216173   0.232   1.466   1.629
 5092SOL     OW16174   3.645   3.774   2.983
 5092SOL    HW116175   3.685   3.778   3.074
 5092SOL    HW216176   3.546   3.763   2.990
 5093SOL     OW16177   2.971   1.644   0.521
 5093SOL    HW116178   2.940   1.562   0.474
 5093SOL    HW216179   2.899   1.676   0.583
 5094SOL     OW16180   2.370   5.510   5.809
 5094SOL    HW116181   2.350   5.520   5.907
 5094SOL    HW216182   2.368   5.413   5.784
 5095SOL     OW16183   6.296   2.191   3.784
 5095SOL    HW116184   6.359   2.268   3.791
 5095SOL    HW216185   6.349   2.106   3.784
 5096SOL     OW16186   4.062   5.113   0.362
 5096SOL    HW116187   3.991   5.080   0.300
 5096SOL    HW216188   4.027   5.191   0.414
 5097SOL     OW16189   1.169   0.120   6.372
 5097SOL    HW116190   1.110   0.072   6.437
 5097SOL    HW216191   1.254   0.147   6.418
 5098SOL     OW16192   2.546   0.211   2.051
 5098SOL    HW116193   2.552   0.259   1.963
 5098SOL    HW216194   2.506   0.121   2.036
 5099SOL     OW16195   0.931   0.145   0.234
 5099SOL    HW116196   0.925   0.240   0.264
 5099SOL    HW216197   0.963   0.141   0.139
 5100SOL     OW16198   3.360   5.699   4.948
 5100SOL    HW116199   3.319   5.610   4.927
 5100SOL    HW216200   3.328   5.731   5.037
 5101SOL     OW16201   4.861   0.152   0.447
 5101SOL    HW116202   4.850   0.137   0.546
 5101SOL    HW216203   4.853   0.064   0.400
 5102SOL     OW16204   5.663   6.511   4.094
 5102SOL    HW116205   5.656   6.417   4.061
 5102SOL    HW216206   5.747   6.521   4.147
 5103SOL     OW16207   0.324   0.430   3.781
 5103SOL    HW116208   0.342   0.495   3.855
 5103SOL    HW216209   0.304   0.480   3.697
 5104SOL     OW16210   1.870   6.291   2.362
 5104SOL    HW116211   1.927   6.336   2.293
 5104SOL    HW216212   1.779   6.274   2.323
 5105SOL     OW16213   3.018   2.794   0.866
 5105SOL    HW116214   2.934   2.849   0.865
 5105SOL    HW216215   3.061   2.801   0.956
 5106SOL     OW16216   4.258   1.899   0.307
 5106SOL    HW116217   4.306   1.983   0.280
 5106SOL    HW216218   4.320   1.841   0.361
 5107SOL     OW16219   3.434   1.422   0.663
 5107SOL    HW116220   3.437   1.378   0.573
 5107SOL    HW216221   3.398   1.515   0.653
 5108SOL     OW16222   3.543   3.878   5.071
 5108SOL    HW116223   3.478   3.809   5.041
 5108SOL    HW216224   3.610   3.895   4.999
 5109SOL     OW16225   1.231   1.630   0.535
 5109SOL    HW116226   1.157   1.599   0.595
 5109SOL    HW216227   1.233   1.574   0.453
 5110SOL     OW16228   0.445   0.841   6.158
 5110SOL    HW116229   0.498   0.760   6.180
 5110SOL    HW216230   0.404   0.831   6.067
 5111SOL     OW16231   1.759   0.840   5.014
 5111SOL    HW116232   1.774   0.750   4.971
 5111SOL    HW216233   1.703   0.896   4.954
 5112SOL     OW16234   2.142   1.233   3.162
 5112SOL    HW116235   2.052   1.196   3.185
 5112SOL    HW216236   2.195   1.246   3.245
 5113SOL     OW16237   2.159   0.239   1.003
 5113SOL    HW116238   2.144   0.297   1.083
 5113SOL    HW216239   2.070   0.214   0.963
 5114SOL     OW16240   3.283   1.125   6.778
 5114SOL    HW116241   3.184   1.134   6.763
 5114SOL    HW216242   3.311   1.031   6.759
 5115SOL     OW16243   1.759   4.903   4.183
 5115SOL    HW116244   1.836   4.967   4.181
 5115SOL    HW216245   1.790   4.814   4.217
 5116SOL     OW16246   0.167   0.219   5.902
 5116SOL    HW116247   0.080   0.184   5.936
 5116SOL    HW216248   0.195   0.165   5.822
 5117SOL     OW16249   2.228   4.225   4.491
 5117SOL    HW116250   2.251   4.172   4.573
 5117SOL    HW216251   2.181   4.166   4.425
 5118SOL     OW16252   5.022   6.992   6.856
 5118SOL    HW116253   5.032   6.972   6.758
 5118SOL    HW216254   5.113   7.003   6.897
 5119SOL     OW16255   5.032   0.726   2.167
 5119SOL    HW116256   5.078   0.713   2.255
 5119SOL    HW216257   4.941   0.766   2.183
 5120SOL     OW16258   3.649   0.663   3.883
 5120SOL    HW116259   3.625   0.754   3.916
 5120SOL    HW216260   3.704   0.616   3.952
 5121SOL     OW16261   2.547   2.327   6.213
 5121SOL    HW116262   2.496   2.241   6.206
 5121SOL    HW216263   2.513   2.380   6.291
 5122SOL     OW16264   3.677   6.962   2.923
 5122SOL    HW116265   3.584   6.999   2.924
 5122SOL    HW216266   3.682   6.887   2.856
 5123SOL     OW16267   4.414   2.388   4.483
 5123SOL    HW116268   4.497   2.420   4.437
 5123SOL    HW216269   4.391   2.451   4.557
 5124SOL     OW16270   2.463   5.639   5.030
 5124SOL    HW116271   2.480   5.734   5.053
 5124SOL    HW216272   2.505   5.618   4.942
 5125SOL     OW16273   5.927   3.580   4.504
 5125SOL    HW116274   5.934   3.516   4.428
 5125SOL    HW216275   5.929   3.530   4.591
 5126SOL     OW16276   6.206   4.950   4.831
 5126SOL    HW116277   6.239   5.033   4.785
 5126SOL    HW216278   6.284   4.893   4.855
 5127SOL     OW16279   1.001   4.015   0.038
 5127SOL    HW116280   0.976   4.096   7.002
 5127SOL    HW216281   1.081   3.972   7.014
 5128SOL     OW16282   6.761   0.553   6.559
 5128SOL    HW116283   6.766   0.586   6.465
 5128SOL    HW216284   6.673   0.578   6.599
 5129SOL     OW16285   5.635   0.142   2.261
 5129SOL    HW116286   5.707   0.090   2.213
 5129SOL    HW216287   5.575   0.078   2.309
 5130SOL     OW16288   0.738   6.002   3.676
 5130SOL    HW116289   0.831   6.033   3.694
 5130SOL    HW216290   0.693   5.981   3.763
 5131SOL     OW16291   2.713   5.071   3.872
 5131SOL    HW116292   2.676   5.164   3.874
 5131SOL    HW216293   2.688   5.028   3.785
 5132SOL     OW16294   3.226   2.263   6.278
 5132SOL    HW116295   3.292   2.303   6.215
 5132SOL    HW216296   3.221   2.318   6.361
 5133SOL     OW16297   1.132   5.277   6.570
 5133SOL    HW116298   1.053   5.293   6.629
 5133SOL    HW216299   1.213   5.265   6.627
 5134SOL     OW16300   6.878   2.304   2.235
 5134SOL    HW116301   6.816   2.302   2.314
 5134SOL    HW216302   6.895   2.211   2.204
 5135SOL     OW16303   5.640   3.721   3.975
 5135SOL    HW116304   5.560   3.670   4.009
 5135SOL    HW216305   5.702   3.741   4.051
 5136SOL     OW16306   5.091   0.258   6.590
 5136SOL    HW116307   5.163   0.303   6.643
 5136SOL    HW216308   5.083   0.163   6.620
 5137SOL     OW16309   4.492   4.183   5.669
 5137SOL    HW116310   4.423   4.165   5.739
 5137SOL    HW216311   4.460   4.147   5.581
 5138SOL     OW16312   3.970   2.785   5.478
 5138SOL    HW116313   3.920   2.774   5.392
 5138SOL    HW216314   4.054   2.730   5.475
 5139SOL     OW16315   1.452   1.498   3.496
 5139SOL    HW116316   1.404   1.440   3.561
 5139SOL    HW216317   1.527   1.446   3.453
 5140SOL     OW16318   3.932   2.285   5.893
 5140SOL    HW116319   3.994   2.362   5.910
 5140SOL    HW216320   3.968   2.203   5.938
 5141SOL     OW16321   6.027   3.855   0.877
 5141SOL    HW116322   5.979   3.852   0.790
 5141SOL    HW216323   6.117   3.812   0.868
 5142SOL     OW16324   5.632   6.838   2.385
 5142SOL    HW116325   5.548   6.885   2.411
 5142SOL    HW216326   5.710   6.900   2.398
 5143SOL     OW16327   6.644   4.625   4.357
 5143SOL    HW116328   6.609   4.656   4.268
 5143SOL    HW216329   6.611   4.532   4.375
 5144SOL     OW16330   0.769   5.126   5.791
 5144SOL    HW116331   0.850   5.125   5.849
 5144SOL    HW216332   0.693   5.083   5.840
 5145SOL     OW16333   3.690   5.592   6.025
 5145SOL    HW116334   3.781   5.630   6.009
 5145SOL    HW216335   3.622   5.643   5.972
 5146SOL     OW16336   3.277   3.994   5.278
 5146SOL    HW116337   3.314   4.085   5.298
 5146SOL    HW216338   3.349   3.926   5.289
 5147SOL     OW16339   6.555   5.688   3.151
 5147SOL    HW116340   6.556   5.590   3.171
 5147SOL    HW216341   6.472   5.729   3.190
 5148SOL     OW16342   6.502   0.616   1.878
 5148SOL    HW116343   6.404   0.631   1.866
 5148SOL    HW216344   6.518   0.521   1.904
 5149SOL     OW16345   6.270   6.120   3.286
 5149SOL    HW116346   6.269   6.214   3.319
 5149SOL    HW216347   6.208   6.112   3.208
 5150SOL     OW16348   2.382   5.746   3.345
 5150SOL    HW116349   2.481   5.739   3.356
 5150SOL    HW216350   2.361   5.778   3.253
 5151SOL     OW16351   6.780   3.517   1.980
 5151SOL    HW116352   6.860   3.528   2.038
 5151SOL    HW216353   6.708   3.471   2.031
 5152SOL     OW16354   1.773   4.870   6.961
 5152SOL    HW116355   1.779   4.912   6.871
 5152SOL    HW216356   1.680   4.835   6.975
 5153SOL     OW16357   1.501   1.208   0.089
 5153SOL    HW116358   1.460   1.293   0.055
 5153SOL    HW216359   1.457   1.130   0.045
 5154SOL     OW16360   1.267   2.473   5.726
 5154SOL    HW116361   1.210   2.554   5.722
 5154SOL    HW216362   1.214   2.397   5.765
 5155SOL     OW16363   4.422   0.545   2.275
 5155SOL    HW116364   4.436   0.470   2.211
 5155SOL    HW216365   4.367   0.513   2.353
 5156SOL     OW16366   4.921   4.092   6.134
 5156SOL    HW116367   4.922   4.097   6.034
 5156SOL    HW216368   5.007   4.051   6.166
 5157SOL     OW16369   3.592   2.119   3.438
 5157SOL    HW116370   3.502   2.111   3.480
 5157SOL    HW216371   3.611   2.214   3.416
 5158SOL     OW16372   3.715   2.057   1.354
 5158SOL    HW116373   3.812   2.034   1.351
 5158SOL    HW216374   3.667   2.009   1.280
 5159SOL     OW16375   6.315   3.914   5.159
 5159SOL    HW116376   6.395   3.933   5.103
 5159SOL    HW216377   6.286   3.819   5.146
 5160SOL     OW16378   0.652   4.628   2.946
 5160SOL    HW116379   0.621   4.668   3.033
 5160SOL    HW216380   0.575   4.624   2.882
 5161SOL     OW16381   2.019   3.652   5.933
 5161SOL    HW116382   1.923   3.670   5.909
 5161SOL    HW216383   2.077   3.670   5.853
 5162SOL     OW16384   0.874   5.199   2.673
 5162SOL    HW116385   0.852   5.287   2.631
 5162SOL    HW216386   0.801   5.171   2.735
 5163SOL     OW16387   3.082   6.524   0.234
 5163SOL    HW116388   3.146   6.601   0.225
 5163SOL    HW216389   3.126   6.450   0.285
 5164SOL     OW16390   4.275   2.191   6.976
 5164SOL    HW116391   4.338   2.131   6.926
 5164SOL    HW216392   4.181   2.163   6.957
 5165SOL     OW16393   0.068   3.993   5.694
 5165SOL    HW116394   0.023   3.932   5.629
 5165SOL    HW216395   0.152   3.950   5.728
 5166SOL     OW16396   0.388   5.474   2.277
 5166SOL    HW116397   0.475   5.450   2.235
 5166SOL    HW216398   0.344   5.392   2.312
 5167SOL     OW16399   6.646   5.642   5.781
 5167SOL    HW116400   6.723   5.578   5.782
 5167SOL    HW216401   6.644   5.690   5.693
 5168SOL     OW16402   4.856   3.438   1.661
 5168SOL    HW116403   4.909   3.520   1.682
 5168SOL    HW216404   4.875   3.368   1.729
 5169SOL     OW16405   4.181   2.310   4.169
 5169SOL    HW116406   4.153   2.251   4.245
 5169SOL    HW216407   4.119   2.388   4.162
 5170SOL     OW16408   0.995   4.155   5.530
 5170SOL    HW116409   1.060   4.162   5.605
 5170SOL    HW216410   1.044   4.141   5.444
 5171SOL     OW16411   0.842   4.930   5.278
 5171SOL    HW116412   0.803   4.983   5.203
 5171SOL    HW216413   0.828   4.980   5.364
 5172SOL     OW16414   1.420   3.147   2.521
 5172SOL    HW116415   1.433   3.246   2.524
 5172SOL    HW216416   1.359   3.123   2.445
 5173SOL     OW16417   4.807   5.248   4.642
 5173SOL    HW116418   4.809   5.195   4.727
 5173SOL    HW216419   4.898   5.249   4.601
 5174SOL     OW16420   2.293   4.998   3.172
 5174SOL    HW116421   2.388   4.982   3.143
 5174SOL    HW216422   2.232   4.940   3.118
 5175SOL     OW16423   2.425   3.755   6.687
 5175SOL    HW116424   2.382   3.684   6.631
 5175SOL    HW216425   2.485   3.811   6.631
 5176SOL     OW16426   5.154   3.254   6.766
 5176SOL    HW116427   5.155   3.164   6.809
 5176SOL    HW216428   5.088   3.313   6.813
 5177SOL     OW16429   5.736   0.219   0.190
 5177SOL    HW116430   5.823   0.201   0.144
 5177SOL    HW216431   5.663   0.225   0.122
 5178SOL     OW16432   0.992   3.344   2.058
 5178SOL    HW116433   0.998   3.430   2.008
 5178SOL    HW216434   0.920   3.350   2.127
 5179SOL     OW16435   4.339   4.889   3.979
 5179SOL    HW116436   4.398   4.970   3.985
 5179SOL    HW216437   4.392   4.808   4.004
 5180SOL     OW16438   2.944   2.305   0.930
 5180SOL    HW116439   3.015   2.375   0.915
 5180SOL    HW216440   2.855   2.350   0.940
 5181SOL     OW16441   5.048   1.050   2.859
 5181SOL    HW116442   5.143   1.045   2.829
 5181SOL    HW216443   4.993   0.983   2.809
 5182SOL     OW16444   3.976   4.134   1.723
 5182SOL    HW116445   4.068   4.115   1.757
 5182SOL    HW216446   3.916   4.058   1.746
 5183SOL     OW16447   3.907   1.697   2.478
 5183SOL    HW116448   3.901   1.605   2.438
 5183SOL    HW216449   3.818   1.741   2.475
 5184SOL     OW16450   0.555   1.578   4.696
 5184SOL    HW116451   0.565   1.662   4.749
 5184SOL    HW216452   0.554   1.500   4.759
 5185SOL     OW16453   5.768   0.638   2.808
 5185SOL    HW116454   5.695   0.700   2.838
 5185SOL    HW216455   5.832   0.624   2.883
 5186SOL     OW16456   6.259   2.797   0.121
 5186SOL    HW116457   6.190   2.840   0.063
 5186SOL    HW216458   6.350   2.828   0.093
 5187SOL     OW16459   1.295   6.321   4.083
 5187SOL    HW116460   1.317   6.303   3.987
 5187SOL    HW216461   1.346   6.259   4.142
 5188SOL     OW16462   0.331   5.583   1.125
 5188SOL    HW116463   0.302   5.629   1.209
 5188SOL    HW216464   0.319   5.645   1.048
 5189SOL     OW16465   3.973   5.395   1.157
 5189SOL    HW116466   4.050   5.394   1.093
 5189SOL    HW216467   3.970   5.483   1.203
 5190SOL     OW16468   0.818   1.731   4.638
 5190SOL    HW116469   0.849   1.825   4.651
 5190SOL    HW216470   0.721   1.731   4.615
 5191SOL     OW16471   4.143   7.002   1.939
 5191SOL    HW116472   4.049   7.003   1.972
 5191SOL    HW216473   4.148   0.030   1.850
 5192SOL     OW16474   2.336   5.519   2.264
 5192SOL    HW116475   2.324   5.464   2.346
 5192SOL    HW216476   2.394   5.470   2.199
 5193SOL     OW16477   4.803   4.924   4.521
 5193SOL    HW116478   4.859   5.004   4.499
 5193SOL    HW216479   4.706   4.944   4.504
 5194SOL     OW16480   4.471   2.028   6.851
 5194SOL    HW116481   4.456   1.957   6.783
 5194SOL    HW216482   4.569   2.047   6.858
 5195SOL     OW16483   6.825   6.413   4.047
 5195SOL    HW116484   6.861   6.500   4.014
 5195SOL    HW216485   6.794   6.424   4.141
 5196SOL     OW16486   3.711   6.198   1.207
 5196SOL    HW116487   3.638   6.145   1.251
 5196SOL    HW216488   3.680   6.229   1.117
 5197SOL     OW16489   2.304   4.671   5.829
 5197SOL    HW116490   2.305   4.764   5.866
 5197SOL    HW216491   2.391   4.653   5.783
 5198SOL     OW16492   4.549   6.925   3.189
 5198SOL    HW116493   4.476   6.900   3.126
 5198SOL    HW216494   4.521   6.906   3.283
 5199SOL     OW16495   1.666   5.376   0.581
 5199SOL    HW116496   1.569   5.355   0.566
 5199SOL    HW216497   1.676   5.474   0.596
 5200SOL     OW16498   1.195   3.031   5.203
 5200SOL    HW116499   1.279   2.992   5.241
 5200SOL    HW216500   1.140   3.070   5.277
 5201SOL     OW16501   0.130   7.013   2.925
 5201SOL    HW116502   0.062   6.979   2.990
 5201SOL    HW216503   0.220   7.015   2.970
 5202SOL     OW16504   6.100   3.604   5.691
 5202SOL    HW116505   6.026   3.590   5.757
 5202SOL    HW216506   6.129   3.700   5.693
 5203SOL     OW16507   2.459   2.115   0.355
 5203SOL    HW116508   2.474   2.067   0.269
 5203SOL    HW216509   2.361   2.134   0.366
 5204SOL     OW16510   3.935   5.329   0.088
 5204SOL    HW116511   3.887   5.378   0.162
 5204SOL    HW216512   3.871   5.315   0.012
 5205SOL     OW16513   0.932   6.302   1.006
 5205SOL    HW116514   0.953   6.311   1.103
 5205SOL    HW216515   0.977   6.374   0.954
 5206SOL     OW16516   0.603   5.052   6.307
 5206SOL    HW116517   0.661   4.972   6.313
 5206SOL    HW216518   0.659   5.135   6.306
 5207SOL     OW16519   1.099   6.367   3.688
 5207SOL    HW116520   1.183   6.349   3.637
 5207SOL    HW216521   1.114   6.443   3.751
 5208SOL     OW16522   4.332   2.547   6.147
 5208SOL    HW116523   4.279   2.609   6.089
 5208SOL    HW216524   4.429   2.553   6.123
 5209SOL     OW16525   5.889   6.465   2.744
 5209SOL    HW116526   5.799   6.436   2.778
 5209SOL    HW216527   5.887   6.469   2.645
 5210SOL     OW16528   4.459   2.937   6.488
 5210SOL    HW116529   4.369   2.911   6.452
 5210SOL    HW216530   4.530   2.906   6.425
 5211SOL     OW16531   3.596   2.810   5.380
 5211SOL    HW116532   3.557   2.899   5.405
 5211SOL    HW216533   3.605   2.754   5.462
 5212SOL     OW16534   6.979   2.844   0.976
 5212SOL    HW116535   0.023   2.894   0.914
 5212SOL    HW216536   6.885   2.870   0.958
 5213SOL     OW16537   4.603   3.769   6.095
 5213SOL    HW116538   4.633   3.812   6.180
 5213SOL    HW216539   4.532   3.825   6.052
 5214SOL     OW16540   5.516   1.296   5.840
 5214SOL    HW116541   5.445   1.366   5.844
 5214SOL    HW216542   5.515   1.251   5.751
 5215SOL     OW16543   6.780   4.843   4.130
 5215SOL    HW116544   6.873   4.813   4.154
 5215SOL    HW216545   6.786   4.919   4.065
 5216SOL     OW16546   4.870   4.956   2.239
 5216SOL    HW116547   4.857   4.858   2.225
 5216SOL    HW216548   4.869   4.976   2.337
 5217SOL     OW16549   4.260   5.330   4.345
 5217SOL    HW116550   4.199   5.365   4.274
 5217SOL    HW216551   4.210   5.324   4.431
 5218SOL     OW16552   0.749   0.728   3.140
 5218SOL    HW116553   0.737   0.824   3.166
 5218SOL    HW216554   0.823   0.721   3.073
 5219SOL     OW16555   4.550   1.319   4.892
 5219SOL    HW116556   4.601   1.286   4.972
 5219SOL    HW216557   4.528   1.242   4.833
 5220SOL     OW16558   0.578   5.897   2.559
 5220SOL    HW116559   0.631   5.957   2.500
 5220SOL    HW216560   0.511   5.846   2.505
 5221SOL     OW16561   5.486   2.650   4.145
 5221SOL    HW116562   5.469   2.709   4.067
 5221SOL    HW216563   5.398   2.619   4.183
 5222SOL     OW16564   3.340   6.084   3.059
 5222SOL    HW116565   3.422   6.130   3.094
 5222SOL    HW216566   3.296   6.033   3.132
 5223SOL     OW16567   6.392   2.449   0.699
 5223SOL    HW116568   6.419   2.400   0.616
 5223SOL    HW216569   6.299   2.483   0.689
 5224SOL     OW16570   6.587   2.539   4.735
 5224SOL    HW116571   6.512   2.560   4.673
 5224SOL    HW216572   6.590   2.440   4.751
 5225SOL     OW16573   0.716   0.568   3.361
 5225SOL    HW116574   0.794   0.587   3.421
 5225SOL    HW216575   0.735   0.602   3.269
 5226SOL     OW16576   6.861   5.599   4.999
 5226SOL    HW116577   6.851   5.616   4.901
 5226SOL    HW216578   6.949   5.633   5.031
 5227SOL     OW16579   0.677   3.358   4.844
 5227SOL    HW116580   0.678   3.265   4.881
 5227SOL    HW216581   0.768   3.399   4.854
 5228SOL     OW16582   6.352   2.472   1.053
 5228SOL    HW116583   6.408   2.497   0.974
 5228SOL    HW216584   6.257   2.461   1.024
 5229SOL     OW16585   1.608   5.982   6.987
 5229SOL    HW116586   1.623   6.051   6.915
 5229SOL    HW216587   1.613   6.026   0.060
 5230SOL     OW16588   0.694   5.809   1.424
 5230SOL    HW116589   0.666   5.900   1.458
 5230SOL    HW216590   0.719   5.751   1.502
 5231SOL     OW16591   4.815   2.833   4.869
 5231SOL    HW116592   4.878   2.767   4.826
 5231SOL    HW216593   4.721   2.799   4.862
 5232SOL     OW16594   2.853   2.996   5.743
 5232SOL    HW116595   2.908   3.068   5.700
 5232SOL    HW216596   2.778   2.969   5.681
 5233SOL     OW16597   4.985   1.088   2.525
 5233SOL    HW116598   4.885   1.090   2.521
 5233SOL    HW216599   5.021   1.073   2.433
 5234SOL     OW16600   2.927   0.996   6.284
 5234SOL    HW116601   2.909   0.957   6.194
 5234SOL    HW216602   2.859   0.962   6.350
 5235SOL     OW16603   1.696   2.372   0.478
 5235SOL    HW116604   1.731   2.447   0.421
 5235SOL    HW216605   1.606   2.396   0.512
 5236SOL     OW16606   5.393   4.586   2.437
 5236SOL    HW116607   5.307   4.558   2.393
 5236SOL    HW216608   5.413   4.523   2.513
 5237SOL     OW16609   2.205   1.081   5.126
 5237SOL    HW116610   2.133   1.066   5.058
 5237SOL    HW216611   2.163   1.114   5.211
 5238SOL     OW16612   0.749   4.547   0.303
 5238SOL    HW116613   0.752   4.449   0.320
 5238SOL    HW216614   0.739   4.596   0.390
 5239SOL     OW16615   3.613   2.867   4.099
 5239SOL    HW116616   3.644   2.839   4.190
 5239SOL    HW216617   3.513   2.865   4.097
 5240SOL     OW16618   3.234   1.587   5.940
 5240SOL    HW116619   3.269   1.623   6.027
 5240SOL    HW216620   3.138   1.563   5.949
 5241SOL     OW16621   0.696   5.111   5.126
 5241SOL    HW116622   0.693   5.189   5.188
 5241SOL    HW216623   0.724   5.142   5.035
 5242SOL     OW16624   0.396   6.236   6.261
 5242SOL    HW116625   0.383   6.147   6.306
 5242SOL    HW216626   0.398   6.222   6.162
 5243SOL     OW16627   0.688   5.210   1.650
 5243SOL    HW116628   0.612   5.181   1.593
 5243SOL    HW216629   0.712   5.305   1.628
 5244SOL     OW16630   3.505   5.374   0.021
 5244SOL    HW116631   3.411   5.344   0.031
 5244SOL    HW216632   3.567   5.297   0.036
 5245SOL     OW16633   3.600   4.522   0.313
 5245SOL    HW116634   3.550   4.512   0.227
 5245SOL    HW216635   3.602   4.434   0.361
 5246SOL     OW16636   5.943   3.853   2.217
 5246SOL    HW116637   6.013   3.916   2.182
 5246SOL    HW216638   5.977   3.759   2.212
 5247SOL     OW16639   1.587   1.023   0.495
 5247SOL    HW116640   1.621   0.996   0.585
 5247SOL    HW216641   1.621   0.960   0.426
 5248SOL     OW16642   5.354   1.005   3.861
 5248SOL    HW116643   5.330   1.095   3.897
 5248SOL    HW216644   5.453   0.997   3.852
 5249SOL     OW16645   6.947   4.618   5.470
 5249SOL    HW116646   6.928   4.716   5.467
 5249SOL    HW216647   6.882   4.569   5.411
 5250SOL     OW16648   1.917   6.554   5.765
 5250SOL    HW116649   1.936   6.632   5.824
 5250SOL    HW216650   1.952   6.471   5.808
 5251SOL     OW16651   0.681   3.691   0.262
 5251SOL    HW116652   0.670   3.752   0.184
 5251SOL    HW216653   0.688   3.597   0.230
 5252SOL     OW16654   1.978   6.109   0.480
 5252SOL    HW116655   1.926   6.027   0.454
 5252SOL    HW216656   1.964   6.127   0.577
 5253SOL     OW16657   5.225   4.598   4.340
 5253SOL    HW116658   5.220   4.601   4.241
 5253SOL    HW216659   5.226   4.503   4.371
 5254SOL     OW16660   4.721   1.211   3.181
 5254SOL    HW116661   4.728   1.299   3.133
 5254SOL    HW216662   4.803   1.156   3.161
 5255SOL     OW16663   5.824   1.260   5.606
 5255SOL    HW116664   5.816   1.168   5.643
 5255SOL    HW216665   5.921   1.285   5.598
 5256SOL     OW16666   4.314   0.983   3.609
 5256SOL    HW116667   4.304   0.987   3.510
 5256SOL    HW216668   4.411   0.971   3.632
 5257SOL     OW16669   5.328   6.571   2.005
 5257SOL    HW116670   5.334   6.493   1.944
 5257SOL    HW216671   5.239   6.572   2.051
 5258SOL     OW16672   6.246   4.069   2.182
 5258SOL    HW116673   6.320   4.010   2.149
 5258SOL    HW216674   6.248   4.072   2.282
 5259SOL     OW16675   5.385   6.111   1.093
 5259SOL    HW116676   5.287   6.112   1.074
 5259SOL    HW216677   5.433   6.070   1.015
 5260SOL     OW16678   5.239   3.737   1.165
 5260SOL    HW116679   5.284   3.743   1.076
 5260SOL    HW216680   5.244   3.644   1.199
 5261SOL     OW16681   0.893   3.884   0.322
 5261SOL    HW116682   0.924   3.961   0.267
 5261SOL    HW216683   0.824   3.832   0.272
 5262SOL     OW16684   2.841   1.090   2.802
 5262SOL    HW116685   2.888   1.071   2.888
 5262SOL    HW216686   2.907   1.123   2.734
 5263SOL     OW16687   2.125   1.860   4.416
 5263SOL    HW116688   2.130   1.763   4.389
 5263SOL    HW216689   2.134   1.917   4.334
 5264SOL     OW16690   5.840   2.098   2.677
 5264SOL    HW116691   5.903   2.154   2.732
 5264SOL    HW216692   5.763   2.154   2.648
 5265SOL     OW16693   6.116   4.007   4.479
 5265SOL    HW116694   6.041   4.011   4.545
 5265SOL    HW216695   6.195   3.961   4.522
 5266SOL     OW16696   2.316   5.890   1.101
 5266SOL    HW116697   2.367   5.962   1.052
 5266SOL    HW216698   2.224   5.924   1.123
 5267SOL     OW16699   4.925   3.784   4.901
 5267SOL    HW116700   4.876   3.699   4.918
 5267SOL    HW216701   4.943   3.830   4.988
 5268SOL     OW16702   5.961   6.980   6.444
 5268SOL    HW116703   5.977   6.956   6.540
 5268SOL    HW216704   5.975   0.062   6.432
 5269SOL     OW16705   1.171   6.648   3.539
 5269SOL    HW116706   1.241   6.585   3.570
 5269SOL    HW216707   1.212   6.738   3.521
 5270SOL     OW16708   5.863   1.368   1.220
 5270SOL    HW116709   5.922   1.333   1.293
 5270SOL    HW216710   5.919   1.394   1.141
 5271SOL     OW16711   5.933   5.600   4.709
 5271SOL    HW116712   5.972   5.525   4.655
 5271SOL    HW216713   5.983   5.685   4.688
 5272SOL     OW16714   2.746   5.106   1.807
 5272SOL    HW116715   2.842   5.113   1.781
 5272SOL    HW216716   2.735   5.036   1.877
 5273SOL     OW16717   6.848   2.909   3.381
 5273SOL    HW116718   6.804   2.939   3.297
 5273SOL    HW216719   6.786   2.848   3.431
 5274SOL     OW16720   6.209   0.160   2.505
 5274SOL    HW116721   6.307   0.181   2.512
 5274SOL    HW216722   6.192   0.111   2.420
 5275SOL     OW16723   3.589   1.995   6.963
 5275SOL    HW116724   3.548   2.048   6.889
 5275SOL    HW216725   3.662   2.048   7.005
 5276SOL     OW16726   1.665   0.528   0.656
 5276SOL    HW116727   1.571   0.541   0.624
 5276SOL    HW216728   1.712   0.463   0.596
 5277SOL     OW16729   1.452   1.809   3.240
 5277SOL    HW116730   1.431   1.802   3.338
 5277SOL    HW216731   1.544   1.772   3.224
 5278SOL     OW16732   5.438   0.186   3.404
 5278SOL    HW116733   5.407   0.277   3.430
 5278SOL    HW216734   5.382   0.153   3.328
 5279SOL     OW16735   1.614   5.245   6.170
 5279SOL    HW116736   1.648   5.197   6.251
 5279SOL    HW216737   1.583   5.177   6.103
 5280SOL     OW16738   2.550   6.271   4.888
 5280SOL    HW116739   2.559   6.259   4.789
 5280SOL    HW216740   2.515   6.363   4.906
 5281SOL     OW16741   0.214   1.667   2.377
 5281SOL    HW116742   0.289   1.727   2.348
 5281SOL    HW216743   0.170   1.705   2.458
 5282SOL     OW16744   2.427   1.926   3.068
 5282SOL    HW116745   2.460   1.875   3.147
 5282SOL    HW216746   2.445   1.874   2.984
 5283SOL     OW16747   4.797   6.288   1.516
 5283SOL    HW116748   4.852   6.367   1.489
 5283SOL    HW216749   4.793   6.283   1.616
 5284SOL     OW16750   5.096   3.566   3.312
 5284SOL    HW116751   5.061   3.660   3.312
 5284SOL    HW216752   5.021   3.503   3.291
 5285SOL     OW16753   2.335   4.781   3.812
 5285SOL    HW116754   2.240   4.752   3.797
 5285SOL    HW216755   2.385   4.775   3.726
 5286SOL     OW16756   1.433   3.733   0.847
 5286SOL    HW116757   1.350   3.779   0.878
 5286SOL    HW216758   1.513   3.780   0.884
 5287SOL     OW16759   2.376   6.437   1.423
 5287SOL    HW116760   2.445   6.468   1.357
 5287SOL    HW216761   2.360   6.509   1.490
 5288SOL     OW16762   3.800   0.282   1.764
 5288SOL    HW116763   3.893   0.318   1.757
 5288SOL    HW216764   3.765   0.296   1.856
 5289SOL     OW16765   1.549   5.035   6.026
 5289SOL    HW116766   1.451   5.013   6.031
 5289SOL    HW216767   1.588   4.992   5.944
 5290SOL     OW16768   1.426   4.987   5.228
 5290SOL    HW116769   1.395   4.895   5.201
 5290SOL    HW216770   1.523   4.997   5.208
 5291SOL     OW16771   2.373   5.863   5.725
 5291SOL    HW116772   2.319   5.889   5.645
 5291SOL    HW216773   2.416   5.774   5.708
 5292SOL     OW16774   6.922   3.903   0.222
 5292SOL    HW116775   6.917   3.827   0.158
 5292SOL    HW216776   6.905   3.870   0.315
 5293SOL     OW16777   1.444   0.760   4.049
 5293SOL    HW116778   1.353   0.724   4.068
 5293SOL    HW216779   1.510   0.717   4.110
 5294SOL     OW16780   4.814   3.399   5.800
 5294SOL    HW116781   4.742   3.377   5.733
 5294SOL    HW216782   4.900   3.358   5.771
 5295SOL     OW16783   4.887   0.404   2.499
 5295SOL    HW116784   4.800   0.359   2.522
 5295SOL    HW216785   4.959   0.368   2.558
 5296SOL     OW16786   1.843   5.044   0.279
 5296SOL    HW116787   1.882   4.990   0.205
 5296SOL    HW216788   1.830   4.987   0.360
 5297SOL     OW16789   3.454   1.932   1.276
 5297SOL    HW116790   3.506   1.947   1.192
 5297SOL    HW216791   3.443   2.019   1.324
 5298SOL     OW16792   1.005   5.752   6.745
 5298SOL    HW116793   1.032   5.697   6.666
 5298SOL    HW216794   1.077   5.749   6.814
 5299SOL     OW16795   2.471   2.556   1.240
 5299SOL    HW116796   2.428   2.466   1.237
 5299SOL    HW216797   2.566   2.548   1.268
 5300SOL     OW16798   0.446   6.110   1.694
 5300SOL    HW116799   0.433   6.198   1.740
 5300SOL    HW216800   0.391   6.040   1.740
 5301SOL     OW16801   4.576   2.897   0.719
 5301SOL    HW116802   4.518   2.878   0.640
 5301SOL    HW216803   4.662   2.847   0.710
 5302SOL     OW16804   6.317   4.629   2.479
 5302SOL    HW116805   6.404   4.676   2.492
 5302SOL    HW216806   6.246   4.695   2.455
 5303SOL     OW16807   6.582   5.845   2.933
 5303SOL    HW116808   6.573   5.772   3.002
 5303SOL    HW216809   6.657   5.906   2.959
 5304SOL     OW16810   6.500   1.507   5.930
 5304SOL    HW116811   6.461   1.476   6.017
 5304SOL    HW216812   6.551   1.591   5.944
 5305SOL     OW16813   0.925   5.727   4.068
 5305SOL    HW116814   0.874   5.805   4.033
 5305SOL    HW216815   0.907   5.646   4.011
 5306SOL     OW16816   0.627   5.312   5.285
 5306SOL    HW116817   0.665   5.398   5.319
 5306SOL    HW216818   0.572   5.269   5.357
 5307SOL     OW16819   4.626   6.868   0.045
 5307SOL    HW116820   4.608   6.963   0.068
 5307SOL    HW216821   4.574   6.843   6.979
 5308SOL     OW16822   1.071   6.051   4.139
 5308SOL    HW116823   0.973   6.064   4.153
 5308SOL    HW216824   1.117   6.050   4.227
 5309SOL     OW16825   3.456   4.145   1.927
 5309SOL    HW116826   3.372   4.093   1.942
 5309SOL    HW216827   3.452   4.191   1.839
 5310SOL     OW16828   5.552   2.409   2.303
 5310SOL    HW116829   5.487   2.333   2.307
 5310SOL    HW216830   5.603   2.413   2.389
 5311SOL     OW16831   0.276   5.972   1.332
 5311SOL    HW116832   0.259   6.043   1.400
 5311SOL    HW216833   0.257   5.882   1.371
 5312SOL     OW16834   0.575   3.853   2.049
 5312SOL    HW116835   0.533   3.942   2.071
 5312SOL    HW216836   0.528   3.812   1.971
 5313SOL     OW16837   1.424   3.642   6.943
 5313SOL    HW116838   1.437   3.629   0.025
 5313SOL    HW216839   1.328   3.630   6.920
 5314SOL     OW16840   3.239   5.640   0.496
 5314SOL    HW116841   3.323   5.598   0.462
 5314SOL    HW216842   3.263   5.707   0.567
 5315SOL     OW16843   3.951   3.393   1.438
 5315SOL    HW116844   3.986   3.475   1.484
 5315SOL    HW216845   4.000   3.312   1.471
 5316SOL     OW16846   6.780   4.874   4.489
 5316SOL    HW116847   6.870   4.901   4.454
 5316SOL    HW216848   6.739   4.808   4.427
 5317SOL     OW16849   6.994   0.538   5.021
 5317SOL    HW116850   6.915   0.514   4.964
 5317SOL    HW216851   0.026   0.614   4.979
 5318SOL     OW16852   0.154   1.667   5.821
 5318SOL    HW116853   0.105   1.580   5.827
 5318SOL    HW216854   0.252   1.651   5.836
 5319SOL     OW16855   4.607   6.418   6.590
 5319SOL    HW116856   4.532   6.362   6.625
 5319SOL    HW216857   4.625   6.394   6.494
 5320SOL     OW16858   5.920   5.071   6.518
 5320SOL    HW116859   5.836   5.018   6.520
 5320SOL    HW216860   5.976   5.043   6.439
 5321SOL     OW16861   0.888   4.255   2.740
 5321SOL    HW116862   0.931   4.328   2.794
 5321SOL    HW216863   0.882   4.284   2.644
 5322SOL     OW16864   3.954   5.669   6.053
 5322SOL    HW116865   4.032   5.661   5.992
 5322SOL    HW216866   3.962   5.601   6.126
 5323SOL     OW16867   4.206   3.195   0.312
 5323SOL    HW116868   4.254   3.157   0.233
 5323SOL    HW216869   4.196   3.125   0.382
 5324SOL     OW16870   3.740   2.460   1.690
 5324SOL    HW116871   3.674   2.392   1.722
 5324SOL    HW216872   3.832   2.433   1.719
 5325SOL     OW16873   5.499   6.673   3.694
 5325SOL    HW116874   5.402   6.654   3.677
 5325SOL    HW216875   5.534   6.733   3.623
 5326SOL     OW16876   7.002   5.791   3.539
 5326SOL    HW116877   6.915   5.764   3.497
 5326SOL    HW216878   0.045   5.831   3.469
 5327SOL     OW16879   6.559   4.897   4.965
 5327SOL    HW116880   6.593   4.812   5.006
 5327SOL    HW216881   6.612   4.917   4.883
 5328SOL     OW16882   4.809   2.802   5.742
 5328SOL    HW116883   4.856   2.768   5.660
 5328SOL    HW216884   4.798   2.901   5.736
 5329SOL     OW16885   0.716   3.403   0.201
 5329SOL    HW116886   0.777   3.371   0.129
 5329SOL    HW216887   0.752   3.376   0.290
 5330SOL     OW16888   3.738   4.089   6.815
 5330SOL    HW116889   3.718   4.111   6.911
 5330SOL    HW216890   3.740   4.173   6.761
 5331SOL     OW16891   5.461   0.815   1.531
 5331SOL    HW116892   5.520   0.744   1.492
 5331SOL    HW216893   5.440   0.793   1.626
 5332SOL     OW16894   0.100   4.641   0.222
 5332SOL    HW116895   0.034   4.579   0.265
 5332SOL    HW216896   0.126   4.606   0.132
 5333SOL     OW16897   1.065   0.858   3.733
 5333SOL    HW116898   1.089   0.947   3.694
 5333SOL    HW216899   0.966   0.852   3.742
 5334SOL     OW16900   3.153   5.312   5.105
 5334SOL    HW116901   3.218   5.334   5.032
 5334SOL    HW216902   3.124   5.397   5.150
 5335SOL     OW16903   0.121   4.939   2.128
 5335SOL    HW116904   0.154   4.996   2.202
 5335SOL    HW216905   0.152   4.977   2.040
 5336SOL     OW16906   2.161   1.759   3.203
 5336SOL    HW116907   2.220   1.696   3.152
 5336SOL    HW216908   2.200   1.776   3.293
 5337SOL     OW16909   4.870   4.500   1.930
 5337SOL    HW116910   4.886   4.590   1.891
 5337SOL    HW216911   4.784   4.463   1.896
 5338SOL     OW16912   5.899   0.775   6.238
 5338SOL    HW116913   5.857   0.861   6.210
 5338SOL    HW216914   5.999   0.785   6.237
 5339SOL     OW16915   5.369   1.237   3.109
 5339SOL    HW116916   5.299   1.205   3.172
 5339SOL    HW216917   5.338   1.322   3.065
 5340SOL     OW16918   6.002   3.835   1.195
 5340SOL    HW116919   6.002   3.854   1.096
 5340SOL    HW216920   5.961   3.912   1.243
 5341SOL     OW16921   3.203   5.165   5.327
 5341SOL    HW116922   3.114   5.162   5.371
 5341SOL    HW216923   3.195   5.213   5.239
 5342SOL     OW16924   5.633   6.362   4.848
 5342SOL    HW116925   5.630   6.299   4.769
 5342SOL    HW216926   5.719   6.412   4.847
 5343SOL     OW16927   4.220   3.589   5.086
 5343SOL    HW116928   4.314   3.618   5.101
 5343SOL    HW216929   4.188   3.625   4.998
 5344SOL     OW16930   1.300   1.820   0.871
 5344SOL    HW116931   1.239   1.747   0.901
 5344SOL    HW216932   1.307   1.890   0.942
 5345SOL     OW16933   5.412   6.745   0.196
 5345SOL    HW116934   5.347   6.727   0.122
 5345SOL    HW216935   5.489   6.798   0.161
 5346SOL     OW16936   2.869   5.588   3.772
 5346SOL    HW116937   2.864   5.512   3.837
 5346SOL    HW216938   2.915   5.558   3.689
 5347SOL     OW16939   0.627   3.312   2.518
 5347SOL    HW116940   0.717   3.334   2.556
 5347SOL    HW216941   0.638   3.279   2.424
 5348SOL     OW16942   6.638   1.122   6.711
 5348SOL    HW116943   6.600   1.114   6.803
 5348SOL    HW216944   6.658   1.218   6.692
 5349SOL     OW16945   2.579   3.453   0.239
 5349SOL    HW116946   2.510   3.400   0.288
 5349SOL    HW216947   2.552   3.550   0.236
 5350SOL     OW16948   2.183   0.192   5.222
 5350SOL    HW116949   2.107   0.136   5.255
 5350SOL    HW216950   2.192   0.183   5.123
 5351SOL     OW16951   0.252   5.611   2.072
 5351SOL    HW116952   0.314   5.677   2.030
 5351SOL    HW216953   0.298   5.565   2.148
 5352SOL     OW16954   2.304   4.915   2.913
 5352SOL    HW116955   2.312   4.883   2.819
 5352SOL    HW216956   2.394   4.914   2.956
 5353SOL     OW16957   4.007   5.940   4.689
 5353SOL    HW116958   4.051   5.863   4.643
 5353SOL    HW216959   3.946   5.987   4.625
 5354SOL     OW16960   1.888   4.169   0.945
 5354SOL    HW116961   1.957   4.185   0.875
 5354SOL    HW216962   1.871   4.254   0.996
 5355SOL     OW16963   5.811   4.907   3.932
 5355SOL    HW116964   5.832   4.916   4.029
 5355SOL    HW216965   5.775   4.994   3.897
 5356SOL     OW16966   6.460   3.411   2.955
 5356SOL    HW116967   6.486   3.329   2.904
 5356SOL    HW216968   6.505   3.411   3.044
 5357SOL     OW16969   3.254   5.332   0.769
 5357SOL    HW116970   3.204   5.289   0.844
 5357SOL    HW216971   3.264   5.430   0.788
 5358SOL     OW16972   4.378   1.887   1.108
 5358SOL    HW116973   4.433   1.886   1.192
 5358SOL    HW216974   4.359   1.982   1.082
 5359SOL     OW16975   2.584   1.966   6.339
 5359SOL    HW116976   2.575   2.039   6.407
 5359SOL    HW216977   2.672   1.920   6.351
 5360SOL     OW16978   4.608   6.083   3.910
 5360SOL    HW116979   4.576   5.989   3.916
 5360SOL    HW216980   4.532   6.145   3.927
 5361SOL     OW16981   2.399   0.242   4.697
 5361SOL    HW116982   2.493   0.238   4.730
 5361SOL    HW216983   2.381   0.331   4.656
 5362SOL     OW16984   6.980   5.863   2.410
 5362SOL    HW116985   0.018   5.946   2.420
 5362SOL    HW216986   6.920   5.854   2.489
 5363SOL     OW16987   5.898   5.844   5.952
 5363SOL    HW116988   5.862   5.850   5.859
 5363SOL    HW216989   5.994   5.874   5.952
 5364SOL     OW16990   6.092   0.162   1.629
 5364SOL    HW116991   6.077   0.221   1.708
 5364SOL    HW216992   6.027   0.086   1.631
 5365SOL     OW16993   3.079   3.247   2.456
 5365SOL    HW116994   3.018   3.309   2.407
 5365SOL    HW216995   3.100   3.168   2.398
 5366SOL     OW16996   6.246   6.249   1.408
 5366SOL    HW116997   6.185   6.300   1.347
 5366SOL    HW216998   6.308   6.193   1.353
 5367SOL     OW16999   0.229   0.255   1.879
 5367SOL    HW117000   0.171   0.324   1.922
 5367SOL    HW217001   0.325   0.282   1.885
 5368SOL     OW17002   6.228   6.954   2.735
 5368SOL    HW117003   6.206   7.010   2.656
 5368SOL    HW217004   6.287   6.879   2.708
 5369SOL     OW17005   2.464   6.492   0.898
 5369SOL    HW117006   2.409   6.411   0.875
 5369SOL    HW217007   2.426   6.536   0.979
 5370SOL     OW17008   4.497   3.718   0.596
 5370SOL    HW117009   4.477   3.682   0.687
 5370SOL    HW217010   4.445   3.666   0.528
 5371SOL     OW17011   0.771   4.288   5.463
 5371SOL    HW117012   0.782   4.387   5.465
 5371SOL    HW217013   0.852   4.245   5.502
 5372SOL     OW17014   1.102   6.325   3.067
 5372SOL    HW117015   1.156   6.394   3.018
 5372SOL    HW217016   1.164   6.258   3.109
 5373SOL     OW17017   3.980   6.459   5.522
 5373SOL    HW117018   3.880   6.455   5.529
 5373SOL    HW217019   4.011   6.390   5.457
 5374SOL     OW17020   2.440   5.122   0.979
 5374SOL    HW117021   2.515   5.104   0.915
 5374SOL    HW217022   2.363   5.164   0.930
 5375SOL     OW17023   0.351   6.120   5.693
 5375SOL    HW117024   0.407   6.060   5.751
 5375SOL    HW217025   0.259   6.081   5.683
 5376SOL     OW17026   0.955   2.599   1.403
 5376SOL    HW117027   1.029   2.548   1.445
 5376SOL    HW217028   0.869   2.550   1.416
 5377SOL     OW17029   0.964   0.086   2.858
 5377SOL    HW117030   0.978   0.073   2.759
 5377SOL    HW217031   0.937   7.016   2.899
 5378SOL     OW17032   6.624   6.760   2.328
 5378SOL    HW117033   6.685   6.689   2.363
 5378SOL    HW217034   6.679   6.835   2.290
 5379SOL     OW17035   1.222   3.631   4.784
 5379SOL    HW117036   1.239   3.635   4.882
 5379SOL    HW217037   1.305   3.657   4.735
 5380SOL     OW17038   3.111   0.038   1.506
 5380SOL    HW117039   3.196   0.088   1.518
 5380SOL    HW217040   3.113   6.970   1.560
 5381SOL     OW17041   6.815   6.088   1.842
 5381SOL    HW117042   6.732   6.062   1.794
 5381SOL    HW217043   6.895   6.054   1.792
 5382SOL     OW17044   3.098   2.126   2.137
 5382SOL    HW117045   3.047   2.206   2.104
 5382SOL    HW217046   3.064   2.044   2.090
 5383SOL     OW17047   1.256   2.984   4.736
 5383SOL    HW117048   1.192   2.910   4.717
 5383SOL    HW217049   1.326   2.988   4.665
 5384SOL     OW17050   4.952   6.504   4.963
 5384SOL    HW117051   5.022   6.523   4.895
 5384SOL    HW217052   4.873   6.563   4.947
 5385SOL     OW17053   4.116   3.281   5.087
 5385SOL    HW117054   4.155   3.267   4.996
 5385SOL    HW217055   4.098   3.378   5.101
 5386SOL     OW17056   5.184   2.017   3.874
 5386SOL    HW117057   5.116   1.991   3.942
 5386SOL    HW217058   5.140   2.028   3.784
 5387SOL     OW17059   2.449   6.391   2.955
 5387SOL    HW117060   2.528   6.354   3.002
 5387SOL    HW217061   2.423   6.478   2.997
 5388SOL     OW17062   0.920   0.711   2.899
 5388SOL    HW117063   0.866   0.683   2.820
 5388SOL    HW217064   0.973   0.793   2.876
 5389SOL     OW17065   3.923   1.193   3.951
 5389SOL    HW117066   3.941   1.250   3.871
 5389SOL    HW217067   3.982   1.112   3.949
 5390SOL     OW17068   6.128   4.190   3.209
 5390SOL    HW117069   6.209   4.245   3.189
 5390SOL    HW217070   6.105   4.134   3.130
 5391SOL     OW17071   2.258   1.884   0.587
 5391SOL    HW117072   2.352   1.916   0.577
 5391SOL    HW217073   2.255   1.785   0.575
 5392SOL     OW17074   5.662   3.694   0.727
 5392SOL    HW117075   5.672   3.632   0.805
 5392SOL    HW217076   5.566   3.692   0.696
 5393SOL     OW17077   4.768   0.502   4.867
 5393SOL    HW117078   4.734   0.544   4.951
 5393SOL    HW217079   4.705   0.523   4.792
 5394SOL     OW17080   0.915   5.799   0.724
 5394SOL    HW117081   0.955   5.752   0.645
 5394SOL    HW217082   0.931   5.745   0.806
 5395SOL     OW17083   5.110   0.541   1.382
 5395SOL    HW117084   5.153   0.608   1.322
 5395SOL    HW217085   5.096   0.582   1.473
 5396SOL     OW17086   5.581   4.719   1.650
 5396SOL    HW117087   5.504   4.781   1.661
 5396SOL    HW217088   5.651   4.762   1.594
 5397SOL     OW17089   0.015   1.923   1.613
 5397SOL    HW117090   0.090   1.981   1.644
 5397SOL    HW217091   6.977   1.893   1.691
 5398SOL     OW17092   3.417   1.979   4.321
 5398SOL    HW117093   3.388   2.027   4.239
 5398SOL    HW217094   3.515   1.959   4.316
 5399SOL     OW17095   2.520   6.598   6.219
 5399SOL    HW117096   2.539   6.644   6.305
 5399SOL    HW217097   2.422   6.597   6.202
 5400SOL     OW17098   3.408   3.719   0.182
 5400SOL    HW117099   3.497   3.741   0.221
 5400SOL    HW217100   3.419   3.654   0.107
 5401SOL     OW17101   5.722   4.154   2.049
 5401SOL    HW117102   5.701   4.063   2.086
 5401SOL    HW217103   5.818   4.157   2.020
 5402SOL     OW17104   3.548   6.314   0.993
 5402SOL    HW117105   3.480   6.326   1.065
 5402SOL    HW217106   3.516   6.357   0.909
 5403SOL     OW17107   5.140   3.430   6.052
 5403SOL    HW117108   5.179   3.485   6.126
 5403SOL    HW217109   5.043   3.417   6.068
 5404SOL     OW17110   0.797   0.829   2.080
 5404SOL    HW117111   0.776   0.734   2.103
 5404SOL    HW217112   0.768   0.889   2.154
 5405SOL     OW17113   5.799   4.836   6.903
 5405SOL    HW117114   5.709   4.823   6.944
 5405SOL    HW217115   5.824   4.933   6.907
 5406SOL     OW17116   2.217   0.809   5.244
 5406SOL    HW117117   2.139   0.812   5.306
 5406SOL    HW217118   2.222   0.894   5.192
 5407SOL     OW17119   3.164   1.765   0.943
 5407SOL    HW117120   3.163   1.747   1.041
 5407SOL    HW217121   3.239   1.715   0.901
 5408SOL     OW17122   4.303   0.501   4.776
 5408SOL    HW117123   4.328   0.467   4.685
 5408SOL    HW217124   4.321   0.431   4.844
 5409SOL     OW17125   6.503   1.825   3.159
 5409SOL    HW117126   6.439   1.755   3.190
 5409SOL    HW217127   6.567   1.784   3.094
 5410SOL     OW17128   0.771   2.113   6.385
 5410SOL    HW117129   0.799   2.146   6.295
 5410SOL    HW217130   0.719   2.028   6.374
 5411SOL     OW17131   5.604   5.265   6.477
 5411SOL    HW117132   5.529   5.309   6.428
 5411SOL    HW217133   5.668   5.334   6.510
 5412SOL     OW17134   2.888   1.371   6.737
 5412SOL    HW117135   2.822   1.400   6.806
 5412SOL    HW217136   2.843   1.367   6.648
 5413SOL     OW17137   0.706   0.502   6.672
 5413SOL    HW117138   0.722   0.463   6.763
 5413SOL    HW217139   0.718   0.431   6.603
 5414SOL     OW17140   6.415   4.744   4.574
 5414SOL    HW117141   6.514   4.730   4.571
 5414SOL    HW217142   6.374   4.684   4.642
 5415SOL     OW17143   2.478   6.879   1.450
 5415SOL    HW117144   2.417   6.806   1.482
 5415SOL    HW217145   2.477   6.883   1.351
 5416SOL     OW17146   2.954   4.850   5.038
 5416SOL    HW117147   2.922   4.755   5.041
 5416SOL    HW217148   2.892   4.904   4.980
 5417SOL     OW17149   4.313   6.743   4.941
 5417SOL    HW117150   4.272   6.724   4.852
 5417SOL    HW217151   4.252   6.713   5.014
 5418SOL     OW17152   5.437   6.504   4.944
 5418SOL    HW117153   5.446   6.485   5.042
 5418SOL    HW217154   5.513   6.462   4.895
 5419SOL     OW17155   3.252   6.027   0.997
 5419SOL    HW117156   3.325   6.087   0.966
 5419SOL    HW217157   3.253   6.022   1.097
 5420SOL     OW17158   1.965   1.915   1.514
 5420SOL    HW117159   2.056   1.929   1.554
 5420SOL    HW217160   1.954   1.976   1.436
 5421SOL     OW17161   3.248   5.240   1.857
 5421SOL    HW117162   3.173   5.179   1.883
 5421SOL    HW217163   3.333   5.208   1.898
 5422SOL     OW17164   0.504   4.397   4.279
 5422SOL    HW117165   0.586   4.453   4.269
 5422SOL    HW217166   0.499   4.361   4.373
 5423SOL     OW17167   4.977   4.932   0.160
 5423SOL    HW117168   5.066   4.977   0.176
 5423SOL    HW217169   4.930   4.920   0.247
 5424SOL     OW17170   5.560   3.927   4.300
 5424SOL    HW117171   5.635   3.864   4.278
 5424SOL    HW217172   5.491   3.922   4.229
 5425SOL     OW17173   5.459   2.002   4.973
 5425SOL    HW117174   5.422   2.082   4.928
 5425SOL    HW217175   5.400   1.923   4.956
 5426SOL     OW17176   5.855   5.881   2.764
 5426SOL    HW117177   5.826   5.972   2.794
 5426SOL    HW217178   5.946   5.888   2.721
 5427SOL     OW17179   5.123   3.190   0.352
 5427SOL    HW117180   5.027   3.209   0.331
 5427SOL    HW217181   5.162   3.266   0.403
 5428SOL     OW17182   5.491   6.811   1.689
 5428SOL    HW117183   5.431   6.782   1.765
 5428SOL    HW217184   5.507   6.909   1.696
 5429SOL     OW17185   1.829   0.422   5.730
 5429SOL    HW117186   1.864   0.497   5.786
 5429SOL    HW217187   1.859   0.433   5.635
 5430SOL     OW17188   1.699   2.837   5.423
 5430SOL    HW117189   1.653   2.769   5.366
 5430SOL    HW217190   1.795   2.844   5.396
 5431SOL     OW17191   2.862   4.171   6.294
 5431SOL    HW117192   2.830   4.249   6.348
 5431SOL    HW217193   2.881   4.200   6.201
 5432SOL     OW17194   3.756   5.263   6.906
 5432SOL    HW117195   3.739   5.223   6.815
 5432SOL    HW217196   3.716   5.204   6.976
 5433SOL     OW17197   0.688   1.070   2.264
 5433SOL    HW117198   0.606   1.021   2.292
 5433SOL    HW217199   0.673   1.168   2.275
 5434SOL     OW17200   4.184   0.784   4.664
 5434SOL    HW117201   4.265   0.818   4.616
 5434SOL    HW217202   4.191   0.684   4.674
 5435SOL     OW17203   6.763   3.024   0.467
 5435SOL    HW117204   6.784   3.121   0.450
 5435SOL    HW217205   6.706   2.989   0.393
 5436SOL     OW17206   5.436   4.587   3.724
 5436SOL    HW117207   5.423   4.627   3.633
 5436SOL    HW217208   5.530   4.603   3.754
 5437SOL     OW17209   3.012   5.012   4.540
 5437SOL    HW117210   2.974   4.930   4.582
 5437SOL    HW217211   2.974   5.093   4.585
 5438SOL     OW17212   6.009   4.289   2.302
 5438SOL    HW117213   6.005   4.191   2.282
 5438SOL    HW217214   6.105   4.317   2.309
 5439SOL     OW17215   0.458   3.017   0.092
 5439SOL    HW117216   0.463   3.064   0.003
 5439SOL    HW217217   0.454   3.085   0.165
 5440SOL     OW17218   6.687   6.565   3.451
 5440SOL    HW117219   6.744   6.545   3.531
 5440SOL    HW217220   6.664   6.480   3.404
 5441SOL     OW17221   5.029   3.664   3.599
 5441SOL    HW117222   4.961   3.703   3.661
 5441SOL    HW217223   4.995   3.577   3.563
 5442SOL     OW17224   3.543   0.320   3.134
 5442SOL    HW117225   3.639   0.326   3.161
 5442SOL    HW217226   3.510   0.411   3.108
 5443SOL     OW17227   3.822   5.780   4.053
 5443SOL    HW117228   3.735   5.821   4.082
 5443SOL    HW217229   3.881   5.851   4.016
 5444SOL     OW17230   0.504   0.402   3.415
 5444SOL    HW117231   0.535   0.327   3.474
 5444SOL    HW217232   0.580   0.465   3.399
 5445SOL     OW17233   5.941   4.392   3.819
 5445SOL    HW117234   5.844   4.386   3.842
 5445SOL    HW217235   5.969   4.488   3.816
 5446SOL     OW17236   5.844   5.571   4.263
 5446SOL    HW117237   5.943   5.584   4.272
 5446SOL    HW217238   5.822   5.475   4.279
 5447SOL     OW17239   1.452   1.427   0.309
 5447SOL    HW117240   1.408   1.365   0.373
 5447SOL    HW217241   1.523   1.378   0.259
 5448SOL     OW17242   4.583   4.707   3.919
 5448SOL    HW117243   4.570   4.615   3.956
 5448SOL    HW217244   4.539   4.713   3.829
 5449SOL     OW17245   1.867   1.665   0.576
 5449SOL    HW117246   1.881   1.593   0.645
 5449SOL    HW217247   1.868   1.755   0.621
 5450SOL     OW17248   3.332   0.298   1.206
 5450SOL    HW117249   3.345   0.322   1.302
 5450SOL    HW217250   3.370   0.369   1.147
 5451SOL     OW17251   2.005   6.131   3.525
 5451SOL    HW117252   1.907   6.117   3.518
 5451SOL    HW217253   2.028   6.224   3.497
 5452SOL     OW17254   2.468   4.270   1.126
 5452SOL    HW117255   2.369   4.256   1.125
 5452SOL    HW217256   2.488   4.361   1.164
 5453SOL     OW17257   5.287   4.024   2.258
 5453SOL    HW117258   5.379   4.063   2.257
 5453SOL    HW217259   5.225   4.086   2.306
 5454SOL     OW17260   5.443   5.754   0.205
 5454SOL    HW117261   5.483   5.838   0.241
 5454SOL    HW217262   5.465   5.678   0.267
 5455SOL     OW17263   0.160   2.465   3.628
 5455SOL    HW117264   0.211   2.545   3.596
 5455SOL    HW217265   0.082   2.450   3.568
 5456SOL     OW17266   3.367   1.348   6.626
 5456SOL    HW117267   3.431   1.306   6.561
 5456SOL    HW217268   3.329   1.277   6.685
 5457SOL     OW17269   6.384   2.109   0.850
 5457SOL    HW117270   6.430   2.191   0.883
 5457SOL    HW217271   6.395   2.035   0.917
 5458SOL     OW17272   6.681   5.449   0.314
 5458SOL    HW117273   6.745   5.432   0.239
 5458SOL    HW217274   6.663   5.364   0.363
 5459SOL     OW17275   2.572   4.556   5.760
 5459SOL    HW117276   2.570   4.483   5.828
 5459SOL    HW217277   2.545   4.519   5.671
 5460SOL     OW17278   3.244   0.392   2.539
 5460SOL    HW117279   3.247   0.307   2.485
 5460SOL    HW217280   3.304   0.383   2.618
 5461SOL     OW17281   0.439   6.889   4.501
 5461SOL    HW117282   0.389   6.805   4.520
 5461SOL    HW217283   0.437   6.908   4.403
 5462SOL     OW17284   5.590   6.250   0.199
 5462SOL    HW117285   5.604   6.212   0.107
 5462SOL    HW217286   5.665   6.312   0.222
 5463SOL     OW17287   0.515   1.814   0.063
 5463SOL    HW117288   0.604   1.859   0.053
 5463SOL    HW217289   0.522   1.719   0.036
 5464SOL     OW17290   6.251   6.634   4.809
 5464SOL    HW117291   6.310   6.553   4.809
 5464SOL    HW217292   6.182   6.625   4.738
 5465SOL     OW17293   5.937   0.550   3.914
 5465SOL    HW117294   5.991   0.560   3.830
 5465SOL    HW217295   5.874   0.473   3.904
 5466SOL     OW17296   5.196   2.754   5.709
 5466SOL    HW117297   5.163   2.830   5.653
 5466SOL    HW217298   5.134   2.742   5.787
 5467SOL     OW17299   6.404   3.715   3.130
 5467SOL    HW117300   6.346   3.751   3.203
 5467SOL    HW217301   6.479   3.663   3.170
 5468SOL     OW17302   6.497   2.172   5.214
 5468SOL    HW117303   6.533   2.216   5.296
 5468SOL    HW217304   6.438   2.237   5.165
 5469SOL     OW17305   3.127   6.240   5.533
 5469SOL    HW117306   3.140   6.303   5.456
 5469SOL    HW217307   3.044   6.186   5.518
 5470SOL     OW17308   3.335   5.355   3.630
 5470SOL    HW117309   3.420   5.322   3.590
 5470SOL    HW217310   3.336   5.337   3.729
 5471SOL     OW17311   6.916   0.872   3.021
 5471SOL    HW117312   6.970   0.892   3.103
 5471SOL    HW217313   6.889   0.958   2.977
 5472SOL     OW17314   2.580   3.700   6.289
 5472SOL    HW117315   2.523   3.645   6.227
 5472SOL    HW217316   2.676   3.685   6.268
 5473SOL     OW17317   1.951   3.073   0.884
 5473SOL    HW117318   1.928   2.986   0.840
 5473SOL    HW217319   1.939   3.066   0.983
 5474SOL     OW17320   1.182   4.435   4.627
 5474SOL    HW117321   1.182   4.362   4.558
 5474SOL    HW217322   1.151   4.397   4.714
 5475SOL     OW17323   1.695   2.186   0.810
 5475SOL    HW117324   1.713   2.119   0.881
 5475SOL    HW217325   1.597   2.206   0.808
 5476SOL     OW17326   2.254   4.710   5.072
 5476SOL    HW117327   2.289   4.624   5.035
 5476SOL    HW217328   2.156   4.715   5.056
 5477SOL     OW17329   2.046   4.283   2.609
 5477SOL    HW117330   2.042   4.278   2.509
 5477SOL    HW217331   1.963   4.243   2.648
 5478SOL     OW17332   3.953   0.128   5.639
 5478SOL    HW117333   3.997   0.042   5.664
 5478SOL    HW217334   3.966   0.195   5.712
 5479SOL     OW17335   5.609   2.308   5.276
 5479SOL    HW117336   5.669   2.324   5.354
 5479SOL    HW217337   5.628   2.217   5.238
 5480SOL     OW17338   5.461   5.785   4.254
 5480SOL    HW117339   5.408   5.855   4.302
 5480SOL    HW217340   5.544   5.826   4.216
 5481SOL     OW17341   4.799   1.388   4.274
 5481SOL    HW117342   4.838   1.474   4.308
 5481SOL    HW217343   4.819   1.315   4.339
 5482SOL     OW17344   3.710   3.274   2.103
 5482SOL    HW117345   3.795   3.222   2.097
 5482SOL    HW217346   3.729   3.366   2.139
 5483SOL     OW17347   0.523   1.862   5.026
 5483SOL    HW117348   0.438   1.813   5.045
 5483SOL    HW217349   0.597   1.822   5.080
 5484SOL     OW17350   4.968   0.585   3.524
 5484SOL    HW117351   4.896   0.547   3.466
 5484SOL    HW217352   5.049   0.603   3.467
 5485SOL     OW17353   3.483   6.981   5.470
 5485SOL    HW117354   3.451   6.887   5.477
 5485SOL    HW217355   3.579   6.981   5.443
 5486SOL     OW17356   1.742   5.250   5.264
 5486SOL    HW117357   1.800   5.330   5.280
 5486SOL    HW217358   1.798   5.167   5.265
 5487SOL     OW17359   5.002   3.177   6.241
 5487SOL    HW117360   5.096   3.210   6.249
 5487SOL    HW217361   4.948   3.242   6.187
 5488SOL     OW17362   5.639   0.648   1.385
 5488SOL    HW117363   5.720   0.612   1.430
 5488SOL    HW217364   5.666   0.712   1.312
 5489SOL     OW17365   1.625   4.567   1.621
 5489SOL    HW117366   1.723   4.580   1.631
 5489SOL    HW217367   1.585   4.648   1.578
 5490SOL     OW17368   3.506   0.020   0.036
 5490SOL    HW117369   3.501   6.938   0.050
 5490SOL    HW217370   3.417   0.061   0.054
 5491SOL     OW17371   2.164   3.697   0.556
 5491SOL    HW117372   2.094   3.769   0.551
 5491SOL    HW217373   2.205   3.685   0.465
 5492SOL     OW17374   0.490   2.026   6.048
 5492SOL    HW117375   0.464   2.025   5.951
 5492SOL    HW217376   0.533   1.939   6.072
 5493SOL     OW17377   3.992   3.867   4.489
 5493SOL    HW117378   4.083   3.899   4.515
 5493SOL    HW217379   3.924   3.934   4.516
 5494SOL     OW17380   6.484   2.471   5.733
 5494SOL    HW117381   6.563   2.507   5.683
 5494SOL    HW217382   6.514   2.398   5.793
 5495SOL     OW17383   3.828   1.674   1.333
 5495SOL    HW117384   3.741   1.675   1.381
 5495SOL    HW217385   3.846   1.763   1.293
 5496SOL     OW17386   2.727   0.285   3.328
 5496SOL    HW117387   2.733   0.220   3.252
 5496SOL    HW217388   2.721   0.378   3.292
 5497SOL     OW17389   0.483   2.234   3.922
 5497SOL    HW117390   0.568   2.203   3.879
 5497SOL    HW217391   0.498   2.323   3.966
 5498SOL     OW17392   6.026   6.424   0.882
 5498SOL    HW117393   5.986   6.477   0.807
 5498SOL    HW217394   6.090   6.482   0.933
 5499SOL     OW17395   0.139   0.762   4.907
 5499SOL    HW117396   0.090   0.825   4.968
 5499SOL    HW217397   0.176   0.814   4.830
 5500SOL     OW17398   1.576   0.596   0.271
 5500SOL    HW117399   1.543   0.572   0.362
 5500SOL    HW217400   1.498   0.614   0.211
 5501SOL     OW17401   3.890   6.524   0.524
 5501SOL    HW117402   3.878   6.533   0.425
 5501SOL    HW217403   3.884   6.427   0.549
 5502SOL     OW17404   5.524   3.665   0.352
 5502SOL    HW117405   5.598   3.634   0.292
 5502SOL    HW217406   5.436   3.639   0.314
 5503SOL     OW17407   0.205   5.556   2.697
 5503SOL    HW117408   0.133   5.585   2.760
 5503SOL    HW217409   0.172   5.564   2.603
 5504SOL     OW17410   4.181   0.759   5.383
 5504SOL    HW117411   4.189   0.660   5.386
 5504SOL    HW217412   4.216   0.798   5.468
 5505SOL     OW17413   1.830   5.552   4.087
 5505SOL    HW117414   1.739   5.529   4.052
 5505SOL    HW217415   1.842   5.652   4.082
 5506SOL     OW17416   0.952   2.156   6.147
 5506SOL    HW117417   0.933   2.241   6.098
 5506SOL    HW217418   0.904   2.080   6.102
 5507SOL     OW17419   2.789   0.465   3.965
 5507SOL    HW117420   2.871   0.420   3.930
 5507SOL    HW217421   2.813   0.524   4.042
 5508SOL     OW17422   0.816   0.454   6.226
 5508SOL    HW117423   0.744   0.424   6.163
 5508SOL    HW217424   0.869   0.527   6.184
 5509SOL     OW17425   0.641   6.567   0.067
 5509SOL    HW117426   0.654   6.498   0.138
 5509SOL    HW217427   0.730   6.594   0.030
 5510SOL     OW17428   5.477   5.326   0.966
 5510SOL    HW117429   5.467   5.355   1.062
 5510SOL    HW217430   5.550   5.379   0.923
 5511SOL     OW17431   2.015   1.331   3.980
 5511SOL    HW117432   2.038   1.392   3.904
 5511SOL    HW217433   2.033   1.236   3.952
 5512SOL     OW17434   5.724   2.033   1.466
 5512SOL    HW117435   5.768   1.943   1.471
 5512SOL    HW217436   5.789   2.104   1.492
 5513SOL     OW17437   4.382   5.104   6.982
 5513SOL    HW117438   4.436   5.173   6.934
 5513SOL    HW217439   4.292   5.141   7.003
 5514SOL     OW17440   3.871   6.726   3.816
 5514SOL    HW117441   3.803   6.798   3.825
 5514SOL    HW217442   3.879   6.678   3.904
 5515SOL     OW17443   0.529   5.083   1.133
 5515SOL    HW117444   0.471   5.001   1.133
 5515SOL    HW217445   0.545   5.113   1.039
 5516SOL     OW17446   1.982   3.924   6.693
 5516SOL    HW117447   2.081   3.915   6.704
 5516SOL    HW217448   1.941   3.834   6.678
 5517SOL     OW17449   1.648   3.422   2.074
 5517SOL    HW117450   1.702   3.469   2.003
 5517SOL    HW217451   1.663   3.468   2.162
 5518SOL     OW17452   6.490   5.991   6.310
 5518SOL    HW117453   6.453   5.925   6.244
 5518SOL    HW217454   6.544   5.942   6.378
 5519SOL     OW17455   5.627   3.204   2.888
 5519SOL    HW117456   5.579   3.116   2.893
 5519SOL    HW217457   5.707   3.195   2.829
 5520SOL     OW17458   5.848   6.109   1.805
 5520SOL    HW117459   5.819   6.159   1.724
 5520SOL    HW217460   5.926   6.156   1.847
 5521SOL     OW17461   5.144   6.909   1.436
 5521SOL    HW117462   5.129   6.938   1.530
 5521SOL    HW217463   5.065   6.856   1.404
 5522SOL     OW17464   0.163   5.563   0.216
 5522SOL    HW117465   0.110   5.584   0.134
 5522SOL    HW217466   0.221   5.483   0.198
 5523SOL     OW17467   3.186   0.189   2.033
 5523SOL    HW117468   3.267   0.183   1.974
 5523SOL    HW217469   3.104   0.187   1.976
 5524SOL     OW17470   5.434   5.660   5.426
 5524SOL    HW117471   5.374   5.611   5.363
 5524SOL    HW217472   5.528   5.655   5.394
 5525SOL     OW17473   0.121   2.193   0.662
 5525SOL    HW117474   0.088   2.248   0.739
 5525SOL    HW217475   0.110   2.096   0.682
 5526SOL     OW17476   4.839   5.021   4.219
 5526SOL    HW117477   4.926   5.001   4.264
 5526SOL    HW217478   4.764   4.983   4.273
 5527SOL     OW17479   5.479   3.578   3.524
 5527SOL    HW117480   5.567   3.602   3.566
 5527SOL    HW217481   5.480   3.482   3.499
 5528SOL     OW17482   0.978   1.132   6.852
 5528SOL    HW117483   1.024   1.221   6.855
 5528SOL    HW217484   0.945   1.115   6.759
 5529SOL     OW17485   2.438   0.383   2.835
 5529SOL    HW117486   2.452   0.464   2.779
 5529SOL    HW217487   2.435   0.409   2.932
 5530SOL     OW17488   5.985   2.216   2.005
 5530SOL    HW117489   5.903   2.212   1.948
 5530SOL    HW217490   6.040   2.294   1.977
 5531SOL     OW17491   3.250   3.258   2.218
 5531SOL    HW117492   3.168   3.216   2.178
 5531SOL    HW217493   3.331   3.211   2.183
 5532SOL     OW17494   0.870   2.560   0.462
 5532SOL    HW117495   0.778   2.535   0.431
 5532SOL    HW217496   0.937   2.498   0.422
 5533SOL     OW17497   3.841   1.386   3.280
 5533SOL    HW117498   3.844   1.346   3.371
 5533SOL    HW217499   3.912   1.345   3.223
 5534SOL     OW17500   0.709   1.883   5.839
 5534SOL    HW117501   0.623   1.872   5.790
 5534SOL    HW217502   0.707   1.829   5.923
 5535SOL     OW17503   0.099   2.946   3.406
 5535SOL    HW117504   0.141   2.933   3.316
 5535SOL    HW217505   0.003   2.919   3.402
 5536SOL     OW17506   2.971   1.580   4.411
 5536SOL    HW117507   2.918   1.591   4.327
 5536SOL    HW217508   3.053   1.526   4.392
 5537SOL     OW17509   2.918   0.855   2.337
 5537SOL    HW117510   2.983   0.874   2.263
 5537SOL    HW217511   2.860   0.778   2.311
 5538SOL     OW17512   2.558   6.425   5.525
 5538SOL    HW117513   2.571   6.514   5.481
 5538SOL    HW217514   2.628   6.361   5.491
 5539SOL     OW17515   1.588   3.167   1.186
 5539SOL    HW117516   1.509   3.113   1.155
 5539SOL    HW217517   1.567   3.264   1.176
 5540SOL     OW17518   5.856   4.078   3.403
 5540SOL    HW117519   5.952   4.050   3.396
 5540SOL    HW217520   5.849   4.153   3.469
 5541SOL     OW17521   6.105   0.284   6.207
 5541SOL    HW117522   6.038   0.231   6.259
 5541SOL    HW217523   6.066   0.309   6.118
 5542SOL     OW17524   5.391   4.313   6.028
 5542SOL    HW117525   5.442   4.385   5.982
 5542SOL    HW217526   5.295   4.340   6.038
 5543SOL     OW17527   3.681   4.983   6.196
 5543SOL    HW117528   3.644   4.997   6.104
 5543SOL    HW217529   3.778   4.961   6.190
 5544SOL     OW17530   5.695   5.968   6.083
 5544SOL    HW117531   5.771   5.924   6.036
 5544SOL    HW217532   5.684   5.927   6.174
 5545SOL     OW17533   3.848   1.725   1.796
 5545SOL    HW117534   3.825   1.780   1.877
 5545SOL    HW217535   3.866   1.785   1.719
 5546SOL     OW17536   1.184   5.379   4.685
 5546SOL    HW117537   1.246   5.320   4.737
 5546SOL    HW217538   1.192   5.359   4.588
 5547SOL     OW17539   2.649   0.268   4.774
 5547SOL    HW117540   2.690   0.329   4.843
 5547SOL    HW217541   2.720   0.209   4.736
 5548SOL     OW17542   5.367   3.707   5.982
 5548SOL    HW117543   5.328   3.730   6.071
 5548SOL    HW217544   5.293   3.697   5.915
 5549SOL     OW17545   4.099   3.475   6.815
 5549SOL    HW117546   4.110   3.564   6.771
 5549SOL    HW217547   4.177   3.416   6.792
 5550SOL     OW17548   2.413   4.450   2.079
 5550SOL    HW117549   2.383   4.376   2.019
 5550SOL    HW217550   2.491   4.497   2.038
 5551SOL     OW17551   2.047   0.195   3.333
 5551SOL    HW117552   2.020   0.207   3.429
 5551SOL    HW217553   1.976   0.145   3.284
 5552SOL     OW17554   0.139   0.444   0.027
 5552SOL    HW117555   0.133   0.417   0.124
 5552SOL    HW217556   0.128   0.543   0.020
 5553SOL     OW17557   5.043   6.113   0.149
 5553SOL    HW117558   5.009   6.029   0.190
 5553SOL    HW217559   5.122   6.093   0.092
 5554SOL     OW17560   4.190   1.762   5.537
 5554SOL    HW117561   4.199   1.808   5.449
 5554SOL    HW217562   4.097   1.726   5.546
 5555SOL     OW17563   2.181   4.483   4.103
 5555SOL    HW117564   2.230   4.438   4.029
 5555SOL    HW217565   2.226   4.569   4.125
 5556SOL     OW17566   6.444   1.780   3.584
 5556SOL    HW117567   6.431   1.841   3.506
 5556SOL    HW217568   6.367   1.718   3.592
 5557SOL     OW17569   3.693   6.719   2.749
 5557SOL    HW117570   3.679   6.644   2.814
 5557SOL    HW217571   3.626   6.711   2.676
 5558SOL     OW17572   4.480   3.193   6.390
 5558SOL    HW117573   4.412   3.228   6.326
 5558SOL    HW217574   4.468   3.094   6.401
 5559SOL     OW17575   2.692   0.720   2.081
 5559SOL    HW117576   2.663   0.734   1.986
 5559SOL    HW217577   2.765   0.651   2.084
 5560SOL     OW17578   1.372   6.812   3.479
 5560SOL    HW117579   1.426   6.783   3.400
 5560SOL    HW217580   1.424   6.880   3.531
 5561SOL     OW17581   1.572   2.608   4.160
 5561SOL    HW117582   1.535   2.539   4.097
 5561SOL    HW217583   1.540   2.589   4.252
 5562SOL     OW17584   2.953   2.241   0.077
 5562SOL    HW117585   2.889   2.184   0.025
 5562SOL    HW217586   2.971   2.199   0.166
 5563SOL     OW17587   4.322   5.456   2.554
 5563SOL    HW117588   4.318   5.459   2.654
 5563SOL    HW217589   4.417   5.451   2.525
 5564SOL     OW17590   4.861   0.983   2.234
 5564SOL    HW117591   4.773   1.002   2.190
 5564SOL    HW217592   4.934   1.024   2.179
 5565SOL     OW17593   4.757   1.620   6.452
 5565SOL    HW117594   4.687   1.633   6.382
 5565SOL    HW217595   4.746   1.530   6.494
 5566SOL     OW17596   1.857   5.561   6.985
 5566SOL    HW117597   1.812   5.643   6.950
 5566SOL    HW217598   1.879   5.573   0.065
 5567SOL     OW17599   0.467   4.447   1.737
 5567SOL    HW117600   0.376   4.485   1.752
 5567SOL    HW217601   0.529   4.480   1.807
 5568SOL     OW17602   4.050   2.202   3.198
 5568SOL    HW117603   3.982   2.248   3.142
 5568SOL    HW217604   4.034   2.103   3.195
 5569SOL     OW17605   2.126   1.349   2.650
 5569SOL    HW117606   2.145   1.298   2.734
 5569SOL    HW217607   2.035   1.390   2.656
 5570SOL     OW17608   5.790   4.501   4.945
 5570SOL    HW117609   5.715   4.462   4.891
 5570SOL    HW217610   5.769   4.492   5.043
 5571SOL     OW17611   0.483   5.911   0.793
 5571SOL    HW117612   0.430   5.966   0.728
 5571SOL    HW217613   0.459   5.937   0.886
 5572SOL     OW17614   1.345   2.384   5.123
 5572SOL    HW117615   1.371   2.388   5.219
 5572SOL    HW217616   1.300   2.296   5.104
 5573SOL     OW17617   1.620   3.292   6.509
 5573SOL    HW117618   1.565   3.213   6.482
 5573SOL    HW217619   1.711   3.285   6.467
 5574SOL     OW17620   6.125   1.936   3.781
 5574SOL    HW117621   6.068   1.957   3.860
 5574SOL    HW217622   6.221   1.936   3.809
 5575SOL     OW17623   6.680   1.218   1.198
 5575SOL    HW117624   6.715   1.306   1.164
 5575SOL    HW217625   6.596   1.234   1.249
 5576SOL     OW17626   1.301   6.319   1.976
 5576SOL    HW117627   1.343   6.235   1.941
 5576SOL    HW217628   1.280   6.379   1.899
 5577SOL     OW17629   2.804   2.328   5.244
 5577SOL    HW117630   2.768   2.334   5.151
 5577SOL    HW217631   2.794   2.417   5.290
 5578SOL     OW17632   4.033   4.685   0.337
 5578SOL    HW117633   4.045   4.655   0.242
 5578SOL    HW217634   3.942   4.661   0.368
 5579SOL     OW17635   7.001   3.735   6.565
 5579SOL    HW117636   6.984   3.649   6.517
 5579SOL    HW217637   6.983   3.811   6.503
 5580SOL     OW17638   4.825   3.081   5.775
 5580SOL    HW117639   4.753   3.101   5.708
 5580SOL    HW217640   4.900   3.147   5.764
 5581SOL     OW17641   2.801   6.572   1.878
 5581SOL    HW117642   2.811   6.668   1.906
 5581SOL    HW217643   2.891   6.530   1.870
 5582SOL     OW17644   3.921   3.315   3.814
 5582SOL    HW117645   3.823   3.337   3.810
 5582SOL    HW217646   3.936   3.245   3.883
 5583SOL     OW17647   4.139   0.455   2.972
 5583SOL    HW117648   4.088   0.442   3.058
 5583SOL    HW217649   4.086   0.510   2.909
 5584SOL     OW17650   5.466   4.176   3.975
 5584SOL    HW117651   5.459   4.094   3.918
 5584SOL    HW217652   5.381   4.189   4.026
 5585SOL     OW17653   4.334   6.452   4.064
 5585SOL    HW117654   4.404   6.523   4.063
 5585SOL    HW217655   4.279   6.460   4.147
 5586SOL     OW17656   0.277   2.174   6.837
 5586SOL    HW117657   0.261   2.265   6.873
 5586SOL    HW217658   0.210   2.154   6.765
 5587SOL     OW17659   4.065   6.062   2.415
 5587SOL    HW117660   4.033   6.109   2.497
 5587SOL    HW217661   4.019   6.100   2.335
 5588SOL     OW17662   1.626   0.139   3.024
 5588SOL    HW117663   1.614   0.040   3.020
 5588SOL    HW217664   1.541   0.182   3.053
 5589SOL     OW17665   5.798   2.103   6.206
 5589SOL    HW117666   5.746   2.022   6.181
 5589SOL    HW217667   5.821   2.100   6.303
 5590SOL     OW17668   6.540   6.111   3.179
 5590SOL    HW117669   6.613   6.063   3.228
 5590SOL    HW217670   6.451   6.087   3.219
 5591SOL     OW17671   6.115   0.967   6.516
 5591SOL    HW117672   6.107   1.010   6.427
 5591SOL    HW217673   6.026   0.929   6.543
 5592SOL     OW17674   0.909   4.179   2.342
 5592SOL    HW117675   0.872   4.114   2.275
 5592SOL    HW217676   0.956   4.128   2.415
 5593SOL     OW17677   6.835   2.413   6.009
 5593SOL    HW117678   6.872   2.411   5.916
 5593SOL    HW217679   6.900   2.460   6.070
 5594SOL     OW17680   2.826   0.952   6.781
 5594SOL    HW117681   2.855   0.883   6.714
 5594SOL    HW217682   2.732   0.980   6.762
 5595SOL     OW17683   6.070   0.542   5.131
 5595SOL    HW117684   6.023   0.596   5.061
 5595SOL    HW217685   6.169   0.545   5.114
 5596SOL     OW17686   5.099   0.233   2.554
 5596SOL    HW117687   5.158   0.231   2.635
 5596SOL    HW217688   5.133   0.302   2.490
 5597SOL     OW17689   6.339   1.459   5.498
 5597SOL    HW117690   6.388   1.431   5.580
 5597SOL    HW217691   6.363   1.554   5.476
 5598SOL     OW17692   5.811   2.324   4.189
 5598SOL    HW117693   5.726   2.350   4.142
 5598SOL    HW217694   5.793   2.247   4.249
 5599SOL     OW17695   6.847   3.212   2.332
 5599SOL    HW117696   6.918   3.180   2.268
 5599SOL    HW217697   6.758   3.209   2.286
 5600SOL     OW17698   2.200   0.321   2.116
 5600SOL    HW117699   2.161   0.412   2.106
 5600SOL    HW217700   2.256   0.317   2.198
 5601SOL     OW17701   3.557   1.312   6.438
 5601SOL    HW117702   3.638   1.255   6.423
 5601SOL    HW217703   3.583   1.408   6.433
 5602SOL     OW17704   0.338   0.275   2.393
 5602SOL    HW117705   0.309   0.223   2.474
 5602SOL    HW217706   0.407   0.342   2.419
 5603SOL     OW17707   5.465   2.111   6.192
 5603SOL    HW117708   5.447   2.017   6.220
 5603SOL    HW217709   5.550   2.143   6.233
 5604SOL     OW17710   0.060   1.953   5.197
 5604SOL    HW117711   6.991   1.978   5.241
 5604SOL    HW217712   0.086   2.024   5.132
 5605SOL     OW17713   2.152   0.161   4.648
 5605SOL    HW117714   2.135   0.079   4.594
 5605SOL    HW217715   2.250   0.179   4.651
 5606SOL     OW17716   5.502   0.761   0.713
 5606SOL    HW117717   5.424   0.698   0.712
 5606SOL    HW217718   5.468   0.856   0.709
 5607SOL     OW17719   5.530   1.760   4.046
 5607SOL    HW117720   5.503   1.808   3.962
 5607SOL    HW217721   5.626   1.780   4.066
 5608SOL     OW17722   5.963   1.450   2.980
 5608SOL    HW117723   5.961   1.459   2.881
 5608SOL    HW217724   5.902   1.517   3.021
 5609SOL     OW17725   4.864   5.988   0.908
 5609SOL    HW117726   4.812   5.931   0.844
 5609SOL    HW217727   4.820   5.985   0.998
 5610SOL     OW17728   5.585   4.258   1.484
 5610SOL    HW117729   5.578   4.321   1.406
 5610SOL    HW217730   5.551   4.303   1.566
 5611SOL     OW17731   0.811   5.087   2.100
 5611SOL    HW117732   0.905   5.062   2.122
 5611SOL    HW217733   0.764   5.117   2.183
 5612SOL     OW17734   4.004   3.562   0.192
 5612SOL    HW117735   3.952   3.593   0.112
 5612SOL    HW217736   4.086   3.513   0.161
 5613SOL     OW17737   5.921   4.771   5.052
 5613SOL    HW117738   5.890   4.843   4.989
 5613SOL    HW217739   5.901   4.681   5.013
 5614SOL     OW17740   5.218   3.687   4.929
 5614SOL    HW117741   5.211   3.598   4.886
 5614SOL    HW217742   5.130   3.714   4.967
 5615SOL     OW17743   6.588   1.560   3.760
 5615SOL    HW117744   6.547   1.616   3.689
 5615SOL    HW217745   6.662   1.610   3.804
 5616SOL     OW17746   2.113   3.140   4.566
 5616SOL    HW117747   2.206   3.126   4.601
 5616SOL    HW217748   2.054   3.067   4.600
 5617SOL     OW17749   1.304   3.748   5.148
 5617SOL    HW117750   1.337   3.779   5.237
 5617SOL    HW217751   1.364   3.676   5.112
 5618SOL     OW17752   6.581   4.735   3.364
 5618SOL    HW117753   6.664   4.748   3.419
 5618SOL    HW217754   6.605   4.687   3.280
 5619SOL     OW17755   3.058   3.986   3.342
 5619SOL    HW117756   2.995   3.909   3.333
 5619SOL    HW217757   3.127   3.966   3.411
 5620SOL     OW17758   4.810   3.654   6.694
 5620SOL    HW117759   4.755   3.737   6.702
 5620SOL    HW217760   4.751   3.578   6.665
 5621SOL     OW17761   1.091   3.391   6.112
 5621SOL    HW117762   1.119   3.441   6.194
 5621SOL    HW217763   1.171   3.375   6.054
 5622SOL     OW17764   5.156   6.718   5.845
 5622SOL    HW117765   5.254   6.728   5.862
 5622SOL    HW217766   5.131   6.621   5.854
 5623SOL     OW17767   4.586   6.178   5.319
 5623SOL    HW117768   4.587   6.131   5.231
 5623SOL    HW217769   4.655   6.251   5.318
 5624SOL     OW17770   0.309   5.049   3.758
 5624SOL    HW117771   0.223   5.010   3.726
 5624SOL    HW217772   0.338   5.003   3.842
 5625SOL     OW17773   0.221   5.707   5.426
 5625SOL    HW117774   0.207   5.802   5.453
 5625SOL    HW217775   0.143   5.675   5.373
 5626SOL     OW17776   2.269   5.340   4.027
 5626SOL    HW117777   2.324   5.267   3.986
 5626SOL    HW217778   2.223   5.305   4.109
 5627SOL     OW17779   6.863   4.873   6.400
 5627SOL    HW117780   6.787   4.888   6.464
 5627SOL    HW217781   6.873   4.953   6.341
 5628SOL     OW17782   2.100   2.383   1.167
 5628SOL    HW117783   2.099   2.283   1.169
 5628SOL    HW217784   2.060   2.418   1.251
 5629SOL     OW17785   5.163   2.880   2.105
 5629SOL    HW117786   5.123   2.868   2.196
 5629SOL    HW217787   5.186   2.790   2.067
 5630SOL     OW17788   1.771   4.081   6.553
 5630SOL    HW117789   1.800   4.077   6.457
 5630SOL    HW217790   1.820   4.012   6.606
 5631SOL     OW17791   5.131   1.158   1.450
 5631SOL    HW117792   5.216   1.107   1.434
 5631SOL    HW217793   5.054   1.094   1.453
 5632SOL     OW17794   3.453   1.979   5.718
 5632SOL    HW117795   3.552   1.969   5.713
 5632SOL    HW217796   3.416   1.992   5.626
 5633SOL     OW17797   6.259   4.385   4.552
 5633SOL    HW117798   6.234   4.464   4.497
 5633SOL    HW217799   6.177   4.342   4.589
 5634SOL     OW17800   2.088   4.630   4.667
 5634SOL    HW117801   2.079   4.580   4.581
 5634SOL    HW217802   2.182   4.663   4.677
 5635SOL     OW17803   1.760   6.175   6.511
 5635SOL    HW117804   1.849   6.136   6.531
 5635SOL    HW217805   1.764   6.275   6.521
 5636SOL     OW17806   5.808   6.942   5.099
 5636SOL    HW117807   5.832   6.919   5.193
 5636SOL    HW217808   5.804   6.858   5.045
 5637SOL     OW17809   3.373   0.102   3.609
 5637SOL    HW117810   3.385   0.164   3.531
 5637SOL    HW217811   3.354   0.010   3.575
 5638SOL     OW17812   6.341   4.151   0.620
 5638SOL    HW117813   6.392   4.160   0.706
 5638SOL    HW217814   6.339   4.240   0.573
 5639SOL     OW17815   2.409   0.313   2.291
 5639SOL    HW117816   2.446   0.280   2.204
 5639SOL    HW217817   2.402   0.413   2.288
 5640SOL     OW17818   2.971   0.803   2.822
 5640SOL    HW117819   2.907   0.769   2.754
 5640SOL    HW217820   3.059   0.823   2.779
 5641SOL     OW17821   0.661   4.669   5.899
 5641SOL    HW117822   0.588   4.653   5.965
 5641SOL    HW217823   0.711   4.752   5.924
 5642SOL     OW17824   0.920   5.345   5.112
 5642SOL    HW117825   0.889   5.265   5.062
 5642SOL    HW217826   0.845   5.410   5.120
 5643SOL     OW17827   3.882   1.383   4.424
 5643SOL    HW117828   3.812   1.352   4.487
 5643SOL    HW217829   3.859   1.354   4.331
 5644SOL     OW17830   3.522   0.546   4.307
 5644SOL    HW117831   3.443   0.557   4.368
 5644SOL    HW217832   3.493   0.503   4.222
 5645SOL     OW17833   5.943   4.830   2.823
 5645SOL    HW117834   5.904   4.755   2.769
 5645SOL    HW217835   6.013   4.795   2.884
 5646SOL     OW17836   0.845   5.796   3.383
 5646SOL    HW117837   0.856   5.794   3.482
 5646SOL    HW217838   0.919   5.743   3.341
 5647SOL     OW17839   5.732   6.682   0.887
 5647SOL    HW117840   5.751   6.663   0.790
 5647SOL    HW217841   5.644   6.729   0.895
 5648SOL     OW17842   1.693   1.301   3.501
 5648SOL    HW117843   1.736   1.211   3.493
 5648SOL    HW217844   1.704   1.335   3.594
 5649SOL     OW17845   6.679   0.053   5.298
 5649SOL    HW117846   6.730   6.986   5.279
 5649SOL    HW217847   6.706   0.124   5.233
 5650SOL     OW17848   1.348   5.101   0.820
 5650SOL    HW117849   1.409   5.175   0.792
 5650SOL    HW217850   1.288   5.077   0.743
 5651SOL     OW17851   0.323   1.192   1.756
 5651SOL    HW117852   0.276   1.134   1.689
 5651SOL    HW217853   0.266   1.201   1.838
 5652SOL     OW17854   6.224   0.070   2.237
 5652SOL    HW117855   6.316   0.030   2.226
 5652SOL    HW217856   6.175   0.065   2.150
 5653SOL     OW17857   0.515   6.197   6.773
 5653SOL    HW117858   0.545   6.207   6.678
 5653SOL    HW217859   0.434   6.139   6.777
 5654SOL     OW17860   6.506   6.630   5.495
 5654SOL    HW117861   6.545   6.560   5.436
 5654SOL    HW217862   6.482   6.710   5.441
 5655SOL     OW17863   2.077   3.903   5.259
 5655SOL    HW117864   2.148   3.856   5.312
 5655SOL    HW217865   2.097   4.001   5.256
 5656SOL     OW17866   0.307   3.366   0.672
 5656SOL    HW117867   0.386   3.319   0.633
 5656SOL    HW217868   0.318   3.465   0.661
 5657SOL     OW17869   5.497   1.131   0.228
 5657SOL    HW117870   5.480   1.038   0.196
 5657SOL    HW217871   5.545   1.127   0.316
 5658SOL     OW17872   3.673   5.059   5.522
 5658SOL    HW117873   3.759   5.022   5.558
 5658SOL    HW217874   3.605   4.986   5.517
 5659SOL     OW17875   4.099   3.738   3.726
 5659SOL    HW117876   4.116   3.645   3.758
 5659SOL    HW217877   4.108   3.742   3.627
 5660SOL     OW17878   5.606   0.210   5.877
 5660SOL    HW117879   5.674   0.224   5.950
 5660SOL    HW217880   5.522   0.258   5.901
 5661SOL     OW17881   1.334   4.399   4.990
 5661SOL    HW117882   1.333   4.484   4.937
 5661SOL    HW217883   1.255   4.396   5.051
 5662SOL     OW17884   3.083   5.536   3.561
 5662SOL    HW117885   3.135   5.451   3.552
 5662SOL    HW217886   3.146   5.614   3.559
 5663SOL     OW17887   2.116   3.035   6.780
 5663SOL    HW117888   2.158   3.096   6.714
 5663SOL    HW217889   2.187   2.995   6.839
 5664SOL     OW17890   6.533   3.902   4.412
 5664SOL    HW117891   6.619   3.890   4.363
 5664SOL    HW217892   6.465   3.942   4.351
 5665SOL     OW17893   1.793   2.326   0.013
 5665SOL    HW117894   1.723   2.258   0.035
 5665SOL    HW217895   1.883   2.291   0.040
 5666SOL     OW17896   6.082   5.646   1.395
 5666SOL    HW117897   6.014   5.575   1.377
 5666SOL    HW217898   6.117   5.636   1.488
 5667SOL     OW17899   0.907   4.873   3.723
 5667SOL    HW117900   0.947   4.936   3.789
 5667SOL    HW217901   0.980   4.830   3.669
 5668SOL     OW17902   5.221   1.815   4.907
 5668SOL    HW117903   5.175   1.753   4.970
 5668SOL    HW217904   5.212   1.781   4.813
 5669SOL     OW17905   0.627   2.809   0.159
 5669SOL    HW117906   0.550   2.866   0.129
 5669SOL    HW217907   0.665   2.760   0.081
 5670SOL     OW17908   6.261   2.715   3.786
 5670SOL    HW117909   6.302   2.790   3.733
 5670SOL    HW217910   6.311   2.630   3.769
 5671SOL     OW17911   0.567   6.121   0.234
 5671SOL    HW117912   0.592   6.118   0.138
 5671SOL    HW217913   0.593   6.035   0.278
 5672SOL     OW17914   4.121   4.958   6.754
 5672SOL    HW117915   4.195   4.894   6.733
 5672SOL    HW217916   4.133   5.041   6.699
 5673SOL     OW17917   0.853   6.684   1.964
 5673SOL    HW117918   0.766   6.720   1.930
 5673SOL    HW217919   0.885   6.612   1.904
 5674SOL     OW17920   0.094   4.895   4.820
 5674SOL    HW117921   0.046   4.956   4.883
 5674SOL    HW217922   0.028   4.834   4.776
 5675SOL     OW17923   4.254   2.076   5.654
 5675SOL    HW117924   4.221   2.163   5.617
 5675SOL    HW217925   4.176   2.019   5.679
 5676SOL     OW17926   2.387   2.688   2.481
 5676SOL    HW117927   2.310   2.714   2.539
 5676SOL    HW217928   2.456   2.641   2.535
 5677SOL     OW17929   6.906   1.314   1.855
 5677SOL    HW117930   6.860   1.348   1.774
 5677SOL    HW217931   6.895   1.380   1.930
 5678SOL     OW17932   3.743   6.490   2.879
 5678SOL    HW117933   3.695   6.408   2.847
 5678SOL    HW217934   3.798   6.467   2.959
 5679SOL     OW17935   1.086   1.085   3.970
 5679SOL    HW117936   1.027   1.009   3.996
 5679SOL    HW217937   1.181   1.054   3.964
 5680SOL     OW17938   1.318   4.938   6.948
 5680SOL    HW117939   1.234   4.982   6.916
 5680SOL    HW217940   1.310   4.919   0.029
 5681SOL     OW17941   0.544   4.514   0.606
 5681SOL    HW117942   0.469   4.542   0.666
 5681SOL    HW217943   0.602   4.593   0.586
 5682SOL     OW17944   2.585   4.403   6.145
 5682SOL    HW117945   2.638   4.487   6.160
 5682SOL    HW217946   2.487   4.422   6.158
 5683SOL     OW17947   4.054   0.553   6.906
 5683SOL    HW117948   4.077   0.566   7.002
 5683SOL    HW217949   4.014   0.463   6.893
 5684SOL     OW17950   3.107   3.062   5.078
 5684SOL    HW117951   3.014   3.037   5.106
 5684SOL    HW217952   3.173   3.024   5.143
 5685SOL     OW17953   1.674   3.225   2.551
 5685SOL    HW117954   1.722   3.242   2.466
 5685SOL    HW217955   1.598   3.161   2.535
 5686SOL     OW17956   2.790   0.555   6.284
 5686SOL    HW117957   2.690   0.556   6.284
 5686SOL    HW217958   2.824   0.528   6.194
 5687SOL     OW17959   0.333   4.458   5.981
 5687SOL    HW117960   0.368   4.448   5.888
 5687SOL    HW217961   0.409   4.461   6.045
 5688SOL     OW17962   0.228   2.383   0.220
 5688SOL    HW117963   0.153   2.396   0.285
 5688SOL    HW217964   0.315   2.393   0.267
 5689SOL     OW17965   4.619   0.910   0.818
 5689SOL    HW117966   4.623   0.923   0.719
 5689SOL    HW217967   4.537   0.857   0.841
 5690SOL     OW17968   2.618   6.023   1.179
 5690SOL    HW117969   2.700   6.000   1.128
 5690SOL    HW217970   2.550   6.062   1.117
 5691SOL     OW17971   2.672   6.523   2.242
 5691SOL    HW117972   2.719   6.611   2.251
 5691SOL    HW217973   2.632   6.497   2.330
 5692SOL     OW17974   6.209   3.041   0.350
 5692SOL    HW117975   6.163   3.087   0.427
 5692SOL    HW217976   6.233   2.948   0.377
 5693SOL     OW17977   5.607   2.241   2.652
 5693SOL    HW117978   5.524   2.270   2.604
 5693SOL    HW217979   5.584   2.216   2.746
 5694SOL     OW17980   0.888   2.017   3.990
 5694SOL    HW117981   0.884   1.940   3.927
 5694SOL    HW217982   0.983   2.048   3.998
 5695SOL     OW17983   1.033   2.624   2.863
 5695SOL    HW117984   0.951   2.571   2.843
 5695SOL    HW217985   1.013   2.721   2.852
 5696SOL     OW17986   1.390   1.014   3.001
 5696SOL    HW117987   1.336   1.052   2.926
 5696SOL    HW217988   1.329   0.973   3.069
 5697SOL     OW17989   5.946   2.189   1.421
 5697SOL    HW117990   5.958   2.129   1.342
 5697SOL    HW217991   5.958   2.284   1.393
 5698SOL     OW17992   0.618   3.595   3.066
 5698SOL    HW117993   0.626   3.647   3.151
 5698SOL    HW217994   0.697   3.533   3.058
 5699SOL     OW17995   6.601   2.789   2.935
 5699SOL    HW117996   6.622   2.701   2.892
 5699SOL    HW217997   6.502   2.798   2.945
 5700SOL     OW17998   0.009   6.609   4.589
 5700SOL    HW117999   6.994   6.543   4.657
 5700SOL    HW218000   6.948   6.656   4.548
 5701SOL     OW18001   1.336   0.718   2.875
 5701SOL    HW118002   1.326   0.661   2.957
 5701SOL    HW218003   1.433   0.720   2.849
 5702SOL     OW18004   2.250   6.312   5.353
 5702SOL    HW118005   2.208   6.294   5.442
 5702SOL    HW218006   2.335   6.363   5.366
 5703SOL     OW18007   6.641   4.757   1.628
 5703SOL    HW118008   6.631   4.674   1.573
 5703SOL    HW218009   6.711   4.742   1.698
 5704SOL     OW18010   4.216   4.941   2.416
 5704SOL    HW118011   4.148   4.957   2.345
 5704SOL    HW218012   4.191   4.859   2.467
 5705SOL     OW18013   4.839   0.725   1.353
 5705SOL    HW118014   4.820   0.630   1.377
 5705SOL    HW218015   4.809   0.742   1.259
 5706SOL     OW18016   6.521   3.369   0.582
 5706SOL    HW118017   6.619   3.350   0.574
 5706SOL    HW218018   6.502   3.461   0.548
 5707SOL     OW18019   0.006   6.728   0.572
 5707SOL    HW118020   0.001   6.790   0.494
 5707SOL    HW218021   0.074   6.657   0.554
 5708SOL     OW18022   5.067   6.071   1.117
 5708SOL    HW118023   5.055   6.065   1.018
 5708SOL    HW218024   4.993   6.023   1.162
 5709SOL     OW18025   1.392   0.148   2.668
 5709SOL    HW118026   1.483   0.137   2.708
 5709SOL    HW218027   1.392   0.226   2.606
 5710SOL     OW18028   2.483   3.057   6.585
 5710SOL    HW118029   2.514   2.983   6.525
 5710SOL    HW218030   2.454   3.018   6.673
 5711SOL     OW18031   4.813   1.248   2.778
 5711SOL    HW118032   4.886   1.182   2.761
 5711SOL    HW218033   4.854   1.339   2.789
 5712SOL     OW18034   0.816   6.163   6.173
 5712SOL    HW118035   0.826   6.105   6.254
 5712SOL    HW218036   0.904   6.201   6.147
 5713SOL     OW18037   2.762   3.027   1.644
 5713SOL    HW118038   2.666   3.051   1.641
 5713SOL    HW218039   2.781   2.959   1.573
 5714SOL     OW18040   0.668   5.627   6.708
 5714SOL    HW118041   0.589   5.567   6.721
 5714SOL    HW218042   0.648   5.717   6.745
 5715SOL     OW18043   0.933   6.626   3.207
 5715SOL    HW118044   0.956   6.582   3.294
 5715SOL    HW218045   0.880   6.564   3.151
 5716SOL     OW18046   1.304   4.055   6.706
 5716SOL    HW118047   1.301   4.071   6.608
 5716SOL    HW218048   1.349   4.132   6.751
 5717SOL     OW18049   1.809   5.810   1.044
 5717SOL    HW118050   1.866   5.745   0.994
 5717SOL    HW218051   1.739   5.761   1.096
 5718SOL     OW18052   0.786   2.620   5.715
 5718SOL    HW118053   0.798   2.684   5.639
 5718SOL    HW218054   0.714   2.654   5.776
 5719SOL     OW18055   3.567   1.564   6.678
 5719SOL    HW118056   3.491   1.500   6.689
 5719SOL    HW218057   3.543   1.651   6.721
 5720SOL     OW18058   1.301   5.137   4.204
 5720SOL    HW118059   1.331   5.180   4.289
 5720SOL    HW218060   1.233   5.066   4.224
 5721SOL     OW18061   0.222   4.384   1.257
 5721SOL    HW118062   0.198   4.320   1.184
 5721SOL    HW218063   0.298   4.347   1.311
 5722SOL     OW18064   6.296   0.967   5.440
 5722SOL    HW118065   6.341   1.046   5.397
 5722SOL    HW218066   6.231   0.999   5.509
 5723SOL     OW18067   4.959   3.416   6.847
 5723SOL    HW118068   4.958   3.493   6.783
 5723SOL    HW218069   4.890   3.349   6.820
 5724SOL     OW18070   4.771   2.680   5.119
 5724SOL    HW118071   4.847   2.745   5.106
 5724SOL    HW218072   4.703   2.694   5.047
 5725SOL     OW18073   5.659   5.533   3.605
 5725SOL    HW118074   5.616   5.487   3.527
 5725SOL    HW218075   5.599   5.606   3.638
 5726SOL     OW18076   0.219   4.685   5.013
 5726SOL    HW118077   0.162   4.753   4.967
 5726SOL    HW218078   0.284   4.731   5.074
 5727SOL     OW18079   6.976   1.890   4.008
 5727SOL    HW118080   7.000   1.794   3.995
 5727SOL    HW218081   6.961   1.933   3.919
 5728SOL     OW18082   4.068   1.165   6.415
 5728SOL    HW118083   4.082   1.100   6.340
 5728SOL    HW218084   3.972   1.163   6.443
 5729SOL     OW18085   0.989   1.371   0.412
 5729SOL    HW118086   1.034   1.282   0.427
 5729SOL    HW218087   1.041   1.422   0.344
 5730SOL     OW18088   4.588   5.296   6.346
 5730SOL    HW118089   4.673   5.302   6.294
 5730SOL    HW218090   4.583   5.375   6.408
 5731SOL     OW18091   0.988   6.728   4.125
 5731SOL    HW118092   1.022   6.771   4.042
 5731SOL    HW218093   0.995   6.628   4.117
 5732SOL     OW18094   6.475   5.146   5.004
 5732SOL    HW118095   6.398   5.162   4.942
 5732SOL    HW218096   6.509   5.053   4.991
 5733SOL     OW18097   3.804   0.048   4.996
 5733SOL    HW118098   3.830   0.061   5.091
 5733SOL    HW218099   3.798   6.967   4.976
 5734SOL     OW18100   1.037   6.535   6.081
 5734SOL    HW118101   1.068   6.441   6.075
 5734SOL    HW218102   1.095   6.586   6.144
 5735SOL     OW18103   3.975   2.177   1.937
 5735SOL    HW118104   3.984   2.275   1.919
 5735SOL    HW218105   3.883   2.156   1.968
 5736SOL     OW18106   6.150   3.915   0.312
 5736SOL    HW118107   6.219   3.928   0.384
 5736SOL    HW218108   6.187   3.944   0.225
 5737SOL     OW18109   4.727   5.721   0.467
 5737SOL    HW118110   4.632   5.716   0.435
 5737SOL    HW218111   4.761   5.628   0.485
 5738SOL     OW18112   2.969   2.778   5.890
 5738SOL    HW118113   3.051   2.810   5.843
 5738SOL    HW218114   2.888   2.823   5.850
 5739SOL     OW18115   0.850   6.975   5.866
 5739SOL    HW118116   0.781   6.956   5.936
 5739SOL    HW218117   0.897   6.891   5.841
 5740SOL     OW18118   4.135   3.586   0.884
 5740SOL    HW118119   4.109   3.497   0.848
 5740SOL    HW218120   4.091   3.601   0.973
 5741SOL     OW18121   6.694   4.348   4.676
 5741SOL    HW118122   6.650   4.364   4.588
 5741SOL    HW218123   6.697   4.249   4.694
 5742SOL     OW18124   4.550   6.660   2.593
 5742SOL    HW118125   4.477   6.691   2.655
 5742SOL    HW218126   4.535   6.563   2.571
 5743SOL     OW18127   2.811   5.606   5.104
 5743SOL    HW118128   2.796   5.704   5.094
 5743SOL    HW218129   2.904   5.590   5.138
 5744SOL     OW18130   4.925   1.668   1.933
 5744SOL    HW118131   5.022   1.684   1.915
 5744SOL    HW218132   4.904   1.693   2.027
 5745SOL     OW18133   1.873   1.383   4.250
 5745SOL    HW118134   1.941   1.363   4.320
 5745SOL    HW218135   1.905   1.350   4.161
 5746SOL     OW18136   5.239   6.675   0.936
 5746SOL    HW118137   5.182   6.721   1.003
 5746SOL    HW218138   5.325   6.647   0.978
 5747SOL     OW18139   0.566   4.452   2.593
 5747SOL    HW118140   0.565   4.360   2.631
 5747SOL    HW218141   0.552   4.519   2.667
 5748SOL     OW18142   1.663   6.228   0.785
 5748SOL    HW118143   1.603   6.215   0.707
 5748SOL    HW218144   1.610   6.220   0.870
 5749SOL     OW18145   1.314   5.903   4.306
 5749SOL    HW118146   1.249   5.977   4.327
 5749SOL    HW218147   1.372   5.931   4.229
 5750SOL     OW18148   6.785   6.261   4.570
 5750SOL    HW118149   6.875   6.254   4.613
 5750SOL    HW218150   6.787   6.334   4.502
 5751SOL     OW18151   2.664   2.410   4.223
 5751SOL    HW118152   2.612   2.440   4.143
 5751SOL    HW218153   2.619   2.443   4.306
 5752SOL     OW18154   6.600   0.252   0.550
 5752SOL    HW118155   6.697   0.240   0.527
 5752SOL    HW218156   6.551   0.285   0.469
 5753SOL     OW18157   3.651   3.228   4.386
 5753SOL    HW118158   3.564   3.261   4.350
 5753SOL    HW218159   3.726   3.275   4.340
 5754SOL     OW18160   6.929   4.860   1.647
 5754SOL    HW118161   0.007   4.855   1.615
 5754SOL    HW218162   6.871   4.898   1.575
 5755SOL     OW18163   2.254   2.780   6.166
 5755SOL    HW118164   2.338   2.727   6.164
 5755SOL    HW218165   2.222   2.796   6.072
 5756SOL     OW18166   6.119   0.286   3.194
 5756SOL    HW118167   6.197   0.324   3.144
 5756SOL    HW218168   6.150   0.251   3.282
 5757SOL     OW18169   6.876   6.772   3.366
 5757SOL    HW118170   6.828   6.859   3.377
 5757SOL    HW218171   6.840   6.705   3.431
 5758SOL     OW18172   2.606   0.990   4.628
 5758SOL    HW118173   2.532   1.055   4.647
 5758SOL    HW218174   2.643   1.008   4.537
 5759SOL     OW18175   4.900   1.572   6.818
 5759SOL    HW118176   4.818   1.628   6.830
 5759SOL    HW218177   4.979   1.619   6.856
 5760SOL     OW18178   0.286   4.344   0.617
 5760SOL    HW118179   0.316   4.332   0.523
 5760SOL    HW218180   0.253   4.438   0.630
 5761SOL     OW18181   5.886   5.566   6.085
 5761SOL    HW118182   5.914   5.485   6.034
 5761SOL    HW218183   5.905   5.648   6.031
 5762SOL     OW18184   4.727   4.795   0.618
 5762SOL    HW118185   4.688   4.726   0.558
 5762SOL    HW218186   4.671   4.877   0.616
 5763SOL     OW18187   0.327   0.023   0.327
 5763SOL    HW118188   0.383   0.052   0.250
 5763SOL    HW218189   0.348   6.945   0.350
 5764SOL     OW18190   5.326   5.020   5.535
 5764SOL    HW118191   5.279   4.957   5.473
 5764SOL    HW218192   5.334   5.110   5.491
 5765SOL     OW18193   5.792   2.915   0.083
 5765SOL    HW118194   5.798   2.882   0.177
 5765SOL    HW218195   5.853   2.861   0.025
 5766SOL     OW18196   2.256   2.046   6.488
 5766SOL    HW118197   2.162   2.078   6.483
 5766SOL    HW218198   2.260   1.962   6.543
 5767SOL     OW18199   1.894   1.414   0.030
 5767SOL    HW118200   1.844   1.471   6.982
 5767SOL    HW218201   1.941   1.472   0.097
 5768SOL     OW18202   0.953   6.418   3.401
 5768SOL    HW118203   1.009   6.354   3.349
 5768SOL    HW218204   0.986   6.423   3.495
 5769SOL     OW18205   2.303   5.771   4.742
 5769SOL    HW118206   2.301   5.676   4.714
 5769SOL    HW218207   2.350   5.825   4.673
 5770SOL     OW18208   6.214   6.585   0.331
 5770SOL    HW118209   6.278   6.529   0.383
 5770SOL    HW218210   6.245   6.680   0.331
 5771SOL     OW18211   1.516   6.967   3.633
 5771SOL    HW118212   1.595   6.909   3.613
 5771SOL    HW218213   1.535   0.043   3.601
 5772SOL     OW18214   5.856   2.036   0.745
 5772SOL    HW118215   5.949   2.000   0.744
 5772SOL    HW218216   5.819   2.036   0.652
 5773SOL     OW18217   4.520   0.592   3.631
 5773SOL    HW118218   4.590   0.550   3.689
 5773SOL    HW218219   4.558   0.673   3.586
 5774SOL     OW18220   2.964   5.920   3.296
 5774SOL    HW118221   2.887   5.929   3.232
 5774SOL    HW218222   2.978   5.824   3.319
 5775SOL     OW18223   1.132   1.134   2.176
 5775SOL    HW118224   1.151   1.041   2.206
 5775SOL    HW218225   1.108   1.134   2.079
 5776SOL     OW18226   0.106   0.370   5.191
 5776SOL    HW118227   0.046   0.421   5.130
 5776SOL    HW218228   0.104   0.411   5.282
 5777SOL     OW18229   6.063   0.195   5.427
 5777SOL    HW118230   6.016   0.184   5.340
 5777SOL    HW218231   6.104   0.286   5.432
 5778SOL     OW18232   1.475   0.807   1.501
 5778SOL    HW118233   1.422   0.739   1.553
 5778SOL    HW218234   1.473   0.894   1.549
 5779SOL     OW18235   5.109   2.271   0.327
 5779SOL    HW118236   5.083   2.356   0.373
 5779SOL    HW218237   5.058   2.195   0.366
 5780SOL     OW18238   5.920   5.587   3.514
 5780SOL    HW118239   5.992   5.518   3.514
 5780SOL    HW218240   5.839   5.550   3.559
 5781SOL     OW18241   0.242   4.458   4.243
 5781SOL    HW118242   0.330   4.418   4.270
 5781SOL    HW218243   0.233   4.456   4.144
 5782SOL     OW18244   0.794   1.286   0.658
 5782SOL    HW118245   0.834   1.366   0.614
 5782SOL    HW218246   0.804   1.295   0.758
 5783SOL     OW18247   1.919   0.865   1.633
 5783SOL    HW118248   1.863   0.948   1.628
 5783SOL    HW218249   1.954   0.842   1.543
 5784SOL     OW18250   7.016   6.204   0.200
 5784SOL    HW118251   0.059   6.131   0.168
 5784SOL    HW218252   6.925   6.167   0.221
 5785SOL     OW18253   1.823   2.097   0.453
 5785SOL    HW118254   1.863   2.059   0.369
 5785SOL    HW218255   1.788   2.189   0.434
 5786SOL     OW18256   0.607   4.584   1.247
 5786SOL    HW118257   0.543   4.564   1.173
 5786SOL    HW218258   0.565   4.558   1.334
 5787SOL     OW18259   3.864   2.048   5.425
 5787SOL    HW118260   3.814   1.980   5.371
 5787SOL    HW218261   3.805   2.128   5.440
 5788SOL     OW18262   3.270   1.528   1.453
 5788SOL    HW118263   3.208   1.592   1.407
 5788SOL    HW218264   3.328   1.483   1.384
 5789SOL     OW18265   2.724   4.221   0.723
 5789SOL    HW118266   2.710   4.133   0.768
 5789SOL    HW218267   2.636   4.263   0.702
 5790SOL     OW18268   0.431   4.589   4.538
 5790SOL    HW118269   0.336   4.585   4.508
 5790SOL    HW218270   0.458   4.684   4.553
 5791SOL     OW18271   3.249   1.836   2.272
 5791SOL    HW118272   3.276   1.927   2.302
 5791SOL    HW218273   3.149   1.829   2.275
 5792SOL     OW18274   5.364   2.688   2.305
 5792SOL    HW118275   5.414   2.614   2.259
 5792SOL    HW218276   5.295   2.726   2.243
 5793SOL     OW18277   5.596   0.609   4.252
 5793SOL    HW118278   5.540   0.640   4.176
 5793SOL    HW218279   5.577   0.664   4.333
 5794SOL     OW18280   2.072   0.785   6.198
 5794SOL    HW118281   2.156   0.827   6.231
 5794SOL    HW218282   2.012   0.855   6.159
 5795SOL     OW18283   0.122   6.711   0.120
 5795SOL    HW118284   0.163   6.679   0.035
 5795SOL    HW218285   0.067   6.637   0.160
 5796SOL     OW18286   5.071   0.707   6.029
 5796SOL    HW118287   5.004   0.633   6.037
 5796SOL    HW218288   5.087   0.727   5.932
 5797SOL     OW18289   4.833   2.157   0.355
 5797SOL    HW118290   4.818   2.250   0.388
 5797SOL    HW218291   4.780   2.142   0.272
 5798SOL     OW18292   6.621   5.146   3.821
 5798SOL    HW118293   6.601   5.048   3.833
 5798SOL    HW218294   6.575   5.179   3.738
 5799SOL     OW18295   0.104   0.914   4.231
 5799SOL    HW118296   0.127   0.890   4.137
 5799SOL    HW218297   0.187   0.916   4.286
 5800SOL     OW18298   6.575   6.892   1.922
 5800SOL    HW118299   6.497   6.880   1.984
 5800SOL    HW218300   6.571   6.823   1.850
 5801SOL     OW18301   1.713   2.667   3.543
 5801SOL    HW118302   1.813   2.662   3.535
 5801SOL    HW218303   1.687   2.670   3.639
 5802SOL     OW18304   6.901   3.492   2.409
 5802SOL    HW118305   6.911   3.401   2.368
 5802SOL    HW218306   6.984   3.514   2.461
 5803SOL     OW18307   2.302   5.740   2.834
 5803SOL    HW118308   2.373   5.682   2.796
 5803SOL    HW218309   2.258   5.792   2.761
 5804SOL     OW18310   0.408   4.777   3.078
 5804SOL    HW118311   0.452   4.830   3.150
 5804SOL    HW218312   0.369   4.693   3.117
 5805SOL     OW18313   1.904   2.801   0.486
 5805SOL    HW118314   1.976   2.748   0.530
 5805SOL    HW218315   1.832   2.822   0.553
 5806SOL     OW18316   6.234   5.407   4.290
 5806SOL    HW118317   6.232   5.505   4.271
 5806SOL    HW218318   6.253   5.358   4.205
 5807SOL     OW18319   0.877   4.556   0.885
 5807SOL    HW118320   0.962   4.590   0.845
 5807SOL    HW218321   0.876   4.577   0.983
 5808SOL     OW18322   6.752   5.345   4.021
 5808SOL    HW118323   6.676   5.282   4.034
 5808SOL    HW218324   6.826   5.320   4.083
 5809SOL     OW18325   6.564   1.736   5.082
 5809SOL    HW118326   6.576   1.658   5.143
 5809SOL    HW218327   6.588   1.709   4.989
 5810SOL     OW18328   5.056   1.169   5.550
 5810SOL    HW118329   5.069   1.082   5.504
 5810SOL    HW218330   5.023   1.237   5.484
 5811SOL     OW18331   3.934   0.884   4.599
 5811SOL    HW118332   3.939   0.983   4.612
 5811SOL    HW218333   4.022   0.842   4.621
 5812SOL     OW18334   5.950   3.401   5.133
 5812SOL    HW118335   5.899   3.359   5.207
 5812SOL    HW218336   5.888   3.455   5.075
 5813SOL     OW18337   2.030   1.433   1.199
 5813SOL    HW118338   2.028   1.340   1.161
 5813SOL    HW218339   2.124   1.466   1.203
 5814SOL     OW18340   6.364   3.660   2.208
 5814SOL    HW118341   6.432   3.697   2.271
 5814SOL    HW218342   6.408   3.597   2.144
 5815SOL     OW18343   4.072   1.885   3.906
 5815SOL    HW118344   4.004   1.842   3.846
 5815SOL    HW218345   4.133   1.943   3.852
 5816SOL     OW18346   4.951   4.475   0.973
 5816SOL    HW118347   5.008   4.420   0.912
 5816SOL    HW218348   4.856   4.445   0.967
 5817SOL     OW18349   6.035   4.372   5.694
 5817SOL    HW118350   6.030   4.450   5.633
 5817SOL    HW218351   5.949   4.361   5.743
 5818SOL     OW18352   6.579   4.998   5.462
 5818SOL    HW118353   6.527   4.945   5.395
 5818SOL    HW218354   6.624   4.936   5.526
 5819SOL     OW18355   3.984   0.304   6.870
 5819SOL    HW118356   3.885   0.307   6.882
 5819SOL    HW218357   4.023   0.238   6.935
 5820SOL     OW18358   4.306   4.775   3.479
 5820SOL    HW118359   4.300   4.731   3.389
 5820SOL    HW218360   4.256   4.720   3.546
 5821SOL     OW18361   0.042   1.057   1.949
 5821SOL    HW118362   7.009   1.131   1.904
 5821SOL    HW218363   0.085   0.999   1.880
 5822SOL     OW18364   1.454   2.766   1.477
 5822SOL    HW118365   1.385   2.728   1.539
 5822SOL    HW218366   1.445   2.723   1.387
 5823SOL     OW18367   2.939   0.550   4.605
 5823SOL    HW118368   2.966   0.635   4.559
 5823SOL    HW218369   2.985   0.473   4.560
 5824SOL     OW18370   0.122   5.875   2.675
 5824SOL    HW118371   0.133   5.782   2.642
 5824SOL    HW218372   0.179   5.937   2.619
 5825SOL     OW18373   0.239   6.889   4.688
 5825SOL    HW118374   0.267   6.921   4.778
 5825SOL    HW218375   0.244   6.789   4.685
 5826SOL     OW18376   6.983   5.130   6.250
 5826SOL    HW118377   6.960   5.224   6.226
 5826SOL    HW218378   7.010   5.080   6.167
 5827SOL     OW18379   1.831   3.841   5.353
 5827SOL    HW118380   1.778   3.878   5.277
 5827SOL    HW218381   1.927   3.866   5.343
 5828SOL     OW18382   5.554   1.753   2.090
 5828SOL    HW118383   5.642   1.706   2.085
 5828SOL    HW218384   5.563   1.834   2.147
 5829SOL     OW18385   1.817   0.385   4.279
 5829SOL    HW118386   1.749   0.419   4.344
 5829SOL    HW218387   1.890   0.452   4.268
 5830SOL     OW18388   5.790   6.591   5.845
 5830SOL    HW118389   5.784   6.606   5.746
 5830SOL    HW218390   5.757   6.672   5.893
 5831SOL     OW18391   1.172   0.717   5.871
 5831SOL    HW118392   1.184   0.662   5.954
 5831SOL    HW218393   1.229   0.679   5.798
 5832SOL     OW18394   3.211   5.084   6.986
 5832SOL    HW118395   3.215   5.018   0.044
 5832SOL    HW218396   3.238   5.174   0.003
 5833SOL     OW18397   4.013   3.953   4.971
 5833SOL    HW118398   4.004   4.047   4.936
 5833SOL    HW218399   4.059   3.955   5.060
 5834SOL     OW18400   0.181   2.989   0.206
 5834SOL    HW118401   0.162   3.076   0.253
 5834SOL    HW218402   0.270   2.995   0.160
 5835SOL     OW18403   5.238   2.877   3.121
 5835SOL    HW118404   5.213   2.820   3.200
 5835SOL    HW218405   5.194   2.966   3.129
 5836SOL     OW18406   2.950   0.211   1.899
 5836SOL    HW118407   2.929   0.292   1.845
 5836SOL    HW218408   2.904   0.132   1.859
 5837SOL     OW18409   3.123   3.804   0.149
 5837SOL    HW118410   3.116   3.787   0.051
 5837SOL    HW218411   3.219   3.797   0.177
 5838SOL     OW18412   2.596   1.860   0.836
 5838SOL    HW118413   2.688   1.851   0.797
 5838SOL    HW218414   2.546   1.930   0.785
 5839SOL     OW18415   0.929   1.885   1.818
 5839SOL    HW118416   0.884   1.846   1.898
 5839SOL    HW218417   1.023   1.851   1.813
 5840SOL     OW18418   1.662   5.075   6.434
 5840SOL    HW118419   1.568   5.084   6.400
 5840SOL    HW218420   1.676   4.982   6.468
 5841SOL     OW18421   4.716   1.118   2.530
 5841SOL    HW118422   4.636   1.073   2.491
 5841SOL    HW218423   4.686   1.183   2.600
 5842SOL     OW18424   4.564   2.805   1.469
 5842SOL    HW118425   4.655   2.844   1.477
 5842SOL    HW218426   4.502   2.871   1.425
 5843SOL     OW18427   1.413   4.275   2.426
 5843SOL    HW118428   1.351   4.269   2.504
 5843SOL    HW218429   1.496   4.323   2.453
 5844SOL     OW18430   1.634   5.758   5.812
 5844SOL    HW118431   1.629   5.676   5.755
 5844SOL    HW218432   1.667   5.733   5.903
 5845SOL     OW18433   0.466   0.480   2.509
 5845SOL    HW118434   0.435   0.575   2.515
 5845SOL    HW218435   0.477   0.442   2.600
 5846SOL     OW18436   5.832   4.043   6.207
 5846SOL    HW118437   5.803   4.112   6.141
 5846SOL    HW218438   5.928   4.020   6.190
 5847SOL     OW18439   2.728   2.288   2.217
 5847SOL    HW118440   2.784   2.297   2.135
 5847SOL    HW218441   2.643   2.241   2.195
 5848SOL     OW18442   1.621   5.682   3.225
 5848SOL    HW118443   1.678   5.761   3.201
 5848SOL    HW218444   1.591   5.636   3.142
 5849SOL     OW18445   1.624   0.355   5.355
 5849SOL    HW118446   1.582   0.375   5.267
 5849SOL    HW218447   1.631   0.256   5.368
 5850SOL     OW18448   6.592   3.317   1.602
 5850SOL    HW118449   6.546   3.381   1.540
 5850SOL    HW218450   6.674   3.360   1.640
 5851SOL     OW18451   5.008   3.050   2.809
 5851SOL    HW118452   4.954   2.995   2.872
 5851SOL    HW218453   4.994   3.147   2.829
 5852SOL     OW18454   5.700   6.623   3.187
 5852SOL    HW118455   5.743   6.678   3.258
 5852SOL    HW218456   5.690   6.528   3.218
 5853SOL     OW18457   3.281   5.763   5.195
 5853SOL    HW118458   3.330   5.684   5.232
 5853SOL    HW218459   3.279   5.836   5.263
 5854SOL     OW18460   4.529   4.703   6.212
 5854SOL    HW118461   4.495   4.746   6.128
 5854SOL    HW218462   4.544   4.774   6.281
 5855SOL     OW18463   1.598   1.024   4.916
 5855SOL    HW118464   1.620   1.106   4.863
 5855SOL    HW218465   1.500   1.023   4.938
 5856SOL     OW18466   2.366   5.942   3.559
 5856SOL    HW118467   2.350   6.035   3.526
 5856SOL    HW218468   2.386   5.882   3.481
 5857SOL     OW18469   6.213   2.524   5.310
 5857SOL    HW118470   6.116   2.534   5.286
 5857SOL    HW218471   6.242   2.431   5.291
 5858SOL     OW18472   2.513   2.153   2.628
 5858SOL    HW118473   2.498   2.069   2.575
 5858SOL    HW218474   2.449   2.224   2.597
 5859SOL     OW18475   6.668   5.719   1.727
 5859SOL    HW118476   6.585   5.665   1.738
 5859SOL    HW218477   6.745   5.659   1.704
 5860SOL     OW18478   0.265   4.143   3.219
 5860SOL    HW118479   0.191   4.132   3.152
 5860SOL    HW218480   0.341   4.194   3.177
 5861SOL     OW18481   4.703   1.748   4.375
 5861SOL    HW118482   4.665   1.695   4.450
 5861SOL    HW218483   4.801   1.761   4.389
 5862SOL     OW18484   5.989   5.604   0.893
 5862SOL    HW118485   5.904   5.552   0.897
 5862SOL    HW218486   6.018   5.628   0.986
 5863SOL     OW18487   3.054   2.057   5.169
 5863SOL    HW118488   2.955   2.057   5.154
 5863SOL    HW218489   3.091   2.148   5.147
 5864SOL     OW18490   3.712   4.057   2.701
 5864SOL    HW118491   3.615   4.080   2.713
 5864SOL    HW218492   3.763   4.086   2.783
 5865SOL     OW18493   6.006   0.076   5.660
 5865SOL    HW118494   6.095   0.068   5.705
 5865SOL    HW218495   6.018   0.119   5.570
 5866SOL     OW18496   3.361   4.225   0.591
 5866SOL    HW118497   3.393   4.153   0.653
 5866SOL    HW218498   3.360   4.312   0.640
 5867SOL     OW18499   2.243   3.189   1.222
 5867SOL    HW118500   2.170   3.124   1.244
 5867SOL    HW218501   2.261   3.186   1.123
 5868SOL     OW18502   1.800   1.557   5.111
 5868SOL    HW118503   1.802   1.461   5.140
 5868SOL    HW218504   1.706   1.591   5.117
 5869SOL     OW18505   2.131   6.428   3.206
 5869SOL    HW118506   2.115   6.524   3.183
 5869SOL    HW218507   2.145   6.376   3.122
 5870SOL     OW18508   4.578   6.689   4.923
 5870SOL    HW118509   4.485   6.725   4.924
 5870SOL    HW218510   4.641   6.759   4.889
 5871SOL     OW18511   3.324   3.490   1.398
 5871SOL    HW118512   3.409   3.442   1.421
 5871SOL    HW218513   3.304   3.479   1.301
 5872SOL     OW18514   4.690   6.350   1.120
 5872SOL    HW118515   4.609   6.348   1.061
 5872SOL    HW218516   4.705   6.443   1.153
 5873SOL     OW18517   3.708   1.252   2.095
 5873SOL    HW118518   3.743   1.262   2.002
 5873SOL    HW218519   3.784   1.232   2.157
 5874SOL     OW18520   2.949   4.765   6.279
 5874SOL    HW118521   2.977   4.788   6.186
 5874SOL    HW218522   3.020   4.793   6.344
 5875SOL     OW18523   4.257   1.310   0.467
 5875SOL    HW118524   4.174   1.347   0.509
 5875SOL    HW218525   4.246   1.309   0.367
 5876SOL     OW18526   3.822   3.031   0.900
 5876SOL    HW118527   3.868   3.005   0.985
 5876SOL    HW218528   3.810   3.130   0.897
 5877SOL     OW18529   0.484   0.213   1.624
 5877SOL    HW118530   0.481   0.239   1.528
 5877SOL    HW218531   0.424   0.134   1.640
 5878SOL     OW18532   6.036   5.243   3.967
 5878SOL    HW118533   6.063   5.198   3.882
 5878SOL    HW218534   6.115   5.287   4.008
 5879SOL     OW18535   1.316   3.667   6.598
 5879SOL    HW118536   1.412   3.644   6.616
 5879SOL    HW218537   1.310   3.723   6.516
 5880SOL     OW18538   4.452   4.778   5.961
 5880SOL    HW118539   4.366   4.737   5.932
 5880SOL    HW218540   4.522   4.763   5.891
 5881SOL     OW18541   0.975   6.987   2.622
 5881SOL    HW118542   0.914   0.041   2.586
 5881SOL    HW218543   1.058   6.983   2.565
 5882SOL     OW18544   6.953   5.473   0.736
 5882SOL    HW118545   0.000   5.421   0.793
 5882SOL    HW218546   6.995   5.492   0.647
 5883SOL     OW18547   0.979   1.177   6.463
 5883SOL    HW118548   0.931   1.112   6.523
 5883SOL    HW218549   0.959   1.154   6.368
 5884SOL     OW18550   4.126   1.453   4.340
 5884SOL    HW118551   4.126   1.541   4.294
 5884SOL    HW218552   4.032   1.426   4.361
 5885SOL     OW18553   0.696   6.870   2.568
 5885SOL    HW118554   0.618   6.819   2.531
 5885SOL    HW218555   0.700   6.858   2.667
 5886SOL     OW18556   0.069   2.300   4.682
 5886SOL    HW118557   0.164   2.286   4.653
 5886SOL    HW218558   0.008   2.270   4.609
 5887SOL     OW18559   2.881   1.972   2.034
 5887SOL    HW118560   2.782   1.960   2.034
 5887SOL    HW218561   2.915   1.967   1.940
 5888SOL     OW18562   3.161   0.703   1.366
 5888SOL    HW118563   3.258   0.710   1.390
 5888SOL    HW218564   3.146   0.748   1.278
 5889SOL     OW18565   0.920   0.482   0.807
 5889SOL    HW118566   0.851   0.435   0.861
 5889SOL    HW218567   0.898   0.579   0.801
 5890SOL     OW18568   2.366   1.231   3.337
 5890SOL    HW118569   2.413   1.269   3.258
 5890SOL    HW218570   2.413   1.258   3.421
 5891SOL     OW18571   3.493   3.216   6.566
 5891SOL    HW118572   3.421   3.196   6.499
 5891SOL    HW218573   3.495   3.143   6.635
 5892SOL     OW18574   1.056   5.682   1.806
 5892SOL    HW118575   1.084   5.654   1.898
 5892SOL    HW218576   1.025   5.602   1.755
 5893SOL     OW18577   2.317   4.382   3.893
 5893SOL    HW118578   2.292   4.285   3.893
 5893SOL    HW218579   2.360   4.405   3.806
 5894SOL     OW18580   6.515   5.619   4.174
 5894SOL    HW118581   6.561   5.702   4.205
 5894SOL    HW218582   6.471   5.637   4.085
 5895SOL     OW18583   5.338   3.883   4.124
 5895SOL    HW118584   5.364   3.919   4.034
 5895SOL    HW218585   5.323   3.785   4.118
 5896SOL     OW18586   3.617   0.847   0.600
 5896SOL    HW118587   3.570   0.787   0.536
 5896SOL    HW218588   3.668   0.916   0.549
 5897SOL     OW18589   4.053   0.056   1.403
 5897SOL    HW118590   4.042   0.061   1.502
 5897SOL    HW218591   4.018   6.985   1.370
 5898SOL     OW18592   2.213   6.873   3.528
 5898SOL    HW118593   2.123   6.855   3.568
 5898SOL    HW218594   2.235   6.803   3.460
 5899SOL     OW18595   6.124   5.696   6.767
 5899SOL    HW118596   6.087   5.727   6.854
 5899SOL    HW218597   6.059   5.717   6.694
 5900SOL     OW18598   6.407   5.261   3.674
 5900SOL    HW118599   6.358   5.190   3.725
 5900SOL    HW218600   6.427   5.227   3.582
 5901SOL     OW18601   2.342   1.402   0.015
 5901SOL    HW118602   2.298   1.312   0.010
 5901SOL    HW218603   2.405   1.412   6.955
 5902SOL     OW18604   6.087   1.928   5.268
 5902SOL    HW118605   6.140   2.007   5.299
 5902SOL    HW218606   6.049   1.880   5.347
 5903SOL     OW18607   4.740   4.509   6.941
 5903SOL    HW118608   4.796   4.521   6.858
 5903SOL    HW218609   4.785   4.444   7.002
 5904SOL     OW18610   0.926   4.327   1.618
 5904SOL    HW118611   0.926   4.281   1.707
 5904SOL    HW218612   0.956   4.422   1.630
 5905SOL     OW18613   6.422   6.703   3.571
 5905SOL    HW118614   6.512   6.661   3.560
 5905SOL    HW218615   6.371   6.697   3.486
 5906SOL     OW18616   3.873   2.151   4.204
 5906SOL    HW118617   3.908   2.196   4.286
 5906SOL    HW218618   3.941   2.088   4.168
 5907SOL     OW18619   1.422   4.579   0.838
 5907SOL    HW118620   1.458   4.548   0.926
 5907SOL    HW218621   1.338   4.631   0.853
 5908SOL     OW18622   0.201   3.039   6.810
 5908SOL    HW118623   0.190   3.080   6.720
 5908SOL    HW218624   0.181   3.106   6.881
 5909SOL     OW18625   6.771   5.339   0.962
 5909SOL    HW118626   6.780   5.272   1.036
 5909SOL    HW218627   6.861   5.377   0.941
 5910SOL     OW18628   0.570   4.240   3.566
 5910SOL    HW118629   0.613   4.328   3.589
 5910SOL    HW218630   0.640   4.169   3.559
 5911SOL     OW18631   0.053   5.340   6.524
 5911SOL    HW118632   0.114   5.388   6.460
 5911SOL    HW218633   6.981   5.326   6.480
 5912SOL     OW18634   6.043   1.480   6.435
 5912SOL    HW118635   5.952   1.439   6.426
 5912SOL    HW218636   6.089   1.480   6.346
 5913SOL     OW18637   5.265   3.230   6.269
 5913SOL    HW118638   5.254   3.258   6.364
 5913SOL    HW218639   5.304   3.138   6.266
 5914SOL     OW18640   1.384   5.688   6.094
 5914SOL    HW118641   1.398   5.615   6.027
 5914SOL    HW218642   1.471   5.736   6.110
 5915SOL     OW18643   4.717   5.271   1.177
 5915SOL    HW118644   4.625   5.287   1.212
 5915SOL    HW218645   4.712   5.218   1.092
 5916SOL     OW18646   5.240   6.956   4.054
 5916SOL    HW118647   5.253   6.976   3.957
 5916SOL    HW218648   5.168   7.014   4.091
 5917SOL     OW18649   2.996   3.631   3.932
 5917SOL    HW118650   2.963   3.544   3.894
 5917SOL    HW218651   2.968   3.638   4.028
 5918SOL     OW18652   1.552   3.391   5.933
 5918SOL    HW118653   1.645   3.369   5.963
 5918SOL    HW218654   1.552   3.408   5.834
 5919SOL     OW18655   3.442   3.357   2.944
 5919SOL    HW118656   3.531   3.402   2.937
 5919SOL    HW218657   3.403   3.346   2.853
 5920SOL     OW18658   4.472   0.083   6.725
 5920SOL    HW118659   4.571   0.099   6.725
 5920SOL    HW218660   4.431   0.127   6.805
 5921SOL     OW18661   3.777   5.208   6.623
 5921SOL    HW118662   3.737   5.124   6.587
 5921SOL    HW218663   3.716   5.285   6.605
 5922SOL     OW18664   5.318   4.919   3.050
 5922SOL    HW118665   5.374   4.999   3.067
 5922SOL    HW218666   5.222   4.946   3.038
 5923SOL     OW18667   6.323   1.498   1.467
 5923SOL    HW118668   6.367   1.475   1.554
 5923SOL    HW218669   6.361   1.440   1.395
 5924SOL     OW18670   6.354   0.548   2.920
 5924SOL    HW118671   6.385   0.606   2.844
 5924SOL    HW218672   6.283   0.485   2.887
 5925SOL     OW18673   3.999   6.836   2.189
 5925SOL    HW118674   3.906   6.872   2.174
 5925SOL    HW218675   4.065   6.909   2.173
 5926SOL     OW18676   3.935   5.631   1.243
 5926SOL    HW118677   3.967   5.676   1.327
 5926SOL    HW218678   3.922   5.700   1.172
 5927SOL     OW18679   1.262   4.127   2.217
 5927SOL    HW118680   1.286   4.207   2.271
 5927SOL    HW218681   1.249   4.048   2.278
 5928SOL     OW18682   3.959   0.679   0.977
 5928SOL    HW118683   4.045   0.729   0.968
 5928SOL    HW218684   3.920   0.696   1.068
 5929SOL     OW18685   0.148   6.958   7.016
 5929SOL    HW118686   0.116   6.882   0.056
 5929SOL    HW218687   0.248   6.953   7.006
 5930SOL     OW18688   6.998   3.612   3.371
 5930SOL    HW118689   6.969   3.517   3.379
 5930SOL    HW218690   0.070   3.624   3.414
 5931SOL     OW18691   0.034   5.582   2.888
 5931SOL    HW118692   7.015   5.673   2.912
 5931SOL    HW218693   0.043   5.527   2.970
 5932SOL     OW18694   3.244   0.373   0.647
 5932SOL    HW118695   3.188   0.407   0.722
 5932SOL    HW218696   3.329   0.334   0.684
 5933SOL     OW18697   6.738   6.233   2.761
 5933SOL    HW118698   6.691   6.235   2.850
 5933SOL    HW218699   6.708   6.153   2.709
 5934SOL     OW18700   3.748   2.936   4.587
 5934SOL    HW118701   3.744   2.847   4.632
 5934SOL    HW218702   3.830   2.985   4.618
 5935SOL     OW18703   5.368   4.941   6.574
 5935SOL    HW118704   5.363   4.937   6.475
 5935SOL    HW218705   5.321   4.863   6.614
 5936SOL     OW18706   3.781   2.776   1.323
 5936SOL    HW118707   3.766   2.872   1.345
 5936SOL    HW218708   3.729   2.719   1.386
 5937SOL     OW18709   6.820   4.532   2.485
 5937SOL    HW118710   6.788   4.587   2.409
 5937SOL    HW218711   6.915   4.556   2.507
 5938SOL     OW18712   7.015   5.845   2.913
 5938SOL    HW118713   0.063   5.867   2.840
 5938SOL    HW218714   6.947   5.918   2.921
 5939SOL     OW18715   2.775   0.102   3.109
 5939SOL    HW118716   2.861   0.099   3.057
 5939SOL    HW218717   2.704   0.144   3.053
 5940SOL     OW18718   5.231   5.616   1.447
 5940SOL    HW118719   5.229   5.711   1.414
 5940SOL    HW218720   5.138   5.588   1.473
 5941SOL     OW18721   5.880   2.693   2.115
 5941SOL    HW118722   5.854   2.708   2.211
 5941SOL    HW218723   5.839   2.762   2.057
 5942SOL     OW18724   5.148   3.847   6.800
 5942SOL    HW118725   5.235   3.836   6.848
 5942SOL    HW218726   5.143   3.782   6.724
 5943SOL     OW18727   3.218   4.745   6.691
 5943SOL    HW118728   3.273   4.662   6.706
 5943SOL    HW218729   3.267   4.824   6.728
 5944SOL     OW18730   6.282   2.936   0.983
 5944SOL    HW118731   6.267   2.857   1.042
 5944SOL    HW218732   6.209   2.941   0.915
 5945SOL     OW18733   6.337   5.223   4.518
 5945SOL    HW118734   6.384   5.141   4.485
 5945SOL    HW218735   6.254   5.237   4.465
 5946SOL     OW18736   3.861   3.506   6.212
 5946SOL    HW118737   3.776   3.462   6.183
 5946SOL    HW218738   3.863   3.600   6.178
 5947SOL     OW18739   3.339   3.704   2.532
 5947SOL    HW118740   3.286   3.627   2.568
 5947SOL    HW218741   3.358   3.689   2.435
 5948SOL     OW18742   4.101   5.355   3.599
 5948SOL    HW118743   4.061   5.436   3.556
 5948SOL    HW218744   4.036   5.279   3.593
 5949SOL     OW18745   5.205   3.593   2.172
 5949SOL    HW118746   5.163   3.560   2.087
 5949SOL    HW218747   5.168   3.684   2.194
 5950SOL     OW18748   4.857   1.250   5.729
 5950SOL    HW118749   4.901   1.248   5.639
 5950SOL    HW218750   4.760   1.272   5.719
 5951SOL     OW18751   1.475   5.917   4.059
 5951SOL    HW118752   1.432   5.925   3.969
 5951SOL    HW218753   1.493   5.820   4.079
 5952SOL     OW18754   5.530   4.869   3.526
 5952SOL    HW118755   5.563   4.811   3.452
 5952SOL    HW218756   5.444   4.913   3.499
 5953SOL     OW18757   6.346   2.930   5.591
 5953SOL    HW118758   6.376   2.874   5.668
 5953SOL    HW218759   6.366   2.882   5.506
 5954SOL     OW18760   6.669   4.041   5.724
 5954SOL    HW118761   6.647   4.123   5.672
 5954SOL    HW218762   6.585   3.993   5.748
 5955SOL     OW18763   4.505   5.674   2.665
 5955SOL    HW118764   4.473   5.640   2.753
 5955SOL    HW218765   4.567   5.751   2.679
 5956SOL     OW18766   4.364   1.506   4.811
 5956SOL    HW118767   4.292   1.446   4.776
 5956SOL    HW218768   4.448   1.454   4.825
 5957SOL     OW18769   4.409   0.768   5.636
 5957SOL    HW118770   4.428   0.697   5.568
 5957SOL    HW218771   4.459   0.747   5.720
 5958SOL     OW18772   5.315   6.678   2.689
 5958SOL    HW118773   5.357   6.681   2.779
 5958SOL    HW218774   5.221   6.643   2.696
 5959SOL     OW18775   4.266   2.771   5.339
 5959SOL    HW118776   4.236   2.867   5.337
 5959SOL    HW218777   4.200   2.714   5.291
 5960SOL     OW18778   3.752   5.615   4.774
 5960SOL    HW118779   3.755   5.529   4.724
 5960SOL    HW218780   3.829   5.621   4.837
 5961SOL     OW18781   4.886   1.531   2.739
 5961SOL    HW118782   4.947   1.606   2.768
 5961SOL    HW218783   4.806   1.529   2.797
 5962SOL     OW18784   5.805   6.395   0.229
 5962SOL    HW118785   5.886   6.343   0.256
 5962SOL    HW218786   5.817   6.490   0.258
 5963SOL     OW18787   4.063   3.743   5.494
 5963SOL    HW118788   4.020   3.695   5.570
 5963SOL    HW218789   4.033   3.839   5.494
 5964SOL     OW18790   0.662   5.523   5.490
 5964SOL    HW118791   0.563   5.509   5.492
 5964SOL    HW218792   0.694   5.551   5.581
 5965SOL     OW18793   1.979   2.088   6.460
 5965SOL    HW118794   1.951   2.003   6.506
 5965SOL    HW218795   1.935   2.166   6.504
 5966SOL     OW18796   2.251   6.008   5.492
 5966SOL    HW118797   2.204   5.947   5.429
 5966SOL    HW218798   2.185   6.074   5.530
 5967SOL     OW18799   4.028   6.610   6.681
 5967SOL    HW118800   4.087   6.632   6.759
 5967SOL    HW218801   4.057   6.664   6.602
 5968SOL     OW18802   5.086   2.216   1.146
 5968SOL    HW118803   5.131   2.284   1.204
 5968SOL    HW218804   4.988   2.216   1.164
 5969SOL     OW18805   6.863   6.822   6.405
 5969SOL    HW118806   6.945   6.863   6.364
 5969SOL    HW218807   6.787   6.828   6.341
 5970SOL     OW18808   0.463   4.196   2.376
 5970SOL    HW118809   0.425   4.108   2.347
 5970SOL    HW218810   0.406   4.234   2.448
 5971SOL     OW18811   0.392   1.531   2.669
 5971SOL    HW118812   0.442   1.454   2.707
 5971SOL    HW218813   0.304   1.500   2.632
 5972SOL     OW18814   6.029   5.284   5.874
 5972SOL    HW118815   6.075   5.316   5.790
 5972SOL    HW218816   5.936   5.320   5.876
 5973SOL     OW18817   1.709   3.689   2.926
 5973SOL    HW118818   1.625   3.729   2.890
 5973SOL    HW218819   1.694   3.591   2.943
 5974SOL     OW18820   5.792   5.264   6.233
 5974SOL    HW118821   5.838   5.175   6.234
 5974SOL    HW218822   5.731   5.272   6.312
 5975SOL     OW18823   4.605   0.312   0.567
 5975SOL    HW118824   4.624   0.399   0.612
 5975SOL    HW218825   4.667   0.241   0.602
 5976SOL     OW18826   3.606   2.633   5.869
 5976SOL    HW118827   3.569   2.540   5.872
 5976SOL    HW218828   3.571   2.685   5.947
 5977SOL     OW18829   1.527   5.704   6.660
 5977SOL    HW118830   1.470   5.744   6.732
 5977SOL    HW218831   1.471   5.676   6.583
 5978SOL     OW18832   4.544   5.524   1.958
 5978SOL    HW118833   4.455   5.506   1.916
 5978SOL    HW218834   4.530   5.563   2.049
 5979SOL     OW18835   5.594   1.117   2.958
 5979SOL    HW118836   5.589   1.144   2.862
 5979SOL    HW218837   5.516   1.155   3.008
 5980SOL     OW18838   4.081   3.909   1.064
 5980SOL    HW118839   4.043   3.944   0.978
 5980SOL    HW218840   4.051   3.968   1.139
 5981SOL     OW18841   5.308   2.548   1.328
 5981SOL    HW118842   5.336   2.596   1.411
 5981SOL    HW218843   5.372   2.570   1.254
 5982SOL     OW18844   6.122   3.242   2.512
 5982SOL    HW118845   6.124   3.331   2.466
 5982SOL    HW218846   6.205   3.231   2.567
 5983SOL     OW18847   1.373   1.388   4.177
 5983SOL    HW118848   1.438   1.330   4.226
 5983SOL    HW218849   1.379   1.370   4.079
 5984SOL     OW18850   6.753   5.669   3.447
 5984SOL    HW118851   6.759   5.736   3.374
 5984SOL    HW218852   6.657   5.644   3.462
 5985SOL     OW18853   6.734   2.818   4.374
 5985SOL    HW118854   6.729   2.719   4.388
 5985SOL    HW218855   6.726   2.839   4.277
 5986SOL     OW18856   3.167   3.831   3.984
 5986SOL    HW118857   3.214   3.819   4.072
 5986SOL    HW218858   3.100   3.759   3.971
 5987SOL     OW18859   5.488   7.013   3.933
 5987SOL    HW118860   5.482   0.018   3.835
 5987SOL    HW218861   5.508   6.916   3.944
 5988SOL     OW18862   4.766   0.071   5.711
 5988SOL    HW118863   4.837   0.006   5.737
 5988SOL    HW218864   4.765   0.148   5.775
 5989SOL     OW18865   1.812   6.435   6.569
 5989SOL    HW118866   1.779   6.491   6.493
 5989SOL    HW218867   1.911   6.442   6.576
 5990SOL     OW18868   3.649   3.974   0.378
 5990SOL    HW118869   3.661   3.903   0.308
 5990SOL    HW218870   3.734   3.985   0.430
 5991SOL     OW18871   3.203   5.392   0.355
 5991SOL    HW118872   3.292   5.410   0.398
 5991SOL    HW218873   3.146   5.474   0.361
 5992SOL     OW18874   3.453   0.525   2.288
 5992SOL    HW118875   3.383   0.587   2.253
 5992SOL    HW218876   3.422   0.430   2.276
 5993SOL     OW18877   3.345   5.298   6.249
 5993SOL    HW118878   3.331   5.331   6.155
 5993SOL    HW218879   3.338   5.198   6.251
 5994SOL     OW18880   5.587   2.692   2.621
 5994SOL    HW118881   5.513   2.721   2.683
 5994SOL    HW218882   5.587   2.750   2.540
 5995SOL     OW18883   4.890   3.614   2.505
 5995SOL    HW118884   4.879   3.713   2.504
 5995SOL    HW218885   4.941   3.586   2.424
 5996SOL     OW18886   1.376   6.466   1.007
 5996SOL    HW118887   1.364   6.471   0.908
 5996SOL    HW218888   1.306   6.522   1.052
 5997SOL     OW18889   0.304   5.975   2.519
 5997SOL    HW118890   0.393   6.018   2.536
 5997SOL    HW218891   0.248   6.035   2.463
 5998SOL     OW18892   5.766   1.100   3.681
 5998SOL    HW118893   5.721   1.065   3.763
 5998SOL    HW218894   5.698   1.121   3.611
 5999SOL     OW18895   1.376   1.080   2.377
 5999SOL    HW118896   1.394   0.986   2.406
 5999SOL    HW218897   1.288   1.084   2.330
 6000SOL     OW18898   4.034   0.003   1.014
 6000SOL    HW118899   4.066   0.089   1.053
 6000SOL    HW218900   3.934   7.015   1.021
 6001SOL     OW18901   0.644   3.874   0.081
 6001SOL    HW118902   0.679   3.921   7.017
 6001SOL    HW218903   0.588   3.937   0.134
 6002SOL     OW18904   5.753   0.553   0.511
 6002SOL    HW118905   5.708   0.520   0.428
 6002SOL    HW218906   5.686   0.566   0.583
 6003SOL     OW18907   5.896   2.351   5.039
 6003SOL    HW118908   5.863   2.362   4.945
 6003SOL    HW218909   5.889   2.254   5.065
 6004SOL     OW18910   6.860   3.992   2.621
 6004SOL    HW118911   6.833   3.962   2.529
 6004SOL    HW218912   6.794   4.058   2.656
 6005SOL     OW18913   4.474   5.795   4.372
 6005SOL    HW118914   4.472   5.847   4.287
 6005SOL    HW218915   4.402   5.726   4.372
 6006SOL     OW18916   2.740   1.157   5.538
 6006SOL    HW118917   2.682   1.081   5.506
 6006SOL    HW218918   2.737   1.231   5.471
 6007SOL     OW18919   4.689   3.866   5.738
 6007SOL    HW118920   4.595   3.896   5.724
 6007SOL    HW218921   4.694   3.803   5.815
 6008SOL     OW18922   2.563   4.366   5.546
 6008SOL    HW118923   2.565   4.359   5.447
 6008SOL    HW218924   2.604   4.283   5.586
 6009SOL     OW18925   2.441   0.445   3.113
 6009SOL    HW118926   2.389   0.528   3.131
 6009SOL    HW218927   2.532   0.453   3.155
 6010SOL     OW18928   1.249   4.743   4.264
 6010SOL    HW118929   1.341   4.771   4.237
 6010SOL    HW218930   1.243   4.741   4.364
 6011SOL     OW18931   4.595   2.618   3.002
 6011SOL    HW118932   4.620   2.625   2.905
 6011SOL    HW218933   4.620   2.528   3.036
 6012SOL     OW18934   5.508   0.886   0.100
 6012SOL    HW118935   5.420   0.879   0.053
 6012SOL    HW218936   5.504   0.832   0.184
 6013SOL     OW18937   4.893   1.953   2.570
 6013SOL    HW118938   4.805   1.987   2.537
 6013SOL    HW218939   4.917   1.869   2.521
 6014SOL     OW18940   3.913   3.108   2.153
 6014SOL    HW118941   3.937   3.070   2.242
 6014SOL    HW218942   3.856   3.042   2.103
 6015SOL     OW18943   5.962   3.969   3.788
 6015SOL    HW118944   6.018   4.046   3.758
 6015SOL    HW218945   6.020   3.899   3.829
 6016SOL     OW18946   6.672   2.239   5.638
 6016SOL    HW118947   6.731   2.159   5.650
 6016SOL    HW218948   6.635   2.266   5.727
 6017SOL     OW18949   6.876   4.406   3.215
 6017SOL    HW118950   6.849   4.371   3.304
 6017SOL    HW218951   6.818   4.484   3.191
 6018SOL     OW18952   3.986   0.513   6.574
 6018SOL    HW118953   4.062   0.537   6.635
 6018SOL    HW218954   3.923   0.452   6.621
 6019SOL     OW18955   6.779   1.407   4.041
 6019SOL    HW118956   6.734   1.395   4.129
 6019SOL    HW218957   6.721   1.371   3.968
 6020SOL     OW18958   1.090   4.671   0.758
 6020SOL    HW118959   1.157   4.635   0.693
 6020SOL    HW218960   1.121   4.760   0.793
 6021SOL     OW18961   5.001   0.244   2.972
 6021SOL    HW118962   5.005   0.168   3.038
 6021SOL    HW218963   4.913   0.290   2.979
 6022SOL     OW18964   5.173   2.614   4.025
 6022SOL    HW118965   5.197   2.694   3.971
 6022SOL    HW218966   5.172   2.533   3.967
 6023SOL     OW18967   6.097   0.724   2.141
 6023SOL    HW118968   6.092   0.757   2.047
 6023SOL    HW218969   6.189   0.688   2.159
 6024SOL     OW18970   1.277   4.724   2.895
 6024SOL    HW118971   1.221   4.726   2.812
 6024SOL    HW218972   1.320   4.813   2.908
 6025SOL     OW18973   4.011   1.614   3.026
 6025SOL    HW118974   4.013   1.696   2.968
 6025SOL    HW218975   4.063   1.631   3.110
 6026SOL     OW18976   0.491   4.270   5.424
 6026SOL    HW118977   0.460   4.364   5.412
 6026SOL    HW218978   0.591   4.269   5.434
 6027SOL     OW18979   0.947   3.643   6.126
 6027SOL    HW118980   1.027   3.674   6.175
 6027SOL    HW218981   0.958   3.546   6.102
 6028SOL     OW18982   6.504   5.225   0.256
 6028SOL    HW118983   6.472   5.141   0.210
 6028SOL    HW218984   6.499   5.301   0.192
 6029SOL     OW18985   2.100   6.264   4.910
 6029SOL    HW118986   2.168   6.228   4.973
 6029SOL    HW218987   2.019   6.292   4.961
 6030SOL     OW18988   4.010   5.636   2.287
 6030SOL    HW118989   3.920   5.636   2.244
 6030SOL    HW218990   4.080   5.617   2.219
 6031SOL     OW18991   2.634   5.330   3.957
 6031SOL    HW118992   2.580   5.414   3.949
 6031SOL    HW218993   2.731   5.353   3.950
 6032SOL     OW18994   2.333   4.798   2.668
 6032SOL    HW118995   2.270   4.792   2.591
 6032SOL    HW218996   2.401   4.725   2.661
 6033SOL     OW18997   3.015   2.207   3.404
 6033SOL    HW118998   2.920   2.237   3.404
 6033SOL    HW218999   3.051   2.210   3.497
 6034SOL     OW19000   1.273   5.766   4.708
 6034SOL    HW119001   1.321   5.678   4.710
 6034SOL    HW219002   1.331   5.834   4.665
 6035SOL     OW19003   0.192   1.341   2.504
 6035SOL    HW119004   0.212   1.367   2.409
 6035SOL    HW219005   0.106   1.382   2.532
 6036SOL     OW19006   5.323   5.255   3.389
 6036SOL    HW119007   5.232   5.296   3.378
 6036SOL    HW219008   5.341   5.242   3.486
 6037SOL     OW19009   4.090   5.630   0.014
 6037SOL    HW119010   4.087   5.566   0.091
 6037SOL    HW219011   4.022   5.603   6.962
 6038SOL     OW19012   1.626   1.939   5.604
 6038SOL    HW119013   1.536   1.899   5.589
 6038SOL    HW219014   1.654   1.924   5.699
 6039SOL     OW19015   3.022   3.642   2.277
 6039SOL    HW119016   2.992   3.728   2.319
 6039SOL    HW219017   3.102   3.607   2.326
 6040SOL     OW19018   0.852   1.578   6.901
 6040SOL    HW119019   0.776   1.628   6.859
 6040SOL    HW219020   0.842   1.580   7.000
 6041SOL     OW19021   3.014   0.735   5.249
 6041SOL    HW119022   3.020   0.652   5.194
 6041SOL    HW219023   3.101   0.751   5.296
 6042SOL     OW19024   4.660   6.000   2.507
 6042SOL    HW119025   4.666   5.955   2.418
 6042SOL    HW219026   4.569   6.040   2.519
 6043SOL     OW19027   0.749   4.199   5.192
 6043SOL    HW119028   0.779   4.235   5.280
 6043SOL    HW219029   0.650   4.188   5.192
 6044SOL     OW19030   1.045   2.311   1.270
 6044SOL    HW119031   1.070   2.255   1.350
 6044SOL    HW219032   1.122   2.369   1.245
 6045SOL     OW19033   5.682   4.667   2.428
 6045SOL    HW119034   5.592   4.641   2.461
 6045SOL    HW219035   5.673   4.738   2.358
 6046SOL     OW19036   3.599   2.292   0.459
 6046SOL    HW119037   3.616   2.194   0.474
 6046SOL    HW219038   3.501   2.307   0.448
 6047SOL     OW19039   4.546   1.999   2.096
 6047SOL    HW119040   4.606   2.004   2.176
 6047SOL    HW219041   4.584   1.935   2.030
 6048SOL     OW19042   4.704   5.434   4.961
 6048SOL    HW119043   4.685   5.339   4.987
 6048SOL    HW219044   4.672   5.495   5.034
 6049SOL     OW19045   5.159   2.983   6.807
 6049SOL    HW119046   5.250   2.953   6.779
 6049SOL    HW219047   5.090   2.921   6.769
 6050SOL     OW19048   3.738   5.576   5.292
 6050SOL    HW119049   3.686   5.634   5.354
 6050SOL    HW219050   3.677   5.533   5.226
 6051SOL     OW19051   2.475   0.359   4.053
 6051SOL    HW119052   2.471   0.371   3.954
 6051SOL    HW219053   2.542   0.423   4.091
 6052SOL     OW19054   6.724   0.637   0.542
 6052SOL    HW119055   6.821   0.653   0.556
 6052SOL    HW219056   6.679   0.618   0.629
 6053SOL     OW19057   3.981   1.437   6.427
 6053SOL    HW119058   3.904   1.427   6.363
 6053SOL    HW219059   4.027   1.349   6.437
 6054SOL     OW19060   2.210   3.455   6.778
 6054SOL    HW119061   2.153   3.427   6.701
 6054SOL    HW219062   2.167   3.425   6.863
 6055SOL     OW19063   4.725   0.555   5.279
 6055SOL    HW119064   4.699   0.594   5.191
 6055SOL    HW219065   4.815   0.512   5.271
 6056SOL     OW19066   5.085   2.782   4.477
 6056SOL    HW119067   5.044   2.871   4.459
 6056SOL    HW219068   5.184   2.793   4.488
 6057SOL     OW19069   5.955   3.134   3.863
 6057SOL    HW119070   5.864   3.114   3.899
 6057SOL    HW219071   5.950   3.211   3.800
 6058SOL     OW19072   5.086   2.760   1.641
 6058SOL    HW119073   5.005   2.710   1.609
 6058SOL    HW219074   5.064   2.809   1.726
 6059SOL     OW19075   5.600   4.800   4.917
 6059SOL    HW119076   5.533   4.740   4.875
 6059SOL    HW219077   5.678   4.811   4.855
 6060SOL     OW19078   3.049   4.064   0.096
 6060SOL    HW119079   3.117   4.132   0.070
 6060SOL    HW219080   3.095   3.978   0.118
 6061SOL     OW19081   3.938   2.271   1.171
 6061SOL    HW119082   3.995   2.286   1.091
 6061SOL    HW219083   3.957   2.342   1.239
 6062SOL     OW19084   2.639   1.069   5.224
 6062SOL    HW119085   2.556   1.104   5.180
 6062SOL    HW219086   2.691   1.146   5.263
 6063SOL     OW19087   3.928   1.923   6.111
 6063SOL    HW119088   3.999   1.977   6.066
 6063SOL    HW219089   3.878   1.981   6.176
 6064SOL     OW19090   2.150   5.962   0.699
 6064SOL    HW119091   2.100   6.032   0.751
 6064SOL    HW219092   2.226   6.006   0.650
 6065SOL     OW19093   6.803   6.942   1.798
 6065SOL    HW119094   6.721   6.941   1.856
 6065SOL    HW219095   6.880   6.903   1.848
 6066SOL     OW19096   4.813   1.016   5.895
 6066SOL    HW119097   4.847   1.090   5.838
 6066SOL    HW219098   4.835   0.928   5.853
 6067SOL     OW19099   5.668   0.902   5.512
 6067SOL    HW119100   5.701   0.849   5.590
 6067SOL    HW219101   5.746   0.942   5.463
 6068SOL     OW19102   5.246   3.692   4.418
 6068SOL    HW119103   5.303   3.698   4.500
 6068SOL    HW219104   5.159   3.648   4.442
 6069SOL     OW19105   6.681   2.658   5.319
 6069SOL    HW119106   6.631   2.587   5.269
 6069SOL    HW219107   6.769   2.675   5.276
 6070SOL     OW19108   3.286   2.629   0.367
 6070SOL    HW119109   3.201   2.672   0.335
 6070SOL    HW219110   3.335   2.590   0.289
 6071SOL     OW19111   5.124   5.560   3.718
 6071SOL    HW119112   5.172   5.541   3.632
 6071SOL    HW219113   5.092   5.474   3.758
 6072SOL     OW19114   0.082   0.497   1.923
 6072SOL    HW119115   0.033   0.496   2.010
 6072SOL    HW219116   0.023   0.537   1.852
 6073SOL     OW19117   6.056   3.573   6.626
 6073SOL    HW119118   5.964   3.604   6.648
 6073SOL    HW219119   6.096   3.528   6.706
 6074SOL     OW19120   1.392   6.585   3.928
 6074SOL    HW119121   1.436   6.667   3.966
 6074SOL    HW219122   1.451   6.546   3.858
 6075SOL     OW19123   6.371   1.400   6.141
 6075SOL    HW119124   6.319   1.484   6.157
 6075SOL    HW219125   6.374   1.346   6.225
 6076SOL     OW19126   3.033   5.260   4.375
 6076SOL    HW119127   2.939   5.280   4.346
 6076SOL    HW219128   3.034   5.174   4.426
 6077SOL     OW19129   6.086   5.751   1.123
 6077SOL    HW119130   6.081   5.691   1.202
 6077SOL    HW219131   6.150   5.826   1.141
 6078SOL     OW19132   4.121   4.885   0.506
 6078SOL    HW119133   4.089   4.814   0.444
 6078SOL    HW219134   4.090   4.974   0.473
 6079SOL     OW19135   4.156   3.942   5.885
 6079SOL    HW119136   4.218   3.866   5.864
 6079SOL    HW219137   4.147   3.951   5.984
 6080SOL     OW19138   6.981   0.507   1.121
 6080SOL    HW119139   0.060   0.510   1.091
 6080SOL    HW219140   6.967   0.427   1.179
 6081SOL     OW19141   6.597   3.546   5.675
 6081SOL    HW119142   6.631   3.526   5.767
 6081SOL    HW219143   6.661   3.509   5.607
 6082SOL     OW19144   2.211   1.868   3.916
 6082SOL    HW119145   2.245   1.776   3.895
 6082SOL    HW219146   2.192   1.916   3.831
 6083SOL     OW19147   6.695   5.170   7.017
 6083SOL    HW119148   6.756   5.232   0.048
 6083SOL    HW219149   6.626   5.223   6.966
 6084SOL     OW19150   0.866   6.944   3.689
 6084SOL    HW119151   0.947   6.990   3.654
 6084SOL    HW219152   0.859   6.853   3.646
 6085SOL     OW19153   0.714   4.731   0.517
 6085SOL    HW119154   0.691   4.791   0.592
 6085SOL    HW219155   0.810   4.745   0.491
 6086SOL     OW19156   4.154   0.245   6.073
 6086SOL    HW119157   4.132   0.342   6.080
 6086SOL    HW219158   4.251   0.234   6.054
 6087SOL     OW19159   3.712   5.477   0.979
 6087SOL    HW119160   3.730   5.575   0.991
 6087SOL    HW219161   3.778   5.425   1.033
 6088SOL     OW19162   5.849   5.618   3.999
 6088SOL    HW119163   5.784   5.556   3.954
 6088SOL    HW219164   5.849   5.601   4.097
 6089SOL     OW19165   5.501   3.425   0.717
 6089SOL    HW119166   5.548   3.375   0.644
 6089SOL    HW219167   5.472   3.361   0.788
 6090SOL     OW19168   2.148   5.620   5.677
 6090SOL    HW119169   2.112   5.682   5.747
 6090SOL    HW219170   2.241   5.593   5.702
 6091SOL     OW19171   1.776   1.258   0.449
 6091SOL    HW119172   1.698   1.204   0.481
 6091SOL    HW219173   1.775   1.261   0.349
 6092SOL     OW19174   3.820   0.193   2.980
 6092SOL    HW119175   3.748   0.124   2.966
 6092SOL    HW219176   3.777   0.283   2.993
 6093SOL     OW19177   1.736   3.623   2.280
 6093SOL    HW119178   1.734   3.670   2.192
 6093SOL    HW219179   1.831   3.607   2.307
 6094SOL     OW19180   2.972   0.007   1.254
 6094SOL    HW119181   2.875   7.013   1.276
 6094SOL    HW219182   3.026   0.001   1.338
 6095SOL     OW19183   4.909   3.760   0.710
 6095SOL    HW119184   4.859   3.680   0.676
 6095SOL    HW219185   4.956   3.736   0.795
 6096SOL     OW19186   6.981   6.909   3.110
 6096SOL    HW119187   6.932   6.891   3.025
 6096SOL    HW219188   6.928   6.874   3.187
 6097SOL     OW19189   2.516   6.735   2.442
 6097SOL    HW119190   2.468   6.650   2.465
 6097SOL    HW219191   2.474   6.810   2.492
 6098SOL     OW19192   1.671   2.491   5.479
 6098SOL    HW119193   1.738   2.424   5.512
 6098SOL    HW219194   1.637   2.545   5.556
 6099SOL     OW19195   6.444   6.296   6.918
 6099SOL    HW119196   6.416   6.369   6.856
 6099SOL    HW219197   6.422   6.321   7.012
 6100SOL     OW19198   4.685   4.692   0.168
 6100SOL    HW119199   4.734   4.653   0.090
 6100SOL    HW219200   4.601   4.736   0.135
 6101SOL     OW19201   6.017   2.516   4.473
 6101SOL    HW119202   6.005   2.536   4.376
 6101SOL    HW219203   6.038   2.419   4.485
 6102SOL     OW19204   3.478   6.814   3.418
 6102SOL    HW119205   3.548   6.819   3.490
 6102SOL    HW219206   3.391   6.849   3.453
 6103SOL     OW19207   6.647   2.237   2.447
 6103SOL    HW119208   6.645   2.253   2.546
 6103SOL    HW219209   6.604   2.314   2.400
 6104SOL     OW19210   6.169   0.464   5.395
 6104SOL    HW119211   6.132   0.485   5.305
 6104SOL    HW219212   6.246   0.524   5.415
 6105SOL     OW19213   3.054   6.652   6.195
 6105SOL    HW119214   3.104   6.583   6.247
 6105SOL    HW219215   2.977   6.686   6.249
 6106SOL     OW19216   2.899   4.280   6.042
 6106SOL    HW119217   2.864   4.262   5.950
 6106SOL    HW219218   2.938   4.372   6.045
 6107SOL     OW19219   2.676   5.321   4.684
 6107SOL    HW119220   2.655   5.403   4.739
 6107SOL    HW219221   2.601   5.304   4.621
 6108SOL     OW19222   1.229   2.565   1.923
 6108SOL    HW119223   1.133   2.540   1.938
 6108SOL    HW219224   1.277   2.568   2.011
 6109SOL     OW19225   5.423   2.737   5.150
 6109SOL    HW119226   5.401   2.770   5.242
 6109SOL    HW219227   5.400   2.807   5.083
 6110SOL     OW19228   4.395   3.993   0.292
 6110SOL    HW119229   4.382   3.998   0.391
 6110SOL    HW219230   4.373   4.081   0.250
 6111SOL     OW19231   2.337   4.274   2.372
 6111SOL    HW119232   2.287   4.239   2.293
 6111SOL    HW219233   2.346   4.202   2.440
 6112SOL     OW19234   3.687   0.437   2.476
 6112SOL    HW119235   3.663   0.341   2.460
 6112SOL    HW219236   3.636   0.495   2.412
 6113SOL     OW19237   2.266   0.971   6.289
 6113SOL    HW119238   2.250   1.058   6.335
 6113SOL    HW219239   2.343   0.980   6.226
 6114SOL     OW19240   5.172   6.272   1.337
 6114SOL    HW119241   5.261   6.230   1.355
 6114SOL    HW219242   5.128   6.225   1.261
 6115SOL     OW19243   5.372   6.758   4.195
 6115SOL    HW119244   5.306   6.814   4.145
 6115SOL    HW219245   5.463   6.798   4.185
 6116SOL     OW19246   3.654   0.927   6.837
 6116SOL    HW119247   3.678   1.024   6.835
 6116SOL    HW219248   3.601   0.904   6.756
 6117SOL     OW19249   1.454   1.385   4.963
 6117SOL    HW119250   1.512   1.328   4.905
 6117SOL    HW219251   1.456   1.479   4.930
 6118SOL     OW19252   6.564   1.191   2.155
 6118SOL    HW119253   6.483   1.202   2.097
 6118SOL    HW219254   6.537   1.194   2.251
 6119SOL     OW19255   1.501   3.429   6.233
 6119SOL    HW119256   1.493   3.335   6.265
 6119SOL    HW219257   1.522   3.429   6.135
 6120SOL     OW19258   3.728   6.683   4.736
 6120SOL    HW119259   3.735   6.729   4.824
 6120SOL    HW219260   3.632   6.661   4.717
 6121SOL     OW19261   1.147   3.195   5.585
 6121SOL    HW119262   1.217   3.165   5.650
 6121SOL    HW219263   1.121   3.289   5.605
 6122SOL     OW19264   4.146   6.076   0.741
 6122SOL    HW119265   4.217   6.099   0.808
 6122SOL    HW219266   4.147   6.144   0.667
 6123SOL     OW19267   6.428   6.789   6.810
 6123SOL    HW119268   6.426   6.749   6.718
 6123SOL    HW219269   6.491   6.866   6.811
 6124SOL     OW19270   2.078   0.168   6.288
 6124SOL    HW119271   1.994   0.125   6.256
 6124SOL    HW219272   2.153   0.102   6.286
 6125SOL     OW19273   1.343   5.450   0.571
 6125SOL    HW119274   1.310   5.442   0.477
 6125SOL    HW219275   1.343   5.360   0.615
 6126SOL     OW19276   0.987   0.243   4.041
 6126SOL    HW119277   0.954   0.327   4.086
 6126SOL    HW219278   1.006   0.262   3.945
 6127SOL     OW19279   4.122   6.681   1.314
 6127SOL    HW119280   4.092   6.655   1.406
 6127SOL    HW219281   4.079   6.622   1.246
 6128SOL     OW19282   6.169   3.571   6.984
 6128SOL    HW119283   6.229   3.519   0.028
 6128SOL    HW219284   6.224   3.619   6.916
 6129SOL     OW19285   6.772   3.307   3.268
 6129SOL    HW119286   6.865   3.319   3.232
 6129SOL    HW219287   6.777   3.281   3.364
 6130SOL     OW19288   6.042   2.232   3.891
 6130SOL    HW119289   6.014   2.192   3.979
 6130SOL    HW219290   6.137   2.208   3.872
 6131SOL     OW19291   6.796   1.030   5.250
 6131SOL    HW119292   6.743   1.100   5.201
 6131SOL    HW219293   6.826   1.067   5.338
 6132SOL     OW19294   4.819   1.999   0.567
 6132SOL    HW119295   4.851   1.913   0.528
 6132SOL    HW219296   4.839   2.073   0.502
 6133SOL     OW19297   1.156   2.857   2.036
 6133SOL    HW119298   1.162   2.953   2.065
 6133SOL    HW219299   1.235   2.833   1.980
 6134SOL     OW19300   3.595   4.347   6.678
 6134SOL    HW119301   3.496   4.338   6.688
 6134SOL    HW219302   3.625   4.294   6.599
 6135SOL     OW19303   0.420   0.435   2.096
 6135SOL    HW119304   0.456   0.413   2.005
 6135SOL    HW219305   0.410   0.350   2.149
 6136SOL     OW19306   0.902   2.475   2.451
 6136SOL    HW119307   0.897   2.476   2.551
 6136SOL    HW219308   0.995   2.496   2.422
 6137SOL     OW19309   6.436   2.472   3.759
 6137SOL    HW119310   6.492   2.494   3.679
 6137SOL    HW219311   6.478   2.512   3.840
 6138SOL     OW19312   4.151   0.020   3.094
 6138SOL    HW119313   4.161   0.085   3.169
 6138SOL    HW219314   4.114   0.067   3.014
 6139SOL     OW19315   1.017   0.372   6.505
 6139SOL    HW119316   1.068   0.396   6.421
 6139SOL    HW219317   1.079   0.375   6.583
 6140SOL     OW19318   0.686   6.586   1.500
 6140SOL    HW119319   0.717   6.670   1.544
 6140SOL    HW219320   0.726   6.579   1.409
 6141SOL     OW19321   6.930   6.362   5.924
 6141SOL    HW119322   6.939   6.379   6.022
 6141SOL    HW219323   6.973   6.437   5.874
 6142SOL     OW19324   1.328   5.724   0.671
 6142SOL    HW119325   1.301   5.654   0.605
 6142SOL    HW219326   1.346   5.681   0.760
 6143SOL     OW19327   6.820   3.836   1.213
 6143SOL    HW119328   6.758   3.830   1.135
 6143SOL    HW219329   6.768   3.826   1.298
 6144SOL     OW19330   5.314   4.489   3.310
 6144SOL    HW119331   5.236   4.433   3.284
 6144SOL    HW219332   5.399   4.442   3.287
 6145SOL     OW19333   4.863   5.291   3.142
 6145SOL    HW119334   4.892   5.331   3.055
 6145SOL    HW219335   4.774   5.330   3.169
 6146SOL     OW19336   2.625   6.056   3.433
 6146SOL    HW119337   2.620   5.962   3.467
 6146SOL    HW219338   2.659   6.116   3.506
 6147SOL     OW19339   1.403   3.045   4.511
 6147SOL    HW119340   1.414   3.136   4.470
 6147SOL    HW219341   1.481   2.987   4.486
 6148SOL     OW19342   6.047   6.926   3.840
 6148SOL    HW119343   5.953   6.943   3.870
 6148SOL    HW219344   6.096   6.878   3.912
 6149SOL     OW19345   2.849   5.734   1.287
 6149SOL    HW119346   2.772   5.685   1.246
 6149SOL    HW219347   2.826   5.757   1.382
 6150SOL     OW19348   4.645   5.076   0.466
 6150SOL    HW119349   4.600   5.161   0.495
 6150SOL    HW219350   4.588   4.998   0.491
 6151SOL     OW19351   5.949   4.380   6.242
 6151SOL    HW119352   5.923   4.441   6.318
 6151SOL    HW219353   5.888   4.398   6.164
 6152SOL     OW19354   6.000   5.151   4.582
 6152SOL    HW119355   5.970   5.094   4.658
 6152SOL    HW219356   6.018   5.093   4.502
 6153SOL     OW19357   5.643   4.399   1.252
 6153SOL    HW119358   5.582   4.391   1.173
 6153SOL    HW219359   5.738   4.389   1.222
 6154SOL     OW19360   6.259   2.078   2.632
 6154SOL    HW119361   6.333   2.022   2.595
 6154SOL    HW219362   6.193   2.019   2.679
 6155SOL     OW19363   1.755   1.902   4.405
 6155SOL    HW119364   1.802   1.822   4.366
 6155SOL    HW219365   1.724   1.962   4.331
 6156SOL     OW19366   3.903   4.519   1.651
 6156SOL    HW119367   3.889   4.426   1.617
 6156SOL    HW219368   3.821   4.573   1.633
 6157SOL     OW19369   1.125   0.543   4.627
 6157SOL    HW119370   1.134   0.641   4.611
 6157SOL    HW219371   1.074   0.528   4.712
 6158SOL     OW19372   3.899   1.388   6.151
 6158SOL    HW119373   3.840   1.326   6.100
 6158SOL    HW219374   3.869   1.482   6.136
 6159SOL     OW19375   4.656   2.664   2.429
 6159SOL    HW119376   4.575   2.712   2.396
 6159SOL    HW219377   4.675   2.586   2.370
 6160SOL     OW19378   4.739   1.426   6.629
 6160SOL    HW119379   4.692   1.360   6.687
 6160SOL    HW219380   4.789   1.491   6.687
 6161SOL     OW19381   4.797   1.293   4.747
 6161SOL    HW119382   4.756   1.379   4.777
 6161SOL    HW219383   4.733   1.245   4.687
 6162SOL     OW19384   0.662   6.583   3.758
 6162SOL    HW119385   0.716   6.631   3.688
 6162SOL    HW219386   0.722   6.525   3.813
 6163SOL     OW19387   6.534   6.598   0.985
 6163SOL    HW119388   6.627   6.596   0.947
 6163SOL    HW219389   6.503   6.692   0.993
 6164SOL     OW19390   3.720   2.904   2.007
 6164SOL    HW119391   3.693   2.861   2.093
 6164SOL    HW219392   3.708   2.839   1.932
 6165SOL     OW19393   4.908   0.908   6.821
 6165SOL    HW119394   4.970   0.921   6.899
 6165SOL    HW219395   4.929   0.977   6.751
 6166SOL     OW19396   5.165   1.059   5.787
 6166SOL    HW119397   5.130   0.965   5.788
 6166SOL    HW219398   5.122   1.109   5.711
 6167SOL     OW19399   1.036   5.127   3.417
 6167SOL    HW119400   1.107   5.058   3.400
 6167SOL    HW219401   0.982   5.140   3.334
 6168SOL     OW19402   1.211   3.915   1.513
 6168SOL    HW119403   1.139   3.969   1.470
 6168SOL    HW219404   1.181   3.820   1.522
 6169SOL     OW19405   1.447   2.283   0.845
 6169SOL    HW119406   1.373   2.233   0.889
 6169SOL    HW219407   1.440   2.273   0.746
 6170SOL     OW19408   1.056   4.389   5.821
 6170SOL    HW119409   1.089   4.295   5.813
 6170SOL    HW219410   1.124   4.451   5.781
 6171SOL     OW19411   0.539   3.036   0.841
 6171SOL    HW119412   0.501   3.017   0.750
 6171SOL    HW219413   0.581   2.954   0.878
 6172SOL     OW19414   2.143   3.027   2.629
 6172SOL    HW119415   2.229   3.070   2.602
 6172SOL    HW219416   2.068   3.064   2.575
 6173SOL     OW19417   7.007   5.608   1.986
 6173SOL    HW119418   0.089   5.611   2.001
 6173SOL    HW219419   6.972   5.518   2.010
 6174SOL     OW19420   5.012   5.807   3.748
 6174SOL    HW119421   5.040   5.711   3.751
 6174SOL    HW219422   4.955   5.822   3.666
 6175SOL     OW19423   4.284   0.170   3.723
 6175SOL    HW119424   4.334   0.244   3.769
 6175SOL    HW219425   4.186   0.181   3.739
 6176SOL     OW19426   5.136   4.180   5.492
 6176SOL    HW119427   5.077   4.253   5.528
 6176SOL    HW219428   5.126   4.098   5.548
 6177SOL     OW19429   5.597   1.158   0.960
 6177SOL    HW119430   5.553   1.071   0.981
 6177SOL    HW219431   5.671   1.142   0.895
 6178SOL     OW19432   4.433   4.548   2.583
 6178SOL    HW119433   4.361   4.587   2.526
 6178SOL    HW219434   4.408   4.556   2.679
 6179SOL     OW19435   5.993   4.930   3.703
 6179SOL    HW119436   5.966   4.880   3.785
 6179SOL    HW219437   5.916   4.932   3.638
 6180SOL     OW19438   2.998   4.122   1.156
 6180SOL    HW119439   2.904   4.150   1.138
 6180SOL    HW219440   3.001   4.023   1.170
 6181SOL     OW19441   4.391   6.274   0.296
 6181SOL    HW119442   4.485   6.242   0.308
 6181SOL    HW219443   4.385   6.371   0.319
 6182SOL     OW19444   5.584   3.738   5.497
 6182SOL    HW119445   5.656   3.669   5.502
 6182SOL    HW219446   5.535   3.728   5.410
 6183SOL     OW19447   1.283   2.902   3.702
 6183SOL    HW119448   1.184   2.890   3.695
 6183SOL    HW219449   1.313   2.970   3.635
 6184SOL     OW19450   2.528   6.333   6.430
 6184SOL    HW119451   2.604   6.393   6.456
 6184SOL    HW219452   2.550   6.288   6.343
 6185SOL     OW19453   0.365   3.531   6.295
 6185SOL    HW119454   0.333   3.593   6.367
 6185SOL    HW219455   0.312   3.446   6.299
 6186SOL     OW19456   0.300   0.795   0.526
 6186SOL    HW119457   0.285   0.697   0.531
 6186SOL    HW219458   0.282   0.837   0.615
 6187SOL     OW19459   5.228   4.204   4.100
 6187SOL    HW119460   5.193   4.130   4.157
 6187SOL    HW219461   5.209   4.292   4.143
 6188SOL     OW19462   2.498   1.591   6.500
 6188SOL    HW119463   2.504   1.674   6.445
 6188SOL    HW219464   2.529   1.513   6.446
 6189SOL     OW19465   4.390   4.649   2.842
 6189SOL    HW119466   4.293   4.673   2.845
 6189SOL    HW219467   4.445   4.731   2.859
 6190SOL     OW19468   0.767   3.960   5.516
 6190SOL    HW119469   0.742   3.933   5.423
 6190SOL    HW219470   0.827   4.040   5.513
 6191SOL     OW19471   2.685   2.478   7.007
 6191SOL    HW119472   2.641   2.389   7.012
 6191SOL    HW219473   2.742   2.492   0.071
 6192SOL     OW19474   2.980   2.541   6.059
 6192SOL    HW119475   2.984   2.606   5.984
 6192SOL    HW219476   3.017   2.453   6.029
 6193SOL     OW19477   4.815   6.971   1.523
 6193SOL    HW119478   4.804   6.947   1.427
 6193SOL    HW219479   4.819   6.887   1.578
 6194SOL     OW19480   0.914   0.176   1.333
 6194SOL    HW119481   0.873   0.267   1.335
 6194SOL    HW219482   0.843   0.106   1.337
 6195SOL     OW19483   4.253   5.810   4.864
 6195SOL    HW119484   4.278   5.721   4.827
 6195SOL    HW219485   4.178   5.848   4.810
 6196SOL     OW19486   6.041   3.298   2.150
 6196SOL    HW119487   6.010   3.369   2.214
 6196SOL    HW219488   6.041   3.336   2.057
 6197SOL     OW19489   3.547   5.162   1.030
 6197SOL    HW119490   3.500   5.248   1.050
 6197SOL    HW219491   3.643   5.181   1.010
 6198SOL     OW19492   4.320   6.965   1.656
 6198SOL    HW119493   4.359   6.973   1.564
 6198SOL    HW219494   4.323   6.870   1.686
 6199SOL     OW19495   1.208   1.535   0.281
 6199SOL    HW119496   1.201   1.589   0.197
 6199SOL    HW219497   1.294   1.484   0.281
 6200SOL     OW19498   1.285   1.120   5.670
 6200SOL    HW119499   1.260   1.216   5.678
 6200SOL    HW219500   1.213   1.064   5.710
 6201SOL     OW19501   0.364   3.926   5.807
 6201SOL    HW119502   0.356   3.907   5.905
 6201SOL    HW219503   0.439   3.872   5.769
 6202SOL     OW19504   4.546   1.332   1.601
 6202SOL    HW119505   4.461   1.296   1.639
 6202SOL    HW219506   4.578   1.408   1.657
 6203SOL     OW19507   6.393   5.621   1.844
 6203SOL    HW119508   6.410   5.648   1.939
 6203SOL    HW219509   6.442   5.536   1.825
 6204SOL     OW19510   0.210   5.384   4.041
 6204SOL    HW119511   0.228   5.471   3.995
 6204SOL    HW219512   0.146   5.399   4.117
 6205SOL     OW19513   6.515   5.338   1.045
 6205SOL    HW119514   6.602   5.340   0.996
 6205SOL    HW219515   6.439   5.346   0.979
 6206SOL     OW19516   5.555   2.116   3.284
 6206SOL    HW119517   5.608   2.131   3.368
 6206SOL    HW219518   5.611   2.068   3.217
 6207SOL     OW19519   1.529   5.248   5.477
 6207SOL    HW119520   1.597   5.227   5.406
 6207SOL    HW219521   1.457   5.179   5.475
 6208SOL     OW19522   5.448   3.138   5.773
 6208SOL    HW119523   5.444   3.039   5.785
 6208SOL    HW219524   5.389   3.183   5.840
 6209SOL     OW19525   3.499   5.954   0.069
 6209SOL    HW119526   3.472   5.896   7.009
 6209SOL    HW219527   3.430   5.947   0.142
 6210SOL     OW19528   5.222   3.563   3.972
 6210SOL    HW119529   5.264   3.472   3.981
 6210SOL    HW219530   5.228   3.593   3.877
 6211SOL     OW19531   2.919   6.185   6.219
 6211SOL    HW119532   2.918   6.271   6.168
 6211SOL    HW219533   3.010   6.144   6.215
 6212SOL     OW19534   2.705   4.793   4.867
 6212SOL    HW119535   2.743   4.728   4.933
 6212SOL    HW219536   2.609   4.812   4.891
 6213SOL     OW19537   5.983   6.976   6.948
 6213SOL    HW119538   6.049   6.972   6.873
 6213SOL    HW219539   5.981   0.051   6.987
 6214SOL     OW19540   5.076   5.243   4.561
 6214SOL    HW119541   5.155   5.242   4.621
 6214SOL    HW219542   5.097   5.296   4.478
 6215SOL     OW19543   4.361   2.247   6.233
 6215SOL    HW119544   4.344   2.246   6.332
 6215SOL    HW219545   4.341   2.338   6.196
 6216SOL     OW19546   6.435   2.075   2.882
 6216SOL    HW119547   6.488   2.104   2.963
 6216SOL    HW219548   6.391   2.155   2.841
 6217SOL     OW19549   0.980   3.525   2.329
 6217SOL    HW119550   1.078   3.509   2.332
 6217SOL    HW219551   0.962   3.624   2.335
 6218SOL     OW19552   3.829   6.606   6.406
 6218SOL    HW119553   3.750   6.652   6.365
 6218SOL    HW219554   3.813   6.593   6.504
 6219SOL     OW19555   1.303   1.840   4.838
 6219SOL    HW119556   1.351   1.926   4.859
 6219SOL    HW219557   1.210   1.844   4.876
 6220SOL     OW19558   2.763   1.097   4.959
 6220SOL    HW119559   2.701   1.071   5.033
 6220SOL    HW219560   2.846   1.043   4.965
 6221SOL     OW19561   5.876   6.851   0.199
 6221SOL    HW119562   5.918   6.879   0.113
 6221SOL    HW219563   5.923   6.895   0.275
 6222SOL     OW19564   1.588   0.025   1.829
 6222SOL    HW119565   1.658   7.008   1.891
 6222SOL    HW219566   1.627   0.094   1.768
 6223SOL     OW19567   1.278   4.983   3.942
 6223SOL    HW119568   1.265   5.047   3.866
 6223SOL    HW219569   1.314   5.033   4.021
 6224SOL     OW19570   3.790   0.909   6.144
 6224SOL    HW119571   3.709   0.963   6.163
 6224SOL    HW219572   3.770   0.812   6.158
 6225SOL     OW19573   4.040   3.476   6.428
 6225SOL    HW119574   3.970   3.512   6.366
 6225SOL    HW219575   4.119   3.446   6.375
 6226SOL     OW19576   0.833   1.411   4.835
 6226SOL    HW119577   0.843   1.491   4.893
 6226SOL    HW219578   0.864   1.432   4.742
 6227SOL     OW19579   3.432   5.013   4.967
 6227SOL    HW119580   3.345   4.966   4.974
 6227SOL    HW219581   3.472   5.024   5.058
 6228SOL     OW19582   0.654   3.315   1.843
 6228SOL    HW119583   0.577   3.287   1.786
 6228SOL    HW219584   0.624   3.328   1.937
 6229SOL     OW19585   0.968   2.214   4.505
 6229SOL    HW119586   1.029   2.287   4.473
 6229SOL    HW219587   0.888   2.210   4.445
 6230SOL     OW19588   0.740   2.374   4.228
 6230SOL    HW119589   0.683   2.392   4.148
 6230SOL    HW219590   0.728   2.448   4.294
 6231SOL     OW19591   6.209   5.675   0.308
 6231SOL    HW119592   6.225   5.724   0.223
 6231SOL    HW219593   6.291   5.623   0.333
 6232SOL     OW19594   6.184   1.285   1.160
 6232SOL    HW119595   6.144   1.288   1.252
 6232SOL    HW219596   6.153   1.203   1.112
 6233SOL     OW19597   6.906   2.335   1.356
 6233SOL    HW119598   6.936   2.240   1.342
 6233SOL    HW219599   6.972   2.383   1.414
 6234SOL     OW19600   6.959   0.257   5.594
 6234SOL    HW119601   6.939   0.164   5.563
 6234SOL    HW219602   6.903   0.322   5.542
 6235SOL     OW19603   6.859   0.030   1.326
 6235SOL    HW119604   6.794   6.985   1.283
 6235SOL    HW219605   6.843   0.032   1.425
 6236SOL     OW19606   0.797   4.777   1.503
 6236SOL    HW119607   0.766   4.684   1.524
 6236SOL    HW219608   0.763   4.804   1.413
 6237SOL     OW19609   3.883   0.052   6.687
 6237SOL    HW119610   3.856   0.040   6.782
 6237SOL    HW219611   3.865   0.146   6.658
 6238SOL     OW19612   4.951   5.593   2.634
 6238SOL    HW119613   4.902   5.518   2.588
 6238SOL    HW219614   4.886   5.661   2.666
 6239SOL     OW19615   3.957   1.177   1.528
 6239SOL    HW119616   4.001   1.267   1.522
 6239SOL    HW219617   3.899   1.163   1.448
 6240SOL     OW19618   2.443   3.685   5.618
 6240SOL    HW119619   2.475   3.593   5.642
 6240SOL    HW219620   2.494   3.752   5.672
 6241SOL     OW19621   3.007   0.807   2.077
 6241SOL    HW119622   3.001   0.835   1.981
 6241SOL    HW219623   2.948   0.728   2.093
 6242SOL     OW19624   3.703   0.302   3.677
 6242SOL    HW119625   3.798   0.319   3.651
 6242SOL    HW219626   3.642   0.349   3.613
 6243SOL     OW19627   7.016   6.445   5.177
 6243SOL    HW119628   6.944   6.496   5.226
 6243SOL    HW219629   0.058   6.398   5.243
 6244SOL     OW19630   5.861   3.183   3.173
 6244SOL    HW119631   5.836   3.273   3.209
 6244SOL    HW219632   5.813   3.112   3.224
 6245SOL     OW19633   1.411   3.475   0.767
 6245SOL    HW119634   1.382   3.562   0.805
 6245SOL    HW219635   1.436   3.487   0.671
 6246SOL     OW19636   0.977   2.008   5.517
 6246SOL    HW119637   0.958   2.042   5.425
 6246SOL    HW219638   0.937   2.070   5.584
 6247SOL     OW19639   6.979   6.000   3.831
 6247SOL    HW119640   6.952   5.908   3.804
 6247SOL    HW219641   0.054   6.020   3.796
 6248SOL     OW19642   3.838   3.823   6.744
 6248SOL    HW119643   3.929   3.792   6.717
 6248SOL    HW219644   3.846   3.909   6.795
 6249SOL     OW19645   0.020   3.553   0.835
 6249SOL    HW119646   6.991   3.464   0.834
 6249SOL    HW219647   0.100   3.549   0.896
 6250SOL     OW19648   6.579   0.241   1.168
 6250SOL    HW119649   6.617   0.330   1.145
 6250SOL    HW219650   6.569   0.233   1.267
 6251SOL     OW19651   4.431   5.519   5.355
 6251SOL    HW119652   4.493   5.585   5.312
 6251SOL    HW219653   4.426   5.537   5.453
 6252SOL     OW19654   2.640   6.418   5.964
 6252SOL    HW119655   2.617   6.491   5.901
 6252SOL    HW219656   2.569   6.411   6.034
 6253SOL     OW19657   2.700   4.769   4.113
 6253SOL    HW119658   2.736   4.737   4.201
 6253SOL    HW219659   2.648   4.696   4.070
 6254SOL     OW19660   5.750   0.849   1.227
 6254SOL    HW119661   5.797   0.903   1.158
 6254SOL    HW219662   5.750   0.899   1.314
 6255SOL     OW19663   3.111   0.782   1.104
 6255SOL    HW119664   3.116   0.881   1.095
 6255SOL    HW219665   3.150   0.739   1.023
 6256SOL     OW19666   3.276   5.241   2.302
 6256SOL    HW119667   3.281   5.153   2.256
 6256SOL    HW219668   3.343   5.244   2.376
 6257SOL     OW19669   4.849   2.793   0.817
 6257SOL    HW119670   4.862   2.694   0.817
 6257SOL    HW219671   4.859   2.829   0.909
 6258SOL     OW19672   2.857   0.957   3.581
 6258SOL    HW119673   2.759   0.956   3.563
 6258SOL    HW219674   2.908   0.944   3.496
 6259SOL     OW19675   1.383   1.744   6.863
 6259SOL    HW119676   1.359   1.662   6.811
 6259SOL    HW219677   1.432   1.808   6.803
 6260SOL     OW19678   3.546   6.046   0.480
 6260SOL    HW119679   3.562   6.000   0.567
 6260SOL    HW219680   3.558   6.145   0.492
 6261SOL     OW19681   4.682   0.575   6.890
 6261SOL    HW119682   4.749   0.540   6.824
 6261SOL    HW219683   4.729   0.632   6.958
 6262SOL     OW19684   2.308   6.674   1.577
 6262SOL    HW119685   2.306   6.649   1.674
 6262SOL    HW219686   2.219   6.709   1.550
 6263SOL     OW19687   0.354   6.950   4.236
 6263SOL    HW119688   0.421   0.007   4.227
 6263SOL    HW219689   0.376   6.876   4.172
 6264SOL     OW19690   1.782   0.696   1.804
 6264SOL    HW119691   1.841   0.624   1.841
 6264SOL    HW219692   1.838   0.761   1.752
 6265SOL     OW19693   3.854   3.589   6.907
 6265SOL    HW119694   3.939   3.546   6.875
 6265SOL    HW219695   3.847   3.682   6.870
 6266SOL     OW19696   4.974   0.133   3.694
 6266SOL    HW119697   5.001   0.212   3.749
 6266SOL    HW219698   4.931   0.065   3.754
 6267SOL     OW19699   2.457   0.225   5.326
 6267SOL    HW119700   2.389   0.260   5.262
 6267SOL    HW219701   2.540   0.199   5.276
 6268SOL     OW19702   2.776   1.118   2.368
 6268SOL    HW119703   2.709   1.112   2.442
 6268SOL    HW219704   2.849   1.051   2.384
 6269SOL     OW19705   6.483   6.460   2.300
 6269SOL    HW119706   6.551   6.499   2.362
 6269SOL    HW219707   6.520   6.459   2.207
 6270SOL     OW19708   0.552   0.593   6.331
 6270SOL    HW119709   0.566   0.526   6.258
 6270SOL    HW219710   0.457   0.625   6.330
 6271SOL     OW19711   6.134   2.173   5.891
 6271SOL    HW119712   6.190   2.249   5.924
 6271SOL    HW219713   6.042   2.180   5.930
 6272SOL     OW19714   0.707   2.204   0.094
 6272SOL    HW119715   0.613   2.232   0.115
 6272SOL    HW219716   0.768   2.282   0.105
 6273SOL     OW19717   0.525   6.557   2.565
 6273SOL    HW119718   0.573   6.490   2.509
 6273SOL    HW219719   0.495   6.633   2.506
 6274SOL     OW19720   3.121   6.856   5.691
 6274SOL    HW119721   3.059   6.924   5.652
 6274SOL    HW219722   3.076   6.810   5.768
 6275SOL     OW19723   2.085   6.235   0.252
 6275SOL    HW119724   2.128   6.324   0.266
 6275SOL    HW219725   2.058   6.196   0.340
 6276SOL     OW19726   2.088   4.820   4.227
 6276SOL    HW119727   2.187   4.811   4.217
 6276SOL    HW219728   2.054   4.887   4.161
 6277SOL     OW19729   4.805   3.101   1.194
 6277SOL    HW119730   4.709   3.122   1.172
 6277SOL    HW219731   4.832   3.149   1.277
 6278SOL     OW19732   4.751   6.852   4.781
 6278SOL    HW119733   4.819   6.807   4.725
 6278SOL    HW219734   4.792   6.930   4.829
 6279SOL     OW19735   3.455   6.228   0.252
 6279SOL    HW119736   3.480   6.148   0.307
 6279SOL    HW219737   3.537   6.268   0.211
 6280SOL     OW19738   6.943   1.041   6.534
 6280SOL    HW119739   6.868   0.978   6.516
 6280SOL    HW219740   0.008   0.988   6.560
 6281SOL     OW19741   6.873   5.209   4.261
 6281SOL    HW119742   6.921   5.130   4.298
 6281SOL    HW219743   6.892   5.289   4.318
 6282SOL     OW19744   6.519   5.453   5.611
 6282SOL    HW119745   6.617   5.472   5.605
 6282SOL    HW219746   6.504   5.367   5.659
 6283SOL     OW19747   0.208   3.704   4.457
 6283SOL    HW119748   0.240   3.720   4.363
 6283SOL    HW219749   0.222   3.608   4.481
 6284SOL     OW19750   1.650   4.154   4.831
 6284SOL    HW119751   1.575   4.088   4.828
 6284SOL    HW219752   1.719   4.129   4.764
 6285SOL     OW19753   0.281   3.287   3.803
 6285SOL    HW119754   0.187   3.282   3.769
 6285SOL    HW219755   0.341   3.234   3.743
 6286SOL     OW19756   6.383   2.400   4.545
 6286SOL    HW119757   6.356   2.495   4.536
 6286SOL    HW219758   6.302   2.343   4.562
 6287SOL     OW19759   3.289   4.946   4.497
 6287SOL    HW119760   3.275   4.854   4.462
 6287SOL    HW219761   3.202   4.983   4.531
 6288SOL     OW19762   4.838   4.630   2.188
 6288SOL    HW119763   4.785   4.690   2.129
 6288SOL    HW219764   4.807   4.535   2.175
 6289SOL     OW19765   2.013   4.838   6.692
 6289SOL    HW119766   2.103   4.854   6.732
 6289SOL    HW219767   1.954   4.917   6.711
 6290SOL     OW19768   5.974   4.737   6.034
 6290SOL    HW119769   5.905   4.665   6.031
 6290SOL    HW219770   6.018   4.737   6.123
 6291SOL     OW19771   3.933   3.921   3.899
 6291SOL    HW119772   4.002   3.889   3.834
 6291SOL    HW219773   3.969   3.913   3.992
 6292SOL     OW19774   2.043   2.273   4.989
 6292SOL    HW119775   2.067   2.198   5.050
 6292SOL    HW219776   1.990   2.238   4.912
 6293SOL     OW19777   4.611   1.423   1.154
 6293SOL    HW119778   4.660   1.443   1.070
 6293SOL    HW219779   4.580   1.328   1.154
 6294SOL     OW19780   3.741   0.489   4.053
 6294SOL    HW119781   3.669   0.427   4.024
 6294SOL    HW219782   3.756   0.480   4.151
 6295SOL     OW19783   4.898   4.779   4.722
 6295SOL    HW119784   4.994   4.774   4.698
 6295SOL    HW219785   4.849   4.837   4.657
 6296SOL     OW19786   6.946   5.202   5.812
 6296SOL    HW119787   6.978   5.187   5.718
 6296SOL    HW219788   7.010   5.159   5.876
 6297SOL     OW19789   5.553   0.627   5.348
 6297SOL    HW119790   5.633   0.567   5.357
 6297SOL    HW219791   5.550   0.690   5.426
 6298SOL     OW19792   1.270   3.373   6.651
 6298SOL    HW119793   1.178   3.393   6.686
 6298SOL    HW219794   1.310   3.455   6.611
 6299SOL     OW19795   6.186   2.394   1.882
 6299SOL    HW119796   6.256   2.330   1.915
 6299SOL    HW219797   6.181   2.389   1.782
 6300SOL     OW19798   6.510   1.063   6.484
 6300SOL    HW119799   6.571   1.089   6.559
 6300SOL    HW219800   6.558   1.068   6.397
 6301SOL     OW19801   2.781   6.919   6.930
 6301SOL    HW119802   2.764   6.885   0.006
 6301SOL    HW219803   2.755   6.848   6.864
 6302SOL     OW19804   1.729   1.974   5.135
 6302SOL    HW119805   1.803   1.916   5.101
 6302SOL    HW219806   1.757   2.070   5.132
 6303SOL     OW19807   1.020   0.616   5.143
 6303SOL    HW119808   0.959   0.695   5.143
 6303SOL    HW219809   1.036   0.586   5.237
 6304SOL     OW19810   3.263   0.862   1.864
 6304SOL    HW119811   3.259   0.934   1.794
 6304SOL    HW219812   3.257   0.904   1.954
 6305SOL     OW19813   6.023   6.245   0.672
 6305SOL    HW119814   5.981   6.312   0.610
 6305SOL    HW219815   6.037   6.286   0.761
 6306SOL     OW19816   6.754   4.352   4.193
 6306SOL    HW119817   6.839   4.394   4.223
 6306SOL    HW219818   6.764   4.319   4.099
 6307SOL     OW19819   3.722   4.055   4.062
 6307SOL    HW119820   3.810   4.046   4.015
 6307SOL    HW219821   3.650   4.069   3.995
 6308SOL     OW19822   1.843   2.744   4.429
 6308SOL    HW119823   1.885   2.814   4.487
 6308SOL    HW219824   1.883   2.655   4.450
 6309SOL     OW19825   6.677   5.881   4.197
 6309SOL    HW119826   6.756   5.931   4.233
 6309SOL    HW219827   6.697   5.847   4.105
 6310SOL     OW19828   1.781   5.972   2.418
 6310SOL    HW119829   1.825   5.938   2.334
 6310SOL    HW219830   1.685   5.992   2.399
 6311SOL     OW19831   5.266   1.422   5.881
 6311SOL    HW119832   5.261   1.471   5.967
 6311SOL    HW219833   5.181   1.436   5.829
 6312SOL     OW19834   0.063   6.451   4.909
 6312SOL    HW119835   0.069   6.545   4.877
 6312SOL    HW219836   0.041   6.450   5.007
 6313SOL     OW19837   6.599   6.230   3.633
 6313SOL    HW119838   6.664   6.266   3.700
 6313SOL    HW219839   6.512   6.279   3.642
 6314SOL     OW19840   4.015   6.608   1.844
 6314SOL    HW119841   3.953   6.538   1.880
 6314SOL    HW219842   4.091   6.620   1.908
 6315SOL     OW19843   3.267   1.951   6.102
 6315SOL    HW119844   3.217   1.997   6.029
 6315SOL    HW219845   3.257   2.003   6.187
 6316SOL     OW19846   4.793   2.003   6.252
 6316SOL    HW119847   4.734   2.065   6.304
 6316SOL    HW219848   4.829   2.050   6.172
 6317SOL     OW19849   5.407   4.762   2.031
 6317SOL    HW119850   5.468   4.697   1.987
 6317SOL    HW219851   5.314   4.750   1.997
 6318SOL     OW19852   4.472   6.850   5.883
 6318SOL    HW119853   4.560   6.803   5.895
 6318SOL    HW219854   4.417   6.839   5.965
 6319SOL     OW19855   6.452   2.041   5.532
 6319SOL    HW119856   6.428   2.079   5.443
 6319SOL    HW219857   6.537   2.081   5.564
 6320SOL     OW19858   6.892   6.213   5.003
 6320SOL    HW119859   6.964   6.278   5.025
 6320SOL    HW219860   6.844   6.187   5.087
 6321SOL     OW19861   4.600   3.467   0.933
 6321SOL    HW119862   4.660   3.458   0.853
 6321SOL    HW219863   4.655   3.495   1.012
 6322SOL     OW19864   1.753   2.644   0.903
 6322SOL    HW119865   1.757   2.596   0.991
 6322SOL    HW219866   1.762   2.578   0.829
 6323SOL     OW19867   2.193   2.213   1.681
 6323SOL    HW119868   2.149   2.266   1.753
 6323SOL    HW219869   2.222   2.274   1.608
 6324SOL     OW19870   4.907   1.147   0.847
 6324SOL    HW119871   4.952   1.182   0.765
 6324SOL    HW219872   4.894   1.048   0.838
 6325SOL     OW19873   1.736   3.531   2.653
 6325SOL    HW119874   1.673   3.602   2.622
 6325SOL    HW219875   1.706   3.442   2.619
 6326SOL     OW19876   5.394   4.991   1.399
 6326SOL    HW119877   5.444   4.993   1.313
 6326SOL    HW219878   5.394   5.082   1.440
 6327SOL     OW19879   0.083   1.379   4.804
 6327SOL    HW119880   0.048   1.469   4.830
 6327SOL    HW219881   0.026   1.308   4.846
 6328SOL     OW19882   4.190   3.809   0.202
 6328SOL    HW119883   4.197   3.724   0.254
 6328SOL    HW219884   4.244   3.880   0.246
 6329SOL     OW19885   1.762   2.955   3.800
 6329SOL    HW119886   1.846   3.007   3.787
 6329SOL    HW219887   1.722   2.979   3.889
 6330SOL     OW19888   5.738   6.748   1.832
 6330SOL    HW119889   5.713   6.731   1.927
 6330SOL    HW219890   5.656   6.767   1.778
 6331SOL     OW19891   6.810   3.501   5.087
 6331SOL    HW119892   6.790   3.585   5.137
 6331SOL    HW219893   6.724   3.458   5.057
 6332SOL     OW19894   0.564   2.412   0.824
 6332SOL    HW119895   0.520   2.496   0.857
 6332SOL    HW219896   0.661   2.414   0.846
 6333SOL     OW19897   4.378   6.676   5.464
 6333SOL    HW119898   4.426   6.619   5.398
 6333SOL    HW219899   4.418   6.768   5.464
 6334SOL     OW19900   3.349   1.278   2.568
 6334SOL    HW119901   3.444   1.304   2.550
 6334SOL    HW219902   3.336   1.181   2.546
 6335SOL     OW19903   4.368   0.765   0.875
 6335SOL    HW119904   4.366   0.668   0.853
 6335SOL    HW219905   4.293   0.787   0.937
 6336SOL     OW19906   1.178   2.119   6.649
 6336SOL    HW119907   1.156   2.188   6.718
 6336SOL    HW219908   1.166   2.158   6.558
 6337SOL     OW19909   4.817   5.418   5.475
 6337SOL    HW119910   4.874   5.496   5.447
 6337SOL    HW219911   4.839   5.339   5.418
 6338SOL     OW19912   3.168   2.162   4.138
 6338SOL    HW119913   3.264   2.144   4.116
 6338SOL    HW219914   3.116   2.175   4.054
 6339SOL     OW19915   0.921   3.818   3.744
 6339SOL    HW119916   0.913   3.727   3.784
 6339SOL    HW219917   0.985   3.873   3.798
 6340SOL     OW19918   1.263   4.866   1.654
 6340SOL    HW119919   1.333   4.851   1.584
 6340SOL    HW219920   1.262   4.788   1.717
 6341SOL     OW19921   6.592   4.174   4.313
 6341SOL    HW119922   6.637   4.258   4.284
 6341SOL    HW219923   6.659   4.111   4.351
 6342SOL     OW19924   2.723   1.533   0.978
 6342SOL    HW119925   2.777   1.550   1.060
 6342SOL    HW219926   2.627   1.520   1.003
 6343SOL     OW19927   4.725   0.508   6.358
 6343SOL    HW119928   4.720   0.413   6.391
 6343SOL    HW219929   4.665   0.565   6.414
 6344SOL     OW19930   4.994   2.241   4.542
 6344SOL    HW119931   5.030   2.269   4.631
 6344SOL    HW219932   5.071   2.221   4.480
 6345SOL     OW19933   5.974   2.420   2.364
 6345SOL    HW119934   5.919   2.428   2.447
 6345SOL    HW219935   6.029   2.503   2.353
 6346SOL     OW19936   6.106   5.849   3.645
 6346SOL    HW119937   6.148   5.771   3.599
 6346SOL    HW219938   6.017   5.868   3.604
 6347SOL     OW19939   1.990   1.170   6.926
 6347SOL    HW119940   1.948   1.257   6.951
 6347SOL    HW219941   2.076   1.159   6.974
 6348SOL     OW19942   1.658   2.814   5.953
 6348SOL    HW119943   1.592   2.791   6.025
 6348SOL    HW219944   1.616   2.801   5.863
 6349SOL     OW19945   1.742   0.864   1.069
 6349SOL    HW119946   1.670   0.861   1.000
 6349SOL    HW219947   1.703   0.888   1.158
 6350SOL     OW19948   0.505   5.087   4.348
 6350SOL    HW119949   0.516   5.122   4.441
 6350SOL    HW219950   0.536   4.992   4.344
 6351SOL     OW19951   6.239   3.803   3.345
 6351SOL    HW119952   6.214   3.891   3.386
 6351SOL    HW219953   6.157   3.760   3.308
 6352SOL     OW19954   2.762   6.937   5.115
 6352SOL    HW119955   2.849   6.986   5.124
 6352SOL    HW219956   2.779   6.839   5.108
 6353SOL     OW19957   0.709   6.166   5.928
 6353SOL    HW119958   0.749   6.160   6.019
 6353SOL    HW219959   0.730   6.255   5.888
 6354SOL     OW19960   2.878   5.099   3.276
 6354SOL    HW119961   2.889   5.119   3.179
 6354SOL    HW219962   2.932   5.018   3.300
 6355SOL     OW19963   2.158   5.313   6.755
 6355SOL    HW119964   2.125   5.254   6.681
 6355SOL    HW219965   2.084   5.328   6.820
 6356SOL     OW19966   4.935   5.477   1.197
 6356SOL    HW119967   5.024   5.432   1.190
 6356SOL    HW219968   4.866   5.410   1.224
 6357SOL     OW19969   6.247   3.210   2.754
 6357SOL    HW119970   6.171   3.162   2.799
 6357SOL    HW219971   6.227   3.308   2.753
 6358SOL     OW19972   0.114   1.775   6.685
 6358SOL    HW119973   0.201   1.769   6.734
 6358SOL    HW219974   0.044   1.725   6.736
 6359SOL     OW19975   6.314   0.155   0.661
 6359SOL    HW119976   6.237   0.207   0.625
 6359SOL    HW219977   6.391   0.161   0.598
 6360SOL     OW19978   1.196   3.870   5.554
 6360SOL    HW119979   1.178   3.803   5.483
 6360SOL    HW219980   1.121   3.868   5.621
 6361SOL     OW19981   1.382   0.286   0.786
 6361SOL    HW119982   1.369   0.228   0.707
 6361SOL    HW219983   1.293   0.322   0.815
 6362SOL     OW19984   0.544   5.645   0.014
 6362SOL    HW119985   0.532   5.662   0.112
 6362SOL    HW219986   0.618   5.701   6.995
 6363SOL     OW19987   2.487   5.761   3.772
 6363SOL    HW119988   2.407   5.793   3.720
 6363SOL    HW219989   2.570   5.797   3.730
 6364SOL     OW19990   2.471   1.872   5.613
 6364SOL    HW119991   2.571   1.868   5.617
 6364SOL    HW219992   2.443   1.931   5.537
 6365SOL     OW19993   4.782   0.058   4.165
 6365SOL    HW119994   4.749   0.143   4.206
 6365SOL    HW219995   4.706   7.012   4.152
 6366SOL     OW19996   1.084   5.517   5.268
 6366SOL    HW119997   1.028   5.470   5.199
 6366SOL    HW219998   1.075   5.616   5.256
 6367SOL     OW19999   4.292   1.622   3.822
 6367SOL    HW120000   4.380   1.598   3.781
 6367SOL    HW220001   4.254   1.702   3.776
 6368SOL     OW20002   3.386   4.923   3.839
 6368SOL    HW120003   3.414   4.910   3.744
 6368SOL    HW220004   3.291   4.954   3.841
 6369SOL     OW20005   2.440   0.721   4.630
 6369SOL    HW120006   2.463   0.764   4.543
 6369SOL    HW220007   2.524   0.702   4.681
 6370SOL     OW20008   6.253   3.437   3.682
 6370SOL    HW120009   6.257   3.342   3.712
 6370SOL    HW220010   6.335   3.458   3.629
 6371SOL     OW20011   5.448   4.654   3.132
 6371SOL    HW120012   5.378   4.600   3.178
 6371SOL    HW220013   5.407   4.740   3.101
 6372SOL     OW20014   1.567   1.163   1.847
 6372SOL    HW120015   1.560   1.234   1.917
 6372SOL    HW220016   1.530   1.077   1.884
 6373SOL     OW20017   4.509   4.398   2.881
 6373SOL    HW120018   4.508   4.498   2.877
 6373SOL    HW220019   4.430   4.366   2.933
 6374SOL     OW20020   3.937   3.510   2.439
 6374SOL    HW120021   3.876   3.523   2.360
 6374SOL    HW220022   3.915   3.423   2.483
 6375SOL     OW20023   6.680   1.962   2.453
 6375SOL    HW120024   6.672   2.061   2.466
 6375SOL    HW220025   6.776   1.937   2.443
 6376SOL     OW20026   4.779   2.119   5.956
 6376SOL    HW120027   4.771   2.045   5.889
 6376SOL    HW220028   4.873   2.123   5.989
 6377SOL     OW20029   0.086   1.011   5.674
 6377SOL    HW120030   0.139   1.091   5.702
 6377SOL    HW220031   0.143   0.929   5.678
 6378SOL     OW20032   4.484   4.448   3.724
 6378SOL    HW120033   4.485   4.539   3.683
 6378SOL    HW220034   4.510   4.455   3.821
 6379SOL     OW20035   1.085   4.550   5.411
 6379SOL    HW120036   1.096   4.538   5.313
 6379SOL    HW220037   0.998   4.594   5.430
 6380SOL     OW20038   0.798   1.282   5.181
 6380SOL    HW120039   0.855   1.202   5.161
 6380SOL    HW220040   0.708   1.251   5.214
 6381SOL     OW20041   4.029   2.943   1.127
 6381SOL    HW120042   4.061   3.007   1.197
 6381SOL    HW220043   4.097   2.938   1.053
 6382SOL     OW20044   3.258   1.974   0.762
 6382SOL    HW120045   3.253   1.950   0.859
 6382SOL    HW220046   3.200   1.911   0.710
 6383SOL     OW20047   1.985   2.672   3.152
 6383SOL    HW120048   1.889   2.698   3.157
 6383SOL    HW220049   2.016   2.679   3.057
 6384SOL     OW20050   6.478   3.718   2.866
 6384SOL    HW120051   6.463   3.619   2.863
 6384SOL    HW220052   6.448   3.753   2.955
 6385SOL     OW20053   6.773   3.831   3.378
 6385SOL    HW120054   6.836   3.754   3.366
 6385SOL    HW220055   6.738   3.831   3.471
 6386SOL     OW20056   2.368   3.255   6.245
 6386SOL    HW120057   2.276   3.293   6.244
 6386SOL    HW220058   2.395   3.233   6.339
 6387SOL     OW20059   6.750   1.944   6.521
 6387SOL    HW120060   6.710   2.034   6.503
 6387SOL    HW220061   6.693   1.895   6.587
 6388SOL     OW20062   4.696   6.158   1.799
 6388SOL    HW120063   4.722   6.062   1.811
 6388SOL    HW220064   4.752   6.215   1.860
 6389SOL     OW20065   0.166   6.557   1.052
 6389SOL    HW120066   0.194   6.497   1.126
 6389SOL    HW220067   0.153   6.503   0.969
 6390SOL     OW20068   0.304   0.707   5.762
 6390SOL    HW120069   0.326   0.619   5.719
 6390SOL    HW220070   0.205   0.712   5.778
 6391SOL     OW20071   1.024   6.929   6.216
 6391SOL    HW120072   1.026   6.977   6.304
 6391SOL    HW220073   1.114   6.935   6.173
 6392SOL     OW20074   2.648   5.541   2.441
 6392SOL    HW120075   2.746   5.561   2.449
 6392SOL    HW220076   2.599   5.584   2.517
 6393SOL     OW20077   0.645   5.834   1.841
 6393SOL    HW120078   0.597   5.908   1.792
 6393SOL    HW220079   0.580   5.761   1.862
 6394SOL     OW20080   1.879   5.218   0.506
 6394SOL    HW120081   1.858   5.163   0.426
 6394SOL    HW220082   1.798   5.272   0.532
 6395SOL     OW20083   0.123   2.971   1.698
 6395SOL    HW120084   0.064   2.890   1.697
 6395SOL    HW220085   0.107   3.025   1.616
 6396SOL     OW20086   5.695   3.345   6.946
 6396SOL    HW120087   5.744   3.432   6.956
 6396SOL    HW220088   5.757   3.269   6.965
 6397SOL     OW20089   5.777   1.618   1.622
 6397SOL    HW120090   5.823   1.545   1.672
 6397SOL    HW220091   5.699   1.581   1.572
 6398SOL     OW20092   3.083   6.844   1.671
 6398SOL    HW120093   2.987   6.815   1.670
 6398SOL    HW220094   3.131   6.793   1.743
 6399SOL     OW20095   1.983   6.910   0.202
 6399SOL    HW120096   1.937   6.898   0.115
 6399SOL    HW220097   2.038   6.994   0.200
 6400SOL     OW20098   2.232   5.189   2.889
 6400SOL    HW120099   2.276   5.099   2.893
 6400SOL    HW220100   2.274   5.250   2.955
 6401SOL     OW20101   5.269   6.524   3.604
 6401SOL    HW120102   5.288   6.546   3.508
 6401SOL    HW220103   5.203   6.449   3.609
 6402SOL     OW20104   2.294   2.752   3.257
 6402SOL    HW120105   2.206   2.712   3.232
 6402SOL    HW220106   2.299   2.846   3.223
 6403SOL     OW20107   6.661   5.360   6.097
 6403SOL    HW120108   6.597   5.418   6.148
 6403SOL    HW220109   6.690   5.408   6.014
 6404SOL     OW20110   3.888   0.912   2.181
 6404SOL    HW120111   3.837   0.918   2.095
 6404SOL    HW220112   3.955   0.985   2.186
 6405SOL     OW20113   3.405   0.448   4.097
 6405SOL    HW120114   3.357   0.514   4.038
 6405SOL    HW220115   3.469   0.395   4.041
 6406SOL     OW20116   0.694   2.685   2.758
 6406SOL    HW120117   0.660   2.682   2.853
 6406SOL    HW220118   0.657   2.765   2.712
 6407SOL     OW20119   2.267   0.306   4.268
 6407SOL    HW120120   2.220   0.221   4.292
 6407SOL    HW220121   2.336   0.288   4.198
 6408SOL     OW20122   5.225   1.217   0.520
 6408SOL    HW120123   5.297   1.260   0.573
 6408SOL    HW220124   5.216   1.121   0.547
 6409SOL     OW20125   6.011   4.451   4.182
 6409SOL    HW120126   6.000   4.546   4.210
 6409SOL    HW220127   5.952   4.432   4.103
 6410SOL     OW20128   2.051   1.261   5.990
 6410SOL    HW120129   2.150   1.272   5.990
 6410SOL    HW220130   2.015   1.275   6.082
 6411SOL     OW20131   0.235   2.897   2.876
 6411SOL    HW120132   0.331   2.916   2.894
 6411SOL    HW220133   0.220   2.888   2.778
 6412SOL     OW20134   1.649   1.973   4.657
 6412SOL    HW120135   1.719   1.967   4.585
 6412SOL    HW220136   1.578   2.038   4.629
 6413SOL     OW20137   3.787   4.879   3.503
 6413SOL    HW120138   3.812   4.877   3.600
 6413SOL    HW220139   3.691   4.908   3.494
 6414SOL     OW20140   5.537   1.087   6.837
 6414SOL    HW120141   5.455   1.144   6.839
 6414SOL    HW220142   5.523   1.008   6.778
 6415SOL     OW20143   1.519   3.367   3.441
 6415SOL    HW120144   1.601   3.310   3.436
 6415SOL    HW220145   1.438   3.310   3.438
 6416SOL     OW20146   1.534   0.174   7.005
 6416SOL    HW120147   1.545   0.263   6.959
 6416SOL    HW220148   1.624   0.138   0.014
 6417SOL     OW20149   5.689   4.750   0.362
 6417SOL    HW120150   5.635   4.827   0.396
 6417SOL    HW220151   5.760   4.783   0.300
 6418SOL     OW20152   5.201   3.342   2.429
 6418SOL    HW120153   5.224   3.246   2.410
 6418SOL    HW220154   5.177   3.388   2.344
 6419SOL     OW20155   1.074   4.767   3.256
 6419SOL    HW120156   1.152   4.807   3.304
 6419SOL    HW220157   1.103   4.683   3.210
 6420SOL     OW20158   2.552   6.633   3.914
 6420SOL    HW120159   2.646   6.599   3.920
 6420SOL    HW220160   2.516   6.648   4.006
 6421SOL     OW20161   4.474   0.316   2.118
 6421SOL    HW120162   4.560   0.274   2.145
 6421SOL    HW220163   4.477   0.336   2.020
 6422SOL     OW20164   6.707   0.267   5.149
 6422SOL    HW120165   6.668   0.265   5.057
 6422SOL    HW220166   6.802   0.298   5.145
 6423SOL     OW20167   4.603   5.913   3.383
 6423SOL    HW120168   4.690   5.894   3.430
 6423SOL    HW220169   4.535   5.944   3.450
 6424SOL     OW20170   0.619   4.428   4.668
 6424SOL    HW120171   0.561   4.360   4.712
 6424SOL    HW220172   0.562   4.491   4.615
 6425SOL     OW20173   6.444   6.565   3.022
 6425SOL    HW120174   6.477   6.638   3.082
 6425SOL    HW220175   6.499   6.563   2.939
 6426SOL     OW20176   0.956   4.959   3.105
 6426SOL    HW120177   0.922   4.907   3.026
 6426SOL    HW220178   0.986   4.895   3.176
 6427SOL     OW20179   3.994   3.876   4.158
 6427SOL    HW120180   4.024   3.910   4.248
 6427SOL    HW220181   3.895   3.870   4.156
 6428SOL     OW20182   5.341   3.635   6.489
 6428SOL    HW120183   5.347   3.600   6.582
 6428SOL    HW220184   5.356   3.734   6.489
 6429SOL     OW20185   0.473   1.245   5.528
 6429SOL    HW120186   0.519   1.156   5.527
 6429SOL    HW220187   0.386   1.238   5.478
 6430SOL     OW20188   5.991   1.264   3.764
 6430SOL    HW120189   5.949   1.351   3.791
 6430SOL    HW220190   5.920   1.204   3.727
 6431SOL     OW20191   4.359   6.482   3.571
 6431SOL    HW120192   4.270   6.467   3.529
 6431SOL    HW220193   4.403   6.393   3.588
 6432SOL     OW20194   4.300   4.417   5.998
 6432SOL    HW120195   4.290   4.499   5.942
 6432SOL    HW220196   4.297   4.443   6.095
 6433SOL     OW20197   1.524   5.290   5.742
 6433SOL    HW120198   1.613   5.246   5.758
 6433SOL    HW220199   1.513   5.308   5.644
 6434SOL     OW20200   2.478   6.059   5.993
 6434SOL    HW120201   2.534   6.059   5.911
 6434SOL    HW220202   2.533   6.091   6.071
 6435SOL     OW20203   5.219   6.765   0.491
 6435SOL    HW120204   5.290   6.833   0.474
 6435SOL    HW220205   5.212   6.704   0.412
 6436SOL     OW20206   1.186   2.730   2.268
 6436SOL    HW120207   1.162   2.781   2.185
 6436SOL    HW220208   1.129   2.761   2.344
 6437SOL     OW20209   1.662   2.113   0.133
 6437SOL    HW120210   1.748   2.087   0.177
 6437SOL    HW220211   1.619   2.032   0.092
 6438SOL     OW20212   0.430   3.627   5.542
 6438SOL    HW120213   0.456   3.620   5.445
 6438SOL    HW220214   0.507   3.661   5.595
 6439SOL     OW20215   5.498   1.614   1.864
 6439SOL    HW120216   5.570   1.566   1.915
 6439SOL    HW220217   5.522   1.710   1.856
 6440SOL     OW20218   2.612   1.300   5.736
 6440SOL    HW120219   2.576   1.343   5.654
 6440SOL    HW220220   2.702   1.261   5.718
 6441SOL     OW20221   0.303   0.006   1.653
 6441SOL    HW120222   0.286   6.929   1.683
 6441SOL    HW220223   0.220   0.060   1.664
 6442SOL     OW20224   2.396   1.471   5.062
 6442SOL    HW120225   2.397   1.554   5.118
 6442SOL    HW220226   2.378   1.496   4.967
 6443SOL     OW20227   3.514   2.379   5.387
 6443SOL    HW120228   3.459   2.462   5.387
 6443SOL    HW220229   3.465   2.306   5.341
 6444SOL     OW20230   5.489   3.664   4.914
 6444SOL    HW120231   5.391   3.682   4.925
 6444SOL    HW220232   5.517   3.691   4.821
 6445SOL     OW20233   3.980   3.059   4.614
 6445SOL    HW120234   3.986   3.102   4.704
 6445SOL    HW220235   4.063   3.081   4.562
 6446SOL     OW20236   1.326   1.220   6.761
 6446SOL    HW120237   1.287   1.308   6.789
 6446SOL    HW220238   1.369   1.177   6.839
 6447SOL     OW20239   5.737   4.961   2.943
 6447SOL    HW120240   5.754   4.964   3.042
 6447SOL    HW220241   5.822   4.937   2.896
 6448SOL     OW20242   5.043   5.723   1.754
 6448SOL    HW120243   5.026   5.693   1.848
 6448SOL    HW220244   5.025   5.648   1.690
 6449SOL     OW20245   3.906   5.966   1.400
 6449SOL    HW120246   3.832   6.022   1.437
 6449SOL    HW220247   3.984   5.968   1.463
 6450SOL     OW20248   1.568   3.269   0.837
 6450SOL    HW120249   1.664   3.287   0.854
 6450SOL    HW220250   1.522   3.353   0.809
 6451SOL     OW20251   2.246   0.861   5.572
 6451SOL    HW120252   2.306   0.937   5.547
 6451SOL    HW220253   2.150   0.888   5.560
 6452SOL     OW20254   4.218   5.011   3.127
 6452SOL    HW120255   4.202   4.925   3.077
 6452SOL    HW220256   4.144   5.026   3.192
 6453SOL     OW20257   2.453   6.985   2.286
 6453SOL    HW120258   2.537   7.016   2.241
 6453SOL    HW220259   2.408   6.917   2.228
 6454SOL     OW20260   0.744   2.267   3.129
 6454SOL    HW120261   0.735   2.251   3.030
 6454SOL    HW220262   0.743   2.180   3.177
 6455SOL     OW20263   0.166   3.231   4.071
 6455SOL    HW120264   0.139   3.305   4.132
 6455SOL    HW220265   0.172   3.265   3.977
 6456SOL     OW20266   1.746   1.274   3.064
 6456SOL    HW120267   1.650   1.249   3.077
 6456SOL    HW220268   1.802   1.233   3.136
 6457SOL     OW20269   5.064   1.154   2.104
 6457SOL    HW120270   5.047   1.248   2.074
 6457SOL    HW220271   5.111   1.104   2.032
 6458SOL     OW20272   0.910   5.515   3.893
 6458SOL    HW120273   0.953   5.475   3.812
 6458SOL    HW220274   0.933   5.460   3.974
 6459SOL     OW20275   6.006   3.108   1.476
 6459SOL    HW120276   6.038   3.063   1.559
 6459SOL    HW220277   6.069   3.180   1.449
 6460SOL     OW20278   5.878   6.089   6.342
 6460SOL    HW120279   5.949   6.019   6.347
 6460SOL    HW220280   5.788   6.046   6.337
 6461SOL     OW20281   2.172   4.554   6.689
 6461SOL    HW120282   2.093   4.593   6.643
 6461SOL    HW220283   2.180   4.457   6.665
 6462SOL     OW20284   2.111   3.424   4.283
 6462SOL    HW120285   2.124   3.346   4.345
 6462SOL    HW220286   2.200   3.454   4.249
 6463SOL     OW20287   5.811   2.269   0.296
 6463SOL    HW120288   5.784   2.341   0.360
 6463SOL    HW220289   5.877   2.306   0.230
 6464SOL     OW20290   1.392   4.631   4.818
 6464SOL    HW120291   1.312   4.662   4.768
 6464SOL    HW220292   1.464   4.701   4.814
 6465SOL     OW20293   6.540   3.414   2.159
 6465SOL    HW120294   6.538   3.314   2.163
 6465SOL    HW220295   6.577   3.450   2.245
 6466SOL     OW20296   6.628   1.147   5.786
 6466SOL    HW120297   6.583   1.151   5.875
 6466SOL    HW220298   6.705   1.083   5.790
 6467SOL     OW20299   4.170   0.238   0.122
 6467SOL    HW120300   4.074   0.212   0.127
 6467SOL    HW220301   4.180   0.334   0.149
 6468SOL     OW20302   2.632   6.509   1.230
 6468SOL    HW120303   2.699   6.510   1.155
 6468SOL    HW220304   2.657   6.437   1.296
 6469SOL     OW20305   4.508   2.193   3.755
 6469SOL    HW120306   4.510   2.134   3.835
 6469SOL    HW220307   4.602   2.216   3.728
 6470SOL     OW20308   5.850   2.804   0.983
 6470SOL    HW120309   5.889   2.779   0.894
 6470SOL    HW220310   5.859   2.726   1.045
 6471SOL     OW20311   0.035   6.562   5.732
 6471SOL    HW120312   0.096   6.639   5.750
 6471SOL    HW220313   6.957   6.593   5.739
 6472SOL     OW20314   0.232   5.695   1.358
 6472SOL    HW120315   0.143   5.664   1.393
 6472SOL    HW220316   0.305   5.655   1.413
 6473SOL     OW20317   2.914   1.756   4.880
 6473SOL    HW120318   3.006   1.772   4.917
 6473SOL    HW220319   2.894   1.824   4.810
 6474SOL     OW20320   3.265   5.225   6.538
 6474SOL    HW120321   3.182   5.189   6.497
 6474SOL    HW220322   3.332   5.244   6.467
 6475SOL     OW20323   5.973   5.301   3.382
 6475SOL    HW120324   5.975   5.251   3.469
 6475SOL    HW220325   6.065   5.306   3.344
 6476SOL     OW20326   4.419   3.649   0.839
 6476SOL    HW120327   4.324   3.655   0.869
 6476SOL    HW220328   4.470   3.590   0.901
 6477SOL     OW20329   5.961   5.060   0.385
 6477SOL    HW120330   5.932   5.031   0.476
 6477SOL    HW220331   6.058   5.040   0.373
 6478SOL     OW20332   3.312   0.285   2.273
 6478SOL    HW120333   3.252   0.236   2.209
 6478SOL    HW220334   3.368   0.219   2.323
 6479SOL     OW20335   3.992   5.626   3.546
 6479SOL    HW120336   3.909   5.612   3.600
 6479SOL    HW220337   4.033   5.714   3.570
 6480SOL     OW20338   3.091   0.813   6.923
 6480SOL    HW120339   3.032   0.813   6.842
 6480SOL    HW220340   3.044   0.855   6.999
 6481SOL     OW20341   3.306   2.107   2.301
 6481SOL    HW120342   3.234   2.135   2.238
 6481SOL    HW220343   3.395   2.124   2.260
 6482SOL     OW20344   6.506   1.362   5.699
 6482SOL    HW120345   6.506   1.412   5.786
 6482SOL    HW220346   6.552   1.274   5.712
 6483SOL     OW20347   1.003   0.357   3.089
 6483SOL    HW120348   0.927   0.372   3.026
 6483SOL    HW220349   1.044   0.444   3.114
 6484SOL     OW20350   3.635   6.975   1.458
 6484SOL    HW120351   3.647   6.890   1.508
 6484SOL    HW220352   3.677   6.967   1.367
 6485SOL     OW20353   1.973   5.061   4.086
 6485SOL    HW120354   1.973   5.087   3.989
 6485SOL    HW220355   1.992   5.142   4.141
 6486SOL     OW20356   0.730   4.395   3.073
 6486SOL    HW120357   0.711   4.478   3.020
 6486SOL    HW220358   0.820   4.359   3.049
 6487SOL     OW20359   1.106   6.922   5.186
 6487SOL    HW120360   1.061   6.834   5.197
 6487SOL    HW220361   1.086   6.958   5.095
 6488SOL     OW20362   3.805   6.173   4.654
 6488SOL    HW120363   3.851   6.176   4.742
 6488SOL    HW220364   3.811   6.263   4.610
 6489SOL     OW20365   2.818   3.729   6.080
 6489SOL    HW120366   2.852   3.818   6.049
 6489SOL    HW220367   2.891   3.661   6.071
 6490SOL     OW20368   3.828   1.119   6.547
 6490SOL    HW120369   3.753   1.053   6.541
 6490SOL    HW220370   3.846   1.142   6.642
 6491SOL     OW20371   4.023   0.851   1.406
 6491SOL    HW120372   4.099   0.815   1.353
 6491SOL    HW220373   3.989   0.935   1.363
 6492SOL     OW20374   4.031   4.675   6.246
 6492SOL    HW120375   3.999   4.669   6.151
 6492SOL    HW220376   3.989   4.754   6.290
 6493SOL     OW20377   1.734   4.495   5.947
 6493SOL    HW120378   1.746   4.586   5.907
 6493SOL    HW220379   1.823   4.449   5.953
 6494SOL     OW20380   6.813   0.945   3.582
 6494SOL    HW120381   6.805   0.865   3.523
 6494SOL    HW220382   6.880   1.008   3.543
 6495SOL     OW20383   6.496   0.340   4.469
 6495SOL    HW120384   6.570   0.275   4.453
 6495SOL    HW220385   6.533   0.433   4.472
 6496SOL     OW20386   5.724   1.264   3.323
 6496SOL    HW120387   5.657   1.332   3.294
 6496SOL    HW220388   5.682   1.201   3.387
 6497SOL     OW20389   0.994   1.027   1.121
 6497SOL    HW120390   1.024   1.066   1.208
 6497SOL    HW220391   0.895   1.015   1.122
 6498SOL     OW20392   1.760   3.353   3.677
 6498SOL    HW120393   1.806   3.269   3.650
 6498SOL    HW220394   1.700   3.335   3.754
 6499SOL     OW20395   5.349   3.824   5.665
 6499SOL    HW120396   5.399   3.839   5.750
 6499SOL    HW220397   5.396   3.755   5.610
 6500SOL     OW20398   6.609   4.061   4.653
 6500SOL    HW120399   6.620   4.030   4.558
 6500SOL    HW220400   6.556   3.993   4.704
 6501SOL     OW20401   6.742   0.864   6.434
 6501SOL    HW120402   6.684   0.821   6.503
 6501SOL    HW220403   6.778   0.794   6.372
 6502SOL     OW20404   6.654   2.779   2.541
 6502SOL    HW120405   6.737   2.833   2.523
 6502SOL    HW220406   6.592   2.787   2.463
 6503SOL     OW20407   5.376   1.692   3.788
 6503SOL    HW120408   5.307   1.630   3.752
 6503SOL    HW220409   5.337   1.746   3.863
 6504SOL     OW20410   4.338   6.270   5.400
 6504SOL    HW120411   4.421   6.227   5.365
 6504SOL    HW220412   4.356   6.306   5.491
 6505SOL     OW20413   5.585   5.577   6.739
 6505SOL    HW120414   5.594   5.556   6.836
 6505SOL    HW220415   5.512   5.522   6.699
 6506SOL     OW20416   6.873   2.280   3.190
 6506SOL    HW120417   6.832   2.365   3.222
 6506SOL    HW220418   6.970   2.295   3.169
 6507SOL     OW20419   1.346   5.609   6.464
 6507SOL    HW120420   1.388   5.533   6.416
 6507SOL    HW220421   1.365   5.694   6.415
 6508SOL     OW20422   1.641   0.525   2.551
 6508SOL    HW120423   1.629   0.543   2.454
 6508SOL    HW220424   1.683   0.436   2.564
 6509SOL     OW20425   3.998   1.635   4.730
 6509SOL    HW120426   4.067   1.678   4.671
 6509SOL    HW220427   3.911   1.681   4.718
 6510SOL     OW20428   6.218   5.287   0.370
 6510SOL    HW120429   6.277   5.210   0.346
 6510SOL    HW220430   6.271   5.372   0.369
 6511SOL     OW20431   3.991   1.197   5.195
 6511SOL    HW120432   3.956   1.104   5.191
 6511SOL    HW220433   4.070   1.207   5.134
 6512SOL     OW20434   4.204   6.527   2.035
 6512SOL    HW120435   4.158   6.440   2.023
 6512SOL    HW220436   4.302   6.515   2.019
 6513SOL     OW20437   2.834   4.750   3.233
 6513SOL    HW120438   2.860   4.765   3.328
 6513SOL    HW220439   2.743   4.787   3.216
 6514SOL     OW20440   6.082   1.344   4.107
 6514SOL    HW120441   6.061   1.421   4.045
 6514SOL    HW220442   6.026   1.266   4.082
 6515SOL     OW20443   0.229   4.971   4.206
 6515SOL    HW120444   0.319   5.008   4.226
 6515SOL    HW220445   0.231   4.922   4.119
 6516SOL     OW20446   0.244   3.591   1.566
 6516SOL    HW120447   0.279   3.553   1.480
 6516SOL    HW220448   0.256   3.690   1.565
 6517SOL     OW20449   6.520   1.729   1.419
 6517SOL    HW120450   6.466   1.653   1.456
 6517SOL    HW220451   6.459   1.802   1.388
 6518SOL     OW20452   0.098   0.899   0.370
 6518SOL    HW120453   0.054   0.836   0.305
 6518SOL    HW220454   0.152   0.846   0.436
 6519SOL     OW20455   0.486   2.378   3.095
 6519SOL    HW120456   0.511   2.475   3.087
 6519SOL    HW220457   0.562   2.328   3.138
 6520SOL     OW20458   6.037   4.959   1.361
 6520SOL    HW120459   6.035   5.055   1.388
 6520SOL    HW220460   6.120   4.916   1.396
 6521SOL     OW20461   2.328   2.857   4.324
 6521SOL    HW120462   2.352   2.817   4.412
 6521SOL    HW220463   2.258   2.802   4.279
 6522SOL     OW20464   3.301   5.302   5.573
 6522SOL    HW120465   3.265   5.394   5.585
 6522SOL    HW220466   3.261   5.261   5.491
 6523SOL     OW20467   3.484   1.655   6.979
 6523SOL    HW120468   3.579   1.687   6.979
 6523SOL    HW220469   3.422   1.731   6.998
 6524SOL     OW20470   3.542   3.612   1.772
 6524SOL    HW120471   3.453   3.657   1.772
 6524SOL    HW220472   3.546   3.545   1.846
 6525SOL     OW20473   2.447   5.296   3.384
 6525SOL    HW120474   2.348   5.292   3.394
 6525SOL    HW220475   2.486   5.352   3.458
 6526SOL     OW20476   2.555   0.702   0.505
 6526SOL    HW120477   2.647   0.727   0.533
 6526SOL    HW220478   2.508   0.654   0.580
 6527SOL     OW20479   0.583   1.507   5.173
 6527SOL    HW120480   0.652   1.434   5.182
 6527SOL    HW220481   0.502   1.471   5.129
 6528SOL     OW20482   6.370   1.084   5.013
 6528SOL    HW120483   6.331   1.162   5.062
 6528SOL    HW220484   6.381   1.007   5.076
 6529SOL     OW20485   2.188   0.732   2.936
 6529SOL    HW120486   2.160   0.638   2.950
 6529SOL    HW220487   2.193   0.751   2.838
 6530SOL     OW20488   6.916   2.529   0.200
 6530SOL    HW120489   6.974   2.608   0.217
 6530SOL    HW220490   6.932   2.460   0.271
 6531SOL     OW20491   5.225   3.038   5.232
 6531SOL    HW120492   5.190   3.001   5.146
 6531SOL    HW220493   5.226   2.966   5.302
 6532SOL     OW20494   6.885   0.914   0.855
 6532SOL    HW120495   6.818   0.987   0.872
 6532SOL    HW220496   6.902   0.864   0.940
 6533SOL     OW20497   4.709   0.020   0.657
 6533SOL    HW120498   4.768   0.075   0.717
 6533SOL    HW220499   4.656   6.972   0.712
 6534SOL     OW20500   4.393   4.407   1.455
 6534SOL    HW120501   4.447   4.491   1.456
 6534SOL    HW220502   4.409   4.358   1.369
 6535SOL     OW20503   6.284   4.388   4.063
 6535SOL    HW120504   6.307   4.433   4.149
 6535SOL    HW220505   6.186   4.368   4.062
 6536SOL     OW20506   0.649   1.010   5.572
 6536SOL    HW120507   0.732   1.049   5.532
 6536SOL    HW220508   0.657   1.008   5.671
 6537SOL     OW20509   0.182   5.182   6.738
 6537SOL    HW120510   0.210   5.106   6.678
 6537SOL    HW220511   0.128   5.247   6.684
 6538SOL     OW20512   2.171   3.499   6.121
 6538SOL    HW120513   2.213   3.570   6.178
 6538SOL    HW220514   2.117   3.543   6.049
 6539SOL     OW20515   4.832   0.681   6.647
 6539SOL    HW120516   4.758   0.719   6.591
 6539SOL    HW220517   4.865   0.751   6.709
 6540SOL     OW20518   4.619   1.903   5.567
 6540SOL    HW120519   4.542   1.944   5.518
 6540SOL    HW220520   4.691   1.879   5.501
 6541SOL     OW20521   4.319   1.791   4.855
 6541SOL    HW120522   4.407   1.822   4.818
 6541SOL    HW220523   4.310   1.692   4.842
 6542SOL     OW20524   6.392   3.177   4.060
 6542SOL    HW120525   6.451   3.174   4.141
 6542SOL    HW220526   6.297   3.189   4.089
 6543SOL     OW20527   5.132   2.999   6.074
 6543SOL    HW120528   5.076   3.035   6.149
 6543SOL    HW220529   5.089   2.917   6.037
 6544SOL     OW20530   1.050   6.395   2.764
 6544SOL    HW120531   1.008   6.483   2.742
 6544SOL    HW220532   1.141   6.410   2.802
 6545SOL     OW20533   4.273   0.987   0.710
 6545SOL    HW120534   4.324   0.991   0.624
 6545SOL    HW220535   4.303   0.908   0.763
 6546SOL     OW20536   2.937   4.365   0.520
 6546SOL    HW120537   3.006   4.295   0.539
 6546SOL    HW220538   2.847   4.332   0.552
 6547SOL     OW20539   4.837   1.245   6.146
 6547SOL    HW120540   4.754   1.277   6.101
 6547SOL    HW220541   4.818   1.229   6.243
 6548SOL     OW20542   0.367   4.028   1.045
 6548SOL    HW120543   0.401   3.938   1.071
 6548SOL    HW220544   0.444   4.088   1.022
 6549SOL     OW20545   4.375   0.748   2.100
 6549SOL    HW120546   4.458   0.739   2.045
 6549SOL    HW220547   4.380   0.684   2.177
 6550SOL     OW20548   0.173   6.671   3.173
 6550SOL    HW120549   0.157   6.765   3.141
 6550SOL    HW220550   0.186   6.672   3.273
 6551SOL     OW20551   1.959   5.052   2.346
 6551SOL    HW120552   1.866   5.032   2.376
 6551SOL    HW220553   1.999   5.123   2.405
 6552SOL     OW20554   1.978   0.373   0.701
 6552SOL    HW120555   2.030   0.337   0.624
 6552SOL    HW220556   1.906   0.434   0.667
 6553SOL     OW20557   6.984   2.476   3.440
 6553SOL    HW120558   6.920   2.524   3.499
 6553SOL    HW220559   6.950   2.476   3.347
 6554SOL     OW20560   0.633   0.392   5.082
 6554SOL    HW120561   0.715   0.339   5.101
 6554SOL    HW220562   0.623   0.464   5.150
 6555SOL     OW20563   5.499   1.462   3.239
 6555SOL    HW120564   5.426   1.507   3.290
 6555SOL    HW220565   5.460   1.388   3.184
 6556SOL     OW20566   4.967   4.372   4.182
 6556SOL    HW120567   4.884   4.347   4.131
 6556SOL    HW220568   4.951   4.361   4.280
 6557SOL     OW20569   3.489   0.117   2.675
 6557SOL    HW120570   3.439   0.058   2.739
 6557SOL    HW220571   3.469   0.213   2.695
 6558SOL     OW20572   0.053   5.158   0.160
 6558SOL    HW120573   0.026   5.085   0.222
 6558SOL    HW220574   0.125   5.213   0.203
 6559SOL     OW20575   0.728   3.842   6.655
 6559SOL    HW120576   0.642   3.842   6.602
 6559SOL    HW220577   0.719   3.780   6.732
 6560SOL     OW20578   4.586   4.637   1.455
 6560SOL    HW120579   4.563   4.661   1.360
 6560SOL    HW220580   4.674   4.677   1.479
 6561SOL     OW20581   3.368   3.887   1.572
 6561SOL    HW120582   3.335   3.793   1.583
 6561SOL    HW220583   3.468   3.888   1.576
 6562SOL     OW20584   6.055   3.379   0.210
 6562SOL    HW120585   6.017   3.350   0.297
 6562SOL    HW220586   6.053   3.303   0.145
 6563SOL     OW20587   4.867   5.832   6.617
 6563SOL    HW120588   4.864   5.923   6.575
 6563SOL    HW220589   4.903   5.841   6.710
 6564SOL     OW20590   6.986   3.772   3.132
 6564SOL    HW120591   6.890   3.800   3.130
 6564SOL    HW220592   7.006   3.728   3.219
 6565SOL     OW20593   5.310   2.054   3.118
 6565SOL    HW120594   5.297   2.084   3.023
 6565SOL    HW220595   5.361   2.124   3.168
 6566SOL     OW20596   4.207   6.191   2.018
 6566SOL    HW120597   4.299   6.216   2.051
 6566SOL    HW220598   4.168   6.121   2.077
 6567SOL     OW20599   4.626   0.857   2.771
 6567SOL    HW120600   4.620   0.933   2.835
 6567SOL    HW220601   4.547   0.858   2.710
 6568SOL     OW20602   3.104   1.047   3.698
 6568SOL    HW120603   3.153   0.975   3.746
 6568SOL    HW220604   3.014   1.013   3.669
 6569SOL     OW20605   2.851   3.335   6.992
 6569SOL    HW120606   2.912   3.380   0.041
 6569SOL    HW220607   2.801   3.261   0.021
 6570SOL     OW20608   3.255   0.688   2.187
 6570SOL    HW120609   3.257   0.785   2.165
 6570SOL    HW220610   3.175   0.646   2.142
 6571SOL     OW20611   3.241   5.340   1.595
 6571SOL    HW120612   3.142   5.353   1.584
 6571SOL    HW220613   3.259   5.303   1.686
 6572SOL     OW20614   6.947   5.003   5.042
 6572SOL    HW120615   6.941   5.075   5.111
 6572SOL    HW220616   6.944   4.913   5.086
 6573SOL     OW20617   1.364   1.997   2.371
 6573SOL    HW120618   1.463   1.983   2.369
 6573SOL    HW220619   1.334   2.029   2.281
 6574SOL     OW20620   2.656   5.279   2.398
 6574SOL    HW120621   2.709   5.275   2.483
 6574SOL    HW220622   2.640   5.374   2.373
 6575SOL     OW20623   0.705   0.179   2.921
 6575SOL    HW120624   0.691   0.173   3.020
 6575SOL    HW220625   0.786   0.126   2.896
 6576SOL     OW20626   2.083   6.055   0.039
 6576SOL    HW120627   2.026   6.089   6.981
 6576SOL    HW220628   2.090   6.125   0.110
 6577SOL     OW20629   1.070   1.998   4.355
 6577SOL    HW120630   1.021   2.060   4.417
 6577SOL    HW220631   1.122   1.932   4.409
 6578SOL     OW20632   0.458   5.573   3.264
 6578SOL    HW120633   0.529   5.571   3.335
 6578SOL    HW220634   0.373   5.534   3.301
 6579SOL     OW20635   0.043   3.140   4.352
 6579SOL    HW120636   0.128   3.103   4.390
 6579SOL    HW220637   0.062   3.229   4.310
 6580SOL     OW20638   0.697   2.236   1.048
 6580SOL    HW120639   0.735   2.303   0.984
 6580SOL    HW220640   0.679   2.280   1.136
 6581SOL     OW20641   3.192   0.790   0.280
 6581SOL    HW120642   3.169   0.698   0.312
 6581SOL    HW220643   3.112   0.849   0.289
 6582SOL     OW20644   0.680   1.435   3.349
 6582SOL    HW120645   0.647   1.371   3.279
 6582SOL    HW220646   0.607   1.498   3.373
 6583SOL     OW20647   4.541   0.394   5.644
 6583SOL    HW120648   4.449   0.375   5.679
 6583SOL    HW220649   4.599   0.425   5.719
 6584SOL     OW20650   4.689   2.644   1.067
 6584SOL    HW120651   4.753   2.720   1.072
 6584SOL    HW220652   4.734   2.566   1.023
 6585SOL     OW20653   6.472   6.277   6.594
 6585SOL    HW120654   6.546   6.337   6.625
 6585SOL    HW220655   6.392   6.332   6.571
 6586SOL     OW20656   5.756   0.740   5.084
 6586SOL    HW120657   5.711   0.825   5.056
 6586SOL    HW220658   5.700   0.694   5.152
 6587SOL     OW20659   1.983   5.795   5.504
 6587SOL    HW120660   1.907   5.827   5.560
 6587SOL    HW220661   2.059   5.767   5.563
 6588SOL     OW20662   0.982   3.010   1.583
 6588SOL    HW120663   0.957   2.976   1.492
 6588SOL    HW220664   0.930   3.092   1.604
 6589SOL     OW20665   4.942   0.878   0.730
 6589SOL    HW120666   4.914   0.881   0.634
 6589SOL    HW220667   4.871   0.835   0.784
 6590SOL     OW20668   0.174   1.231   5.823
 6590SOL    HW120669   0.092   1.289   5.826
 6590SOL    HW220670   0.256   1.289   5.821
 6591SOL     OW20671   6.279   5.299   2.589
 6591SOL    HW120672   6.275   5.395   2.618
 6591SOL    HW220673   6.187   5.264   2.577
 6592SOL     OW20674   5.154   6.881   3.349
 6592SOL    HW120675   5.126   6.848   3.440
 6592SOL    HW220676   5.254   6.887   3.346
 6593SOL     OW20677   1.950   2.339   2.634
 6593SOL    HW120678   2.008   2.387   2.568
 6593SOL    HW220679   1.918   2.404   2.703
 6594SOL     OW20680   3.726   1.761   0.014
 6594SOL    HW120681   3.719   1.732   0.110
 6594SOL    HW220682   3.682   1.851   0.003
 6595SOL     OW20683   1.296   4.097   6.418
 6595SOL    HW120684   1.337   4.008   6.399
 6595SOL    HW220685   1.259   4.135   6.333
 6596SOL     OW20686   2.954   6.366   4.473
 6596SOL    HW120687   2.876   6.427   4.463
 6596SOL    HW220688   3.037   6.420   4.486
 6597SOL     OW20689   1.382   5.457   1.499
 6597SOL    HW120690   1.353   5.447   1.594
 6597SOL    HW220691   1.384   5.367   1.454
 6598SOL     OW20692   1.034   5.714   4.326
 6598SOL    HW120693   1.004   5.729   4.232
 6598SOL    HW220694   1.134   5.709   4.329
 6599SOL     OW20695   4.409   6.180   6.413
 6599SOL    HW120696   4.402   6.216   6.506
 6599SOL    HW220697   4.490   6.122   6.405
 6600SOL     OW20698   4.499   5.293   5.206
 6600SOL    HW120699   4.423   5.231   5.224
 6600SOL    HW220700   4.496   5.369   5.271
 6601SOL     OW20701   1.529   1.999   4.931
 6601SOL    HW120702   1.554   1.972   4.837
 6601SOL    HW220703   1.604   1.978   4.993
 6602SOL     OW20704   1.437   0.813   2.126
 6602SOL    HW120705   1.466   0.829   2.031
 6602SOL    HW220706   1.360   0.750   2.127
 6603SOL     OW20707   6.864   2.602   3.661
 6603SOL    HW120708   6.879   2.542   3.739
 6603SOL    HW220709   6.769   2.635   3.662
 6604SOL     OW20710   1.558   0.725   0.835
 6604SOL    HW120711   1.514   0.654   0.890
 6604SOL    HW220712   1.594   0.684   0.750
 6605SOL     OW20713   5.289   4.488   1.821
 6605SOL    HW120714   5.259   4.575   1.784
 6605SOL    HW220715   5.330   4.502   1.911
 6606SOL     OW20716   0.497   5.867   2.164
 6606SOL    HW120717   0.430   5.862   2.089
 6606SOL    HW220718   0.455   5.833   2.248
 6607SOL     OW20719   2.003   3.657   2.290
 6607SOL    HW120720   2.022   3.664   2.193
 6607SOL    HW220721   2.055   3.726   2.340
 6608SOL     OW20722   6.368   6.387   0.715
 6608SOL    HW120723   6.303   6.426   0.781
 6608SOL    HW220724   6.440   6.454   0.695
 6609SOL     OW20725   4.731   0.957   6.173
 6609SOL    HW120726   4.762   1.003   6.090
 6609SOL    HW220727   4.806   0.902   6.210
 6610SOL     OW20728   2.105   6.432   6.883
 6610SOL    HW120729   2.044   6.353   6.880
 6610SOL    HW220730   2.191   6.407   6.927
 6611SOL     OW20731   5.037   2.759   3.695
 6611SOL    HW120732   5.030   2.817   3.614
 6611SOL    HW220733   4.990   2.672   3.679
 6612SOL     OW20734   6.115   1.894   5.894
 6612SOL    HW120735   6.134   1.871   5.799
 6612SOL    HW220736   6.113   1.993   5.905
 6613SOL     OW20737   6.484   6.511   5.178
 6613SOL    HW120738   6.405   6.567   5.203
 6613SOL    HW220739   6.524   6.470   5.260
 6614SOL     OW20740   4.430   5.806   0.355
 6614SOL    HW120741   4.458   5.796   0.259
 6614SOL    HW220742   4.430   5.716   0.399
 6615SOL     OW20743   1.690   5.666   1.727
 6615SOL    HW120744   1.676   5.765   1.721
 6615SOL    HW220745   1.748   5.645   1.805
 6616SOL     OW20746   5.217   0.935   6.170
 6616SOL    HW120747   5.163   0.860   6.132
 6616SOL    HW220748   5.182   1.022   6.137
 6617SOL     OW20749   4.537   5.119   3.664
 6617SOL    HW120750   4.563   5.035   3.616
 6617SOL    HW220751   4.617   5.178   3.672
 6618SOL     OW20752   1.478   2.584   2.114
 6618SOL    HW120753   1.567   2.566   2.073
 6618SOL    HW220754   1.466   2.526   2.195
 6619SOL     OW20755   5.777   0.417   4.289
 6619SOL    HW120756   5.779   0.399   4.387
 6619SOL    HW220757   5.708   0.488   4.270
 6620SOL     OW20758   1.975   2.556   5.701
 6620SOL    HW120759   2.025   2.643   5.695
 6620SOL    HW220760   1.903   2.565   5.769
 6621SOL     OW20761   3.762   3.179   6.318
 6621SOL    HW120762   3.716   3.264   6.292
 6621SOL    HW220763   3.821   3.196   6.397
 6622SOL     OW20764   5.937   6.471   1.729
 6622SOL    HW120765   5.852   6.427   1.760
 6622SOL    HW220766   5.918   6.527   1.649
 6623SOL     OW20767   3.235   2.955   4.769
 6623SOL    HW120768   3.276   2.882   4.824
 6623SOL    HW220769   3.139   2.934   4.753
 6624SOL     OW20770   0.458   4.802   6.107
 6624SOL    HW120771   0.529   4.871   6.111
 6624SOL    HW220772   0.498   4.711   6.119
 6625SOL     OW20773   5.124   1.377   5.165
 6625SOL    HW120774   5.212   1.336   5.185
 6625SOL    HW220775   5.097   1.356   5.071
 6626SOL     OW20776   4.258   5.121   5.241
 6626SOL    HW120777   4.217   5.137   5.151
 6626SOL    HW220778   4.216   5.182   5.308
 6627SOL     OW20779   2.142   6.519   5.221
 6627SOL    HW120780   2.148   6.582   5.299
 6627SOL    HW220781   2.161   6.425   5.252
 6628SOL     OW20782   5.078   5.004   4.406
 6628SOL    HW120783   5.162   5.008   4.352
 6628SOL    HW220784   5.077   5.078   4.473
 6629SOL     OW20785   4.752   5.859   6.957
 6629SOL    HW120786   4.849   5.872   6.981
 6629SOL    HW220787   4.700   5.939   6.984
 6630SOL     OW20788   4.246   1.520   1.334
 6630SOL    HW120789   4.344   1.509   1.317
 6630SOL    HW220790   4.200   1.543   1.248
 6631SOL     OW20791   2.434   5.211   3.730
 6631SOL    HW120792   2.417   5.166   3.818
 6631SOL    HW220793   2.496   5.288   3.744
 6632SOL     OW20794   6.958   0.236   1.167
 6632SOL    HW120795   6.919   0.252   1.077
 6632SOL    HW220796   6.903   0.168   1.216
 6633SOL     OW20797   1.526   4.539   6.468
 6633SOL    HW120798   1.533   4.594   6.385
 6633SOL    HW220799   1.570   4.588   6.544
 6634SOL     OW20800   5.182   2.076   5.022
 6634SOL    HW120801   5.164   1.996   4.965
 6634SOL    HW220802   5.169   2.160   4.969
 6635SOL     OW20803   4.523   4.931   2.941
 6635SOL    HW120804   4.602   4.914   2.883
 6635SOL    HW220805   4.512   5.029   2.956
 6636SOL     OW20806   4.676   1.623   5.836
 6636SOL    HW120807   4.661   1.686   5.913
 6636SOL    HW220808   4.650   1.530   5.864
 6637SOL     OW20809   1.103   6.876   0.062
 6637SOL    HW120810   1.165   6.952   0.080
 6637SOL    HW220811   1.137   6.794   0.108
 6638SOL     OW20812   2.911   3.741   3.278
 6638SOL    HW120813   2.873   3.767   3.189
 6638SOL    HW220814   2.991   3.683   3.264
 6639SOL     OW20815   5.298   4.908   6.331
 6639SOL    HW120816   5.199   4.917   6.342
 6639SOL    HW220817   5.317   4.872   6.240
 6640SOL     OW20818   0.815   1.662   4.967
 6640SOL    HW120819   0.779   1.711   4.888
 6640SOL    HW220820   0.780   1.705   5.051
 6641SOL     OW20821   2.460   1.476   5.856
 6641SOL    HW120822   2.385   1.419   5.891
 6641SOL    HW220823   2.528   1.418   5.812
 6642SOL     OW20824   1.755   5.786   6.850
 6642SOL    HW120825   1.686   5.843   6.894
 6642SOL    HW220826   1.728   5.768   6.756
 6643SOL     OW20827   6.017   5.486   0.392
 6643SOL    HW120828   6.067   5.557   0.344
 6643SOL    HW220829   6.077   5.408   0.410
 6644SOL     OW20830   2.491   5.686   1.357
 6644SOL    HW120831   2.532   5.633   1.431
 6644SOL    HW220832   2.516   5.783   1.369
 6645SOL     OW20833   6.295   4.386   0.485
 6645SOL    HW120834   6.300   4.459   0.553
 6645SOL    HW220835   6.315   4.424   0.394
 6646SOL     OW20836   3.977   0.722   5.015
 6646SOL    HW120837   4.069   0.759   5.000
 6646SOL    HW220838   3.981   0.646   5.079
 6647SOL     OW20839   5.255   1.391   0.963
 6647SOL    HW120840   5.162   1.360   0.949
 6647SOL    HW220841   5.285   1.367   1.056
 6648SOL     OW20842   3.636   6.451   3.693
 6648SOL    HW120843   3.596   6.529   3.740
 6648SOL    HW220844   3.580   6.370   3.710
 6649SOL     OW20845   5.264   1.170   6.884
 6649SOL    HW120846   5.216   1.115   6.952
 6649SOL    HW220847   5.206   1.247   6.857
 6650SOL     OW20848   3.860   1.223   5.875
 6650SOL    HW120849   3.882   1.313   5.837
 6650SOL    HW220850   3.787   1.232   5.943
 6651SOL     OW20851   2.948   1.239   5.755
 6651SOL    HW120852   2.930   1.174   5.681
 6651SOL    HW220853   3.031   1.291   5.735
 6652SOL     OW20854   0.853   4.587   1.155
 6652SOL    HW120855   0.904   4.653   1.210
 6652SOL    HW220856   0.761   4.575   1.193
 6653SOL     OW20857   3.730   3.537   2.236
 6653SOL    HW120858   3.733   3.630   2.200
 6653SOL    HW220859   3.656   3.529   2.303
 6654SOL     OW20860   1.355   4.972   1.356
 6654SOL    HW120861   1.356   5.025   1.271
 6654SOL    HW220862   1.381   5.032   1.432
 6655SOL     OW20863   1.141   0.578   3.730
 6655SOL    HW120864   1.108   0.672   3.744
 6655SOL    HW220865   1.241   0.580   3.717
 6656SOL     OW20866   5.053   2.234   4.082
 6656SOL    HW120867   4.993   2.285   4.143
 6656SOL    HW220868   5.079   2.147   4.124
 6657SOL     OW20869   6.342   4.917   6.531
 6657SOL    HW120870   6.327   4.823   6.562
 6657SOL    HW220871   6.370   4.917   6.435
 6658SOL     OW20872   6.725   0.580   4.901
 6658SOL    HW120873   6.655   0.548   4.965
 6658SOL    HW220874   6.723   0.680   4.898
 6659SOL     OW20875   1.982   3.283   0.452
 6659SOL    HW120876   1.922   3.230   0.513
 6659SOL    HW220877   1.958   3.263   0.357
 6660SOL     OW20878   1.252   5.362   1.107
 6660SOL    HW120879   1.244   5.263   1.118
 6660SOL    HW220880   1.309   5.382   1.027
 6661SOL     OW20881   1.367   6.614   5.082
 6661SOL    HW120882   1.373   6.711   5.060
 6661SOL    HW220883   1.350   6.603   5.180
 6662SOL     OW20884   1.470   0.006   0.422
 6662SOL    HW120885   1.464   0.086   0.362
 6662SOL    HW220886   1.564   6.989   0.425
 6663SOL     OW20887   6.304   5.331   4.052
 6663SOL    HW120888   6.378   5.268   4.027
 6663SOL    HW220889   6.321   5.420   4.010
 6664SOL     OW20890   2.284   6.274   0.786
 6664SOL    HW120891   2.199   6.282   0.838
 6664SOL    HW220892   2.262   6.249   0.691
 6665SOL     OW20893   2.043   5.817   4.803
 6665SOL    HW120894   1.999   5.754   4.868
 6665SOL    HW220895   2.138   5.788   4.789
 6666SOL     OW20896   6.267   0.056   5.752
 6666SOL    HW120897   6.244   0.064   5.849
 6666SOL    HW220898   6.331   6.997   5.739
 6667SOL     OW20899   6.960   6.518   6.873
 6667SOL    HW120900   6.891   6.450   6.896
 6667SOL    HW220901   0.034   6.485   6.897
 6668SOL     OW20902   7.014   5.103   0.756
 6668SOL    HW120903   7.006   5.074   0.660
 6668SOL    HW220904   6.928   5.083   0.804
 6669SOL     OW20905   1.752   2.496   3.313
 6669SOL    HW120906   1.711   2.541   3.392
 6669SOL    HW220907   1.822   2.555   3.273
 6670SOL     OW20908   3.710   1.284   5.581
 6670SOL    HW120909   3.737   1.270   5.676
 6670SOL    HW220910   3.787   1.261   5.521
 6671SOL     OW20911   5.324   6.510   0.610
 6671SOL    HW120912   5.250   6.575   0.630
 6671SOL    HW220913   5.285   6.426   0.574
 6672SOL     OW20914   6.401   2.398   6.749
 6672SOL    HW120915   6.374   2.494   6.756
 6672SOL    HW220916   6.387   2.353   6.837
 6673SOL     OW20917   4.971   4.684   4.430
 6673SOL    HW120918   5.062   4.648   4.408
 6673SOL    HW220919   4.980   4.764   4.489
 6674SOL     OW20920   0.256   3.739   6.455
 6674SOL    HW120921   0.263   3.787   6.543
 6674SOL    HW220922   0.169   3.762   6.411
 6675SOL     OW20923   5.337   3.700   0.881
 6675SOL    HW120924   5.341   3.717   0.782
 6675SOL    HW220925   5.287   3.615   0.898
 6676SOL     OW20926   0.787   4.001   5.906
 6676SOL    HW120927   0.736   3.915   5.910
 6676SOL    HW220928   0.728   4.074   5.871
 6677SOL     OW20929   1.287   1.665   6.021
 6677SOL    HW120930   1.239   1.695   6.104
 6677SOL    HW220931   1.383   1.689   6.028
 6678SOL     OW20932   3.039   3.243   6.183
 6678SOL    HW120933   3.064   3.175   6.115
 6678SOL    HW220934   2.941   3.262   6.176
 6679SOL     OW20935   3.285   1.288   3.669
 6679SOL    HW120936   3.337   1.335   3.741
 6679SOL    HW220937   3.202   1.249   3.709
 6680SOL     OW20938   5.330   6.645   6.822
 6680SOL    HW120939   5.347   6.730   6.771
 6680SOL    HW220940   5.251   6.658   6.883
 6681SOL     OW20941   3.588   5.966   1.646
 6681SOL    HW120942   3.583   5.952   1.744
 6681SOL    HW220943   3.580   5.879   1.598
 6682SOL     OW20944   0.848   3.975   2.197
 6682SOL    HW120945   0.762   3.933   2.167
 6682SOL    HW220946   0.924   3.916   2.170
 6683SOL     OW20947   6.372   3.179   4.952
 6683SOL    HW120948   6.301   3.160   5.019
 6683SOL    HW220949   6.399   3.093   4.907
 6684SOL     OW20950   2.674   0.090   1.288
 6684SOL    HW120951   2.726   0.166   1.249
 6684SOL    HW220952   2.666   0.102   1.387
 6685SOL     OW20953   6.477   3.149   5.656
 6685SOL    HW120954   6.411   3.076   5.637
 6685SOL    HW220955   6.428   3.234   5.675
 6686SOL     OW20956   5.103   6.419   4.595
 6686SOL    HW120957   5.143   6.458   4.678
 6686SOL    HW220958   5.052   6.336   4.618
 6687SOL     OW20959   1.238   3.427   0.341
 6687SOL    HW120960   1.210   3.520   0.364
 6687SOL    HW220961   1.334   3.414   0.364
 6688SOL     OW20962   6.129   4.817   2.454
 6688SOL    HW120963   6.081   4.885   2.400
 6688SOL    HW220964   6.106   4.828   2.551
 6689SOL     OW20965   4.113   2.847   0.121
 6689SOL    HW120966   4.193   2.790   0.139
 6689SOL    HW220967   4.073   2.879   0.207
 6690SOL     OW20968   1.057   1.166   0.923
 6690SOL    HW120969   1.039   1.110   1.004
 6690SOL    HW220970   1.028   1.260   0.939
 6691SOL     OW20971   2.614   6.200   2.335
 6691SOL    HW120972   2.617   6.212   2.236
 6691SOL    HW220973   2.650   6.110   2.359
 6692SOL     OW20974   3.270   3.175   4.605
 6692SOL    HW120975   3.276   3.153   4.508
 6692SOL    HW220976   3.311   3.102   4.659
 6693SOL     OW20977   4.163   3.242   5.764
 6693SOL    HW120978   4.092   3.175   5.787
 6693SOL    HW220979   4.152   3.271   5.669
 6694SOL     OW20980   3.686   5.752   0.988
 6694SOL    HW120981   3.726   5.822   1.047
 6694SOL    HW220982   3.687   5.784   0.893
 6695SOL     OW20983   2.980   2.135   0.323
 6695SOL    HW120984   3.042   2.189   0.380
 6695SOL    HW220985   3.020   2.044   0.308
 6696SOL     OW20986   3.166   2.809   5.683
 6696SOL    HW120987   3.195   2.714   5.694
 6696SOL    HW220988   3.095   2.814   5.613
 6697SOL     OW20989   4.981   2.294   2.909
 6697SOL    HW120990   4.900   2.239   2.890
 6697SOL    HW220991   5.055   2.235   2.942
 6698SOL     OW20992   2.858   2.622   1.103
 6698SOL    HW120993   2.936   2.663   1.151
 6698SOL    HW220994   2.812   2.692   1.049
 6699SOL     OW20995   2.419   5.861   5.268
 6699SOL    HW120996   2.326   5.881   5.238
 6699SOL    HW220997   2.434   5.900   5.359
 6700SOL     OW20998   0.737   0.031   1.718
 6700SOL    HW120999   0.657   0.091   1.711
 6700SOL    HW221000   0.817   0.085   1.746
 6701SOL     OW21001   5.737   4.372   2.364
 6701SOL    HW121002   5.723   4.469   2.384
 6701SOL    HW221003   5.834   4.353   2.352
 6702SOL     OW21004   3.201   2.177   1.364
 6702SOL    HW121005   3.293   2.202   1.394
 6702SOL    HW221006   3.178   2.087   1.402
 6703SOL     OW21007   6.397   2.252   6.967
 6703SOL    HW121008   6.353   2.217   0.033
 6703SOL    HW221009   6.487   2.210   6.956
 6704SOL     OW21010   3.671   1.494   3.087
 6704SOL    HW121011   3.603   1.547   3.135
 6704SOL    HW221012   3.753   1.484   3.144
 6705SOL     OW21013   0.199   3.316   1.546
 6705SOL    HW121014   0.166   3.401   1.586
 6705SOL    HW221015   0.297   3.307   1.561
 6706SOL     OW21016   2.128   4.882   2.498
 6706SOL    HW121017   2.097   4.800   2.450
 6706SOL    HW221018   2.098   4.963   2.447
 6707SOL     OW21019   6.658   6.344   3.325
 6707SOL    HW121020   6.718   6.287   3.381
 6707SOL    HW221021   6.590   6.287   3.280
 6708SOL     OW21022   6.960   5.333   1.338
 6708SOL    HW121023   0.014   5.339   1.267
 6708SOL    HW221024   6.997   5.287   1.418
 6709SOL     OW21025   2.887   6.333   3.157
 6709SOL    HW121026   2.821   6.286   3.098
 6709SOL    HW221027   2.979   6.326   3.116
 6710SOL     OW21028   3.734   0.266   6.521
 6710SOL    HW121029   3.734   0.334   6.447
 6710SOL    HW221030   3.648   0.271   6.571
 6711SOL     OW21031   4.667   5.446   5.864
 6711SOL    HW121032   4.602   5.427   5.937
 6711SOL    HW221033   4.638   5.401   5.780
 6712SOL     OW21034   5.218   4.127   0.415
 6712SOL    HW121035   5.289   4.056   0.416
 6712SOL    HW221036   5.129   4.084   0.401
 6713SOL     OW21037   2.284   0.484   2.531
 6713SOL    HW121038   2.198   0.534   2.518
 6713SOL    HW221039   2.264   0.392   2.563
 6714SOL     OW21040   6.293   0.719   5.926
 6714SOL    HW121041   6.252   0.743   5.838
 6714SOL    HW221042   6.308   0.620   5.930
 6715SOL     OW21043   0.492   0.387   0.255
 6715SOL    HW121044   0.476   0.457   0.185
 6715SOL    HW221045   0.471   0.297   0.218
 6716SOL     OW21046   0.399   5.854   1.612
 6716SOL    HW121047   0.494   5.878   1.593
 6716SOL    HW221048   0.388   5.755   1.609
 6717SOL     OW21049   4.063   3.007   6.586
 6717SOL    HW121050   4.030   3.094   6.623
 6717SOL    HW221051   4.012   2.932   6.628
 6718SOL     OW21052   5.351   0.568   0.842
 6718SOL    HW121053   5.434   0.526   0.806
 6718SOL    HW221054   5.368   0.602   0.935
 6719SOL     OW21055   2.278   0.043   6.482
 6719SOL    HW121056   2.299   0.140   6.468
 6719SOL    HW221057   2.349   7.004   6.439
 6720SOL     OW21058   1.312   0.185   3.915
 6720SOL    HW121059   1.339   0.271   3.958
 6720SOL    HW221060   1.272   0.124   3.984
 6721SOL     OW21061   0.006   0.375   0.323
 6721SOL    HW121062   0.043   0.293   0.280
 6721SOL    HW221063   6.943   0.350   0.379
 6722SOL     OW21064   6.862   3.144   1.657
 6722SOL    HW121065   6.772   3.104   1.677
 6722SOL    HW221066   6.860   3.242   1.677
 6723SOL     OW21067   2.325   6.055   3.155
 6723SOL    HW121068   2.403   6.095   3.204
 6723SOL    HW221069   2.292   6.120   3.087
 6724SOL     OW21070   1.956   3.258   5.791
 6724SOL    HW121071   1.931   3.174   5.742
 6724SOL    HW221072   2.051   3.280   5.772
 6725SOL     OW21073   0.125   3.174   1.885
 6725SOL    HW121074   0.104   3.110   1.810
 6725SOL    HW221075   0.163   3.258   1.846
 6726SOL     OW21076   0.302   2.179   5.428
 6726SOL    HW121077   0.377   2.115   5.412
 6726SOL    HW221078   0.330   2.271   5.400
 6727SOL     OW21079   0.290   3.827   5.001
 6727SOL    HW121080   0.220   3.818   5.073
 6727SOL    HW221081   0.295   3.923   4.973
 6728SOL     OW21082   3.647   1.836   2.945
 6728SOL    HW121083   3.675   1.905   2.878
 6728SOL    HW221084   3.675   1.865   3.036
 6729SOL     OW21085   6.848   1.550   3.143
 6729SOL    HW121086   6.769   1.582   3.196
 6729SOL    HW221087   6.847   1.593   3.053
 6730SOL     OW21088   2.153   6.781   0.873
 6730SOL    HW121089   2.121   6.707   0.933
 6730SOL    HW221090   2.119   6.868   0.907
 6731SOL     OW21091   0.701   6.253   1.276
 6731SOL    HW121092   0.748   6.186   1.219
 6731SOL    HW221093   0.619   6.285   1.229
 6732SOL     OW21094   5.503   4.596   4.644
 6732SOL    HW121095   5.424   4.543   4.674
 6732SOL    HW221096   5.587   4.542   4.657
 6733SOL     OW21097   4.185   6.010   0.027
 6733SOL    HW121098   4.222   5.960   6.966
 6733SOL    HW221099   4.086   6.022   0.015
 6734SOL     OW21100   6.069   2.282   4.332
 6734SOL    HW121101   6.096   2.220   4.406
 6734SOL    HW221102   6.028   2.230   4.257
 6735SOL     OW21103   0.050   4.169   4.975
 6735SOL    HW121104   0.075   4.266   4.965
 6735SOL    HW221105   0.118   4.112   4.930
 6736SOL     OW21106   2.887   3.536   6.793
 6736SOL    HW121107   2.801   3.585   6.805
 6736SOL    HW221108   2.889   3.455   6.852
 6737SOL     OW21109   1.484   2.512   0.610
 6737SOL    HW121110   1.517   2.526   0.704
 6737SOL    HW221111   1.386   2.492   0.612
 6738SOL     OW21112   1.694   5.814   2.945
 6738SOL    HW121113   1.783   5.815   2.900
 6738SOL    HW221114   1.623   5.844   2.882
 6739SOL     OW21115   3.238   5.974   5.376
 6739SOL    HW121116   3.315   6.019   5.421
 6739SOL    HW221117   3.156   6.030   5.385
 6740SOL     OW21118   1.578   0.204   4.513
 6740SOL    HW121119   1.650   0.135   4.510
 6740SOL    HW221120   1.489   0.160   4.497
 6741SOL     OW21121   4.331   1.520   5.578
 6741SOL    HW121122   4.281   1.606   5.580
 6741SOL    HW221123   4.423   1.533   5.615
 6742SOL     OW21124   6.396   6.259   2.728
 6742SOL    HW121125   6.397   6.176   2.673
 6742SOL    HW221126   6.478   6.262   2.786
 6743SOL     OW21127   3.461   5.588   0.363
 6743SOL    HW121128   3.537   5.642   0.398
 6743SOL    HW221129   3.488   5.546   0.276
 6744SOL     OW21130   5.745   4.208   6.001
 6744SOL    HW121131   5.706   4.295   6.032
 6744SOL    HW221132   5.739   4.202   5.901
 6745SOL     OW21133   6.661   6.918   3.043
 6745SOL    HW121134   6.632   6.865   3.123
 6745SOL    HW221135   6.650   6.862   2.960
 6746SOL     OW21136   0.572   1.336   4.025
 6746SOL    HW121137   0.537   1.260   4.080
 6746SOL    HW221138   0.656   1.308   3.979
 6747SOL     OW21139   5.485   1.110   5.139
 6747SOL    HW121140   5.420   1.154   5.077
 6747SOL    HW221141   5.548   1.179   5.175
 6748SOL     OW21142   2.427   1.063   3.676
 6748SOL    HW121143   2.328   1.071   3.667
 6748SOL    HW221144   2.472   1.140   3.631
 6749SOL     OW21145   2.786   5.907   0.590
 6749SOL    HW121146   2.832   5.820   0.605
 6749SOL    HW221147   2.720   5.898   0.516
 6750SOL     OW21148   4.152   2.162   5.060
 6750SOL    HW121149   4.112   2.130   5.146
 6750SOL    HW221150   4.145   2.262   5.055
 6751SOL     OW21151   4.117   0.228   3.312
 6751SOL    HW121152   4.075   0.315   3.285
 6751SOL    HW221153   4.066   0.188   3.388
 6752SOL     OW21154   0.695   1.749   3.162
 6752SOL    HW121155   0.664   1.672   3.105
 6752SOL    HW221156   0.795   1.754   3.161
 6753SOL     OW21157   3.268   0.613   6.566
 6753SOL    HW121158   3.233   0.608   6.473
 6753SOL    HW221159   3.202   0.572   6.629
 6754SOL     OW21160   0.755   1.650   0.157
 6754SOL    HW121161   0.756   1.750   0.169
 6754SOL    HW221162   0.668   1.623   0.115
 6755SOL     OW21163   4.243   0.586   3.390
 6755SOL    HW121164   4.301   0.574   3.470
 6755SOL    HW221165   4.299   0.593   3.308
 6756SOL     OW21166   3.720   4.780   5.318
 6756SOL    HW121167   3.790   4.846   5.345
 6756SOL    HW221168   3.696   4.723   5.397
 6757SOL     OW21169   4.627   1.521   1.779
 6757SOL    HW121170   4.538   1.551   1.812
 6757SOL    HW221171   4.682   1.600   1.753
 6758SOL     OW21172   6.759   2.142   1.693
 6758SOL    HW121173   6.695   2.219   1.703
 6758SOL    HW221174   6.847   2.177   1.660
 6759SOL     OW21175   0.504   4.317   4.954
 6759SOL    HW121176   0.588   4.286   4.910
 6759SOL    HW221177   0.497   4.417   4.945
 6760SOL     OW21178   6.386   4.230   2.416
 6760SOL    HW121179   6.342   4.281   2.342
 6760SOL    HW221180   6.388   4.287   2.498
 6761SOL     OW21181   6.505   2.379   6.169
 6761SOL    HW121182   6.456   2.316   6.229
 6761SOL    HW221183   6.594   2.402   6.210
 6762SOL     OW21184   0.611   5.852   4.125
 6762SOL    HW121185   0.574   5.768   4.085
 6762SOL    HW221186   0.564   5.871   4.212
 6763SOL     OW21187   0.502   4.906   2.836
 6763SOL    HW121188   0.463   4.862   2.916
 6763SOL    HW221189   0.429   4.944   2.779
 6764SOL     OW21190   1.940   4.652   0.291
 6764SOL    HW121191   1.840   4.642   0.285
 6764SOL    HW221192   1.968   4.737   0.248
 6765SOL     OW21193   5.614   3.783   3.098
 6765SOL    HW121194   5.548   3.853   3.126
 6765SOL    HW221195   5.566   3.698   3.078
 6766SOL     OW21196   5.023   6.295   6.265
 6766SOL    HW121197   5.058   6.385   6.239
 6766SOL    HW221198   5.093   6.226   6.247
 6767SOL     OW21199   1.621   2.328   1.071
 6767SOL    HW121200   1.646   2.235   1.100
 6767SOL    HW221201   1.566   2.323   0.988
 6768SOL     OW21202   1.134   6.564   3.847
 6768SOL    HW121203   1.227   6.553   3.882
 6768SOL    HW221204   1.069   6.547   3.920
 6769SOL     OW21205   2.881   0.346   5.224
 6769SOL    HW121206   2.826   0.374   5.145
 6769SOL    HW221207   2.825   0.348   5.306
 6770SOL     OW21208   4.645   2.008   3.366
 6770SOL    HW121209   4.731   2.055   3.387
 6770SOL    HW221210   4.662   1.911   3.351
 6771SOL     OW21211   4.131   1.110   2.498
 6771SOL    HW121212   4.198   1.125   2.571
 6771SOL    HW221213   4.156   1.028   2.447
 6772SOL     OW21214   4.420   2.407   2.392
 6772SOL    HW121215   4.509   2.367   2.415
 6772SOL    HW221216   4.381   2.451   2.473
 6773SOL     OW21217   0.945   6.404   2.148
 6773SOL    HW121218   0.914   6.353   2.068
 6773SOL    HW221219   0.990   6.488   2.119
 6774SOL     OW21220   1.943   3.604   4.772
 6774SOL    HW121221   1.906   3.511   4.759
 6774SOL    HW221222   2.002   3.606   4.852
 6775SOL     OW21223   1.523   2.744   3.370
 6775SOL    HW121224   1.592   2.708   3.433
 6775SOL    HW221225   1.432   2.719   3.404
 6776SOL     OW21226   4.468   3.485   0.433
 6776SOL    HW121227   4.429   3.541   0.360
 6776SOL    HW221228   4.395   3.436   0.480
 6777SOL     OW21229   4.911   5.046   1.047
 6777SOL    HW121230   4.817   5.049   1.013
 6777SOL    HW221231   4.966   5.116   1.001
 6778SOL     OW21232   6.826   4.746   1.885
 6778SOL    HW121233   6.875   4.819   1.838
 6778SOL    HW221234   6.766   4.786   1.955
 6779SOL     OW21235   5.761   4.771   6.389
 6779SOL    HW121236   5.743   4.777   6.291
 6779SOL    HW221237   5.739   4.859   6.433
 6780SOL     OW21238   1.012   2.852   2.461
 6780SOL    HW121239   1.006   2.880   2.556
 6780SOL    HW221240   0.920   2.851   2.421
 6781SOL     OW21241   6.380   1.360   4.818
 6781SOL    HW121242   6.311   1.292   4.793
 6781SOL    HW221243   6.345   1.452   4.798
 6782SOL     OW21244   0.939   1.220   3.211
 6782SOL    HW121245   1.036   1.208   3.235
 6782SOL    HW221246   0.925   1.313   3.179
 6783SOL     OW21247   0.873   2.115   5.789
 6783SOL    HW121248   0.804   2.183   5.814
 6783SOL    HW221249   0.839   2.024   5.813
 6784SOL     OW21250   2.578   3.733   0.340
 6784SOL    HW121251   2.612   3.760   0.430
 6784SOL    HW221252   2.482   3.759   0.330
 6785SOL     OW21253   6.011   5.147   5.022
 6785SOL    HW121254   6.013   5.242   5.054
 6785SOL    HW221255   6.023   5.145   4.923
 6786SOL     OW21256   0.925   2.712   0.214
 6786SOL    HW121257   0.994   2.775   0.250
 6786SOL    HW221258   0.843   2.716   0.271
 6787SOL     OW21259   3.568   3.465   0.353
 6787SOL    HW121260   3.500   3.470   0.279
 6787SOL    HW221261   3.583   3.556   0.390
 6788SOL     OW21262   0.834   4.708   2.163
 6788SOL    HW121263   0.758   4.652   2.195
 6788SOL    HW221264   0.880   4.751   2.241
 6789SOL     OW21265   0.062   4.727   3.908
 6789SOL    HW121266   0.061   4.740   4.007
 6789SOL    HW221267   0.131   4.659   3.883
 6790SOL     OW21268   0.884   3.234   0.000
 6790SOL    HW121269   0.876   3.206   6.921
 6790SOL    HW221270   0.977   3.215   0.033
 6791SOL     OW21271   3.834   2.108   2.235
 6791SOL    HW121272   3.780   2.152   2.163
 6791SOL    HW221273   3.783   2.109   2.321
 6792SOL     OW21274   5.231   0.080   5.372
 6792SOL    HW121275   5.328   0.052   5.371
 6792SOL    HW221276   5.217   0.144   5.447
 6793SOL     OW21277   2.722   0.930   6.460
 6793SOL    HW121278   2.664   0.995   6.509
 6793SOL    HW221279   2.666   0.855   6.425
 6794SOL     OW21280   5.619   1.342   5.165
 6794SOL    HW121281   5.609   1.387   5.254
 6794SOL    HW221282   5.603   1.409   5.092
 6795SOL     OW21283   1.183   5.992   1.484
 6795SOL    HW121284   1.096   5.950   1.459
 6795SOL    HW221285   1.256   5.952   1.428
 6796SOL     OW21286   6.426   0.835   2.986
 6796SOL    HW121287   6.374   0.755   3.019
 6796SOL    HW221288   6.371   0.918   2.999
 6797SOL     OW21289   0.189   2.224   2.031
 6797SOL    HW121290   0.251   2.286   2.080
 6797SOL    HW221291   0.131   2.278   1.970
 6798SOL     OW21292   6.663   6.507   1.305
 6798SOL    HW121293   6.697   6.548   1.220
 6798SOL    HW221294   6.731   6.443   1.341
 6799SOL     OW21295   6.104   0.818   1.874
 6799SOL    HW121296   6.091   0.780   1.783
 6799SOL    HW221297   6.192   0.866   1.879
 6800SOL     OW21298   2.381   2.604   2.216
 6800SOL    HW121299   2.394   2.648   2.305
 6800SOL    HW221300   2.338   2.669   2.153
 6801SOL     OW21301   1.460   0.570   3.404
 6801SOL    HW121302   1.491   0.655   3.362
 6801SOL    HW221303   1.429   0.588   3.497
 6802SOL     OW21304   3.124   6.000   1.753
 6802SOL    HW121305   3.028   5.972   1.761
 6802SOL    HW221306   3.149   6.004   1.657
 6803SOL     OW21307   4.324   4.103   6.619
 6803SOL    HW121308   4.371   4.188   6.645
 6803SOL    HW221309   4.240   4.094   6.672
 6804SOL     OW21310   3.985   5.283   3.189
 6804SOL    HW121311   3.973   5.223   3.268
 6804SOL    HW221312   3.943   5.241   3.109
 6805SOL     OW21313   0.734   4.305   6.009
 6805SOL    HW121314   0.830   4.330   6.018
 6805SOL    HW221315   0.713   4.284   5.914
 6806SOL     OW21316   6.394   1.476   3.469
 6806SOL    HW121317   6.428   1.383   3.458
 6806SOL    HW221318   6.348   1.484   3.558
 6807SOL     OW21319   3.440   3.113   1.773
 6807SOL    HW121320   3.417   3.031   1.826
 6807SOL    HW221321   3.357   3.167   1.759
 6808SOL     OW21322   6.793   2.017   5.685
 6808SOL    HW121323   6.748   2.018   5.774
 6808SOL    HW221324   6.867   1.950   5.685
 6809SOL     OW21325   6.595   3.487   1.343
 6809SOL    HW121326   6.680   3.441   1.318
 6809SOL    HW221327   6.534   3.489   1.264
 6810SOL     OW21328   3.187   1.367   2.379
 6810SOL    HW121329   3.251   1.340   2.452
 6810SOL    HW221330   3.212   1.457   2.344
 6811SOL     OW21331   6.187   3.658   1.952
 6811SOL    HW121332   6.229   3.746   1.931
 6811SOL    HW221333   6.168   3.652   2.050
 6812SOL     OW21334   3.512   4.216   5.048
 6812SOL    HW121335   3.500   4.122   5.015
 6812SOL    HW221336   3.607   4.229   5.079
 6813SOL     OW21337   5.504   3.279   2.465
 6813SOL    HW121338   5.456   3.220   2.530
 6813SOL    HW221339   5.507   3.234   2.376
 6814SOL     OW21340   4.381   1.858   6.294
 6814SOL    HW121341   4.392   1.901   6.205
 6814SOL    HW221342   4.405   1.761   6.287
 6815SOL     OW21343   2.309   5.930   6.977
 6815SOL    HW121344   2.320   5.971   6.887
 6815SOL    HW221345   2.219   5.952   7.013
 6816SOL     OW21346   6.955   0.779   5.395
 6816SOL    HW121347   6.884   0.778   5.325
 6816SOL    HW221348   0.019   0.827   5.360
 6817SOL     OW21349   2.397   2.691   3.652
 6817SOL    HW121350   2.474   2.651   3.702
 6817SOL    HW221351   2.395   2.654   3.559
 6818SOL     OW21352   1.926   6.141   0.750
 6818SOL    HW121353   1.946   6.224   0.803
 6818SOL    HW221354   1.828   6.120   0.758
 6819SOL     OW21355   4.006   1.314   3.060
 6819SOL    HW121356   3.996   1.405   3.020
 6819SOL    HW221357   3.973   1.245   2.995
 6820SOL     OW21358   1.996   5.879   1.530
 6820SOL    HW121359   1.977   5.908   1.623
 6820SOL    HW221360   2.055   5.947   1.486
 6821SOL     OW21361   4.019   2.470   5.463
 6821SOL    HW121362   4.036   2.525   5.381
 6821SOL    HW221363   3.932   2.421   5.453
 6822SOL     OW21364   5.996   2.142   5.613
 6822SOL    HW121365   6.033   2.160   5.704
 6822SOL    HW221366   5.900   2.170   5.611
 6823SOL     OW21367   5.438   4.043   6.076
 6823SOL    HW121368   5.421   4.140   6.061
 6823SOL    HW221369   5.492   4.007   6.000
 6824SOL     OW21370   1.065   1.473   0.706
 6824SOL    HW121371   1.084   1.497   0.801
 6824SOL    HW221372   0.974   1.507   0.681
 6825SOL     OW21373   5.560   0.263   7.011
 6825SOL    HW121374   5.488   0.332   0.004
 6825SOL    HW221375   5.631   0.297   6.949
 6826SOL     OW21376   1.802   3.534   3.462
 6826SOL    HW121377   1.737   3.469   3.501
 6826SOL    HW221378   1.882   3.485   3.428
 6827SOL     OW21379   5.494   5.103   6.227
 6827SOL    HW121380   5.565   5.049   6.182
 6827SOL    HW221381   5.440   5.044   6.287
 6828SOL     OW21382   3.691   1.500   1.609
 6828SOL    HW121383   3.637   1.450   1.676
 6828SOL    HW221384   3.750   1.566   1.657
 6829SOL     OW21385   5.354   6.049   5.735
 6829SOL    HW121386   5.372   6.132   5.683
 6829SOL    HW221387   5.255   6.037   5.746
 6830SOL     OW21388   5.292   0.572   3.258
 6830SOL    HW121389   5.211   0.604   3.208
 6830SOL    HW221390   5.355   0.526   3.195
 6831SOL     OW21391   1.780   1.296   5.939
 6831SOL    HW121392   1.761   1.351   5.857
 6831SOL    HW221393   1.874   1.262   5.934
 6832SOL     OW21394   2.282   4.014   0.635
 6832SOL    HW121395   2.330   3.927   0.622
 6832SOL    HW221396   2.348   4.085   0.662
 6833SOL     OW21397   2.254   4.913   6.845
 6833SOL    HW121398   2.269   5.004   6.883
 6833SOL    HW221399   2.324   4.850   6.880
 6834SOL     OW21400   6.702   6.901   0.640
 6834SOL    HW121401   6.603   6.905   0.652
 6834SOL    HW221402   6.722   6.887   0.543
 6835SOL     OW21403   3.975   1.179   4.600
 6835SOL    HW121404   3.972   1.237   4.518
 6835SOL    HW221405   4.006   1.233   4.678
 6836SOL     OW21406   3.175   4.812   6.420
 6836SOL    HW121407   3.230   4.888   6.385
 6836SOL    HW221408   3.194   4.799   6.517
 6837SOL     OW21409   0.340   2.537   3.272
 6837SOL    HW121410   0.399   2.461   3.244
 6837SOL    HW221411   0.301   2.581   3.192
 6838SOL     OW21412   3.202   5.826   6.417
 6838SOL    HW121413   3.280   5.778   6.378
 6838SOL    HW221414   3.226   5.860   6.508
 6839SOL     OW21415   5.419   0.969   5.369
 6839SOL    HW121416   5.505   0.970   5.419
 6839SOL    HW221417   5.432   1.012   5.280
 6840SOL     OW21418   3.216   6.889   4.841
 6840SOL    HW121419   3.134   6.941   4.863
 6840SOL    HW221420   3.233   6.820   4.911
 6841SOL     OW21421   3.758   4.748   0.336
 6841SOL    HW121422   3.711   4.661   0.320
 6841SOL    HW221423   3.720   4.793   0.417
 6842SOL     OW21424   2.235   2.879   0.579
 6842SOL    HW121425   2.250   2.960   0.634
 6842SOL    HW221426   2.171   2.900   0.505
 6843SOL     OW21427   5.549   0.073   1.693
 6843SOL    HW121428   5.477   0.137   1.666
 6843SOL    HW221429   5.580   0.094   1.786
 6844SOL     OW21430   5.700   7.011   3.671
 6844SOL    HW121431   5.600   7.014   3.668
 6844SOL    HW221432   5.737   0.083   3.642
 6845SOL     OW21433   5.623   4.773   2.759
 6845SOL    HW121434   5.693   4.714   2.719
 6845SOL    HW221435   5.663   4.826   2.834
 6846SOL     OW21436   4.372   3.370   1.074
 6846SOL    HW121437   4.439   3.416   1.016
 6846SOL    HW221438   4.344   3.284   1.033
 6847SOL     OW21439   6.682   4.910   2.981
 6847SOL    HW121440   6.718   4.916   3.074
 6847SOL    HW221441   6.587   4.941   2.980
 6848SOL     OW21442   3.404   6.696   3.819
 6848SOL    HW121443   3.347   6.619   3.848
 6848SOL    HW221444   3.370   6.780   3.860
 6849SOL     OW21445   3.565   5.485   5.098
 6849SOL    HW121446   3.491   5.549   5.079
 6849SOL    HW221447   3.575   5.421   5.022
 6850SOL     OW21448   5.641   3.527   1.917
 6850SOL    HW121449   5.650   3.431   1.891
 6850SOL    HW221450   5.730   3.572   1.910
 6851SOL     OW21451   0.986   2.901   3.584
 6851SOL    HW121452   1.020   2.952   3.506
 6851SOL    HW221453   0.917   2.835   3.552
 6852SOL     OW21454   1.796   4.910   0.540
 6852SOL    HW121455   1.873   4.866   0.587
 6852SOL    HW221456   1.731   4.944   0.608
 6853SOL     OW21457   6.669   4.008   6.974
 6853SOL    HW121458   6.732   3.948   6.924
 6853SOL    HW221459   6.578   4.002   6.933
 6854SOL     OW21460   4.813   1.901   5.780
 6854SOL    HW121461   4.783   1.845   5.857
 6854SOL    HW221462   4.752   1.886   5.702
 6855SOL     OW21463   3.103   5.664   3.261
 6855SOL    HW121464   3.146   5.663   3.171
 6855SOL    HW221465   3.093   5.570   3.294
 6856SOL     OW21466   4.614   4.264   5.297
 6856SOL    HW121467   4.673   4.333   5.255
 6856SOL    HW221468   4.643   4.173   5.267
 6857SOL     OW21469   2.859   2.485   0.199
 6857SOL    HW121470   2.891   2.397   0.163
 6857SOL    HW221471   2.805   2.471   0.282
 6858SOL     OW21472   3.806   3.550   4.229
 6858SOL    HW121473   3.884   3.596   4.271
 6858SOL    HW221474   3.727   3.611   4.231
 6859SOL     OW21475   0.813   0.723   0.785
 6859SOL    HW121476   0.729   0.724   0.731
 6859SOL    HW221477   0.851   0.816   0.787
 6860SOL     OW21478   6.008   5.067   0.889
 6860SOL    HW121479   6.052   5.106   0.809
 6860SOL    HW221480   6.057   5.096   0.971
 6861SOL     OW21481   5.557   3.918   0.958
 6861SOL    HW121482   5.595   3.955   0.873
 6861SOL    HW221483   5.471   3.872   0.939
 6862SOL     OW21484   1.860   4.651   5.584
 6862SOL    HW121485   1.960   4.640   5.585
 6862SOL    HW221486   1.826   4.640   5.491
 6863SOL     OW21487   5.818   1.040   5.760
 6863SOL    HW121488   5.769   0.997   5.835
 6863SOL    HW221489   5.916   1.019   5.768
 6864SOL     OW21490   3.090   5.657   4.074
 6864SOL    HW121491   3.011   5.687   4.128
 6864SOL    HW221492   3.099   5.558   4.080
 6865SOL     OW21493   0.344   5.759   2.951
 6865SOL    HW121494   0.308   5.829   3.014
 6865SOL    HW221495   0.293   5.762   2.866
 6866SOL     OW21496   6.248   4.889   2.717
 6866SOL    HW121497   6.312   4.824   2.676
 6866SOL    HW221498   6.228   4.861   2.811
 6867SOL     OW21499   1.903   4.597   1.654
 6867SOL    HW121500   1.915   4.555   1.743
 6867SOL    HW221501   1.982   4.577   1.596
 6868SOL     OW21502   0.926   5.471   6.223
 6868SOL    HW121503   0.892   5.536   6.156
 6868SOL    HW221504   1.012   5.431   6.191
 6869SOL     OW21505   5.115   0.299   4.932
 6869SOL    HW121506   5.037   0.297   4.869
 6869SOL    HW221507   5.087   0.264   5.021
 6870SOL     OW21508   6.943   4.784   2.259
 6870SOL    HW121509   7.004   4.849   2.213
 6870SOL    HW221510   6.956   4.693   2.219
 6871SOL     OW21511   6.179   4.722   2.986
 6871SOL    HW121512   6.248   4.723   3.058
 6871SOL    HW221513   6.114   4.647   3.003
 6872SOL     OW21514   0.581   3.135   1.185
 6872SOL    HW121515   0.521   3.095   1.254
 6872SOL    HW221516   0.526   3.181   1.116
 6873SOL     OW21517   0.037   3.806   5.105
 6873SOL    HW121518   6.958   3.834   5.111
 6873SOL    HW221519   0.044   3.720   5.055
 6874SOL     OW21520   0.769   5.925   2.204
 6874SOL    HW121521   0.841   5.889   2.145
 6874SOL    HW221522   0.682   5.883   2.180
 6875SOL     OW21523   1.454   2.449   3.428
 6875SOL    HW121524   1.477   2.374   3.490
 6875SOL    HW221525   1.408   2.522   3.478
 6876SOL     OW21526   3.852   6.308   3.821
 6876SOL    HW121527   3.829   6.310   3.918
 6876SOL    HW221528   3.780   6.353   3.768
 6877SOL     OW21529   2.744   3.518   0.506
 6877SOL    HW121530   2.805   3.439   0.498
 6877SOL    HW221531   2.743   3.568   0.419
 6878SOL     OW21532   2.983   1.734   5.676
 6878SOL    HW121533   3.067   1.777   5.708
 6878SOL    HW221534   3.005   1.645   5.635
 6879SOL     OW21535   1.126   2.326   0.104
 6879SOL    HW121536   1.033   2.340   0.138
 6879SOL    HW221537   1.189   2.387   0.153
 6880SOL     OW21538   2.192   4.168   5.293
 6880SOL    HW121539   2.262   4.114   5.245
 6880SOL    HW221540   2.208   4.265   5.277
 6881SOL     OW21541   1.123   3.639   1.523
 6881SOL    HW121542   1.136   3.615   1.426
 6881SOL    HW221543   1.107   3.556   1.576
 6882SOL     OW21544   3.128   0.541   6.979
 6882SOL    HW121545   3.104   0.638   6.981
 6882SOL    HW221546   3.065   0.489   0.020
 6883SOL     OW21547   4.081   1.511   0.566
 6883SOL    HW121548   4.040   1.590   0.611
 6883SOL    HW221549   4.021   1.432   0.579
 6884SOL     OW21550   1.859   3.948   4.341
 6884SOL    HW121551   1.863   4.018   4.269
 6884SOL    HW221552   1.929   3.967   4.410
 6885SOL     OW21553   3.677   6.016   4.365
 6885SOL    HW121554   3.622   5.960   4.303
 6885SOL    HW221555   3.629   6.102   4.384
 6886SOL     OW21556   6.798   0.756   3.957
 6886SOL    HW121557   6.784   0.685   4.027
 6886SOL    HW221558   6.761   0.724   3.870
 6887SOL     OW21559   5.114   6.218   5.490
 6887SOL    HW121560   5.071   6.301   5.456
 6887SOL    HW221561   5.044   6.149   5.508
 6888SOL     OW21562   5.241   6.126   6.208
 6888SOL    HW121563   5.299   6.192   6.161
 6888SOL    HW221564   5.212   6.055   6.144
 6889SOL     OW21565   2.151   2.052   4.814
 6889SOL    HW121566   2.208   2.038   4.733
 6889SOL    HW221567   2.159   2.147   4.844
 6890SOL     OW21568   4.264   6.344   1.553
 6890SOL    HW121569   4.291   6.428   1.507
 6890SOL    HW221570   4.325   6.326   1.630
 6891SOL     OW21571   1.846   4.769   3.884
 6891SOL    HW121572   1.788   4.811   3.954
 6891SOL    HW221573   1.892   4.689   3.923
 6892SOL     OW21574   3.350   2.093   3.559
 6892SOL    HW121575   3.336   1.997   3.583
 6892SOL    HW221576   3.268   2.145   3.581
 6893SOL     OW21577   4.450   4.344   6.697
 6893SOL    HW121578   4.496   4.425   6.660
 6893SOL    HW221579   4.513   4.295   6.757
 6894SOL     OW21580   6.223   4.738   0.035
 6894SOL    HW121581   6.181   4.826   0.013
 6894SOL    HW221582   6.274   4.705   6.972
 6895SOL     OW21583   2.820   5.968   6.856
 6895SOL    HW121584   2.800   6.052   6.806
 6895SOL    HW221585   2.917   5.945   6.846
 6896SOL     OW21586   1.563   0.197   3.490
 6896SOL    HW121587   1.614   0.185   3.405
 6896SOL    HW221588   1.619   0.249   3.555
 6897SOL     OW21589   3.141   3.471   6.316
 6897SOL    HW121590   3.213   3.465   6.384
 6897SOL    HW221591   3.113   3.379   6.289
 6898SOL     OW21592   4.168   1.555   2.176
 6898SOL    HW121593   4.118   1.629   2.131
 6898SOL    HW221594   4.235   1.517   2.112
 6899SOL     OW21595   5.975   6.961   1.195
 6899SOL    HW121596   5.892   6.953   1.139
 6899SOL    HW221597   5.980   0.035   1.234
 6900SOL     OW21598   6.767   6.636   5.671
 6900SOL    HW121599   6.809   6.723   5.645
 6900SOL    HW221600   6.686   6.654   5.728
 6901SOL     OW21601   0.399   6.783   6.288
 6901SOL    HW121602   0.447   6.819   6.208
 6901SOL    HW221603   0.382   6.685   6.275
 6902SOL     OW21604   5.904   6.078   6.865
 6902SOL    HW121605   5.966   6.099   6.941
 6902SOL    HW221606   5.925   6.137   6.787
 6903SOL     OW21607   3.732   5.770   4.497
 6903SOL    HW121608   3.790   5.756   4.577
 6903SOL    HW221609   3.732   5.867   4.472
 6904SOL     OW21610   6.254   1.258   4.521
 6904SOL    HW121611   6.324   1.203   4.475
 6904SOL    HW221612   6.193   1.198   4.573
 6905SOL     OW21613   5.962   6.222   6.627
 6905SOL    HW121614   5.959   6.206   6.529
 6905SOL    HW221615   6.046   6.272   6.650
 6906SOL     OW21616   4.882   1.274   4.049
 6906SOL    HW121617   4.856   1.319   4.134
 6906SOL    HW221618   4.836   1.320   3.972
 6907SOL     OW21619   5.100   2.618   1.172
 6907SOL    HW121620   5.183   2.587   1.217
 6907SOL    HW221621   5.022   2.603   1.232
 6908SOL     OW21622   0.770   6.035   6.426
 6908SOL    HW121623   0.689   6.065   6.477
 6908SOL    HW221624   0.789   5.939   6.447
 6909SOL     OW21625   6.533   4.569   1.459
 6909SOL    HW121626   6.568   4.537   1.370
 6909SOL    HW221627   6.433   4.568   1.457
 6910SOL     OW21628   6.799   3.194   3.495
 6910SOL    HW121629   6.726   3.223   3.556
 6910SOL    HW221630   6.789   3.097   3.475
 6911SOL     OW21631   4.307   6.116   3.398
 6911SOL    HW121632   4.221   6.162   3.419
 6911SOL    HW221633   4.337   6.064   3.478
 6912SOL     OW21634   3.097   5.202   0.583
 6912SOL    HW121635   3.032   5.279   0.584
 6912SOL    HW221636   3.183   5.231   0.625
 6913SOL     OW21637   4.499   4.877   4.915
 6913SOL    HW121638   4.579   4.819   4.926
 6913SOL    HW221639   4.506   4.929   4.830
 6914SOL     OW21640   5.814   4.197   5.722
 6914SOL    HW121641   5.739   4.140   5.689
 6914SOL    HW221642   5.899   4.170   5.677
 6915SOL     OW21643   6.055   3.843   1.583
 6915SOL    HW121644   5.965   3.801   1.568
 6915SOL    HW221645   6.127   3.779   1.556
 6916SOL     OW21646   6.538   3.337   6.926
 6916SOL    HW121647   6.518   3.270   6.997
 6916SOL    HW221648   6.637   3.344   6.913
 6917SOL     OW21649   2.899   6.186   1.131
 6917SOL    HW121650   2.842   6.236   1.197
 6917SOL    HW221651   2.992   6.223   1.134
 6918SOL     OW21652   6.835   3.250   4.470
 6918SOL    HW121653   6.857   3.308   4.548
 6918SOL    HW221654   6.917   3.201   4.440
 6919SOL     OW21655   0.368   6.370   2.189
 6919SOL    HW121656   0.436   6.313   2.143
 6919SOL    HW221657   0.305   6.409   2.121
 6920SOL     OW21658   5.019   5.042   5.660
 6920SOL    HW121659   5.118   5.039   5.675
 6920SOL    HW221660   4.982   4.949   5.663
 6921SOL     OW21661   5.338   6.145   3.412
 6921SOL    HW121662   5.337   6.182   3.505
 6921SOL    HW221663   5.430   6.114   3.390
 6922SOL     OW21664   2.007   5.764   6.436
 6922SOL    HW121665   2.102   5.766   6.466
 6922SOL    HW221666   1.953   5.708   6.499
 6923SOL     OW21667   4.691   5.618   3.553
 6923SOL    HW121668   4.740   5.702   3.527
 6923SOL    HW221669   4.631   5.590   3.479
 6924SOL     OW21670   1.909   3.651   6.674
 6924SOL    HW121671   1.809   3.640   6.674
 6924SOL    HW221672   1.952   3.561   6.679
 6925SOL     OW21673   4.260   6.189   5.045
 6925SOL    HW121674   4.210   6.181   4.959
 6925SOL    HW221675   4.269   6.098   5.087
 6926SOL     OW21676   3.458   3.012   1.427
 6926SOL    HW121677   3.401   2.937   1.394
 6926SOL    HW221678   3.524   3.038   1.356
 6927SOL     OW21679   5.402   2.942   6.164
 6927SOL    HW121680   5.312   2.978   6.140
 6927SOL    HW221681   5.401   2.842   6.154
 6928SOL     OW21682   6.306   5.792   0.810
 6928SOL    HW121683   6.343   5.752   0.894
 6928SOL    HW221684   6.337   5.887   0.802
 6929SOL     OW21685   5.618   5.094   0.915
 6929SOL    HW121686   5.671   5.069   0.996
 6929SOL    HW221687   5.545   5.157   0.941
 6930SOL     OW21688   0.576   6.569   2.198
 6930SOL    HW121689   0.662   6.535   2.161
 6930SOL    HW221690   0.507   6.496   2.197
 6931SOL     OW21691   2.005   0.547   2.170
 6931SOL    HW121692   2.007   0.511   2.264
 6931SOL    HW221693   2.006   0.647   2.174
 6932SOL     OW21694   3.692   0.070   0.703
 6932SOL    HW121695   3.673   0.020   0.788
 6932SOL    HW221696   3.783   0.112   0.709
 6933SOL     OW21697   3.023   6.597   4.907
 6933SOL    HW121698   2.993   6.503   4.892
 6933SOL    HW221699   3.022   6.647   4.820
 6934SOL     OW21700   4.874   3.374   6.096
 6934SOL    HW121701   4.867   3.417   6.006
 6934SOL    HW221702   4.804   3.411   6.157
 6935SOL     OW21703   3.732   5.133   3.016
 6935SOL    HW121704   3.810   5.103   2.960
 6935SOL    HW221705   3.651   5.079   2.992
 6936SOL     OW21706   6.271   2.395   4.204
 6936SOL    HW121707   6.242   2.421   4.112
 6936SOL    HW221708   6.191   2.379   4.262
 6937SOL     OW21709   0.007   6.488   0.233
 6937SOL    HW121710   0.022   6.395   0.199
 6937SOL    HW221711   0.063   6.504   0.314
 6938SOL     OW21712   5.193   3.543   5.522
 6938SOL    HW121713   5.252   3.522   5.600
 6938SOL    HW221714   5.103   3.572   5.556
 6939SOL     OW21715   0.816   4.344   2.059
 6939SOL    HW121716   0.735   4.293   2.086
 6939SOL    HW221717   0.871   4.363   2.140
 6940SOL     OW21718   4.464   0.604   0.291
 6940SOL    HW121719   4.529   0.532   0.318
 6940SOL    HW221720   4.411   0.633   0.372
 6941SOL     OW21721   3.395   3.168   2.444
 6941SOL    HW121722   3.330   3.190   2.371
 6941SOL    HW221723   3.478   3.129   2.403
 6942SOL     OW21724   5.476   1.849   1.425
 6942SOL    HW121725   5.499   1.756   1.453
 6942SOL    HW221726   5.542   1.913   1.464
 6943SOL     OW21727   4.331   5.999   6.758
 6943SOL    HW121728   4.347   5.900   6.761
 6943SOL    HW221729   4.234   6.017   6.739
 6944SOL     OW21730   0.905   3.254   6.456
 6944SOL    HW121731   0.906   3.230   6.553
 6944SOL    HW221732   0.951   3.341   6.442
 6945SOL     OW21733   6.590   2.763   6.213
 6945SOL    HW121734   6.531   2.730   6.288
 6945SOL    HW221735   6.542   2.833   6.161
 6946SOL     OW21736   6.129   6.414   1.252
 6946SOL    HW121737   6.052   6.422   1.189
 6946SOL    HW221738   6.201   6.478   1.226
 6947SOL     OW21739   3.764   6.204   6.521
 6947SOL    HW121740   3.760   6.263   6.602
 6947SOL    HW221741   3.789   6.259   6.441
 6948SOL     OW21742   6.918   0.583   6.777
 6948SOL    HW121743   6.940   0.504   6.833
 6948SOL    HW221744   6.866   0.554   6.696
 6949SOL     OW21745   5.051   6.642   3.086
 6949SOL    HW121746   4.997   6.725   3.071
 6949SOL    HW221747   5.145   6.657   3.055
 6950SOL     OW21748   2.683   1.319   4.540
 6950SOL    HW121749   2.672   1.318   4.639
 6950SOL    HW221750   2.593   1.319   4.496
 6951SOL     OW21751   6.683   5.785   5.555
 6951SOL    HW121752   6.777   5.756   5.537
 6951SOL    HW221753   6.625   5.757   5.479
 6952SOL     OW21754   0.252   6.033   3.718
 6952SOL    HW121755   0.251   5.976   3.636
 6952SOL    HW221756   0.325   6.001   3.779
 6953SOL     OW21757   4.879   6.192   0.462
 6953SOL    HW121758   4.954   6.211   0.399
 6953SOL    HW221759   4.917   6.169   0.552
 6954SOL     OW21760   0.187   3.589   3.731
 6954SOL    HW121761   0.201   3.595   3.830
 6954SOL    HW221762   0.120   3.518   3.711
 6955SOL     OW21763   6.610   0.865   1.810
 6955SOL    HW121764   6.663   0.903   1.885
 6955SOL    HW221765   6.579   0.773   1.833
 6956SOL     OW21766   4.764   6.544   3.201
 6956SOL    HW121767   4.673   6.527   3.241
 6956SOL    HW221768   4.832   6.542   3.274
 6957SOL     OW21769   6.198   4.876   0.991
 6957SOL    HW121770   6.135   4.911   0.922
 6957SOL    HW221771   6.287   4.921   0.980
 6958SOL     OW21772   2.903   3.601   4.455
 6958SOL    HW121773   2.884   3.612   4.553
 6958SOL    HW221774   2.926   3.506   4.437
 6959SOL     OW21775   1.932   1.502   4.666
 6959SOL    HW121776   1.981   1.564   4.727
 6959SOL    HW221777   1.858   1.551   4.620
 6960SOL     OW21778   2.084   5.747   1.920
 6960SOL    HW121779   2.049   5.718   2.009
 6960SOL    HW221780   2.043   5.691   1.848
 6961SOL     OW21781   5.745   2.132   4.358
 6961SOL    HW121782   5.670   2.159   4.418
 6961SOL    HW221783   5.815   2.084   4.412
 6962SOL     OW21784   5.158   5.914   2.008
 6962SOL    HW121785   5.121   6.007   2.003
 6962SOL    HW221786   5.243   5.910   1.955
 6963SOL     OW21787   6.005   5.996   1.513
 6963SOL    HW121788   5.980   6.092   1.506
 6963SOL    HW221789   6.058   5.981   1.596
 6964SOL     OW21790   3.589   0.183   4.921
 6964SOL    HW121791   3.609   0.280   4.935
 6964SOL    HW221792   3.663   0.128   4.958
 6965SOL     OW21793   0.596   3.636   0.903
 6965SOL    HW121794   0.524   3.663   0.839
 6965SOL    HW221795   0.555   3.600   0.986
 6966SOL     OW21796   0.113   2.352   3.063
 6966SOL    HW121797   0.161   2.297   2.995
 6966SOL    HW221798   0.145   2.447   3.058
 6967SOL     OW21799   1.848   6.741   4.865
 6967SOL    HW121800   1.759   6.786   4.872
 6967SOL    HW221801   1.879   6.743   4.769
 6968SOL     OW21802   4.305   6.269   2.657
 6968SOL    HW121803   4.331   6.198   2.722
 6968SOL    HW221804   4.255   6.341   2.704
 6969SOL     OW21805   2.740   2.485   1.302
 6969SOL    HW121806   2.790   2.547   1.243
 6969SOL    HW221807   2.793   2.401   1.315
 6970SOL     OW21808   3.101   4.523   6.334
 6970SOL    HW121809   3.060   4.503   6.423
 6970SOL    HW221810   3.140   4.615   6.335
 6971SOL     OW21811   6.202   4.657   1.866
 6971SOL    HW121812   6.129   4.612   1.815
 6971SOL    HW221813   6.166   4.738   1.912
 6972SOL     OW21814   4.912   4.390   3.217
 6972SOL    HW121815   4.830   4.338   3.193
 6972SOL    HW221816   4.897   4.437   3.304
 6973SOL     OW21817   0.195   3.438   4.512
 6973SOL    HW121818   0.274   3.377   4.497
 6973SOL    HW221819   0.129   3.392   4.571
 6974SOL     OW21820   3.190   3.510   2.715
 6974SOL    HW121821   3.239   3.553   2.790
 6974SOL    HW221822   3.094   3.499   2.741
 6975SOL     OW21823   2.091   6.422   6.605
 6975SOL    HW121824   2.163   6.366   6.565
 6975SOL    HW221825   2.105   6.430   6.703
 6976SOL     OW21826   4.525   6.251   4.957
 6976SOL    HW121827   4.589   6.176   4.970
 6976SOL    HW221828   4.436   6.227   4.995
 6977SOL     OW21829   4.319   2.538   1.185
 6977SOL    HW121830   4.347   2.443   1.200
 6977SOL    HW221831   4.392   2.599   1.216
 6978SOL     OW21832   4.058   1.138   2.798
 6978SOL    HW121833   4.069   1.238   2.798
 6978SOL    HW221834   3.961   1.115   2.798
 6979SOL     OW21835   1.439   4.390   1.267
 6979SOL    HW121836   1.438   4.299   1.227
 6979SOL    HW221837   1.345   4.418   1.290
 6980SOL     OW21838   1.574   1.131   3.802
 6980SOL    HW121839   1.647   1.161   3.863
 6980SOL    HW221840   1.613   1.089   3.720
 6981SOL     OW21841   3.936   2.585   5.743
 6981SOL    HW121842   3.981   2.575   5.654
 6981SOL    HW221843   3.839   2.561   5.734
 6982SOL     OW21844   1.663   0.465   4.474
 6982SOL    HW121845   1.622   0.532   4.536
 6982SOL    HW221846   1.619   0.376   4.487
 6983SOL     OW21847   4.083   2.201   3.859
 6983SOL    HW121848   4.081   2.211   3.959
 6983SOL    HW221849   4.160   2.254   3.822
 6984SOL     OW21850   2.307   1.783   3.456
 6984SOL    HW121851   2.383   1.766   3.394
 6984SOL    HW221852   2.343   1.810   3.546
 6985SOL     OW21853   4.295   5.059   1.550
 6985SOL    HW121854   4.361   5.035   1.479
 6985SOL    HW221855   4.278   5.158   1.548
 6986SOL     OW21856   1.677   6.877   6.725
 6986SOL    HW121857   1.607   6.948   6.723
 6986SOL    HW221858   1.659   6.809   6.654
 6987SOL     OW21859   6.932   1.249   6.010
 6987SOL    HW121860   6.872   1.169   6.007
 6987SOL    HW221861   6.914   1.301   6.093
 6988SOL     OW21862   0.443   0.388   5.481
 6988SOL    HW121863   0.455   0.413   5.577
 6988SOL    HW221864   0.470   0.465   5.423
 6989SOL     OW21865   0.856   4.394   2.499
 6989SOL    HW121866   0.760   4.413   2.520
 6989SOL    HW221867   0.861   4.332   2.420
 6990SOL     OW21868   4.874   2.835   1.118
 6990SOL    HW121869   4.972   2.816   1.129
 6990SOL    HW221870   4.849   2.913   1.174
 6991SOL     OW21871   3.133   5.008   3.851
 6991SOL    HW121872   3.077   5.085   3.820
 6991SOL    HW221873   3.099   4.976   3.940
 6992SOL     OW21874   5.186   5.908   6.039
 6992SOL    HW121875   5.127   5.877   5.964
 6992SOL    HW221876   5.282   5.898   6.012
 6993SOL     OW21877   6.015   0.666   3.006
 6993SOL    HW121878   6.046   0.739   2.946
 6993SOL    HW221879   6.080   0.590   3.004
 6994SOL     OW21880   0.314   2.292   4.504
 6994SOL    HW121881   0.289   2.261   4.412
 6994SOL    HW221882   0.355   2.383   4.498
 6995SOL     OW21883   6.872   4.630   5.911
 6995SOL    HW121884   6.791   4.653   5.964
 6995SOL    HW221885   6.946   4.604   5.973
 6996SOL     OW21886   1.447   0.033   6.765
 6996SOL    HW121887   1.480   0.065   6.855
 6996SOL    HW221888   1.424   0.112   6.708
 6997SOL     OW21889   6.666   5.885   5.089
 6997SOL    HW121890   6.659   5.925   4.998
 6997SOL    HW221891   6.717   5.799   5.084
 6998SOL     OW21892   1.665   1.463   1.629
 6998SOL    HW121893   1.757   1.441   1.662
 6998SOL    HW221894   1.616   1.515   1.699
 6999SOL     OW21895   2.634   2.661   5.832
 6999SOL    HW121896   2.633   2.575   5.882
 6999SOL    HW221897   2.631   2.737   5.896
 7000SOL     OW21898   5.852   6.244   1.533
 7000SOL    HW121899   5.828   6.246   1.436
 7000SOL    HW221900   5.918   6.317   1.552
 7001SOL     OW21901   1.556   2.647   5.257
 7001SOL    HW121902   1.611   2.626   5.176
 7001SOL    HW221903   1.577   2.580   5.329
 7002SOL     OW21904   2.229   5.409   3.635
 7002SOL    HW121905   2.231   5.497   3.588
 7002SOL    HW221906   2.319   5.389   3.673
 7003SOL     OW21907   3.668   5.152   0.139
 7003SOL    HW121908   3.736   5.078   0.139
 7003SOL    HW221909   3.626   5.159   0.230
 7004SOL     OW21910   1.007   4.852   2.337
 7004SOL    HW121911   1.039   4.808   2.421
 7004SOL    HW221912   1.083   4.864   2.274
 7005SOL     OW21913   1.757   0.346   0.493
 7005SOL    HW121914   1.729   0.323   0.400
 7005SOL    HW221915   1.748   0.265   0.551
 7006SOL     OW21916   4.842   4.767   3.950
 7006SOL    HW121917   4.743   4.765   3.935
 7006SOL    HW221918   4.863   4.718   4.035
 7007SOL     OW21919   5.056   0.078   3.232
 7007SOL    HW121920   5.013   0.129   3.306
 7007SOL    HW221921   5.094   7.009   3.269
 7008SOL     OW21922   0.755   4.129   4.698
 7008SOL    HW121923   0.804   4.046   4.671
 7008SOL    HW221924   0.792   4.163   4.785
 7009SOL     OW21925   6.045   6.267   1.950
 7009SOL    HW121926   6.084   6.350   1.910
 7009SOL    HW221927   6.101   6.239   2.028
 7010SOL     OW21928   4.904   4.629   4.178
 7010SOL    HW121929   4.918   4.531   4.182
 7010SOL    HW221930   4.917   4.669   4.269
 7011SOL     OW21931   3.767   6.786   6.850
 7011SOL    HW121932   3.758   6.824   6.757
 7011SOL    HW221933   3.860   6.802   6.883
 7012SOL     OW21934   1.503   2.440   1.630
 7012SOL    HW121935   1.589   2.434   1.680
 7012SOL    HW221936   1.446   2.513   1.669
 7013SOL     OW21937   0.685   0.345   0.950
 7013SOL    HW121938   0.744   0.264   0.957
 7013SOL    HW221939   0.599   0.328   0.997
 7014SOL     OW21940   4.284   3.508   1.332
 7014SOL    HW121941   4.261   3.602   1.307
 7014SOL    HW221942   4.300   3.454   1.250
 7015SOL     OW21943   5.847   4.819   2.119
 7015SOL    HW121944   5.891   4.899   2.160
 7015SOL    HW221945   5.753   4.812   2.153
 7016SOL     OW21946   3.552   4.774   1.365
 7016SOL    HW121947   3.581   4.835   1.291
 7016SOL    HW221948   3.464   4.733   1.343
 7017SOL     OW21949   2.399   5.327   2.462
 7017SOL    HW121950   2.363   5.240   2.495
 7017SOL    HW221951   2.499   5.320   2.451
 7018SOL     OW21952   5.546   3.994   4.560
 7018SOL    HW121953   5.638   4.029   4.577
 7018SOL    HW221954   5.543   3.952   4.469
 7019SOL     OW21955   3.024   4.114   0.377
 7019SOL    HW121956   3.002   4.090   0.282
 7019SOL    HW221957   2.956   4.073   0.438
 7020SOL     OW21958   6.340   5.805   6.500
 7020SOL    HW121959   6.345   5.842   6.593
 7020SOL    HW221960   6.277   5.859   6.445
 7021SOL     OW21961   1.479   1.177   5.984
 7021SOL    HW121962   1.578   1.171   5.982
 7021SOL    HW221963   1.449   1.264   5.946
 7022SOL     OW21964   4.648   6.446   6.287
 7022SOL    HW121965   4.685   6.396   6.208
 7022SOL    HW221966   4.651   6.544   6.269
 7023SOL     OW21967   0.405   1.508   4.297
 7023SOL    HW121968   0.432   1.573   4.227
 7023SOL    HW221969   0.482   1.490   4.357
 7024SOL     OW21970   2.501   4.027   5.439
 7024SOL    HW121971   2.438   4.051   5.365
 7024SOL    HW221972   2.588   3.997   5.400
 7025SOL     OW21973   2.531   1.518   0.198
 7025SOL    HW121974   2.628   1.499   0.186
 7025SOL    HW221975   2.477   1.449   0.151
 7026SOL     OW21976   3.491   2.048   1.857
 7026SOL    HW121977   3.543   2.134   1.855
 7026SOL    HW221978   3.538   1.980   1.800
 7027SOL     OW21979   2.601   5.123   4.367
 7027SOL    HW121980   2.581   5.091   4.274
 7027SOL    HW221981   2.559   5.061   4.433
 7028SOL     OW21982   4.100   0.542   4.154
 7028SOL    HW121983   4.068   0.543   4.059
 7028SOL    HW221984   4.138   0.632   4.177
 7029SOL     OW21985   5.017   4.905   5.259
 7029SOL    HW121986   5.010   4.925   5.161
 7029SOL    HW221987   5.113   4.887   5.282
 7030SOL     OW21988   1.574   1.213   5.464
 7030SOL    HW121989   1.668   1.236   5.489
 7030SOL    HW221990   1.574   1.125   5.417
 7031SOL     OW21991   2.548   5.966   4.999
 7031SOL    HW121992   2.561   6.042   4.935
 7031SOL    HW221993   2.475   5.989   5.064
 7032SOL     OW21994   3.471   0.846   3.195
 7032SOL    HW121995   3.561   0.815   3.225
 7032SOL    HW221996   3.464   0.945   3.205
 7033SOL     OW21997   1.407   2.700   3.867
 7033SOL    HW121998   1.503   2.722   3.847
 7033SOL    HW221999   1.347   2.768   3.826
 7034SOL     OW22000   6.154   0.436   3.633
 7034SOL    HW122001   6.058   0.410   3.644
 7034SOL    HW222002   6.199   0.372   3.569
 7035SOL     OW22003   1.841   6.949   1.250
 7035SOL    HW122004   1.809   6.878   1.313
 7035SOL    HW222005   1.918   6.998   1.290
 7036SOL     OW22006   0.458   0.790   2.720
 7036SOL    HW122007   0.534   0.855   2.712
 7036SOL    HW222008   0.393   0.806   2.646
 7037SOL     OW22009   1.998   1.501   6.591
 7037SOL    HW122010   2.091   1.471   6.570
 7037SOL    HW222011   1.999   1.560   6.672
 7038SOL     OW22012   2.506   3.367   5.350
 7038SOL    HW122013   2.556   3.453   5.338
 7038SOL    HW222014   2.566   3.300   5.395
 7039SOL     OW22015   2.879   5.089   1.554
 7039SOL    HW122016   2.809   5.043   1.500
 7039SOL    HW222017   2.934   5.020   1.603
 7040SOL     OW22018   6.367   1.625   4.749
 7040SOL    HW122019   6.461   1.648   4.774
 7040SOL    HW222020   6.304   1.690   4.791
 7041SOL     OW22021   6.719   1.864   1.997
 7041SOL    HW122022   6.660   1.812   1.935
 7041SOL    HW222023   6.664   1.908   2.067
 7042SOL     OW22024   4.838   5.115   5.350
 7042SOL    HW122025   4.903   5.039   5.352
 7042SOL    HW222026   4.747   5.082   5.371
 7043SOL     OW22027   1.936   3.918   2.552
 7043SOL    HW122028   1.956   3.906   2.649
 7043SOL    HW222029   2.017   3.896   2.498
 7044SOL     OW22030   4.070   4.824   3.945
 7044SOL    HW122031   4.006   4.832   4.022
 7044SOL    HW222032   4.159   4.860   3.973
 7045SOL     OW22033   5.250   5.570   3.474
 7045SOL    HW122034   5.340   5.537   3.445
 7045SOL    HW222035   5.190   5.575   3.394
 7046SOL     OW22036   3.312   0.700   2.889
 7046SOL    HW122037   3.292   0.676   2.794
 7046SOL    HW222038   3.361   0.787   2.892
 7047SOL     OW22039   6.856   1.730   2.377
 7047SOL    HW122040   6.923   1.741   2.450
 7047SOL    HW222041   6.903   1.734   2.288
 7048SOL     OW22042   5.668   6.379   2.849
 7048SOL    HW122043   5.659   6.400   2.947
 7048SOL    HW222044   5.581   6.346   2.814
 7049SOL     OW22045   3.884   1.410   1.106
 7049SOL    HW122046   3.834   1.410   1.193
 7049SOL    HW222047   3.832   1.460   1.037
 7050SOL     OW22048   4.219   3.451   1.838
 7050SOL    HW122049   4.164   3.462   1.755
 7050SOL    HW222050   4.170   3.391   1.902
 7051SOL     OW22051   6.842   0.093   1.597
 7051SOL    HW122052   6.937   0.121   1.608
 7051SOL    HW222053   6.822   0.017   1.659
 7052SOL     OW22054   5.478   2.736   3.129
 7052SOL    HW122055   5.554   2.799   3.147
 7052SOL    HW222056   5.392   2.780   3.153
 7053SOL     OW22057   0.868   3.231   5.098
 7053SOL    HW122058   0.904   3.226   5.191
 7053SOL    HW222059   0.918   3.300   5.046
 7054SOL     OW22060   1.044   6.685   0.536
 7054SOL    HW122061   1.037   6.766   0.594
 7054SOL    HW222062   0.984   6.695   0.456
 7055SOL     OW22063   2.801   6.826   5.386
 7055SOL    HW122064   2.810   6.727   5.375
 7055SOL    HW222065   2.731   6.861   5.323
 7056SOL     OW22066   6.481   4.954   1.732
 7056SOL    HW122067   6.477   4.933   1.829
 7056SOL    HW222068   6.536   4.885   1.685
 7057SOL     OW22069   1.798   5.507   3.751
 7057SOL    HW122070   1.878   5.462   3.790
 7057SOL    HW222071   1.805   5.508   3.652
 7058SOL     OW22072   6.213   4.668   5.880
 7058SOL    HW122073   6.260   4.602   5.939
 7058SOL    HW222074   6.138   4.710   5.931
 7059SOL     OW22075   6.571   1.205   3.941
 7059SOL    HW122076   6.500   1.241   4.001
 7059SOL    HW222077   6.613   1.125   3.982
 7060SOL     OW22078   3.991   0.063   1.670
 7060SOL    HW122079   3.968   6.987   1.699
 7060SOL    HW222080   3.942   0.129   1.726
 7061SOL     OW22081   0.577   2.825   3.284
 7061SOL    HW122082   0.516   2.821   3.364
 7061SOL    HW222083   0.627   2.911   3.284
 7062SOL     OW22084   4.367   0.835   5.182
 7062SOL    HW122085   4.365   0.795   5.091
 7062SOL    HW222086   4.283   0.811   5.231
 7063SOL     OW22087   1.326   6.981   1.751
 7063SOL    HW122088   1.408   0.018   1.770
 7063SOL    HW222089   1.254   0.025   1.717
 7064SOL     OW22090   3.948   1.931   1.199
 7064SOL    HW122091   4.024   1.870   1.177
 7064SOL    HW222092   3.984   2.018   1.233
 7065SOL     OW22093   3.959   4.028   5.733
 7065SOL    HW122094   4.041   4.012   5.788
 7065SOL    HW222095   3.885   3.970   5.767
 7066SOL     OW22096   4.852   0.496   0.207
 7066SOL    HW122097   4.832   0.588   0.175
 7066SOL    HW222098   4.766   0.451   0.234
 7067SOL     OW22099   2.108   2.638   4.688
 7067SOL    HW122100   2.082   2.560   4.631
 7067SOL    HW222101   2.074   2.624   4.781
 7068SOL     OW22102   6.931   4.536   4.309
 7068SOL    HW122103   6.842   4.577   4.290
 7068SOL    HW222104   6.931   4.496   4.400
 7069SOL     OW22105   5.412   1.140   4.607
 7069SOL    HW122106   5.355   1.218   4.580
 7069SOL    HW222107   5.495   1.139   4.551
 7070SOL     OW22108   0.055   6.020   4.910
 7070SOL    HW122109   0.008   6.108   4.900
 7070SOL    HW222110   0.057   5.995   5.007
 7071SOL     OW22111   3.020   5.545   6.256
 7071SOL    HW122112   3.113   5.521   6.283
 7071SOL    HW222113   3.012   5.645   6.249
 7072SOL     OW22114   1.576   6.078   0.226
 7072SOL    HW122115   1.486   6.113   0.201
 7072SOL    HW222116   1.637   6.155   0.246
 7073SOL     OW22117   4.646   6.660   4.491
 7073SOL    HW122118   4.693   6.577   4.521
 7073SOL    HW222119   4.646   6.726   4.566
 7074SOL     OW22120   4.642   2.654   2.041
 7074SOL    HW122121   4.730   2.619   2.009
 7074SOL    HW222122   4.593   2.697   1.965
 7075SOL     OW22123   1.939   4.150   5.386
 7075SOL    HW122124   1.938   4.207   5.468
 7075SOL    HW222125   2.033   4.139   5.354
 7076SOL     OW22126   6.234   1.939   6.320
 7076SOL    HW122127   6.303   1.914   6.388
 7076SOL    HW222128   6.150   1.887   6.337
 7077SOL     OW22129   2.339   4.769   4.113
 7077SOL    HW122130   2.426   4.723   4.132
 7077SOL    HW222131   2.333   4.789   4.015
 7078SOL     OW22132   0.185   6.797   1.724
 7078SOL    HW122133   0.212   6.701   1.721
 7078SOL    HW222134   0.124   6.812   1.802
 7079SOL     OW22135   6.802   6.122   4.228
 7079SOL    HW122136   6.728   6.189   4.226
 7079SOL    HW222137   6.881   6.162   4.276
 7080SOL     OW22138   3.565   1.319   4.826
 7080SOL    HW122139   3.629   1.393   4.846
 7080SOL    HW222140   3.473   1.357   4.813
 7081SOL     OW22141   2.986   7.012   6.791
 7081SOL    HW122142   2.941   6.997   6.879
 7081SOL    HW222143   3.074   0.040   6.805
 7082SOL     OW22144   6.562   3.643   6.742
 7082SOL    HW122145   6.530   3.584   6.668
 7082SOL    HW222146   6.609   3.722   6.703
 7083SOL     OW22147   2.807   0.324   0.805
 7083SOL    HW122148   2.829   0.236   0.848
 7083SOL    HW222149   2.739   0.371   0.861
 7084SOL     OW22150   0.390   5.490   5.453
 7084SOL    HW122151   0.363   5.417   5.390
 7084SOL    HW222152   0.324   5.565   5.448
 7085SOL     OW22153   0.978   1.782   2.302
 7085SOL    HW122154   1.030   1.709   2.257
 7085SOL    HW222155   1.032   1.867   2.302
 7086SOL     OW22156   5.152   0.231   5.569
 7086SOL    HW122157   5.083   0.275   5.626
 7086SOL    HW222158   5.243   0.265   5.594
 7087SOL     OW22159   6.103   3.755   4.073
 7087SOL    HW122160   6.109   3.853   4.092
 7087SOL    HW222161   6.075   3.741   3.978
 7088SOL     OW22162   5.538   2.583   3.485
 7088SOL    HW122163   5.584   2.508   3.439
 7088SOL    HW222164   5.576   2.670   3.454
 7089SOL     OW22165   2.759   2.071   4.844
 7089SOL    HW122166   2.755   1.998   4.776
 7089SOL    HW222167   2.844   2.122   4.833
 7090SOL     OW22168   2.296   0.570   6.816
 7090SOL    HW122169   2.351   0.528   6.888
 7090SOL    HW222170   2.205   0.590   6.851
 7091SOL     OW22171   0.783   1.917   0.151
 7091SOL    HW122172   0.881   1.897   0.161
 7091SOL    HW222173   0.766   2.013   0.172
 7092SOL     OW22174   3.892   3.185   5.925
 7092SOL    HW122175   3.827   3.110   5.924
 7092SOL    HW222176   3.919   3.205   6.019
 7093SOL     OW22177   2.942   3.437   2.825
 7093SOL    HW122178   2.889   3.360   2.790
 7093SOL    HW222179   2.990   3.411   2.908
 7094SOL     OW22180   6.802   5.916   6.006
 7094SOL    HW122181   6.726   5.852   6.018
 7094SOL    HW222182   6.767   6.005   5.975
 7095SOL     OW22183   3.952   4.332   5.865
 7095SOL    HW122184   4.011   4.335   5.785
 7095SOL    HW222185   3.879   4.265   5.850
 7096SOL     OW22186   6.560   0.823   3.672
 7096SOL    HW122187   6.465   0.852   3.666
 7096SOL    HW222188   6.617   0.885   3.618
 7097SOL     OW22189   6.071   2.397   0.907
 7097SOL    HW122190   5.981   2.353   0.915
 7097SOL    HW222191   6.104   2.389   0.813
 7098SOL     OW22192   1.611   5.579   5.611
 7098SOL    HW122193   1.521   5.543   5.635
 7098SOL    HW222194   1.628   5.565   5.513
 7099SOL     OW22195   3.941   1.293   5.450
 7099SOL    HW122196   4.026   1.310   5.499
 7099SOL    HW222197   3.961   1.271   5.354
 7100SOL     OW22198   5.621   3.198   1.008
 7100SOL    HW122199   5.543   3.182   0.948
 7100SOL    HW222200   5.589   3.231   1.097
 7101SOL     OW22201   2.023   0.991   4.938
 7101SOL    HW122202   2.073   0.956   4.858
 7101SOL    HW222203   1.938   0.941   4.948
 7102SOL     OW22204   5.566   6.450   0.744
 7102SOL    HW122205   5.474   6.466   0.709
 7102SOL    HW222206   5.630   6.513   0.699
 7103SOL     OW22207   4.592   4.802   2.113
 7103SOL    HW122208   4.547   4.720   2.079
 7103SOL    HW222209   4.549   4.831   2.199
 7104SOL     OW22210   0.230   2.856   3.913
 7104SOL    HW122211   0.177   2.909   3.980
 7104SOL    HW222212   0.170   2.831   3.837
 7105SOL     OW22213   3.548   2.911   5.709
 7105SOL    HW122214   3.541   2.812   5.701
 7105SOL    HW222215   3.634   2.935   5.753
 7106SOL     OW22216   3.713   3.687   2.633
 7106SOL    HW122217   3.792   3.643   2.675
 7106SOL    HW222218   3.664   3.619   2.577
 7107SOL     OW22219   4.622   0.887   0.555
 7107SOL    HW122220   4.632   0.982   0.524
 7107SOL    HW222221   4.691   0.830   0.510
 7108SOL     OW22222   4.001   6.199   2.856
 7108SOL    HW122223   4.044   6.132   2.796
 7108SOL    HW222224   3.955   6.152   2.931
 7109SOL     OW22225   2.889   0.497   6.002
 7109SOL    HW122226   2.810   0.448   5.964
 7109SOL    HW222227   2.928   0.557   5.932
 7110SOL     OW22228   3.226   5.569   4.490
 7110SOL    HW122229   3.235   5.602   4.396
 7110SOL    HW222230   3.129   5.566   4.515
 7111SOL     OW22231   1.142   2.752   5.055
 7111SOL    HW122232   1.117   2.656   5.066
 7111SOL    HW222233   1.064   2.804   5.021
 7112SOL     OW22234   1.564   4.397   4.624
 7112SOL    HW122235   1.643   4.457   4.610
 7112SOL    HW222236   1.542   4.393   4.721
 7113SOL     OW22237   4.045   3.708   4.872
 7113SOL    HW122238   4.033   3.706   4.773
 7113SOL    HW222239   4.031   3.801   4.905
 7114SOL     OW22240   4.976   6.062   1.441
 7114SOL    HW122241   4.922   6.140   1.473
 7114SOL    HW222242   4.925   6.014   1.368
 7115SOL     OW22243   5.193   3.191   1.033
 7115SOL    HW122244   5.208   3.181   1.131
 7115SOL    HW222245   5.098   3.169   1.011
 7116SOL     OW22246   6.389   4.261   3.165
 7116SOL    HW122247   6.407   4.351   3.126
 7116SOL    HW222248   6.425   4.257   3.258
 7117SOL     OW22249   0.198   6.181   5.299
 7117SOL    HW122250   0.286   6.214   5.266
 7117SOL    HW222251   0.162   6.243   5.368
 7118SOL     OW22252   2.876   5.005   1.013
 7118SOL    HW122253   2.963   5.047   1.040
 7118SOL    HW222254   2.846   4.941   1.084
 7119SOL     OW22255   4.715   2.284   3.986
 7119SOL    HW122256   4.743   2.335   3.904
 7119SOL    HW222257   4.634   2.327   4.025
 7120SOL     OW22258   3.647   2.056   2.432
 7120SOL    HW122259   3.645   1.960   2.462
 7120SOL    HW222260   3.594   2.066   2.349
 7121SOL     OW22261   1.086   0.098   3.173
 7121SOL    HW122262   1.004   0.044   3.151
 7121SOL    HW222263   1.084   0.183   3.120
 7122SOL     OW22264   1.284   0.139   5.884
 7122SOL    HW122265   1.349   0.128   5.809
 7122SOL    HW222266   1.227   0.219   5.867
 7123SOL     OW22267   1.611   4.274   3.157
 7123SOL    HW122268   1.628   4.372   3.172
 7123SOL    HW222269   1.585   4.259   3.062
 7124SOL     OW22270   0.006   2.076   1.309
 7124SOL    HW122271   6.950   2.035   1.254
 7124SOL    HW222272   0.053   2.004   1.360
 7125SOL     OW22273   0.347   6.899   1.335
 7125SOL    HW122274   0.283   6.923   1.408
 7125SOL    HW222275   0.383   6.983   1.294
 7126SOL     OW22276   3.033   4.954   0.638
 7126SOL    HW122277   2.958   4.928   0.699
 7126SOL    HW222278   3.031   5.052   0.622
 7127SOL     OW22279   2.010   4.872   5.875
 7127SOL    HW122280   2.068   4.792   5.889
 7127SOL    HW222281   1.921   4.844   5.839
 7128SOL     OW22282   2.622   5.072   0.092
 7128SOL    HW122283   2.524   5.089   0.098
 7128SOL    HW222284   2.655   5.035   0.179
 7129SOL     OW22285   2.751   1.933   6.716
 7129SOL    HW122286   2.840   1.971   6.689
 7129SOL    HW222287   2.682   1.959   6.650
 7130SOL     OW22288   4.037   5.295   5.136
 7130SOL    HW122289   3.955   5.293   5.194
 7130SOL    HW222290   4.090   5.377   5.155
 7131SOL     OW22291   2.875   0.582   1.142
 7131SOL    HW122292   2.864   0.655   1.075
 7131SOL    HW222293   2.963   0.592   1.188
 7132SOL     OW22294   4.275   4.298   0.292
 7132SOL    HW122295   4.254   4.241   0.212
 7132SOL    HW222296   4.191   4.339   0.327
 7133SOL     OW22297   5.580   5.417   6.080
 7133SOL    HW122298   5.662   5.409   6.136
 7133SOL    HW222299   5.508   5.359   6.118
 7134SOL     OW22300   5.170   6.931   1.710
 7134SOL    HW122301   5.228   6.907   1.787
 7134SOL    HW222302   5.077   6.950   1.743
 7135SOL     OW22303   1.311   2.657   3.530
 7135SOL    HW122304   1.224   2.630   3.490
 7135SOL    HW222305   1.300   2.670   3.628
 7136SOL     OW22306   2.523   2.193   0.823
 7136SOL    HW122307   2.453   2.259   0.848
 7136SOL    HW222308   2.513   2.168   0.726
 7137SOL     OW22309   4.308   6.977   6.503
 7137SOL    HW122310   4.211   6.960   6.522
 7137SOL    HW222311   4.350   0.007   6.581
 7138SOL     OW22312   2.530   1.992   0.596
 7138SOL    HW122313   2.629   1.988   0.585
 7138SOL    HW222314   2.490   2.043   0.520
 7139SOL     OW22315   6.189   4.055   1.660
 7139SOL    HW122316   6.118   3.987   1.641
 7139SOL    HW222317   6.154   4.146   1.638
 7140SOL     OW22318   6.822   3.636   2.815
 7140SOL    HW122319   6.752   3.583   2.767
 7140SOL    HW222320   6.782   3.723   2.845
 7141SOL     OW22321   3.419   6.437   1.186
 7141SOL    HW122322   3.335   6.484   1.161
 7141SOL    HW222323   3.400   6.370   1.258
 7142SOL     OW22324   4.072   0.204   2.877
 7142SOL    HW122325   4.131   0.272   2.920
 7142SOL    HW222326   3.978   0.215   2.909
 7143SOL     OW22327   1.598   2.826   5.668
 7143SOL    HW122328   1.627   2.832   5.572
 7143SOL    HW222329   1.577   2.731   5.690
 7144SOL     OW22330   1.936   2.150   2.362
 7144SOL    HW122331   1.970   2.188   2.448
 7144SOL    HW222332   1.925   2.223   2.295
 7145SOL     OW22333   4.392   0.135   0.597
 7145SOL    HW122334   4.339   0.166   0.517
 7145SOL    HW222335   4.488   0.161   0.585
 7146SOL     OW22336   1.906   6.913   0.620
 7146SOL    HW122337   1.990   6.862   0.600
 7146SOL    HW222338   1.842   6.854   0.670
 7147SOL     OW22339   6.768   0.176   2.525
 7147SOL    HW122340   6.756   0.158   2.623
 7147SOL    HW222341   6.865   0.173   2.503
 7148SOL     OW22342   0.100   5.862   0.918
 7148SOL    HW122343   0.139   5.937   0.865
 7148SOL    HW222344   0.059   5.899   1.002
 7149SOL     OW22345   6.285   6.684   3.338
 7149SOL    HW122346   6.225   6.616   3.295
 7149SOL    HW222347   6.250   6.776   3.320
 7150SOL     OW22348   3.578   2.828   1.163
 7150SOL    HW122349   3.667   2.821   1.208
 7150SOL    HW222350   3.584   2.787   1.072
 7151SOL     OW22351   2.565   6.161   0.344
 7151SOL    HW122352   2.525   6.141   0.255
 7151SOL    HW222353   2.552   6.257   0.366
 7152SOL     OW22354   0.722   0.562   5.651
 7152SOL    HW122355   0.677   0.547   5.739
 7152SOL    HW222356   0.684   0.644   5.607
 7153SOL     OW22357   4.288   5.460   1.832
 7153SOL    HW122358   4.313   5.433   1.740
 7153SOL    HW222359   4.189   5.465   1.840
 7154SOL     OW22360   4.410   6.963   3.825
 7154SOL    HW122361   4.343   0.007   3.782
 7154SOL    HW222362   4.502   6.993   3.801
 7155SOL     OW22363   1.826   3.352   0.905
 7155SOL    HW122364   1.876   3.438   0.891
 7155SOL    HW222365   1.883   3.275   0.877
 7156SOL     OW22366   6.781   3.154   3.954
 7156SOL    HW122367   6.736   3.140   3.866
 7156SOL    HW222368   6.834   3.072   3.976
 7157SOL     OW22369   0.527   3.459   1.379
 7157SOL    HW122370   0.443   3.408   1.359
 7157SOL    HW222371   0.524   3.548   1.334
 7158SOL     OW22372   1.271   0.258   3.651
 7158SOL    HW122373   1.219   0.193   3.595
 7158SOL    HW222374   1.261   0.235   3.747
 7159SOL     OW22375   0.631   4.872   2.454
 7159SOL    HW122376   0.700   4.834   2.515
 7159SOL    HW222377   0.665   4.958   2.415
 7160SOL     OW22378   5.746   0.325   2.952
 7160SOL    HW122379   5.670   0.278   2.997
 7160SOL    HW222380   5.734   0.424   2.963
 7161SOL     OW22381   3.487   4.214   3.614
 7161SOL    HW122382   3.503   4.256   3.524
 7161SOL    HW222383   3.402   4.163   3.613
 7162SOL     OW22384   1.059   5.629   6.490
 7162SOL    HW122385   1.022   5.601   6.402
 7162SOL    HW222386   1.156   5.653   6.479
 7163SOL     OW22387   2.851   6.548   2.599
 7163SOL    HW122388   2.893   6.582   2.515
 7163SOL    HW222389   2.758   6.517   2.580
 7164SOL     OW22390   2.814   0.227   4.312
 7164SOL    HW122391   2.866   0.262   4.234
 7164SOL    HW222392   2.796   0.301   4.377
 7165SOL     OW22393   6.342   0.775   2.688
 7165SOL    HW122394   6.409   0.789   2.615
 7165SOL    HW222395   6.271   0.712   2.656
 7166SOL     OW22396   5.091   2.125   0.734
 7166SOL    HW122397   5.131   2.069   0.661
 7166SOL    HW222398   5.038   2.066   0.795
 7167SOL     OW22399   5.659   3.617   4.431
 7167SOL    HW122400   5.625   3.525   4.412
 7167SOL    HW222401   5.747   3.610   4.479
 7168SOL     OW22402   1.451   2.674   2.682
 7168SOL    HW122403   1.493   2.583   2.682
 7168SOL    HW222404   1.429   2.701   2.775
 7169SOL     OW22405   0.861   2.790   5.489
 7169SOL    HW122406   0.833   2.843   5.409
 7169SOL    HW222407   0.934   2.726   5.462
 7170SOL     OW22408   4.663   0.027   3.755
 7170SOL    HW122409   4.682   7.009   3.663
 7170SOL    HW222410   4.688   0.124   3.760
 7171SOL     OW22411   6.179   3.863   0.043
 7171SOL    HW122412   6.170   3.764   0.032
 7171SOL    HW222413   6.105   3.909   7.011
 7172SOL     OW22414   1.005   0.100   4.503
 7172SOL    HW122415   0.969   0.063   4.418
 7172SOL    HW222416   1.080   0.043   4.536
 7173SOL     OW22417   6.696   4.176   6.384
 7173SOL    HW122418   6.713   4.176   6.483
 7173SOL    HW222419   6.783   4.163   6.335
 7174SOL     OW22420   1.332   3.838   0.146
 7174SOL    HW122421   1.252   3.839   0.206
 7174SOL    HW222422   1.302   3.847   0.051
 7175SOL     OW22423   5.712   3.212   6.520
 7175SOL    HW122424   5.715   3.271   6.439
 7175SOL    HW222425   5.669   3.263   6.595
 7176SOL     OW22426   6.811   0.581   3.014
 7176SOL    HW122427   6.751   0.638   2.958
 7176SOL    HW222428   6.892   0.634   3.039
 7177SOL     OW22429   1.548   4.921   4.558
 7177SOL    HW122430   1.531   4.846   4.494
 7177SOL    HW222431   1.461   4.959   4.589
 7178SOL     OW22432   0.789   1.641   5.693
 7178SOL    HW122433   0.884   1.666   5.680
 7178SOL    HW222434   0.734   1.723   5.707
 7179SOL     OW22435   2.115   3.692   4.464
 7179SOL    HW122436   2.031   3.640   4.448
 7179SOL    HW222437   2.173   3.641   4.528
 7180SOL     OW22438   2.166   5.388   0.165
 7180SOL    HW122439   2.146   5.337   0.249
 7180SOL    HW222440   2.264   5.386   0.148
 7181SOL     OW22441   2.381   6.763   0.473
 7181SOL    HW122442   2.317   6.760   0.396
 7181SOL    HW222443   2.457   6.701   0.455
 7182SOL     OW22444   0.285   2.781   4.857
 7182SOL    HW122445   0.245   2.821   4.939
 7182SOL    HW222446   0.231   2.810   4.777
 7183SOL     OW22447   2.031   5.620   0.969
 7183SOL    HW122448   2.075   5.554   0.908
 7183SOL    HW222449   2.088   5.634   1.050
 7184SOL     OW22450   6.638   1.309   3.693
 7184SOL    HW122451   6.641   1.408   3.704
 7184SOL    HW222452   6.620   1.266   3.781
 7185SOL     OW22453   5.744   0.411   4.611
 7185SOL    HW122454   5.754   0.497   4.661
 7185SOL    HW222455   5.827   0.356   4.623
 7186SOL     OW22456   6.807   1.989   1.151
 7186SOL    HW122457   6.714   1.953   1.140
 7186SOL    HW222458   6.833   2.041   1.070
 7187SOL     OW22459   3.945   4.242   6.608
 7187SOL    HW122460   4.000   4.322   6.584
 7187SOL    HW222461   3.877   4.225   6.536
 7188SOL     OW22462   5.659   0.516   0.264
 7188SOL    HW122463   5.729   0.445   0.267
 7188SOL    HW222464   5.657   0.556   0.172
 7189SOL     OW22465   6.909   1.151   5.509
 7189SOL    HW122466   6.823   1.116   5.545
 7189SOL    HW222467   6.985   1.104   5.554
 7190SOL     OW22468   0.260   3.540   2.243
 7190SOL    HW122469   0.212   3.578   2.322
 7190SOL    HW222470   0.196   3.531   2.167
 7191SOL     OW22471   1.158   5.433   2.546
 7191SOL    HW122472   1.155   5.532   2.561
 7191SOL    HW222473   1.098   5.387   2.611
 7192SOL     OW22474   2.808   4.251   5.797
 7192SOL    HW122475   2.793   4.160   5.757
 7192SOL    HW222476   2.888   4.293   5.755
 7193SOL     OW22477   0.763   2.872   2.359
 7193SOL    HW122478   0.741   2.799   2.294
 7193SOL    HW222479   0.684   2.932   2.369
 7194SOL     OW22480   2.838   2.688   0.448
 7194SOL    HW122481   2.916   2.695   0.387
 7194SOL    HW222482   2.845   2.604   0.502
 7195SOL     OW22483   0.676   3.674   6.861
 7195SOL    HW122484   0.700   3.709   6.952
 7195SOL    HW222485   0.646   3.579   6.870
 7196SOL     OW22486   2.974   3.711   1.575
 7196SOL    HW122487   3.006   3.623   1.539
 7196SOL    HW222488   2.963   3.776   1.501
 7197SOL     OW22489   0.468   2.208   6.327
 7197SOL    HW122490   0.536   2.249   6.267
 7197SOL    HW222491   0.434   2.277   6.391
 7198SOL     OW22492   6.631   0.551   0.797
 7198SOL    HW122493   6.719   0.506   0.781
 7198SOL    HW222494   6.625   0.582   0.892
 7199SOL     OW22495   1.671   0.711   2.327
 7199SOL    HW122496   1.658   0.787   2.263
 7199SOL    HW222497   1.669   0.745   2.421
 7200SOL     OW22498   2.496   2.258   7.003
 7200SOL    HW122499   2.427   2.214   6.946
 7200SOL    HW222500   2.451   2.305   0.063
 7201SOL     OW22501   0.880   5.248   4.075
 7201SOL    HW122502   0.781   5.263   4.070
 7201SOL    HW222503   0.904   5.220   4.168
 7202SOL     OW22504   5.263   0.019   6.962
 7202SOL    HW122505   5.353   6.999   6.940
 7202SOL    HW222506   5.229   6.991   0.028
 7203SOL     OW22507   0.688   1.805   0.882
 7203SOL    HW122508   0.615   1.873   0.891
 7203SOL    HW222509   0.765   1.844   0.832
 7204SOL     OW22510   0.287   0.013   5.745
 7204SOL    HW122511   0.380   6.993   5.737
 7204SOL    HW222512   0.252   0.037   5.654
 7205SOL     OW22513   0.826   4.239   3.877
 7205SOL    HW122514   0.770   4.207   3.953
 7205SOL    HW222515   0.849   4.336   3.890
 7206SOL     OW22516   1.383   0.596   1.694
 7206SOL    HW122517   1.287   0.573   1.676
 7206SOL    HW222518   1.429   0.519   1.737
 7207SOL     OW22519   3.543   0.789   2.598
 7207SOL    HW122520   3.625   0.824   2.642
 7207SOL    HW222521   3.471   0.859   2.601
 7208SOL     OW22522   3.677   0.048   3.226
 7208SOL    HW122523   3.663   0.120   3.157
 7208SOL    HW222524   3.645   6.977   3.189
 7209SOL     OW22525   3.050   3.463   1.492
 7209SOL    HW122526   3.046   3.382   1.551
 7209SOL    HW222527   3.132   3.459   1.435
 7210SOL     OW22528   4.574   1.149   3.623
 7210SOL    HW122529   4.574   1.143   3.523
 7210SOL    HW222530   4.599   1.242   3.650
 7211SOL     OW22531   2.964   6.693   4.654
 7211SOL    HW122532   3.003   6.665   4.567
 7211SOL    HW222533   2.869   6.722   4.641
 7212SOL     OW22534   0.544   5.811   4.599
 7212SOL    HW122535   0.600   5.766   4.530
 7212SOL    HW222536   0.455   5.766   4.604
 7213SOL     OW22537   5.288   6.288   0.435
 7213SOL    HW122538   5.345   6.275   0.354
 7213SOL    HW222539   5.205   6.339   0.411
 7214SOL     OW22540   6.266   6.306   5.598
 7214SOL    HW122541   6.241   6.340   5.508
 7214SOL    HW222542   6.229   6.368   5.668
 7215SOL     OW22543   6.967   3.663   4.531
 7215SOL    HW122544   0.050   3.656   4.537
 7215SOL    HW222545   6.942   3.746   4.482
 7216SOL     OW22546   3.256   0.129   6.784
 7216SOL    HW122547   3.293   0.222   6.781
 7216SOL    HW222548   3.265   0.093   6.876
 7217SOL     OW22549   1.789   3.815   3.413
 7217SOL    HW122550   1.794   3.716   3.430
 7217SOL    HW222551   1.859   3.841   3.347
 7218SOL     OW22552   5.726   3.307   5.360
 7218SOL    HW122553   5.687   3.238   5.422
 7218SOL    HW222554   5.745   3.391   5.411
 7219SOL     OW22555   4.749   0.084   3.226
 7219SOL    HW122556   4.840   0.065   3.261
 7219SOL    HW222557   4.694   0.001   3.227
 7220SOL     OW22558   1.177   4.799   5.002
 7220SOL    HW122559   1.097   4.760   5.047
 7220SOL    HW222560   1.259   4.747   5.027
 7221SOL     OW22561   3.510   6.142   4.605
 7221SOL    HW122562   3.462   6.057   4.581
 7221SOL    HW222563   3.608   6.123   4.614
 7222SOL     OW22564   5.996   6.932   2.882
 7222SOL    HW122565   5.961   7.010   2.829
 7222SOL    HW222566   6.083   6.903   2.844
 7223SOL     OW22567   3.003   1.245   0.615
 7223SOL    HW122568   3.061   1.174   0.574
 7223SOL    HW222569   3.043   1.276   0.701
 7224SOL     OW22570   5.337   1.579   4.096
 7224SOL    HW122571   5.420   1.627   4.069
 7224SOL    HW222572   5.306   1.521   4.022
 7225SOL     OW22573   1.070   5.211   0.670
 7225SOL    HW122574   1.071   5.273   0.592
 7225SOL    HW222575   1.073   5.264   0.755
 7226SOL     OW22576   6.736   1.576   1.481
 7226SOL    HW122577   6.824   1.622   1.496
 7226SOL    HW222578   6.667   1.644   1.456
 7227SOL     OW22579   1.755   1.988   1.006
 7227SOL    HW122580   1.773   1.890   1.002
 7227SOL    HW222581   1.675   2.005   1.063
 7228SOL     OW22582   0.926   1.923   2.737
 7228SOL    HW122583   0.898   1.878   2.652
 7228SOL    HW222584   0.969   2.011   2.715
 7229SOL     OW22585   1.386   6.267   5.860
 7229SOL    HW122586   1.421   6.203   5.928
 7229SOL    HW222587   1.377   6.358   5.902
 7230SOL     OW22588   3.622   5.238   4.633
 7230SOL    HW122589   3.571   5.155   4.654
 7230SOL    HW222590   3.571   5.293   4.567
 7231SOL     OW22591   4.054   0.910   6.812
 7231SOL    HW122592   3.961   0.882   6.787
 7231SOL    HW222593   4.115   0.899   6.733
 7232SOL     OW22594   5.105   5.982   3.417
 7232SOL    HW122595   5.079   5.931   3.335
 7232SOL    HW222596   5.201   6.007   3.412
 7233SOL     OW22597   1.081   1.606   4.178
 7233SOL    HW122598   1.117   1.513   4.174
 7233SOL    HW222599   0.987   1.604   4.209
 7234SOL     OW22600   5.392   3.298   4.060
 7234SOL    HW122601   5.453   3.252   4.125
 7234SOL    HW222602   5.446   3.341   3.988
 7235SOL     OW22603   0.079   4.362   2.256
 7235SOL    HW122604   0.179   4.369   2.248
 7235SOL    HW222605   0.038   4.450   2.231
 7236SOL     OW22606   1.951   1.647   1.439
 7236SOL    HW122607   1.931   1.735   1.482
 7236SOL    HW222608   1.873   1.619   1.383
 7237SOL     OW22609   4.270   0.510   5.206
 7237SOL    HW122610   4.348   0.507   5.269
 7237SOL    HW222611   4.290   0.454   5.126
 7238SOL     OW22612   3.440   1.715   0.959
 7238SOL    HW122613   3.498   1.637   0.983
 7238SOL    HW222614   3.479   1.798   0.998
 7239SOL     OW22615   1.194   2.534   2.651
 7239SOL    HW122616   1.118   2.562   2.710
 7239SOL    HW222617   1.258   2.610   2.641
 7240SOL     OW22618   1.582   6.528   5.886
 7240SOL    HW122619   1.627   6.480   5.962
 7240SOL    HW222620   1.604   6.483   5.800
 7241SOL     OW22621   1.694   0.932   0.742
 7241SOL    HW122622   1.788   0.902   0.724
 7241SOL    HW222623   1.646   0.861   0.794
 7242SOL     OW22624   6.640   6.278   0.365
 7242SOL    HW122625   6.689   6.283   0.451
 7242SOL    HW222626   6.697   6.315   0.291
 7243SOL     OW22627   6.567   4.453   5.929
 7243SOL    HW122628   6.627   4.380   5.961
 7243SOL    HW222629   6.477   4.444   5.973
 7244SOL     OW22630   5.893   1.387   1.762
 7244SOL    HW122631   5.862   1.292   1.748
 7244SOL    HW222632   5.990   1.387   1.787
 7245SOL     OW22633   1.024   1.823   4.891
 7245SOL    HW122634   0.973   1.738   4.903
 7245SOL    HW222635   0.996   1.868   4.807
 7246SOL     OW22636   6.984   0.050   4.152
 7246SOL    HW122637   6.996   6.985   4.207
 7246SOL    HW222638   6.929   0.029   4.072
 7247SOL     OW22639   2.480   0.801   4.373
 7247SOL    HW122640   2.421   0.742   4.318
 7247SOL    HW222641   2.439   0.892   4.381
 7248SOL     OW22642   2.263   1.511   3.545
 7248SOL    HW122643   2.354   1.473   3.530
 7248SOL    HW222644   2.259   1.604   3.509
 7249SOL     OW22645   6.512   4.883   2.434
 7249SOL    HW122646   6.611   4.898   2.435
 7249SOL    HW222647   6.465   4.971   2.445
 7250SOL     OW22648   4.689   6.712   6.191
 7250SOL    HW122649   4.668   6.692   6.096
 7250SOL    HW222650   4.680   6.811   6.207
 7251SOL     OW22651   0.529   6.483   5.887
 7251SOL    HW122652   0.614   6.492   5.835
 7251SOL    HW222653   0.453   6.470   5.823
 7252SOL     OW22654   3.664   3.495   2.923
 7252SOL    HW122655   3.649   3.594   2.924
 7252SOL    HW222656   3.737   3.474   2.857
 7253SOL     OW22657   2.246   6.233   6.487
 7253SOL    HW122658   2.244   6.143   6.443
 7253SOL    HW222659   2.338   6.272   6.478
 7254SOL     OW22660   4.440   5.142   3.963
 7254SOL    HW122661   4.522   5.160   4.017
 7254SOL    HW222662   4.461   5.157   3.866
 7255SOL     OW22663   3.082   3.531   0.617
 7255SOL    HW122664   3.164   3.534   0.559
 7255SOL    HW222665   3.039   3.621   0.619
 7256SOL     OW22666   3.667   4.989   4.219
 7256SOL    HW122667   3.657   5.089   4.224
 7256SOL    HW222668   3.672   4.952   4.312
 7257SOL     OW22669   5.692   2.812   3.618
 7257SOL    HW122670   5.732   2.743   3.678
 7257SOL    HW222671   5.746   2.819   3.535
 7258SOL     OW22672   4.156   1.804   3.648
 7258SOL    HW122673   4.060   1.776   3.659
 7258SOL    HW222674   4.160   1.903   3.634
 7259SOL     OW22675   2.845   3.301   1.302
 7259SOL    HW122676   2.931   3.259   1.329
 7259SOL    HW222677   2.826   3.280   1.206
 7260SOL     OW22678   3.550   1.761   2.072
 7260SOL    HW122679   3.598   1.673   2.067
 7260SOL    HW222680   3.452   1.746   2.056
 7261SOL     OW22681   1.727   2.545   1.179
 7261SOL    HW122682   1.700   2.457   1.139
 7261SOL    HW222683   1.729   2.536   1.279
 7262SOL     OW22684   5.168   1.758   5.830
 7262SOL    HW122685   5.077   1.780   5.795
 7262SOL    HW222686   5.160   1.707   5.915
 7263SOL     OW22687   1.155   0.120   0.606
 7263SOL    HW122688   1.126   0.074   0.523
 7263SOL    HW222689   1.074   0.153   0.656
 7264SOL     OW22690   5.761   1.377   6.444
 7264SOL    HW122691   5.738   1.355   6.539
 7264SOL    HW222692   5.742   1.298   6.386
 7265SOL     OW22693   5.782   5.135   5.686
 7265SOL    HW122694   5.863   5.103   5.637
 7265SOL    HW222695   5.809   5.200   5.757
 7266SOL     OW22696   5.715   0.186   1.171
 7266SOL    HW122697   5.651   0.141   1.233
 7266SOL    HW222698   5.809   0.165   1.200
 7267SOL     OW22699   6.496   5.731   5.368
 7267SOL    HW122700   6.457   5.703   5.280
 7267SOL    HW222701   6.440   5.802   5.409
 7268SOL     OW22702   5.113   5.262   3.739
 7268SOL    HW122703   5.060   5.207   3.674
 7268SOL    HW222704   5.074   5.254   3.830
 7269SOL     OW22705   0.200   6.581   0.445
 7269SOL    HW122706   0.242   6.501   0.490
 7269SOL    HW222707   0.271   6.635   0.401
 7270SOL     OW22708   1.440   3.394   5.325
 7270SOL    HW122709   1.494   3.467   5.366
 7270SOL    HW222710   1.496   3.312   5.314
 7271SOL     OW22711   0.241   5.976   3.098
 7271SOL    HW122712   0.327   6.023   3.117
 7271SOL    HW222713   0.189   6.027   3.029
 7272SOL     OW22714   5.673   5.182   2.302
 7272SOL    HW122715   5.606   5.239   2.255
 7272SOL    HW222716   5.655   5.183   2.400
 7273SOL     OW22717   5.520   4.309   1.956
 7273SOL    HW122718   5.474   4.242   1.897
 7273SOL    HW222719   5.604   4.269   1.992
 7274SOL     OW22720   0.746   5.823   6.965
 7274SOL    HW122721   0.818   5.817   6.896
 7274SOL    HW222722   0.782   5.863   0.032
 7275SOL     OW22723   6.468   0.232   2.504
 7275SOL    HW122724   6.552   0.212   2.455
 7275SOL    HW222725   6.488   0.283   2.587
 7276SOL     OW22726   3.722   1.928   3.272
 7276SOL    HW122727   3.715   1.840   3.319
 7276SOL    HW222728   3.652   1.990   3.308
 7277SOL     OW22729   4.729   0.499   3.790
 7277SOL    HW122730   4.703   0.431   3.858
 7277SOL    HW222731   4.771   0.453   3.711
 7278SOL     OW22732   3.440   2.689   1.468
 7278SOL    HW122733   3.525   2.643   1.442
 7278SOL    HW222734   3.362   2.628   1.451
 7279SOL     OW22735   3.914   3.591   5.681
 7279SOL    HW122736   3.986   3.578   5.750
 7279SOL    HW222737   3.829   3.548   5.713
 7280SOL     OW22738   0.480   1.728   4.166
 7280SOL    HW122739   0.482   1.821   4.127
 7280SOL    HW222740   0.500   1.662   4.093
 7281SOL     OW22741   1.676   0.839   0.315
 7281SOL    HW122742   1.727   0.875   0.237
 7281SOL    HW222743   1.641   0.748   0.292
 7282SOL     OW22744   5.945   6.510   1.451
 7282SOL    HW122745   5.885   6.486   1.374
 7282SOL    HW222746   6.040   6.493   1.425
 7283SOL     OW22747   3.551   0.807   1.926
 7283SOL    HW122748   3.571   0.710   1.909
 7283SOL    HW222749   3.458   0.816   1.962
 7284SOL     OW22750   6.879   1.967   5.420
 7284SOL    HW122751   6.861   1.869   5.432
 7284SOL    HW222752   6.854   2.016   5.504
 7285SOL     OW22753   5.591   3.511   1.565
 7285SOL    HW122754   5.596   3.414   1.588
 7285SOL    HW222755   5.517   3.526   1.499
 7286SOL     OW22756   0.995   0.806   1.390
 7286SOL    HW122757   1.058   0.805   1.312
 7286SOL    HW222758   1.020   0.880   1.452
 7287SOL     OW22759   6.385   2.785   4.879
 7287SOL    HW122760   6.339   2.741   4.957
 7287SOL    HW222761   6.483   2.790   4.897
 7288SOL     OW22762   1.673   1.854   1.365
 7288SOL    HW122763   1.739   1.928   1.350
 7288SOL    HW222764   1.717   1.766   1.348
 7289SOL     OW22765   5.638   2.376   3.825
 7289SOL    HW122766   5.606   2.370   3.920
 7289SOL    HW222767   5.689   2.461   3.813
 7290SOL     OW22768   2.178   1.383   4.773
 7290SOL    HW122769   2.089   1.360   4.733
 7290SOL    HW222770   2.166   1.406   4.869
 7291SOL     OW22771   1.759   0.103   0.614
 7291SOL    HW122772   1.707   0.121   0.698
 7291SOL    HW222773   1.824   0.029   0.631
 7292SOL     OW22774   3.107   0.502   3.001
 7292SOL    HW122775   3.137   0.584   3.049
 7292SOL    HW222776   3.097   0.521   2.904
 7293SOL     OW22777   0.911   1.545   5.433
 7293SOL    HW122778   0.983   1.527   5.366
 7293SOL    HW222779   0.901   1.465   5.493
 7294SOL     OW22780   3.050   4.893   0.372
 7294SOL    HW122781   3.027   4.796   0.367
 7294SOL    HW222782   3.047   4.923   0.468
 7295SOL     OW22783   6.413   3.880   0.705
 7295SOL    HW122784   6.410   3.894   0.606
 7295SOL    HW222785   6.364   3.954   0.751
 7296SOL     OW22786   4.414   5.843   1.801
 7296SOL    HW122787   4.392   5.910   1.730
 7296SOL    HW222788   4.509   5.855   1.830
 7297SOL     OW22789   3.167   6.625   1.209
 7297SOL    HW122790   3.112   6.687   1.153
 7297SOL    HW222791   3.208   6.675   1.285
 7298SOL     OW22792   4.618   5.075   6.056
 7298SOL    HW122793   4.531   5.124   6.052
 7298SOL    HW222794   4.653   5.062   5.964
 7299SOL     OW22795   1.041   2.349   0.738
 7299SOL    HW122796   1.066   2.434   0.691
 7299SOL    HW222797   1.124   2.302   0.768
 7300SOL     OW22798   0.736   6.955   2.304
 7300SOL    HW122799   0.727   6.915   2.395
 7300SOL    HW222800   0.645   6.981   2.270
 7301SOL     OW22801   5.616   2.546   5.096
 7301SOL    HW122802   5.629   2.480   5.170
 7301SOL    HW222803   5.560   2.622   5.129
 7302SOL     OW22804   0.162   2.312   6.316
 7302SOL    HW122805   0.076   2.284   6.358
 7302SOL    HW222806   0.219   2.359   6.384
 7303SOL     OW22807   3.622   0.886   6.538
 7303SOL    HW122808   3.529   0.875   6.505
 7303SOL    HW222809   3.671   0.799   6.532
 7304SOL     OW22810   2.988   5.313   1.453
 7304SOL    HW122811   2.943   5.391   1.496
 7304SOL    HW222812   2.939   5.229   1.476
 7305SOL     OW22813   5.031   1.791   1.652
 7305SOL    HW122814   5.048   1.755   1.560
 7305SOL    HW222815   5.055   1.722   1.720
 7306SOL     OW22816   3.916   1.911   1.620
 7306SOL    HW122817   3.939   1.887   1.525
 7306SOL    HW222818   3.874   2.002   1.622
 7307SOL     OW22819   3.079   6.406   2.668
 7307SOL    HW122820   3.076   6.308   2.687
 7307SOL    HW222821   2.987   6.438   2.647
 7308SOL     OW22822   6.258   1.706   4.270
 7308SOL    HW122823   6.271   1.660   4.357
 7308SOL    HW222824   6.310   1.658   4.199
 7309SOL     OW22825   4.128   5.722   1.415
 7309SOL    HW122826   4.215   5.697   1.459
 7309SOL    HW222827   4.103   5.815   1.440
 7310SOL     OW22828   2.365   3.440   0.415
 7310SOL    HW122829   2.320   3.519   0.373
 7310SOL    HW222830   2.312   3.411   0.495
 7311SOL     OW22831   1.509   1.468   0.930
 7311SOL    HW122832   1.508   1.567   0.947
 7311SOL    HW222833   1.474   1.450   0.838
 7312SOL     OW22834   1.074   2.570   4.552
 7312SOL    HW122835   1.032   2.647   4.505
 7312SOL    HW222836   1.098   2.499   4.486
 7313SOL     OW22837   1.997   1.498   0.302
 7313SOL    HW122838   2.012   1.438   0.380
 7313SOL    HW222839   1.921   1.560   0.322
 7314SOL     OW22840   0.004   3.810   6.284
 7314SOL    HW122841   0.063   3.785   6.208
 7314SOL    HW222842   0.011   3.909   6.301
 7315SOL     OW22843   5.281   6.046   1.535
 7315SOL    HW122844   5.344   6.077   1.463
 7315SOL    HW222845   5.187   6.054   1.502
 7316SOL     OW22846   2.961   3.203   6.474
 7316SOL    HW122847   2.969   3.104   6.461
 7316SOL    HW222848   2.934   3.246   6.388
 7317SOL     OW22849   4.031   1.636   1.485
 7317SOL    HW122850   4.121   1.627   1.442
 7317SOL    HW222851   3.960   1.633   1.415
 7318SOL     OW22852   2.823   0.264   2.141
 7318SOL    HW122853   2.883   0.257   2.061
 7318SOL    HW222854   2.732   0.229   2.118
 7319SOL     OW22855   6.151   3.233   6.751
 7319SOL    HW122856   6.087   3.239   6.828
 7319SOL    HW222857   6.108   3.185   6.675
 7320SOL     OW22858   0.220   3.788   1.344
 7320SOL    HW122859   0.310   3.812   1.309
 7320SOL    HW222860   0.182   3.866   1.395
 7321SOL     OW22861   2.133   6.635   5.505
 7321SOL    HW122862   2.202   6.675   5.565
 7321SOL    HW222863   2.074   6.574   5.558
 7322SOL     OW22864   6.757   2.932   3.103
 7322SOL    HW122865   6.835   2.981   3.063
 7322SOL    HW222866   6.708   2.884   3.031
 7323SOL     OW22867   2.044   2.875   1.616
 7323SOL    HW122868   2.005   2.843   1.530
 7323SOL    HW222869   2.013   2.968   1.634
 7324SOL     OW22870   5.565   4.581   1.927
 7324SOL    HW122871   5.620   4.598   1.845
 7324SOL    HW222872   5.550   4.483   1.938
 7325SOL     OW22873   3.195   0.377   5.785
 7325SOL    HW122874   3.096   0.363   5.792
 7325SOL    HW222875   3.213   0.456   5.727
 7326SOL     OW22876   3.768   6.086   5.755
 7326SOL    HW122877   3.753   5.990   5.732
 7326SOL    HW222878   3.820   6.092   5.840
 7327SOL     OW22879   5.941   2.625   4.722
 7327SOL    HW122880   5.992   2.588   4.644
 7327SOL    HW222881   5.938   2.557   4.795
 7328SOL     OW22882   4.684   6.698   5.902
 7328SOL    HW122883   4.647   6.609   5.927
 7328SOL    HW222884   4.725   6.693   5.812
 7329SOL     OW22885   0.861   4.173   0.723
 7329SOL    HW122886   0.794   4.177   0.797
 7329SOL    HW222887   0.859   4.257   0.670
 7330SOL     OW22888   2.578   3.085   6.894
 7330SOL    HW122889   2.663   3.042   6.923
 7330SOL    HW222890   2.508   3.072   6.964
 7331SOL     OW22891   5.599   6.371   1.070
 7331SOL    HW122892   5.580   6.273   1.068
 7331SOL    HW222893   5.625   6.402   0.979
 7332SOL     OW22894   3.234   4.929   0.178
 7332SOL    HW122895   3.322   4.918   0.224
 7332SOL    HW222896   3.161   4.904   0.242
 7333SOL     OW22897   6.198   2.716   3.334
 7333SOL    HW122898   6.160   2.636   3.380
 7333SOL    HW222899   6.137   2.745   3.261
 7334SOL     OW22900   2.080   6.548   6.361
 7334SOL    HW122901   2.071   6.481   6.435
 7334SOL    HW222902   2.094   6.639   6.400
 7335SOL     OW22903   0.490   3.010   3.044
 7335SOL    HW122904   0.558   3.037   3.113
 7335SOL    HW222905   0.493   3.075   2.968
 7336SOL     OW22906   2.250   6.704   2.222
 7336SOL    HW122907   2.242   6.763   2.302
 7336SOL    HW222908   2.169   6.646   2.215
 7337SOL     OW22909   1.713   2.802   1.797
 7337SOL    HW122910   1.772   2.748   1.737
 7337SOL    HW222911   1.690   2.888   1.753
 7338SOL     OW22912   5.770   1.879   1.797
 7338SOL    HW122913   5.783   1.790   1.754
 7338SOL    HW222914   5.676   1.910   1.782
 7339SOL     OW22915   6.033   0.117   4.828
 7339SOL    HW122916   6.059   0.160   4.741
 7339SOL    HW222917   5.936   0.092   4.825
 7340SOL     OW22918   3.437   1.421   0.151
 7340SOL    HW122919   3.498   1.477   0.095
 7340SOL    HW222920   3.359   1.476   0.180
 7341SOL     OW22921   1.024   4.828   4.703
 7341SOL    HW122922   0.958   4.759   4.733
 7341SOL    HW222923   1.022   4.905   4.767
 7342SOL     OW22924   0.042   6.710   6.681
 7342SOL    HW122925   0.026   6.644   6.755
 7342SOL    HW222926   6.975   6.722   6.628
 7343SOL     OW22927   5.780   4.789   1.424
 7343SOL    HW122928   5.850   4.850   1.387
 7343SOL    HW222929   5.742   4.734   1.350
 7344SOL     OW22930   1.307   0.544   5.724
 7344SOL    HW122931   1.247   0.472   5.689
 7344SOL    HW222932   1.398   0.534   5.684
 7345SOL     OW22933   4.764   5.768   5.344
 7345SOL    HW122934   4.824   5.695   5.374
 7345SOL    HW222935   4.781   5.850   5.399
 7346SOL     OW22936   4.200   3.868   1.551
 7346SOL    HW122937   4.127   3.929   1.583
 7346SOL    HW222938   4.289   3.908   1.574
 7347SOL     OW22939   0.770   3.233   0.872
 7347SOL    HW122940   0.845   3.190   0.822
 7347SOL    HW222941   0.700   3.164   0.893
 7348SOL     OW22942   1.184   3.405   3.485
 7348SOL    HW122943   1.207   3.324   3.539
 7348SOL    HW222944   1.137   3.472   3.543
 7349SOL     OW22945   4.571   1.964   0.638
 7349SOL    HW122946   4.663   1.968   0.599
 7349SOL    HW222947   4.577   1.937   0.734
 7350SOL     OW22948   1.586   3.168   5.331
 7350SOL    HW122949   1.656   3.101   5.356
 7350SOL    HW222950   1.553   3.150   5.239
 7351SOL     OW22951   4.874   5.976   5.156
 7351SOL    HW122952   4.931   6.057   5.166
 7351SOL    HW222953   4.930   5.899   5.128
 7352SOL     OW22954   1.577   2.914   2.912
 7352SOL    HW122955   1.582   2.946   3.006
 7352SOL    HW222956   1.582   2.993   2.850
 7353SOL     OW22957   0.179   6.785   5.825
 7353SOL    HW122958   0.213   6.871   5.787
 7353SOL    HW222959   0.106   6.804   5.891
 7354SOL     OW22960   1.087   1.961   6.888
 7354SOL    HW122961   1.030   1.976   6.969
 7354SOL    HW222962   1.174   2.009   6.899
 7355SOL     OW22963   1.781   1.803   0.347
 7355SOL    HW122964   1.715   1.858   0.399
 7355SOL    HW222965   1.831   1.743   0.409
 7356SOL     OW22966   4.082   3.486   5.877
 7356SOL    HW122967   4.152   3.439   5.822
 7356SOL    HW222968   4.004   3.426   5.891
 7357SOL     OW22969   4.611   0.233   1.567
 7357SOL    HW122970   4.612   0.176   1.484
 7357SOL    HW222971   4.685   0.204   1.628
 7358SOL     OW22972   0.323   2.788   2.511
 7358SOL    HW122973   0.357   2.705   2.557
 7358SOL    HW222974   0.226   2.801   2.534
 7359SOL     OW22975   2.753   2.698   6.164
 7359SOL    HW122976   2.818   2.630   6.129
 7359SOL    HW222977   2.736   2.766   6.093
 7360SOL     OW22978   3.275   4.419   5.966
 7360SOL    HW122979   3.193   4.455   6.010
 7360SOL    HW222980   3.337   4.383   6.036
 7361SOL     OW22981   4.319   0.240   1.642
 7361SOL    HW122982   4.410   0.244   1.601
 7361SOL    HW222983   4.300   0.146   1.673
 7362SOL     OW22984   0.979   5.301   4.320
 7362SOL    HW122985   1.030   5.347   4.248
 7362SOL    HW222986   0.941   5.369   4.383
 7363SOL     OW22987   4.171   1.464   1.072
 7363SOL    HW122988   4.230   1.384   1.065
 7363SOL    HW222989   4.075   1.435   1.080
 7364SOL     OW22990   4.536   0.866   1.224
 7364SOL    HW122991   4.450   0.816   1.223
 7364SOL    HW222992   4.576   0.862   1.316
 7365SOL     OW22993   1.319   0.273   2.011
 7365SOL    HW122994   1.246   0.327   1.969
 7365SOL    HW222995   1.404   0.287   1.961
 7366SOL     OW22996   2.018   5.838   6.804
 7366SOL    HW122997   2.060   5.750   6.822
 7366SOL    HW222998   1.924   5.838   6.839
 7367SOL     OW22999   4.549   3.606   1.230
 7367SOL    HW123000   4.458   3.575   1.256
 7367SOL    HW223001   4.617   3.560   1.287
 7368SOL     OW23002   3.769   2.989   3.530
 7368SOL    HW123003   3.745   2.960   3.622
 7368SOL    HW223004   3.830   3.068   3.535
 7369SOL     OW23005   4.229   2.721   6.747
 7369SOL    HW123006   4.238   2.747   6.651
 7369SOL    HW223007   4.163   2.646   6.755
 7370SOL     OW23008   3.124   0.818   4.846
 7370SOL    HW123009   3.115   0.898   4.788
 7370SOL    HW223010   3.209   0.769   4.824
 7371SOL     OW23011   2.065   5.883   3.613
 7371SOL    HW123012   2.043   5.976   3.585
 7371SOL    HW223013   2.161   5.877   3.641
 7372SOL     OW23014   3.780   1.532   5.410
 7372SOL    HW123015   3.827   1.455   5.452
 7372SOL    HW223016   3.846   1.585   5.356
 7373SOL     OW23017   6.049   1.588   4.594
 7373SOL    HW123018   6.139   1.580   4.552
 7373SOL    HW223019   6.000   1.501   4.584
 7374SOL     OW23020   3.191   1.354   5.710
 7374SOL    HW123021   3.183   1.379   5.806
 7374SOL    HW223022   3.286   1.359   5.681
 7375SOL     OW23023   2.149   3.006   3.147
 7375SOL    HW123024   2.147   3.026   3.245
 7375SOL    HW223025   2.056   3.000   3.113
 7376SOL     OW23026   3.428   1.957   0.240
 7376SOL    HW123027   3.379   2.023   0.298
 7376SOL    HW223028   3.514   1.931   0.285
 7377SOL     OW23029   5.413   4.692   0.571
 7377SOL    HW123030   5.477   4.758   0.610
 7377SOL    HW223031   5.355   4.738   0.503
 7378SOL     OW23032   0.691   1.005   5.845
 7378SOL    HW123033   0.787   1.031   5.853
 7378SOL    HW223034   0.643   1.027   5.930
 7379SOL     OW23035   3.124   2.138   2.889
 7379SOL    HW123036   3.071   2.187   2.820
 7379SOL    HW223037   3.216   2.121   2.855
 7380SOL     OW23038   0.536   3.356   5.350
 7380SOL    HW123039   0.484   3.427   5.304
 7380SOL    HW223040   0.473   3.287   5.388
 7381SOL     OW23041   5.048   3.540   1.949
 7381SOL    HW123042   4.953   3.560   1.922
 7381SOL    HW223043   5.110   3.599   1.897
 7382SOL     OW23044   0.272   5.555   6.362
 7382SOL    HW123045   0.185   5.597   6.337
 7382SOL    HW223046   0.344   5.586   6.299
 7383SOL     OW23047   0.953   6.831   1.254
 7383SOL    HW123048   0.983   6.858   1.346
 7383SOL    HW223049   0.880   6.893   1.224
 7384SOL     OW23050   5.345   1.016   3.343
 7384SOL    HW123051   5.379   0.929   3.380
 7384SOL    HW223052   5.356   1.017   3.244
 7385SOL     OW23053   4.689   5.885   1.901
 7385SOL    HW123054   4.749   5.918   1.974
 7385SOL    HW223055   4.715   5.791   1.877
 7386SOL     OW23056   0.528   1.980   5.466
 7386SOL    HW123057   0.600   2.010   5.404
 7386SOL    HW223058   0.518   1.881   5.460
 7387SOL     OW23059   4.370   6.211   3.938
 7387SOL    HW123060   4.281   6.230   3.895
 7387SOL    HW223061   4.378   6.266   4.022
 7388SOL     OW23062   0.117   4.967   2.892
 7388SOL    HW123063   0.078   4.875   2.894
 7388SOL    HW223064   0.147   4.993   2.984
 7389SOL     OW23065   0.206   3.003   6.378
 7389SOL    HW123066   0.301   3.032   6.365
 7389SOL    HW223067   0.160   3.001   6.290
 7390SOL     OW23068   2.112   1.614   0.080
 7390SOL    HW123069   2.183   1.545   0.066
 7390SOL    HW223070   2.079   1.609   0.174
 7391SOL     OW23071   4.302   3.835   5.297
 7391SOL    HW123072   4.323   3.896   5.374
 7391SOL    HW223073   4.378   3.773   5.281
 7392SOL     OW23074   2.358   6.075   6.756
 7392SOL    HW123075   2.339   6.172   6.768
 7392SOL    HW223076   2.441   6.063   6.701
 7393SOL     OW23077   4.903   4.739   2.451
 7393SOL    HW123078   4.808   4.757   2.477
 7393SOL    HW223079   4.904   4.676   2.374
 7394SOL     OW23080   3.006   2.157   5.690
 7394SOL    HW123081   3.081   2.222   5.684
 7394SOL    HW223082   2.959   2.152   5.602
 7395SOL     OW23083   1.959   2.043   0.200
 7395SOL    HW123084   2.019   1.972   0.237
 7395SOL    HW223085   2.014   2.115   0.159
 7396SOL     OW23086   1.311   6.636   0.555
 7396SOL    HW123087   1.335   6.731   0.575
 7396SOL    HW223088   1.214   6.629   0.534
 7397SOL     OW23089   4.336   5.191   4.942
 7397SOL    HW123090   4.381   5.177   4.854
 7397SOL    HW223091   4.315   5.288   4.953
 7398SOL     OW23092   2.408   4.939   4.467
 7398SOL    HW123093   2.363   4.920   4.554
 7398SOL    HW223094   2.405   4.858   4.409
 7399SOL     OW23095   1.120   2.221   5.805
 7399SOL    HW123096   1.193   2.178   5.752
 7399SOL    HW223097   1.054   2.151   5.833
 7400SOL     OW23098   4.040   2.986   6.171
 7400SOL    HW123099   3.972   2.940   6.228
 7400SOL    HW223100   4.017   3.083   6.162
 7401SOL     OW23101   1.747   0.622   4.854
 7401SOL    HW123102   1.802   0.622   4.770
 7401SOL    HW223103   1.654   0.651   4.831
 7402SOL     OW23104   3.168   6.055   6.254
 7402SOL    HW123105   3.171   5.983   6.323
 7402SOL    HW223106   3.260   6.072   6.219
 7403SOL     OW23107   2.265   4.110   2.599
 7403SOL    HW123108   2.195   4.181   2.586
 7403SOL    HW223109   2.258   4.073   2.691
 7404SOL     OW23110   2.202   5.333   1.547
 7404SOL    HW123111   2.225   5.414   1.600
 7404SOL    HW223112   2.128   5.355   1.483
 7405SOL     OW23113   3.658   4.904   3.952
 7405SOL    HW123114   3.567   4.926   3.917
 7405SOL    HW223115   3.662   4.923   4.050
 7406SOL     OW23116   0.662   3.085   3.288
 7406SOL    HW123117   0.644   3.162   3.349
 7406SOL    HW223118   0.758   3.060   3.292
 7407SOL     OW23119   0.206   6.155   4.469
 7407SOL    HW123120   0.278   6.212   4.430
 7407SOL    HW223121   0.233   6.126   4.561
 7408SOL     OW23122   2.221   4.283   6.653
 7408SOL    HW123123   2.229   4.185   6.668
 7408SOL    HW223124   2.309   4.320   6.624
 7409SOL     OW23125   0.382   1.581   6.016
 7409SOL    HW123126   0.421   1.511   5.957
 7409SOL    HW223127   0.447   1.656   6.027
 7410SOL     OW23128   0.069   6.241   1.052
 7410SOL    HW123129   0.111   6.173   0.992
 7410SOL    HW223130   0.140   6.288   1.104
 7411SOL     OW23131   3.212   0.321   4.954
 7411SOL    HW123132   3.159   0.392   4.998
 7411SOL    HW223133   3.281   0.286   5.017
 7412SOL     OW23134   4.779   0.566   2.329
 7412SOL    HW123135   4.698   0.510   2.313
 7412SOL    HW223136   4.842   0.517   2.388
 7413SOL     OW23137   4.892   6.007   4.520
 7413SOL    HW123138   4.925   6.052   4.437
 7413SOL    HW223139   4.924   5.912   4.521
 7414SOL     OW23140   0.673   0.186   3.508
 7414SOL    HW123141   0.642   0.091   3.513
 7414SOL    HW223142   0.755   0.191   3.451
 7415SOL     OW23143   1.890   4.128   4.131
 7415SOL    HW123144   1.901   4.066   4.053
 7415SOL    HW223145   1.969   4.189   4.137
 7416SOL     OW23146   2.471   1.806   3.700
 7416SOL    HW123147   2.558   1.771   3.665
 7416SOL    HW223148   2.489   1.871   3.774
 7417SOL     OW23149   1.738   0.715   6.589
 7417SOL    HW123150   1.749   0.737   6.492
 7417SOL    HW223151   1.785   0.784   6.644
 7418SOL     OW23152   3.086   5.858   0.885
 7418SOL    HW123153   3.126   5.819   0.802
 7418SOL    HW223154   3.152   5.919   0.928
 7419SOL     OW23155   5.559   3.386   5.162
 7419SOL    HW123156   5.640   3.364   5.217
 7419SOL    HW223157   5.573   3.356   5.068
 7420SOL     OW23158   0.614   0.095   2.008
 7420SOL    HW123159   0.710   0.089   2.036
 7420SOL    HW223160   0.556   0.097   2.089
 7421SOL     OW23161   3.349   3.927   0.675
 7421SOL    HW123162   3.276   3.892   0.733
 7421SOL    HW223163   3.313   3.945   0.583
 7422SOL     OW23164   0.376   3.169   2.450
 7422SOL    HW123165   0.431   3.252   2.451
 7422SOL    HW223166   0.290   3.185   2.499
 7423SOL     OW23167   6.326   4.522   5.434
 7423SOL    HW123168   6.338   4.561   5.525
 7423SOL    HW223169   6.415   4.492   5.399
 7424SOL     OW23170   6.890   0.026   5.472
 7424SOL    HW123171   6.805   0.066   5.439
 7424SOL    HW223172   6.948   0.002   5.394
 7425SOL     OW23173   4.431   5.504   6.704
 7425SOL    HW123174   4.485   5.588   6.695
 7425SOL    HW223175   4.338   5.520   6.672
 7426SOL     OW23176   2.350   0.941   5.897
 7426SOL    HW123177   2.355   0.993   5.812
 7426SOL    HW223178   2.300   0.856   5.881
 7427SOL     OW23179   3.375   0.235   4.254
 7427SOL    HW123180   3.369   0.313   4.191
 7427SOL    HW223181   3.286   0.218   4.295
 7428SOL     OW23182   4.052   1.011   6.140
 7428SOL    HW123183   4.067   1.097   6.091
 7428SOL    HW223184   3.957   0.983   6.131
 7429SOL     OW23185   6.931   6.935   3.611
 7429SOL    HW123186   6.885   6.968   3.528
 7429SOL    HW223187   0.013   6.939   3.597
 7430SOL     OW23188   0.873   3.189   6.724
 7430SOL    HW123189   0.790   3.134   6.718
 7430SOL    HW223190   0.951   3.129   6.743
 7431SOL     OW23191   0.979   2.885   2.783
 7431SOL    HW123192   0.976   2.890   2.883
 7431SOL    HW223193   0.888   2.902   2.746
 7432SOL     OW23194   0.498   1.062   3.245
 7432SOL    HW123195   0.490   0.990   3.176
 7432SOL    HW223196   0.460   1.147   3.208
 7433SOL     OW23197   4.923   5.332   6.010
 7433SOL    HW123198   4.872   5.364   5.930
 7433SOL    HW223199   5.020   5.328   5.987
 7434SOL     OW23200   5.437   6.717   5.840
 7434SOL    HW123201   5.466   6.764   5.924
 7434SOL    HW223202   5.506   6.730   5.769
 7435SOL     OW23203   3.786   5.761   0.721
 7435SOL    HW123204   3.848   5.803   0.655
 7435SOL    HW223205   3.809   5.664   0.731
 7436SOL     OW23206   5.865   3.743   6.787
 7436SOL    HW123207   5.771   3.747   6.755
 7436SOL    HW223208   5.872   3.677   6.862
 7437SOL     OW23209   1.034   6.404   0.536
 7437SOL    HW123210   0.950   6.366   0.574
 7437SOL    HW223211   1.040   6.501   0.556
 7438SOL     OW23212   1.209   5.254   0.108
 7438SOL    HW123213   1.170   5.309   0.033
 7438SOL    HW223214   1.140   5.190   0.141
 7439SOL     OW23215   1.633   5.553   5.301
 7439SOL    HW123216   1.561   5.620   5.286
 7439SOL    HW223217   1.643   5.496   5.220
 7440SOL     OW23218   0.095   3.403   4.269
 7440SOL    HW123219   0.056   3.481   4.221
 7440SOL    HW223220   0.133   3.433   4.357
 7441SOL     OW23221   5.219   6.297   4.021
 7441SOL    HW123222   5.125   6.328   4.005
 7441SOL    HW223223   5.262   6.354   4.091
 7442SOL     OW23224   6.850   0.958   5.763
 7442SOL    HW123225   6.943   0.993   5.755
 7442SOL    HW223226   6.841   0.873   5.713
 7443SOL     OW23227   0.023   0.317   2.157
 7443SOL    HW123228   0.041   0.259   2.236
 7443SOL    HW223229   6.984   0.266   2.091
 7444SOL     OW23230   6.117   2.953   5.337
 7444SOL    HW123231   6.019   2.936   5.335
 7444SOL    HW223232   6.150   2.943   5.431
 7445SOL     OW23233   3.925   1.053   1.263
 7445SOL    HW123234   3.929   1.034   1.165
 7445SOL    HW223235   3.830   1.044   1.294
 7446SOL     OW23236   5.601   3.600   1.020
 7446SOL    HW123237   5.615   3.617   1.117
 7446SOL    HW223238   5.554   3.679   0.979
 7447SOL     OW23239   0.603   3.454   6.232
 7447SOL    HW123240   0.615   3.427   6.136
 7447SOL    HW223241   0.506   3.472   6.249
 7448SOL     OW23242   6.512   6.588   5.766
 7448SOL    HW123243   6.436   6.534   5.802
 7448SOL    HW223244   6.515   6.579   5.666
 7449SOL     OW23245   6.360   3.576   1.540
 7449SOL    HW123246   6.278   3.552   1.592
 7449SOL    HW223247   6.342   3.661   1.490
 7450SOL     OW23248   5.526   1.886   4.582
 7450SOL    HW123249   5.558   1.849   4.495
 7450SOL    HW223250   5.579   1.845   4.657
 7451SOL     OW23251   0.183   0.013   3.291
 7451SOL    HW123252   0.130   6.997   3.213
 7451SOL    HW223253   0.225   0.101   3.269
 7452SOL     OW23254   0.895   6.292   4.724
 7452SOL    HW123255   0.935   6.203   4.744
 7452SOL    HW223256   0.799   6.280   4.698
 7453SOL     OW23257   4.764   6.594   5.638
 7453SOL    HW123258   4.735   6.574   5.544
 7453SOL    HW223259   4.850   6.547   5.656
 7454SOL     OW23260   0.263   2.395   2.473
 7454SOL    HW123261   0.289   2.310   2.518
 7454SOL    HW223262   0.327   2.467   2.499
 7455SOL     OW23263   6.629   1.616   2.445
 7455SOL    HW123264   6.714   1.664   2.428
 7455SOL    HW223265   6.565   1.676   2.492
 7456SOL     OW23266   0.810   1.618   4.271
 7456SOL    HW123267   0.735   1.677   4.301
 7456SOL    HW223268   0.826   1.546   4.339
 7457SOL     OW23269   3.841   6.952   6.194
 7457SOL    HW123270   3.885   6.998   6.116
 7457SOL    HW223271   3.889   6.867   6.213
 7458SOL     OW23272   1.989   6.796   5.890
 7458SOL    HW123273   2.038   6.856   5.826
 7458SOL    HW223274   1.912   6.845   5.929
 7459SOL     OW23275   5.113   0.689   1.911
 7459SOL    HW123276   5.114   0.590   1.898
 7459SOL    HW223277   5.077   0.710   2.002
 7460SOL     OW23278   1.886   5.436   1.081
 7460SOL    HW123279   1.792   5.463   1.102
 7460SOL    HW223280   1.934   5.511   1.036
 7461SOL     OW23281   6.114   1.324   5.876
 7461SOL    HW123282   6.183   1.359   5.813
 7461SOL    HW223283   6.031   1.379   5.868
 7462SOL     OW23284   1.678   4.057   2.594
 7462SOL    HW123285   1.640   4.049   2.502
 7462SOL    HW223286   1.761   4.002   2.601
 7463SOL     OW23287   2.335   4.738   0.910
 7463SOL    HW123288   2.391   4.762   0.832
 7463SOL    HW223289   2.344   4.640   0.929
 7464SOL     OW23290   5.030   6.986   6.571
 7464SOL    HW123291   5.071   6.970   6.481
 7464SOL    HW223292   4.941   6.941   6.577
 7465SOL     OW23293   1.075   5.818   0.414
 7465SOL    HW123294   1.142   5.851   0.348
 7465SOL    HW223295   1.038   5.896   0.466
 7466SOL     OW23296   0.372   0.414   5.765
 7466SOL    HW123297   0.428   0.334   5.784
 7466SOL    HW223298   0.286   0.407   5.815
 7467SOL     OW23299   0.268   1.944   0.833
 7467SOL    HW123300   0.243   1.848   0.844
 7467SOL    HW223301   0.253   1.992   0.919
 7468SOL     OW23302   5.377   2.805   3.931
 7468SOL    HW123303   5.397   2.747   3.852
 7468SOL    HW223304   5.334   2.890   3.901
 7469SOL     OW23305   0.027   0.873   0.650
 7469SOL    HW123306   0.047   0.939   0.578
 7469SOL    HW223307   6.966   0.905   0.704
 7470SOL     OW23308   6.728   3.416   3.745
 7470SOL    HW123309   6.663   3.447   3.676
 7470SOL    HW223310   6.681   3.402   3.832
 7471SOL     OW23311   6.602   5.738   6.034
 7471SOL    HW123312   6.580   5.665   6.099
 7471SOL    HW223313   6.613   5.698   5.943
 7472SOL     OW23314   6.049   6.795   4.578
 7472SOL    HW123315   6.115   6.838   4.640
 7472SOL    HW223316   6.080   6.807   4.484
 7473SOL     OW23317   6.448   5.029   3.057
 7473SOL    HW123318   6.400   5.101   3.007
 7473SOL    HW223319   6.519   5.070   3.115
 7474SOL     OW23320   1.776   1.292   5.129
 7474SOL    HW123321   1.772   1.209   5.185
 7474SOL    HW223322   1.822   1.271   5.042
 7475SOL     OW23323   4.470   2.161   1.891
 7475SOL    HW123324   4.440   2.251   1.924
 7475SOL    HW223325   4.504   2.108   1.969
 7476SOL     OW23326   2.957   6.014   3.555
 7476SOL    HW123327   2.912   6.102   3.543
 7476SOL    HW223328   2.974   5.973   3.465
 7477SOL     OW23329   0.314   0.566   5.120
 7477SOL    HW123330   0.253   0.491   5.146
 7477SOL    HW223331   0.269   0.624   5.053
 7478SOL     OW23332   4.717   5.506   6.463
 7478SOL    HW123333   4.784   5.452   6.513
 7478SOL    HW223334   4.761   5.587   6.425
 7479SOL     OW23335   4.302   2.567   1.745
 7479SOL    HW123336   4.252   2.647   1.711
 7479SOL    HW223337   4.400   2.587   1.746
 7480SOL     OW23338   0.237   4.286   1.929
 7480SOL    HW123339   0.229   4.371   1.982
 7480SOL    HW223340   0.146   4.256   1.899
 7481SOL     OW23341   6.121   5.138   1.118
 7481SOL    HW123342   6.152   5.060   1.173
 7481SOL    HW223343   6.135   5.222   1.169
 7482SOL     OW23344   4.279   2.342   2.863
 7482SOL    HW123345   4.187   2.312   2.835
 7482SOL    HW223346   4.314   2.279   2.933
 7483SOL     OW23347   4.839   2.978   4.601
 7483SOL    HW123348   4.853   2.939   4.692
 7483SOL    HW223349   4.865   3.074   4.602
 7484SOL     OW23350   1.498   1.059   3.337
 7484SOL    HW123351   1.435   1.106   3.398
 7484SOL    HW223352   1.492   1.099   3.246
 7485SOL     OW23353   3.576   0.613   5.214
 7485SOL    HW123354   3.614   0.705   5.227
 7485SOL    HW223355   3.530   0.608   5.126
 7486SOL     OW23356   2.129   0.233   0.497
 7486SOL    HW123357   2.226   0.255   0.490
 7486SOL    HW223358   2.108   0.155   0.438
 7487SOL     OW23359   2.428   6.415   2.672
 7487SOL    HW123360   2.348   6.474   2.670
 7487SOL    HW223361   2.462   6.408   2.766
 7488SOL     OW23362   2.219   6.771   3.869
 7488SOL    HW123363   2.287   6.724   3.812
 7488SOL    HW223364   2.259   6.853   3.908
 7489SOL     OW23365   5.041   2.743   5.078
 7489SOL    HW123366   5.098   2.785   5.007
 7489SOL    HW223367   5.004   2.656   5.044
 7490SOL     OW23368   1.244   0.615   2.090
 7490SOL    HW123369   1.285   0.545   2.147
 7490SOL    HW223370   1.175   0.573   2.031
 7491SOL     OW23371   6.097   2.680   5.838
 7491SOL    HW123372   6.026   2.704   5.771
 7491SOL    HW223373   6.180   2.732   5.819
 7492SOL     OW23374   1.890   0.570   3.217
 7492SOL    HW123375   1.805   0.617   3.192
 7492SOL    HW223376   1.947   0.558   3.135
 7493SOL     OW23377   0.135   3.708   6.933
 7493SOL    HW123378   0.055   3.648   6.929
 7493SOL    HW223379   0.194   3.680   7.009
 7494SOL     OW23380   4.901   0.838   2.773
 7494SOL    HW123381   4.929   0.827   2.678
 7494SOL    HW223382   4.801   0.844   2.778
 7495SOL     OW23383   1.766   1.207   0.176
 7495SOL    HW123384   1.814   1.248   0.098
 7495SOL    HW223385   1.668   1.203   0.157
 7496SOL     OW23386   6.533   3.745   6.289
 7496SOL    HW123387   6.490   3.656   6.275
 7496SOL    HW223388   6.627   3.742   6.256
 7497SOL     OW23389   2.195   4.237   6.982
 7497SOL    HW123390   2.130   4.250   0.040
 7497SOL    HW223391   2.146   4.213   6.899
 7498SOL     OW23392   2.921   0.886   5.891
 7498SOL    HW123393   2.975   0.955   5.843
 7498SOL    HW223394   2.942   0.796   5.855
 7499SOL     OW23395   3.530   2.106   3.049
 7499SOL    HW123396   3.480   2.069   3.128
 7499SOL    HW223397   3.468   2.117   2.972
 7500SOL     OW23398   2.945   5.352   3.266
 7500SOL    HW123399   3.032   5.352   3.217
 7500SOL    HW223400   2.926   5.261   3.303
 7501SOL     OW23401   5.215   4.328   4.463
 7501SOL    HW123402   5.217   4.228   4.457
 7501SOL    HW223403   5.122   4.361   4.450
 7502SOL     OW23404   1.751   0.383   3.608
 7502SOL    HW123405   1.752   0.465   3.551
 7502SOL    HW223406   1.693   0.399   3.688
 7503SOL     OW23407   3.314   1.052   1.059
 7503SOL    HW123408   3.332   0.958   1.031
 7503SOL    HW223409   3.335   1.115   0.984
 7504SOL     OW23410   1.401   0.247   3.100
 7504SOL    HW123411   1.353   0.284   3.180
 7504SOL    HW223412   1.336   0.237   3.024
 7505SOL     OW23413   1.907   1.545   5.489
 7505SOL    HW123414   1.963   1.530   5.407
 7505SOL    HW223415   1.811   1.525   5.468
 7506SOL     OW23416   5.599   0.581   3.064
 7506SOL    HW123417   5.676   0.592   3.128
 7506SOL    HW223418   5.570   0.670   3.031
 7507SOL     OW23419   0.564   0.822   2.338
 7507SOL    HW123420   0.498   0.765   2.290
 7507SOL    HW223421   0.634   0.763   2.379
 7508SOL     OW23422   0.794   6.830   1.560
 7508SOL    HW123423   0.784   6.911   1.617
 7508SOL    HW223424   0.890   6.819   1.534
 7509SOL     OW23425   5.015   4.396   0.499
 7509SOL    HW123426   5.066   4.482   0.507
 7509SOL    HW223427   5.055   4.340   0.427
 7510SOL     OW23428   3.662   4.129   5.433
 7510SOL    HW123429   3.604   4.200   5.472
 7510SOL    HW223430   3.605   4.053   5.401
 7511SOL     OW23431   2.789   6.923   3.964
 7511SOL    HW123432   2.802   6.917   3.865
 7511SOL    HW223433   2.714   6.986   3.984
 7512SOL     OW23434   2.746   6.463   6.540
 7512SOL    HW123435   2.717   6.451   6.635
 7512SOL    HW223436   2.843   6.487   6.538
 7513SOL     OW23437   2.575   0.658   1.505
 7513SOL    HW123438   2.607   0.726   1.438
 7513SOL    HW223439   2.513   0.702   1.570
 7514SOL     OW23440   2.291   5.909   1.845
 7514SOL    HW123441   2.218   5.843   1.863
 7514SOL    HW223442   2.289   5.935   1.748
 7515SOL     OW23443   6.847   4.927   2.740
 7515SOL    HW123444   6.941   4.893   2.744
 7515SOL    HW223445   6.798   4.900   2.822
 7516SOL     OW23446   6.613   6.390   5.399
 7516SOL    HW123447   6.676   6.366   5.473
 7516SOL    HW223448   6.542   6.319   5.393
 7517SOL     OW23449   0.139   2.974   0.782
 7517SOL    HW123450   0.132   3.069   0.814
 7517SOL    HW223451   0.175   2.973   0.689
 7518SOL     OW23452   4.244   4.990   3.697
 7518SOL    HW123453   4.277   4.919   3.635
 7518SOL    HW223454   4.263   4.965   3.791
 7519SOL     OW23455   0.119   6.704   3.800
 7519SOL    HW123456   0.138   6.786   3.855
 7519SOL    HW223457   0.190   6.693   3.731
 7520SOL     OW23458   2.737   0.201   2.654
 7520SOL    HW123459   2.719   0.182   2.750
 7520SOL    HW223460   2.668   0.263   2.618
 7521SOL     OW23461   4.933   4.259   6.391
 7521SOL    HW123462   4.973   4.238   6.302
 7521SOL    HW223463   4.842   4.299   6.379
 7522SOL     OW23464   1.866   0.574   6.345
 7522SOL    HW123465   1.870   0.496   6.409
 7522SOL    HW223466   1.958   0.612   6.335
 7523SOL     OW23467   5.741   0.071   5.448
 7523SOL    HW123468   5.746   0.130   5.529
 7523SOL    HW223469   5.737   0.127   5.366
 7524SOL     OW23470   1.452   2.040   5.254
 7524SOL    HW123471   1.532   1.990   5.222
 7524SOL    HW223472   1.410   2.089   5.178
 7525SOL     OW23473   3.374   0.625   6.301
 7525SOL    HW123474   3.447   0.692   6.316
 7525SOL    HW223475   3.321   0.651   6.220
 7526SOL     OW23476   2.798   3.375   1.965
 7526SOL    HW123477   2.835   3.465   1.990
 7526SOL    HW223478   2.708   3.364   2.009
 7527SOL     OW23479   3.259   5.967   3.279
 7527SOL    HW123480   3.171   5.926   3.259
 7527SOL    HW223481   3.314   5.905   3.334
 7528SOL     OW23482   5.542   1.648   6.875
 7528SOL    HW123483   5.524   1.747   6.876
 7528SOL    HW223484   5.623   1.628   6.930
 7529SOL     OW23485   4.734   0.802   4.495
 7529SOL    HW123486   4.759   0.835   4.405
 7529SOL    HW223487   4.779   0.857   4.565
 7530SOL     OW23488   0.494   3.239   2.855
 7530SOL    HW123489   0.445   3.217   2.771
 7530SOL    HW223490   0.590   3.258   2.835
 7531SOL     OW23491   5.286   3.407   4.512
 7531SOL    HW123492   5.256   3.433   4.604
 7531SOL    HW223493   5.206   3.388   4.455
 7532SOL     OW23494   5.611   5.542   0.001
 7532SOL    HW123495   5.555   5.532   0.083
 7532SOL    HW223496   5.682   5.471   0.000
 7533SOL     OW23497   2.644   1.921   1.894
 7533SOL    HW123498   2.548   1.947   1.899
 7533SOL    HW223499   2.650   1.821   1.887
 7534SOL     OW23500   4.224   5.952   5.430
 7534SOL    HW123501   4.132   5.991   5.435
 7534SOL    HW223502   4.240   5.916   5.338
 7535SOL     OW23503   1.960   6.961   4.996
 7535SOL    HW123504   1.890   0.013   4.974
 7535SOL    HW223505   1.944   6.879   4.940
 7536SOL     OW23506   4.569   4.523   4.886
 7536SOL    HW123507   4.501   4.541   4.957
 7536SOL    HW223508   4.524   4.513   4.798
 7537SOL     OW23509   3.117   5.857   2.516
 7537SOL    HW123510   3.047   5.927   2.522
 7537SOL    HW223511   3.086   5.782   2.457
 7538SOL     OW23512   2.459   3.058   1.648
 7538SOL    HW123513   2.461   3.044   1.549
 7538SOL    HW223514   2.379   3.113   1.672
 7539SOL     OW23515   0.952   3.437   4.850
 7539SOL    HW123516   1.004   3.484   4.778
 7539SOL    HW223517   0.955   3.338   4.833
 7540SOL     OW23518   4.186   0.141   4.676
 7540SOL    HW123519   4.137   0.054   4.685
 7540SOL    HW223520   4.146   0.208   4.739
 7541SOL     OW23521   0.373   4.034   5.499
 7541SOL    HW123522   0.399   4.011   5.593
 7541SOL    HW223523   0.401   4.128   5.479
 7542SOL     OW23524   1.137   5.186   6.320
 7542SOL    HW123525   1.180   5.251   6.257
 7542SOL    HW223526   1.121   5.232   6.408
 7543SOL     OW23527   3.505   2.391   6.605
 7543SOL    HW123528   3.529   2.328   6.532
 7543SOL    HW223529   3.539   2.357   6.692
 7544SOL     OW23530   6.954   3.038   2.985
 7544SOL    HW123531   6.947   3.100   2.906
 7544SOL    HW223532   0.027   2.995   2.984
 7545SOL     OW23533   6.723   5.719   0.772
 7545SOL    HW123534   6.762   5.773   0.847
 7545SOL    HW223535   6.791   5.654   0.739
 7546SOL     OW23536   3.285   1.907   1.978
 7546SOL    HW123537   3.256   1.935   2.070
 7546SOL    HW223538   3.334   1.983   1.935
 7547SOL     OW23539   5.424   1.020   0.680
 7547SOL    HW123540   5.435   1.117   0.698
 7547SOL    HW223541   5.326   1.000   0.667
 7548SOL     OW23542   4.166   1.287   0.200
 7548SOL    HW123543   4.114   1.205   0.176
 7548SOL    HW223544   4.140   1.362   0.140
 7549SOL     OW23545   4.824   2.404   0.481
 7549SOL    HW123546   4.742   2.462   0.483
 7549SOL    HW223547   4.833   2.356   0.569
 7550SOL     OW23548   2.720   4.922   2.452
 7550SOL    HW123549   2.630   4.949   2.418
 7550SOL    HW223550   2.740   4.972   2.536
 7551SOL     OW23551   5.337   3.565   7.001
 7551SOL    HW123552   5.309   3.567   0.081
 7551SOL    HW223553   5.361   3.658   6.971
 7552SOL     OW23554   1.472   5.932   2.792
 7552SOL    HW123555   1.451   6.013   2.737
 7552SOL    HW223556   1.405   5.923   2.865
 7553SOL     OW23557   4.390   6.131   5.860
 7553SOL    HW123558   4.434   6.163   5.943
 7553SOL    HW223559   4.388   6.204   5.792
 7554SOL     OW23560   4.518   1.054   0.233
 7554SOL    HW123561   4.525   0.968   0.184
 7554SOL    HW223562   4.449   1.045   0.305
 7555SOL     OW23563   2.527   4.950   6.102
 7555SOL    HW123564   2.592   4.912   6.035
 7555SOL    HW223565   2.565   4.939   6.194
 7556SOL     OW23566   1.759   2.896   0.059
 7556SOL    HW123567   1.829   2.931   0.122
 7556SOL    HW223568   1.676   2.874   0.111
 7557SOL     OW23569   4.926   1.332   5.370
 7557SOL    HW123570   5.001   1.334   5.304
 7557SOL    HW223571   4.839   1.343   5.322
 7558SOL     OW23572   1.219   2.964   4.021
 7558SOL    HW123573   1.155   2.912   4.077
 7558SOL    HW223574   1.230   2.919   3.932
 7559SOL     OW23575   5.273   4.136   6.912
 7559SOL    HW123576   5.177   4.136   6.883
 7559SOL    HW223577   5.331   4.112   6.834
 7560SOL     OW23578   4.849   6.951   0.961
 7560SOL    HW123579   4.773   6.897   0.924
 7560SOL    HW223580   4.818   0.028   0.977
 7561SOL     OW23581   1.036   3.438   6.789
 7561SOL    HW123582   0.942   3.415   6.765
 7561SOL    HW223583   1.041   3.456   6.888
 7562SOL     OW23584   6.929   6.656   3.959
 7562SOL    HW123585   6.843   6.681   3.915
 7562SOL    HW223586   7.004   6.669   3.894
 7563SOL     OW23587   3.071   0.458   0.875
 7563SOL    HW123588   2.974   0.437   0.867
 7563SOL    HW223589   3.111   0.402   0.947
 7564SOL     OW23590   4.783   0.450   3.371
 7564SOL    HW123591   4.802   0.439   3.274
 7564SOL    HW223592   4.712   0.385   3.399
 7565SOL     OW23593   5.259   3.441   0.995
 7565SOL    HW123594   5.329   3.456   1.064
 7565SOL    HW223595   5.223   3.348   1.003
 7566SOL     OW23596   5.819   4.618   2.666
 7566SOL    HW123597   5.770   4.609   2.580
 7566SOL    HW223598   5.832   4.527   2.707
 7567SOL     OW23599   2.007   2.172   4.446
 7567SOL    HW123600   1.981   2.086   4.490
 7567SOL    HW223601   1.958   2.180   4.359
 7568SOL     OW23602   5.240   6.038   2.609
 7568SOL    HW123603   5.178   6.061   2.534
 7568SOL    HW223604   5.188   5.992   2.681
 7569SOL     OW23605   3.987   5.442   6.198
 7569SOL    HW123606   3.890   5.463   6.212
 7569SOL    HW223607   4.028   5.413   6.284
 7570SOL     OW23608   6.008   3.549   5.378
 7570SOL    HW123609   6.025   3.565   5.280
 7570SOL    HW223610   6.080   3.489   5.414
 7571SOL     OW23611   4.197   5.519   3.353
 7571SOL    HW123612   4.150   5.582   3.415
 7571SOL    HW223613   4.185   5.425   3.385
 7572SOL     OW23614   4.673   1.013   1.672
 7572SOL    HW123615   4.602   0.962   1.720
 7572SOL    HW223616   4.722   1.070   1.738
 7573SOL     OW23617   0.468   0.137   5.314
 7573SOL    HW123618   0.440   0.219   5.365
 7573SOL    HW223619   0.437   0.145   5.219
 7574SOL     OW23620   5.748   0.693   5.690
 7574SOL    HW123621   5.758   0.666   5.785
 7574SOL    HW223622   5.832   0.672   5.640
 7575SOL     OW23623   5.077   6.670   6.490
 7575SOL    HW123624   5.117   6.756   6.521
 7575SOL    HW223625   5.018   6.633   6.562
 7576SOL     OW23626   4.864   4.475   6.709
 7576SOL    HW123627   4.892   4.552   6.650
 7576SOL    HW223628   4.925   4.397   6.693
 7577SOL     OW23629   0.821   6.860   0.072
 7577SOL    HW123630   0.772   6.892   7.007
 7577SOL    HW223631   0.919   6.874   0.060
 7578SOL     OW23632   1.897   5.408   2.119
 7578SOL    HW123633   1.844   5.365   2.046
 7578SOL    HW223634   1.975   5.350   2.142
 7579SOL     OW23635   6.727   0.542   1.706
 7579SOL    HW123636   6.725   0.443   1.723
 7579SOL    HW223637   6.644   0.583   1.744
 7580SOL     OW23638   0.503   3.997   4.751
 7580SOL    HW123639   0.585   4.035   4.710
 7580SOL    HW223640   0.475   3.915   4.702
 7581SOL     OW23641   6.743   1.303   0.828
 7581SOL    HW123642   6.704   1.215   0.856
 7581SOL    HW223643   6.780   1.350   0.908
 7582SOL     OW23644   4.294   1.323   1.754
 7582SOL    HW123645   4.253   1.402   1.800
 7582SOL    HW223646   4.255   1.314   1.662
 7583SOL     OW23647   6.434   3.104   1.729
 7583SOL    HW123648   6.340   3.139   1.722
 7583SOL    HW223649   6.495   3.167   1.680
 7584SOL     OW23650   3.402   0.029   1.213
 7584SOL    HW123651   3.389   0.127   1.226
 7584SOL    HW223652   3.333   6.995   1.265
 7585SOL     OW23653   1.536   2.840   6.431
 7585SOL    HW123654   1.519   2.770   6.363
 7585SOL    HW223655   1.459   2.846   6.494
 7586SOL     OW23656   2.618   0.945   3.470
 7586SOL    HW123657   2.601   0.851   3.441
 7586SOL    HW223658   2.532   0.987   3.498
 7587SOL     OW23659   2.379   2.430   0.201
 7587SOL    HW123660   2.429   2.495   0.258
 7587SOL    HW223661   2.288   2.466   0.180
 7588SOL     OW23662   1.714   3.169   3.438
 7588SOL    HW123663   1.801   3.155   3.391
 7588SOL    HW223664   1.675   3.080   3.464
 7589SOL     OW23665   0.895   0.447   2.640
 7589SOL    HW123666   0.822   0.502   2.681
 7589SOL    HW223667   0.980   0.462   2.690
 7590SOL     OW23668   4.080   1.622   5.966
 7590SOL    HW123669   4.119   1.708   5.935
 7590SOL    HW223670   4.009   1.640   6.034
 7591SOL     OW23671   0.538   3.997   0.480
 7591SOL    HW123672   0.486   4.048   0.549
 7591SOL    HW223673   0.636   4.013   0.493
 7592SOL     OW23674   6.909   4.721   4.771
 7592SOL    HW123675   6.859   4.677   4.846
 7592SOL    HW223676   6.845   4.777   4.718
 7593SOL     OW23677   6.038   3.275   1.039
 7593SOL    HW123678   6.006   3.207   0.973
 7593SOL    HW223679   5.990   3.361   1.023
 7594SOL     OW23680   0.903   5.472   2.334
 7594SOL    HW123681   0.875   5.466   2.430
 7594SOL    HW223682   0.942   5.562   2.317
 7595SOL     OW23683   6.396   2.779   5.799
 7595SOL    HW123684   6.445   2.692   5.804
 7595SOL    HW223685   6.404   2.828   5.886
 7596SOL     OW23686   4.439   5.515   4.317
 7596SOL    HW123687   4.474   5.531   4.225
 7596SOL    HW223688   4.361   5.453   4.313
 7597SOL     OW23689   2.843   6.772   2.743
 7597SOL    HW123690   2.840   6.699   2.674
 7597SOL    HW223691   2.813   6.735   2.831
 7598SOL     OW23692   6.993   1.746   3.291
 7598SOL    HW123693   6.989   1.659   3.243
 7598SOL    HW223694   6.977   1.732   3.388
 7599SOL     OW23695   5.271   1.857   2.545
 7599SOL    HW123696   5.221   1.860   2.459
 7599SOL    HW223697   5.351   1.797   2.536
 7600SOL     OW23698   1.495   1.626   2.547
 7600SOL    HW123699   1.500   1.643   2.448
 7600SOL    HW223700   1.582   1.653   2.589
 7601SOL     OW23701   1.653   5.492   2.991
 7601SOL    HW123702   1.740   5.541   2.988
 7601SOL    HW223703   1.665   5.406   3.041
 7602SOL     OW23704   2.090   4.308   6.375
 7602SOL    HW123705   2.021   4.240   6.349
 7602SOL    HW223706   2.130   4.283   6.464
 7603SOL     OW23707   1.617   5.856   6.120
 7603SOL    HW123708   1.667   5.770   6.104
 7603SOL    HW223709   1.663   5.908   6.192
 7604SOL     OW23710   2.038   3.926   4.560
 7604SOL    HW123711   2.070   3.833   4.538
 7604SOL    HW223712   2.102   3.968   4.625
 7605SOL     OW23713   1.122   0.244   1.155
 7605SOL    HW123714   1.129   0.173   1.085
 7605SOL    HW223715   1.058   0.215   1.226
 7606SOL     OW23716   6.058   4.004   5.222
 7606SOL    HW123717   6.155   3.978   5.218
 7606SOL    HW223718   6.002   3.922   5.227
 7607SOL     OW23719   2.965   5.153   0.334
 7607SOL    HW123720   3.008   5.063   0.329
 7607SOL    HW223721   3.035   5.224   0.346
 7608SOL     OW23722   4.147   3.465   2.279
 7608SOL    HW123723   4.064   3.501   2.322
 7608SOL    HW223724   4.221   3.466   2.346
 7609SOL     OW23725   0.976   3.528   4.482
 7609SOL    HW123726   0.943   3.478   4.402
 7609SOL    HW223727   0.901   3.582   4.520
 7610SOL     OW23728   4.320   4.984   6.140
 7610SOL    HW123729   4.387   4.930   6.087
 7610SOL    HW223730   4.233   4.986   6.090
 7611SOL     OW23731   6.390   2.774   1.222
 7611SOL    HW123732   6.408   2.717   1.302
 7611SOL    HW223733   6.296   2.757   1.190
 7612SOL     OW23734   4.636   2.471   3.408
 7612SOL    HW123735   4.723   2.501   3.368
 7612SOL    HW223736   4.572   2.449   3.335
 7613SOL     OW23737   6.556   2.994   0.884
 7613SOL    HW123738   6.590   3.076   0.932
 7613SOL    HW223739   6.498   2.942   0.946
 7614SOL     OW23740   4.892   2.958   0.600
 7614SOL    HW123741   4.857   2.905   0.677
 7614SOL    HW223742   4.988   2.981   0.616
 7615SOL     OW23743   3.604   5.480   0.692
 7615SOL    HW123744   3.678   5.487   0.625
 7615SOL    HW223745   3.637   5.433   0.774
 7616SOL     OW23746   6.091   5.894   4.397
 7616SOL    HW123747   6.054   5.986   4.408
 7616SOL    HW223748   6.189   5.900   4.377
 7617SOL     OW23749   4.064   5.421   2.501
 7617SOL    HW123750   4.163   5.434   2.514
 7617SOL    HW223751   4.028   5.496   2.445
 7618SOL     OW23752   0.274   1.187   5.309
 7618SOL    HW123753   0.206   1.114   5.307
 7618SOL    HW223754   0.239   1.267   5.261
 7619SOL     OW23755   5.607   2.920   5.538
 7619SOL    HW123756   5.578   3.013   5.516
 7619SOL    HW223757   5.560   2.890   5.621
 7620SOL     OW23758   4.197   5.944   1.171
 7620SOL    HW123759   4.135   6.020   1.150
 7620SOL    HW223760   4.147   5.872   1.218
 7621SOL     OW23761   6.466   1.546   0.758
 7621SOL    HW123762   6.486   1.551   0.856
 7621SOL    HW223763   6.526   1.478   0.715
 7622SOL     OW23764   4.686   5.411   0.012
 7622SOL    HW123765   4.746   5.487   0.039
 7622SOL    HW223766   4.679   5.346   0.087
 7623SOL     OW23767   4.635   4.126   0.101
 7623SOL    HW123768   4.542   4.144   0.069
 7623SOL    HW223769   4.672   4.209   0.145
 7624SOL     OW23770   6.818   3.795   4.850
 7624SOL    HW123771   6.871   3.880   4.851
 7624SOL    HW223772   6.876   3.719   4.880
 7625SOL     OW23773   4.737   0.445   1.391
 7625SOL    HW123774   4.781   0.367   1.436
 7625SOL    HW223775   4.640   0.447   1.418
 7626SOL     OW23776   6.201   0.124   4.279
 7626SOL    HW123777   6.285   0.129   4.224
 7626SOL    HW223778   6.131   0.183   4.239
 7627SOL     OW23779   4.751   2.788   6.811
 7627SOL    HW123780   4.839   2.825   6.780
 7627SOL    HW223781   4.676   2.839   6.767
 7628SOL     OW23782   3.537   2.048   2.161
 7628SOL    HW123783   3.607   2.103   2.115
 7628SOL    HW223784   3.533   1.957   2.120
 7629SOL     OW23785   0.112   6.241   3.010
 7629SOL    HW123786   0.179   6.302   2.968
 7629SOL    HW223787   0.076   6.283   3.093
 7630SOL     OW23788   6.997   6.533   1.286
 7630SOL    HW123789   0.068   6.532   1.238
 7630SOL    HW223790   7.000   6.598   1.361
 7631SOL     OW23791   0.828   1.015   6.614
 7631SOL    HW123792   0.745   1.058   6.578
 7631SOL    HW223793   0.806   0.924   6.649
 7632SOL     OW23794   3.825   3.137   1.592
 7632SOL    HW123795   3.780   3.145   1.681
 7632SOL    HW223796   3.872   3.223   1.571
 7633SOL     OW23797   5.391   0.608   1.108
 7633SOL    HW123798   5.423   0.544   1.177
 7633SOL    HW223799   5.316   0.663   1.145
 7634SOL     OW23800   1.507   2.207   2.610
 7634SOL    HW123801   1.419   2.230   2.567
 7634SOL    HW223802   1.566   2.162   2.542
 7635SOL     OW23803   3.513   5.275   4.884
 7635SOL    HW123804   3.574   5.265   4.805
 7635SOL    HW223805   3.464   5.189   4.900
 7636SOL     OW23806   1.646   3.084   4.028
 7636SOL    HW123807   1.594   2.999   4.027
 7636SOL    HW223808   1.722   3.076   4.092
 7637SOL     OW23809   2.121   5.466   2.828
 7637SOL    HW123810   2.171   5.384   2.857
 7637SOL    HW223811   2.157   5.498   2.741
 7638SOL     OW23812   2.564   5.943   1.440
 7638SOL    HW123813   2.659   5.947   1.471
 7638SOL    HW223814   2.556   5.985   1.350
 7639SOL     OW23815   0.857   2.180   0.654
 7639SOL    HW123816   0.874   2.183   0.556
 7639SOL    HW223817   0.923   2.239   0.701
 7640SOL     OW23818   3.416   1.079   5.713
 7640SOL    HW123819   3.420   1.064   5.812
 7640SOL    HW223820   3.423   1.177   5.695
 7641SOL     OW23821   1.028   4.017   2.538
 7641SOL    HW123822   0.977   3.986   2.618
 7641SOL    HW223823   1.090   3.945   2.508
 7642SOL     OW23824   3.751   1.095   3.182
 7642SOL    HW123825   3.780   1.060   3.271
 7642SOL    HW223826   3.653   1.117   3.185
 7643SOL     OW23827   4.734   2.859   3.691
 7643SOL    HW123828   4.784   2.772   3.691
 7643SOL    HW223829   4.704   2.881   3.784
 7644SOL     OW23830   5.865   1.891   2.060
 7644SOL    HW123831   5.858   1.868   1.963
 7644SOL    HW223832   5.920   1.974   2.070
 7645SOL     OW23833   4.721   3.306   5.550
 7645SOL    HW123834   4.643   3.246   5.533
 7645SOL    HW223835   4.753   3.345   5.464
 7646SOL     OW23836   1.212   3.610   3.003
 7646SOL    HW123837   1.185   3.519   2.971
 7646SOL    HW223838   1.156   3.679   2.959
 7647SOL     OW23839   6.662   2.753   3.552
 7647SOL    HW123840   6.653   2.816   3.628
 7647SOL    HW223841   6.573   2.711   3.533
 7648SOL     OW23842   3.200   1.946   3.092
 7648SOL    HW123843   3.252   1.876   3.042
 7648SOL    HW223844   3.187   2.026   3.034
 7649SOL     OW23845   0.594   1.303   2.705
 7649SOL    HW123846   0.662   1.257   2.762
 7649SOL    HW223847   0.545   1.235   2.650
 7650SOL     OW23848   4.585   1.520   0.398
 7650SOL    HW123849   4.654   1.461   0.355
 7650SOL    HW223850   4.537   1.468   0.469
 7651SOL     OW23851   2.343   0.619   3.712
 7651SOL    HW123852   2.295   0.611   3.625
 7651SOL    HW223853   2.278   0.644   3.784
 7652SOL     OW23854   6.101   3.883   5.745
 7652SOL    HW123855   6.031   3.900   5.814
 7652SOL    HW223856   6.101   3.958   5.678
 7653SOL     OW23857   1.176   1.660   0.048
 7653SOL    HW123858   1.228   1.744   0.032
 7653SOL    HW223859   1.107   1.650   6.993
 7654SOL     OW23860   4.873   3.179   4.143
 7654SOL    HW123861   4.891   3.129   4.058
 7654SOL    HW223862   4.803   3.130   4.196
 7655SOL     OW23863   4.241   0.077   2.549
 7655SOL    HW123864   4.190   0.120   2.474
 7655SOL    HW223865   4.177   0.036   2.614
 7656SOL     OW23866   2.847   4.017   6.000
 7656SOL    HW123867   2.850   4.115   6.020
 7656SOL    HW223868   2.758   3.980   6.028
 7657SOL     OW23869   1.041   2.576   3.961
 7657SOL    HW123870   1.106   2.556   3.888
 7657SOL    HW223871   1.010   2.490   4.002
 7658SOL     OW23872   4.272   6.744   6.379
 7658SOL    HW123873   4.324   6.819   6.419
 7658SOL    HW223874   4.321   6.658   6.395
 7659SOL     OW23875   6.077   4.955   5.817
 7659SOL    HW123876   6.163   5.006   5.822
 7659SOL    HW223877   6.082   4.877   5.880
 7660SOL     OW23878   0.602   5.992   3.908
 7660SOL    HW123879   0.581   5.947   3.995
 7660SOL    HW223880   0.580   6.090   3.915
 7661SOL     OW23881   5.691   2.594   4.613
 7661SOL    HW123882   5.698   2.610   4.514
 7661SOL    HW223883   5.770   2.635   4.659
 7662SOL     OW23884   1.161   3.026   3.398
 7662SOL    HW123885   1.076   3.080   3.400
 7662SOL    HW223886   1.231   3.074   3.450
 7663SOL     OW23887   0.146   5.053   5.304
 7663SOL    HW123888   0.111   4.960   5.315
 7663SOL    HW223889   0.069   5.116   5.290
 7664SOL     OW23890   3.707   6.902   1.899
 7664SOL    HW123891   3.705   6.823   1.961
 7664SOL    HW223892   3.763   6.881   1.819
 7665SOL     OW23893   6.209   6.931   4.725
 7665SOL    HW123894   6.153   6.994   4.779
 7665SOL    HW223895   6.306   6.945   4.748
 7666SOL     OW23896   0.554   5.482   1.826
 7666SOL    HW123897   0.548   5.382   1.830
 7666SOL    HW223898   0.618   5.514   1.895
 7667SOL     OW23899   4.867   6.786   2.071
 7667SOL    HW123900   4.816   6.709   2.032
 7667SOL    HW223901   4.812   6.830   2.142
 7668SOL     OW23902   3.045   4.608   0.395
 7668SOL    HW123903   3.008   4.517   0.414
 7668SOL    HW223904   3.145   4.603   0.392
 7669SOL     OW23905   4.692   1.535   5.100
 7669SOL    HW123906   4.734   1.537   5.009
 7669SOL    HW223907   4.690   1.627   5.138
 7670SOL     OW23908   0.896   4.578   7.015
 7670SOL    HW123909   0.946   4.597   6.931
 7670SOL    HW223910   0.957   4.593   0.077
 7671SOL     OW23911   4.560   1.345   2.105
 7671SOL    HW123912   4.584   1.437   2.074
 7671SOL    HW223913   4.573   1.338   2.204
 7672SOL     OW23914   0.493   6.754   2.387
 7672SOL    HW123915   0.535   6.714   2.305
 7672SOL    HW223916   0.419   6.815   2.360
 7673SOL     OW23917   1.710   6.484   0.827
 7673SOL    HW123918   1.678   6.482   0.922
 7673SOL    HW223919   1.695   6.395   0.785
 7674SOL     OW23920   5.276   0.956   3.069
 7674SOL    HW123921   5.342   0.973   2.996
 7674SOL    HW223922   5.203   0.896   3.036
 7675SOL     OW23923   6.221   6.676   2.227
 7675SOL    HW123924   6.124   6.695   2.218
 7675SOL    HW223925   6.243   6.653   2.321
 7676SOL     OW23926   2.940   2.135   0.726
 7676SOL    HW123927   2.952   2.193   0.806
 7676SOL    HW223928   3.007   2.160   0.656
 7677SOL     OW23929   0.422   5.109   1.571
 7677SOL    HW123930   0.480   5.042   1.618
 7677SOL    HW223931   0.328   5.077   1.570
 7678SOL     OW23932   1.801   3.323   4.757
 7678SOL    HW123933   1.714   3.277   4.778
 7678SOL    HW223934   1.874   3.280   4.810
 7679SOL     OW23935   2.890   5.715   5.408
 7679SOL    HW123936   2.906   5.701   5.505
 7679SOL    HW223937   2.806   5.669   5.381
 7680SOL     OW23938   1.317   0.768   0.524
 7680SOL    HW123939   1.228   0.726   0.506
 7680SOL    HW223940   1.331   0.844   0.460
 7681SOL     OW23941   2.556   1.278   1.158
 7681SOL    HW123942   2.524   1.307   1.067
 7681SOL    HW223943   2.490   1.214   1.197
 7682SOL     OW23944   3.073   6.876   1.998
 7682SOL    HW123945   2.979   6.848   2.019
 7682SOL    HW223946   3.076   6.974   1.980
 7683SOL     OW23947   4.988   1.626   4.674
 7683SOL    HW123948   5.016   1.721   4.661
 7683SOL    HW223949   4.960   1.587   4.586
 7684SOL     OW23950   3.040   1.846   1.829
 7684SOL    HW123951   3.020   1.867   1.733
 7684SOL    HW223952   3.136   1.869   1.848
 7685SOL     OW23953   2.847   1.902   6.309
 7685SOL    HW123954   2.903   1.847   6.372
 7685SOL    HW223955   2.902   1.978   6.274
 7686SOL     OW23956   6.537   6.268   2.966
 7686SOL    HW123957   6.533   6.206   3.045
 7686SOL    HW223958   6.493   6.354   2.990
 7687SOL     OW23959   5.727   5.338   3.320
 7687SOL    HW123960   5.723   5.284   3.236
 7687SOL    HW223961   5.817   5.329   3.362
 7688SOL     OW23962   0.957   5.887   5.814
 7688SOL    HW123963   1.004   5.800   5.807
 7688SOL    HW223964   1.013   5.959   5.774
 7689SOL     OW23965   5.389   6.404   2.575
 7689SOL    HW123966   5.430   6.325   2.621
 7689SOL    HW223967   5.407   6.487   2.628
 7690SOL     OW23968   5.216   5.391   0.269
 7690SOL    HW123969   5.181   5.449   0.343
 7690SOL    HW223970   5.149   5.388   0.194
 7691SOL     OW23971   5.133   3.990   4.254
 7691SOL    HW123972   5.161   4.010   4.348
 7691SOL    HW223973   5.208   3.947   4.205
 7692SOL     OW23974   0.823   6.231   1.924
 7692SOL    HW123975   0.812   6.235   1.824
 7692SOL    HW223976   0.843   6.137   1.951
 7693SOL     OW23977   3.638   6.566   1.730
 7693SOL    HW123978   3.726   6.520   1.716
 7693SOL    HW223979   3.621   6.574   1.829
 7694SOL     OW23980   6.540   4.394   4.466
 7694SOL    HW123981   6.448   4.417   4.500
 7694SOL    HW223982   6.538   4.302   4.426
 7695SOL     OW23983   5.084   0.480   0.935
 7695SOL    HW123984   5.090   0.410   1.006
 7695SOL    HW223985   5.175   0.499   0.898
 7696SOL     OW23986   0.701   0.206   5.527
 7696SOL    HW123987   0.630   0.253   5.474
 7696SOL    HW223988   0.677   0.209   5.624
 7697SOL     OW23989   2.179   6.575   2.667
 7697SOL    HW123990   2.109   6.517   2.710
 7697SOL    HW223991   2.141   6.665   2.649
 7698SOL     OW23992   5.805   0.789   3.944
 7698SOL    HW123993   5.778   0.807   4.038
 7698SOL    HW223994   5.848   0.699   3.939
 7699SOL     OW23995   3.606   5.584   6.891
 7699SOL    HW123996   3.553   5.525   6.952
 7699SOL    HW223997   3.703   5.567   6.903
 7700SOL     OW23998   4.319   6.069   3.083
 7700SOL    HW123999   4.302   6.050   3.179
 7700SOL    HW224000   4.318   6.168   3.068
 7701SOL     OW24001   6.684   1.735   0.582
 7701SOL    HW124002   6.611   1.802   0.599
 7701SOL    HW224003   6.759   1.751   0.646
 7702SOL     OW24004   3.195   6.622   5.313
 7702SOL    HW124005   3.246   6.651   5.394
 7702SOL    HW224006   3.171   6.526   5.322
 7703SOL     OW24007   6.612   6.030   6.577
 7703SOL    HW124008   6.697   6.058   6.532
 7703SOL    HW224009   6.541   6.097   6.556
 7704SOL     OW24010   6.054   6.523   4.612
 7704SOL    HW124011   6.076   6.463   4.536
 7704SOL    HW224012   6.070   6.618   4.586
 7705SOL     OW24013   2.660   5.688   6.549
 7705SOL    HW124014   2.613   5.636   6.477
 7705SOL    HW224015   2.651   5.639   6.636
 7706SOL     OW24016   4.221   3.311   5.501
 7706SOL    HW124017   4.153   3.296   5.430
 7706SOL    HW224018   4.269   3.398   5.483
 7707SOL     OW24019   6.944   5.211   5.229
 7707SOL    HW124020   6.890   5.175   5.305
 7707SOL    HW224021   6.932   5.310   5.222
 7708SOL     OW24022   0.511   6.941   6.512
 7708SOL    HW124023   0.485   6.956   6.416
 7708SOL    HW224024   0.450   6.873   6.553
 7709SOL     OW24025   6.769   4.206   1.944
 7709SOL    HW124026   6.796   4.197   2.040
 7709SOL    HW224027   6.761   4.115   1.903
 7710SOL     OW24028   2.870   1.802   0.312
 7710SOL    HW124029   2.896   1.732   0.377
 7710SOL    HW224030   2.900   1.776   0.220
 7711SOL     OW24031   6.018   6.508   5.963
 7711SOL    HW124032   5.986   6.414   5.981
 7711SOL    HW224033   5.963   6.548   5.889
 7712SOL     OW24034   6.055   5.479   1.900
 7712SOL    HW124035   6.123   5.416   1.937
 7712SOL    HW224036   6.084   5.574   1.917
 7713SOL     OW24037   2.167   3.884   1.465
 7713SOL    HW124038   2.159   3.957   1.533
 7713SOL    HW224039   2.104   3.809   1.488
 7714SOL     OW24040   0.299   3.488   5.764
 7714SOL    HW124041   0.210   3.533   5.751
 7714SOL    HW224042   0.334   3.510   5.855
 7715SOL     OW24043   3.260   1.687   0.500
 7715SOL    HW124044   3.291   1.674   0.406
 7715SOL    HW224045   3.160   1.689   0.502
 7716SOL     OW24046   6.673   4.614   2.261
 7716SOL    HW124047   6.671   4.537   2.197
 7716SOL    HW224048   6.593   4.672   2.247
 7717SOL     OW24049   2.091   1.133   5.361
 7717SOL    HW124050   2.114   1.226   5.388
 7717SOL    HW224051   2.015   1.099   5.417
 7718SOL     OW24052   0.080   3.691   4.064
 7718SOL    HW124053   0.141   3.620   4.028
 7718SOL    HW224054   0.081   3.770   4.003
 7719SOL     OW24055   6.659   4.292   5.412
 7719SOL    HW124056   6.743   4.239   5.404
 7719SOL    HW224057   6.647   4.322   5.507
 7720SOL     OW24058   0.313   1.151   0.014
 7720SOL    HW124059   0.409   1.129   0.030
 7720SOL    HW224060   0.303   1.193   6.940
 7721SOL     OW24061   0.577   5.291   2.571
 7721SOL    HW124062   0.545   5.385   2.576
 7721SOL    HW224063   0.602   5.259   2.662
 7722SOL     OW24064   1.206   4.337   3.518
 7722SOL    HW124065   1.206   4.245   3.557
 7722SOL    HW224066   1.235   4.334   3.423
 7723SOL     OW24067   4.721   3.406   6.439
 7723SOL    HW124068   4.651   3.335   6.432
 7723SOL    HW224069   4.686   3.491   6.399
 7724SOL     OW24070   2.975   3.859   1.178
 7724SOL    HW124071   2.912   3.794   1.136
 7724SOL    HW224072   3.068   3.842   1.145
 7725SOL     OW24073   6.444   1.172   2.706
 7725SOL    HW124074   6.438   1.264   2.744
 7725SOL    HW224075   6.421   1.106   2.777
 7726SOL     OW24076   1.095   5.067   5.338
 7726SOL    HW124077   1.133   5.110   5.256
 7726SOL    HW224078   1.022   5.003   5.312
 7727SOL     OW24079   0.222   2.144   2.791
 7727SOL    HW124080   0.276   2.144   2.707
 7727SOL    HW224081   0.247   2.065   2.847
 7728SOL     OW24082   1.954   3.548   5.096
 7728SOL    HW124083   1.908   3.500   5.170
 7728SOL    HW224084   1.913   3.638   5.085
 7729SOL     OW24085   5.748   2.400   1.224
 7729SOL    HW124086   5.705   2.360   1.306
 7729SOL    HW224087   5.777   2.328   1.163
 7730SOL     OW24088   6.209   5.856   0.064
 7730SOL    HW124089   6.226   5.953   0.048
 7730SOL    HW224090   6.113   5.835   0.047
 7731SOL     OW24091   0.033   1.558   0.305
 7731SOL    HW124092   0.031   1.461   0.329
 7731SOL    HW224093   6.988   1.609   0.364
 7732SOL     OW24094   5.184   6.893   0.726
 7732SOL    HW124095   5.154   6.844   0.808
 7732SOL    HW224096   5.177   6.832   0.647
 7733SOL     OW24097   4.577   6.511   2.945
 7733SOL    HW124098   4.600   6.414   2.954
 7733SOL    HW224099   4.647   6.566   2.989
 7734SOL     OW24100   1.685   4.849   3.453
 7734SOL    HW124101   1.625   4.842   3.532
 7734SOL    HW224102   1.768   4.796   3.469
 7735SOL     OW24103   4.343   6.530   0.001
 7735SOL    HW124104   4.441   6.543   0.014
 7735SOL    HW224105   4.320   6.435   0.019
 7736SOL     OW24106   3.677   3.376   6.938
 7736SOL    HW124107   3.727   3.461   6.949
 7736SOL    HW224108   3.739   3.298   6.953
 7737SOL     OW24109   3.280   6.785   2.397
 7737SOL    HW124110   3.296   6.844   2.318
 7737SOL    HW224111   3.248   6.841   2.474
 7738SOL     OW24112   2.788   5.679   6.851
 7738SOL    HW124113   2.697   5.641   6.832
 7738SOL    HW224114   2.788   5.778   6.836
 7739SOL     OW24115   0.135   2.451   1.112
 7739SOL    HW124116   0.173   2.385   1.177
 7739SOL    HW224117   0.105   2.533   1.162
 7740SOL     OW24118   2.687   1.766   2.542
 7740SOL    HW124119   2.740   1.682   2.552
 7740SOL    HW224120   2.744   1.844   2.565
 7741SOL     OW24121   0.665   5.005   6.051
 7741SOL    HW124122   0.643   5.044   6.141
 7741SOL    HW224123   0.764   5.003   6.038
 7742SOL     OW24124   4.178   2.062   3.631
 7742SOL    HW124125   4.171   2.127   3.555
 7742SOL    HW224126   4.215   2.109   3.712
 7743SOL     OW24127   5.763   1.605   0.059
 7743SOL    HW124128   5.774   1.704   0.052
 7743SOL    HW224129   5.826   1.569   0.127
 7744SOL     OW24130   0.828   0.062   4.138
 7744SOL    HW124131   0.878   7.015   4.197
 7744SOL    HW224132   0.892   0.123   4.092
 7745SOL     OW24133   4.187   0.953   0.185
 7745SOL    HW124134   4.243   0.882   0.144
 7745SOL    HW224135   4.103   0.965   0.131
 7746SOL     OW24136   1.694   0.352   0.200
 7746SOL    HW124137   1.682   0.451   0.210
 7746SOL    HW224138   1.787   0.333   0.169
 7747SOL     OW24139   5.593   5.963   1.832
 7747SOL    HW124140   5.682   6.008   1.840
 7747SOL    HW224141   5.569   5.922   1.920
 7748SOL     OW24142   2.888   3.648   4.170
 7748SOL    HW124143   2.856   3.707   4.243
 7748SOL    HW224144   2.913   3.558   4.207
 7749SOL     OW24145   3.159   3.398   5.714
 7749SOL    HW124146   3.178   3.340   5.635
 7749SOL    HW224147   3.130   3.488   5.682
 7750SOL     OW24148   0.530   6.383   1.625
 7750SOL    HW124149   0.590   6.458   1.597
 7750SOL    HW224150   0.436   6.403   1.598
 7751SOL     OW24151   2.105   2.783   2.318
 7751SOL    HW124152   2.199   2.750   2.327
 7751SOL    HW224153   2.105   2.883   2.321
 7752SOL     OW24154   5.545   6.369   5.855
 7752SOL    HW124155   5.521   6.464   5.833
 7752SOL    HW224156   5.588   6.327   5.775
 7753SOL     OW24157   2.005   0.768   4.323
 7753SOL    HW124158   2.043   0.676   4.320
 7753SOL    HW224159   2.064   0.827   4.378
 7754SOL     OW24160   3.690   6.816   2.383
 7754SOL    HW124161   3.759   6.866   2.435
 7754SOL    HW224162   3.639   6.755   2.443
 7755SOL     OW24163   1.341   2.159   5.685
 7755SOL    HW124164   1.349   2.086   5.618
 7755SOL    HW224165   1.350   2.248   5.638
 7756SOL     OW24166   2.566   6.047   2.858
 7756SOL    HW124167   2.497   6.054   2.786
 7756SOL    HW224168   2.594   5.951   2.868
 7757SOL     OW24169   6.146   4.791   6.246
 7757SOL    HW124170   6.185   4.763   6.334
 7757SOL    HW224171   6.118   4.887   6.250
 7758SOL     OW24172   1.550   0.349   6.077
 7758SOL    HW124173   1.450   0.353   6.081
 7758SOL    HW224174   1.588   0.415   6.142
 7759SOL     OW24175   1.525   1.383   5.255
 7759SOL    HW124176   1.610   1.341   5.288
 7759SOL    HW224177   1.512   1.359   5.158
 7760SOL     OW24178   6.081   3.479   2.961
 7760SOL    HW124179   6.040   3.566   2.933
 7760SOL    HW224180   6.036   3.404   2.912
 7761SOL     OW24181   0.319   0.542   4.711
 7761SOL    HW124182   0.256   0.617   4.732
 7761SOL    HW224183   0.273   0.454   4.727
 7762SOL     OW24184   2.930   6.722   4.045
 7762SOL    HW124185   2.871   6.797   4.016
 7762SOL    HW224186   2.898   6.636   4.005
 7763SOL     OW24187   1.643   1.015   6.395
 7763SOL    HW124188   1.610   1.008   6.489
 7763SOL    HW224189   1.567   1.002   6.332
 7764SOL     OW24190   3.670   3.166   4.021
 7764SOL    HW124191   3.625   3.111   4.091
 7764SOL    HW224192   3.730   3.106   3.967
 7765SOL     OW24193   6.598   3.338   4.986
 7765SOL    HW124194   6.541   3.262   4.955
 7765SOL    HW224195   6.547   3.423   4.979
 7766SOL     OW24196   6.884   3.524   0.447
 7766SOL    HW124197   6.924   3.606   0.489
 7766SOL    HW224198   6.821   3.551   0.375
 7767SOL     OW24199   4.531   6.379   2.553
 7767SOL    HW124200   4.603   6.320   2.591
 7767SOL    HW224201   4.442   6.342   2.579
 7768SOL     OW24202   4.177   4.801   2.814
 7768SOL    HW124203   4.193   4.900   2.818
 7768SOL    HW224204   4.138   4.777   2.725
 7769SOL     OW24205   3.984   1.949   3.183
 7769SOL    HW124206   3.891   1.926   3.212
 7769SOL    HW224207   4.044   1.871   3.198
 7770SOL     OW24208   2.008   4.453   3.396
 7770SOL    HW124209   1.967   4.362   3.405
 7770SOL    HW224210   2.025   4.490   3.487
 7771SOL     OW24211   3.530   1.801   5.367
 7771SOL    HW124212   3.620   1.837   5.343
 7771SOL    HW224213   3.520   1.801   5.467
 7772SOL     OW24214   4.289   0.447   2.469
 7772SOL    HW124215   4.360   0.382   2.497
 7772SOL    HW224216   4.233   0.472   2.548
 7773SOL     OW24217   2.785   5.860   5.056
 7773SOL    HW124218   2.689   5.874   5.034
 7773SOL    HW224219   2.842   5.890   4.980
 7774SOL     OW24220   5.195   2.127   5.286
 7774SOL    HW124221   5.263   2.193   5.317
 7774SOL    HW224222   5.226   2.083   5.202
 7775SOL     OW24223   4.662   5.542   0.790
 7775SOL    HW124224   4.657   5.640   0.772
 7775SOL    HW224225   4.660   5.492   0.703
 7776SOL     OW24226   0.754   5.605   5.747
 7776SOL    HW124227   0.750   5.696   5.787
 7776SOL    HW224228   0.693   5.544   5.797
 7777SOL     OW24229   6.370   6.225   4.444
 7777SOL    HW124230   6.458   6.252   4.405
 7777SOL    HW224231   6.348   6.132   4.417
 7778SOL     OW24232   5.286   4.164   0.680
 7778SOL    HW124233   5.349   4.240   0.664
 7778SOL    HW224234   5.237   4.144   0.595
 7779SOL     OW24235   2.829   2.337   1.632
 7779SOL    HW124236   2.801   2.256   1.683
 7779SOL    HW224237   2.884   2.396   1.691
 7780SOL     OW24238   1.079   4.914   5.619
 7780SOL    HW124239   1.041   4.961   5.539
 7780SOL    HW224240   1.110   4.982   5.686
 7781SOL     OW24241   2.055   4.763   0.977
 7781SOL    HW124242   2.147   4.794   0.951
 7781SOL    HW224243   2.055   4.663   0.988
 7782SOL     OW24244   5.353   5.121   4.352
 7782SOL    HW124245   5.295   5.160   4.280
 7782SOL    HW224246   5.433   5.179   4.365
 7783SOL     OW24247   0.940   6.059   4.845
 7783SOL    HW124248   0.855   6.007   4.844
 7783SOL    HW224249   1.018   5.996   4.850
 7784SOL     OW24250   3.430   2.406   1.696
 7784SOL    HW124251   3.481   2.361   1.769
 7784SOL    HW224252   3.449   2.504   1.698
 7785SOL     OW24253   1.795   6.241   4.611
 7785SOL    HW124254   1.868   6.262   4.546
 7785SOL    HW224255   1.821   6.162   4.666
 7786SOL     OW24256   3.324   6.485   0.432
 7786SOL    HW124257   3.248   6.489   0.498
 7786SOL    HW224258   3.348   6.390   0.414
 7787SOL     OW24259   2.112   2.366   5.875
 7787SOL    HW124260   2.038   2.396   5.815
 7787SOL    HW224261   2.185   2.325   5.820
 7788SOL     OW24262   2.217   4.836   1.387
 7788SOL    HW124263   2.284   4.902   1.422
 7788SOL    HW224264   2.192   4.862   1.293
 7789SOL     OW24265   1.770   6.577   6.345
 7789SOL    HW124266   1.735   6.623   6.264
 7789SOL    HW224267   1.870   6.568   6.338
 7790SOL     OW24268   5.409   5.847   3.472
 7790SOL    HW124269   5.472   5.838   3.549
 7790SOL    HW224270   5.350   5.767   3.468
 7791SOL     OW24271   3.174   4.858   3.036
 7791SOL    HW124272   3.239   4.885   2.965
 7791SOL    HW224273   3.093   4.818   2.993
 7792SOL     OW24274   1.598   5.092   4.961
 7792SOL    HW124275   1.690   5.073   4.926
 7792SOL    HW224276   1.598   5.182   5.006
 7793SOL     OW24277   3.666   1.008   0.910
 7793SOL    HW124278   3.733   0.960   0.853
 7793SOL    HW224279   3.634   1.089   0.860
 7794SOL     OW24280   6.431   3.984   2.801
 7794SOL    HW124281   6.376   4.003   2.883
 7794SOL    HW224282   6.494   3.909   2.820
 7795SOL     OW24283   1.776   4.024   5.575
 7795SOL    HW124284   1.778   4.111   5.525
 7795SOL    HW224285   1.769   3.948   5.511
 7796SOL     OW24286   3.922   3.080   3.998
 7796SOL    HW124287   3.876   3.039   4.077
 7796SOL    HW224288   3.966   3.008   3.944
 7797SOL     OW24289   1.615   0.466   1.860
 7797SOL    HW124290   1.663   0.395   1.807
 7797SOL    HW224291   1.642   0.556   1.827
 7798SOL     OW24292   1.581   3.543   4.099
 7798SOL    HW124293   1.536   3.474   4.156
 7798SOL    HW224294   1.659   3.582   4.148
 7799SOL     OW24295   2.112   6.094   2.361
 7799SOL    HW124296   2.013   6.105   2.349
 7799SOL    HW224297   2.146   6.164   2.423
 7800SOL     OW24298   1.354   5.768   1.387
 7800SOL    HW124299   1.336   5.671   1.397
 7800SOL    HW224300   1.440   5.781   1.336
 7801SOL     OW24301   2.043   1.771   1.812
 7801SOL    HW124302   2.130   1.778   1.764
 7801SOL    HW224303   1.983   1.846   1.785
 7802SOL     OW24304   5.584   2.911   1.007
 7802SOL    HW124305   5.680   2.885   0.995
 7802SOL    HW224306   5.569   3.002   0.968
 7803SOL     OW24307   4.118   2.503   5.930
 7803SOL    HW124308   4.200   2.457   5.897
 7803SOL    HW224309   4.066   2.539   5.851
 7804SOL     OW24310   4.531   1.964   5.149
 7804SOL    HW124311   4.487   1.990   5.235
 7804SOL    HW224312   4.569   1.872   5.158
 7805SOL     OW24313   5.452   2.865   1.692
 7805SOL    HW124314   5.416   2.939   1.636
 7805SOL    HW224315   5.454   2.894   1.788
 7806SOL     OW24316   6.450   1.871   6.481
 7806SOL    HW124317   6.435   1.772   6.491
 7806SOL    HW224318   6.527   1.887   6.420
 7807SOL     OW24319   0.927   4.964   5.988
 7807SOL    HW124320   0.968   4.886   5.941
 7807SOL    HW224321   0.988   5.044   5.980
 7808SOL     OW24322   6.342   3.394   4.754
 7808SOL    HW124323   6.375   3.324   4.817
 7808SOL    HW224324   6.308   3.351   4.671
 7809SOL     OW24325   3.682   4.932   4.487
 7809SOL    HW124326   3.626   4.956   4.566
 7809SOL    HW224327   3.774   4.908   4.519
 7810SOL     OW24328   3.278   6.775   4.581
 7810SOL    HW124329   3.314   6.852   4.530
 7810SOL    HW224330   3.258   6.803   4.675
 7811SOL     OW24331   1.460   5.640   2.144
 7811SOL    HW124332   1.435   5.715   2.206
 7811SOL    HW224333   1.411   5.651   2.057
 7812SOL     OW24334   0.272   2.197   4.244
 7812SOL    HW124335   0.260   2.247   4.159
 7812SOL    HW224336   0.211   2.117   4.246
 7813SOL     OW24337   4.093   2.240   0.227
 7813SOL    HW124338   4.156   2.193   0.165
 7813SOL    HW224339   4.140   2.260   0.313
 7814SOL     OW24340   0.139   3.847   3.838
 7814SOL    HW124341   0.153   3.768   3.779
 7814SOL    HW224342   0.074   3.910   3.795
 7815SOL     OW24343   6.115   0.991   4.611
 7815SOL    HW124344   6.139   0.898   4.583
 7815SOL    HW224345   6.050   0.987   4.687
 7816SOL     OW24346   1.529   2.207   6.411
 7816SOL    HW124347   1.453   2.268   6.390
 7816SOL    HW224348   1.612   2.261   6.428
 7817SOL     OW24349   4.742   4.270   4.031
 7817SOL    HW124350   4.756   4.227   3.942
 7817SOL    HW224351   4.756   4.202   4.103
 7818SOL     OW24352   4.669   0.305   2.330
 7818SOL    HW124353   4.623   0.231   2.380
 7818SOL    HW224354   4.720   0.266   2.252
 7819SOL     OW24355   0.119   4.398   3.135
 7819SOL    HW124356   0.170   4.386   3.221
 7819SOL    HW224357   0.021   4.389   3.153
 7820SOL     OW24358   1.428   0.924   5.555
 7820SOL    HW124359   1.495   0.892   5.622
 7820SOL    HW224360   1.402   1.018   5.575
 7821SOL     OW24361   5.777   5.453   6.604
 7821SOL    HW124362   5.828   5.511   6.541
 7821SOL    HW224363   5.705   5.506   6.647
 7822SOL     OW24364   0.782   1.341   6.780
 7822SOL    HW124365   0.813   1.248   6.799
 7822SOL    HW224366   0.828   1.404   6.843
 7823SOL     OW24367   2.900   3.452   5.213
 7823SOL    HW124368   2.818   3.477   5.264
 7823SOL    HW224369   2.975   3.515   5.238
 7824SOL     OW24370   5.999   1.101   3.999
 7824SOL    HW124371   6.003   1.168   3.924
 7824SOL    HW224372   6.068   1.031   3.984
 7825SOL     OW24373   1.171   3.292   0.863
 7825SOL    HW124374   1.254   3.335   0.827
 7825SOL    HW224375   1.194   3.239   0.945
 7826SOL     OW24376   5.996   1.504   0.226
 7826SOL    HW124377   5.973   1.585   0.281
 7826SOL    HW224378   6.004   1.424   0.285
 7827SOL     OW24379   3.249   4.725   1.469
 7827SOL    HW124380   3.291   4.805   1.512
 7827SOL    HW224381   3.198   4.754   1.388
 7828SOL     OW24382   0.708   4.861   0.221
 7828SOL    HW124383   0.629   4.895   0.272
 7828SOL    HW224384   0.679   4.835   0.129
 7829SOL     OW24385   1.954   2.929   0.247
 7829SOL    HW124386   1.924   2.871   0.322
 7829SOL    HW224387   2.052   2.916   0.231
 7830SOL     OW24388   3.474   3.749   5.772
 7830SOL    HW124389   3.504   3.695   5.694
 7830SOL    HW224390   3.442   3.838   5.741
 7831SOL     OW24391   1.497   5.803   0.970
 7831SOL    HW124392   1.397   5.811   0.968
 7831SOL    HW224393   1.528   5.794   1.064
 7832SOL     OW24394   4.527   1.361   4.174
 7832SOL    HW124395   4.501   1.437   4.115
 7832SOL    HW224396   4.621   1.373   4.205
 7833SOL     OW24397   0.528   0.879   6.802
 7833SOL    HW124398   0.519   0.944   6.726
 7833SOL    HW224399   0.473   0.798   6.782
 7834SOL     OW24400   6.401   1.075   3.286
 7834SOL    HW124401   6.388   1.128   3.370
 7834SOL    HW224402   6.470   1.004   3.302
 7835SOL     OW24403   2.468   1.787   5.207
 7835SOL    HW124404   2.518   1.752   5.127
 7835SOL    HW224405   2.496   1.880   5.226
 7836SOL     OW24406   3.408   2.759   5.181
 7836SOL    HW124407   3.493   2.772   5.231
 7836SOL    HW224408   3.352   2.690   5.228
 7837SOL     OW24409   6.374   5.990   1.055
 7837SOL    HW124410   6.379   5.890   1.054
 7837SOL    HW224411   6.398   6.025   0.964
 7838SOL     OW24412   4.645   6.578   6.938
 7838SOL    HW124413   4.604   6.644   6.874
 7838SOL    HW224414   4.735   6.612   6.967
 7839SOL     OW24415   6.337   4.331   4.893
 7839SOL    HW124416   6.344   4.239   4.856
 7839SOL    HW224417   6.280   4.330   4.975
 7840SOL     OW24418   5.721   2.839   3.956
 7840SOL    HW124419   5.704   2.932   3.921
 7840SOL    HW224420   5.810   2.836   4.001
 7841SOL     OW24421   4.333   1.829   6.734
 7841SOL    HW124422   4.246   1.843   6.781
 7841SOL    HW224423   4.361   1.733   6.744
 7842SOL     OW24424   1.578   2.435   2.736
 7842SOL    HW124425   1.668   2.414   2.772
 7842SOL    HW224426   1.539   2.352   2.695
 7843SOL     OW24427   5.604   4.844   2.215
 7843SOL    HW124428   5.593   4.940   2.188
 7843SOL    HW224429   5.525   4.791   2.186
 7844SOL     OW24430   4.080   6.991   2.752
 7844SOL    HW124431   4.106   0.057   2.802
 7844SOL    HW224432   4.062   6.917   2.817
 7845SOL     OW24433   5.364   2.100   4.094
 7845SOL    HW124434   5.351   2.043   4.175
 7845SOL    HW224435   5.323   2.055   4.015
 7846SOL     OW24436   0.771   1.004   3.171
 7846SOL    HW124437   0.692   1.025   3.229
 7846SOL    HW224438   0.844   1.070   3.188
 7847SOL     OW24439   6.593   1.513   3.265
 7847SOL    HW124440   6.599   1.420   3.301
 7847SOL    HW224441   6.504   1.553   3.289
 7848SOL     OW24442   3.212   3.048   0.528
 7848SOL    HW124443   3.264   2.963   0.532
 7848SOL    HW224444   3.114   3.027   0.527
 7849SOL     OW24445   5.445   4.012   3.107
 7849SOL    HW124446   5.509   4.088   3.098
 7849SOL    HW224447   5.396   3.999   3.021
 7850SOL     OW24448   0.751   1.762   5.212
 7850SOL    HW124449   0.657   1.738   5.237
 7850SOL    HW224450   0.813   1.727   5.282
 7851SOL     OW24451   6.342   0.964   1.877
 7851SOL    HW124452   6.432   0.925   1.860
 7851SOL    HW224453   6.353   1.054   1.920
 7852SOL     OW24454   2.477   1.015   6.132
 7852SOL    HW124455   2.445   1.017   6.038
 7852SOL    HW224456   2.554   1.078   6.143
 7853SOL     OW24457   4.377   1.903   1.851
 7853SOL    HW124458   4.281   1.922   1.830
 7853SOL    HW224459   4.425   1.989   1.867
 7854SOL     OW24460   3.475   3.469   0.074
 7854SOL    HW124461   3.403   3.445   0.009
 7854SOL    HW224462   3.563   3.439   0.039
 7855SOL     OW24463   3.524   5.837   5.494
 7855SOL    HW124464   3.557   5.890   5.416
 7855SOL    HW224465   3.555   5.879   5.579
 7856SOL     OW24466   6.263   4.328   5.200
 7856SOL    HW124467   6.262   4.268   5.279
 7856SOL    HW224468   6.169   4.344   5.169
 7857SOL     OW24469   6.195   2.147   5.412
 7857SOL    HW124470   6.136   2.144   5.492
 7857SOL    HW224471   6.158   2.212   5.346
 7858SOL     OW24472   5.063   5.320   3.317
 7858SOL    HW124473   5.031   5.270   3.398
 7858SOL    HW224474   4.985   5.348   3.262
 7859SOL     OW24475   5.328   2.943   6.423
 7859SOL    HW124476   5.364   2.990   6.504
 7859SOL    HW224477   5.399   2.937   6.353
 7860SOL     OW24478   4.341   0.595   2.800
 7860SOL    HW124479   4.432   0.555   2.787
 7860SOL    HW224480   4.291   0.542   2.869
 7861SOL     OW24481   4.004   5.461   1.837
 7861SOL    HW124482   3.967   5.540   1.884
 7861SOL    HW224483   3.959   5.450   1.749
 7862SOL     OW24484   3.262   4.091   1.695
 7862SOL    HW124485   3.184   4.061   1.749
 7862SOL    HW224486   3.309   4.011   1.656
 7863SOL     OW24487   0.488   5.625   4.043
 7863SOL    HW124488   0.564   5.561   4.030
 7863SOL    HW224489   0.416   5.605   3.977
 7864SOL     OW24490   0.889   5.385   5.461
 7864SOL    HW124491   0.924   5.442   5.386
 7864SOL    HW224492   0.795   5.410   5.481
 7865SOL     OW24493   5.669   0.183   4.392
 7865SOL    HW124494   5.727   0.243   4.337
 7865SOL    HW224495   5.726   0.123   4.448
 7866SOL     OW24496   1.263   1.824   6.296
 7866SOL    HW124497   1.206   1.841   6.377
 7866SOL    HW224498   1.358   1.846   6.317
 7867SOL     OW24499   4.958   6.881   2.514
 7867SOL    HW124500   5.049   6.910   2.483
 7867SOL    HW224501   4.921   6.949   2.577
 7868SOL     OW24502   5.327   6.843   1.914
 7868SOL    HW124503   5.315   6.756   1.962
 7868SOL    HW224504   5.379   6.905   1.971
 7869SOL     OW24505   5.802   4.042   0.136
 7869SOL    HW124506   5.879   4.041   0.072
 7869SOL    HW224507   5.836   4.062   0.228
 7870SOL     OW24508   3.872   5.273   4.546
 7870SOL    HW124509   3.899   5.210   4.473
 7870SOL    HW224510   3.783   5.246   4.582
 7871SOL     OW24511   5.238   3.084   2.357
 7871SOL    HW124512   5.179   3.004   2.372
 7871SOL    HW224513   5.269   3.085   2.263
 7872SOL     OW24514   2.345   4.384   3.013
 7872SOL    HW124515   2.331   4.408   3.109
 7872SOL    HW224516   2.323   4.288   2.999
 7873SOL     OW24517   6.011   0.527   6.353
 7873SOL    HW124518   6.002   0.600   6.285
 7873SOL    HW224519   6.013   0.438   6.307
 7874SOL     OW24520   5.524   2.032   0.850
 7874SOL    HW124521   5.568   2.019   0.939
 7874SOL    HW224522   5.510   2.130   0.834
 7875SOL     OW24523   5.686   1.957   6.629
 7875SOL    HW124524   5.619   1.970   6.703
 7875SOL    HW224525   5.731   1.868   6.640
 7876SOL     OW24526   0.339   6.403   4.935
 7876SOL    HW124527   0.357   6.493   4.894
 7876SOL    HW224528   0.241   6.393   4.951
 7877SOL     OW24529   0.868   2.475   2.725
 7877SOL    HW124530   0.811   2.557   2.734
 7877SOL    HW224531   0.817   2.395   2.757
 7878SOL     OW24532   5.334   5.307   3.975
 7878SOL    HW124533   5.240   5.308   4.010
 7878SOL    HW224534   5.397   5.320   4.051
 7879SOL     OW24535   4.399   5.841   3.815
 7879SOL    HW124536   4.321   5.848   3.878
 7879SOL    HW224537   4.410   5.746   3.786
 7880SOL     OW24538   2.211   5.155   1.756
 7880SOL    HW124539   2.181   5.198   1.671
 7880SOL    HW224540   2.237   5.226   1.822
 7881SOL     OW24541   5.660   4.212   5.100
 7881SOL    HW124542   5.739   4.151   5.095
 7881SOL    HW224543   5.642   4.250   5.009
 7882SOL     OW24544   0.896   3.159   3.056
 7882SOL    HW124545   0.822   3.155   2.989
 7882SOL    HW224546   0.922   3.254   3.072
 7883SOL     OW24547   1.278   0.334   0.458
 7883SOL    HW124548   1.349   0.297   0.398
 7883SOL    HW224549   1.244   0.262   0.518
 7884SOL     OW24550   2.170   4.243   3.627
 7884SOL    HW124551   2.182   4.235   3.529
 7884SOL    HW224552   2.073   4.244   3.649
 7885SOL     OW24553   6.579   5.600   1.447
 7885SOL    HW124554   6.646   5.674   1.450
 7885SOL    HW224555   6.626   5.514   1.426
 7886SOL     OW24556   3.372   5.596   0.764
 7886SOL    HW124557   3.402   5.691   0.757
 7886SOL    HW224558   3.448   5.535   0.739
 7887SOL     OW24559   3.294   2.557   5.315
 7887SOL    HW124560   3.286   2.471   5.264
 7887SOL    HW224561   3.224   2.560   5.387
 7888SOL     OW24562   6.885   6.875   5.200
 7888SOL    HW124563   6.803   6.856   5.147
 7888SOL    HW224564   6.966   6.867   5.142
 7889SOL     OW24565   0.895   4.442   0.627
 7889SOL    HW124566   0.991   4.437   0.600
 7889SOL    HW224567   0.886   4.499   0.708
 7890SOL     OW24568   0.348   2.924   3.529
 7890SOL    HW124569   0.345   2.826   3.550
 7890SOL    HW224570   0.281   2.945   3.458
 7891SOL     OW24571   2.031   4.325   4.239
 7891SOL    HW124572   2.081   4.390   4.182
 7891SOL    HW224573   2.085   4.303   4.320
 7892SOL     OW24574   1.933   1.727   3.979
 7892SOL    HW124575   1.892   1.705   3.890
 7892SOL    HW224576   2.026   1.759   3.965
 7893SOL     OW24577   6.174   6.014   1.769
 7893SOL    HW124578   6.193   6.069   1.850
 7893SOL    HW224579   6.253   6.016   1.708
 7894SOL     OW24580   3.803   6.522   0.906
 7894SOL    HW124581   3.804   6.567   0.817
 7894SOL    HW224582   3.852   6.435   0.901
 7895SOL     OW24583   5.799   0.435   4.937
 7895SOL    HW124584   5.861   0.357   4.945
 7895SOL    HW224585   5.711   0.412   4.980
 7896SOL     OW24586   4.037   3.367   1.135
 7896SOL    HW124587   3.983   3.336   1.056
 7896SOL    HW224588   4.036   3.467   1.138
 7897SOL     OW24589   3.512   3.030   0.871
 7897SOL    HW124590   3.610   3.048   0.880
 7897SOL    HW224591   3.488   2.948   0.922
 7898SOL     OW24592   3.718   1.025   3.643
 7898SOL    HW124593   3.643   0.959   3.645
 7898SOL    HW224594   3.805   0.976   3.637
 7899SOL     OW24595   5.918   0.335   0.868
 7899SOL    HW124596   5.859   0.398   0.918
 7899SOL    HW224597   5.891   0.241   0.888
 7900SOL     OW24598   1.762   5.270   1.919
 7900SOL    HW124599   1.778   5.285   1.822
 7900SOL    HW224600   1.667   5.240   1.933
 7901SOL     OW24601   4.207   0.817   6.301
 7901SOL    HW124602   4.301   0.794   6.275
 7901SOL    HW224603   4.181   0.904   6.258
 7902SOL     OW24604   6.580   6.984   1.505
 7902SOL    HW124605   6.564   0.030   1.429
 7902SOL    HW224606   6.502   6.986   1.568
 7903SOL     OW24607   4.596   1.623   2.135
 7903SOL    HW124608   4.671   1.649   2.195
 7903SOL    HW224609   4.521   1.690   2.145
 7904SOL     OW24610   5.331   6.738   3.007
 7904SOL    HW124611   5.412   6.780   3.047
 7904SOL    HW224612   5.343   6.639   3.004
 7905SOL     OW24613   5.616   2.076   0.572
 7905SOL    HW124614   5.571   2.142   0.512
 7905SOL    HW224615   5.554   2.053   0.647
 7906SOL     OW24616   0.314   5.288   0.772
 7906SOL    HW124617   0.318   5.252   0.679
 7906SOL    HW224618   0.221   5.280   0.808
 7907SOL     OW24619   5.150   2.024   3.342
 7907SOL    HW124620   5.207   2.036   3.261
 7907SOL    HW224621   5.205   2.038   3.424
 7908SOL     OW24622   1.581   0.796   5.750
 7908SOL    HW124623   1.562   0.700   5.728
 7908SOL    HW224624   1.551   0.815   5.843
 7909SOL     OW24625   4.625   4.656   4.447
 7909SOL    HW124626   4.614   4.747   4.407
 7909SOL    HW224627   4.716   4.648   4.487
 7910SOL     OW24628   3.028   3.568   6.076
 7910SOL    HW124629   3.051   3.514   6.157
 7910SOL    HW224630   3.108   3.574   6.016
 7911SOL     OW24631   1.191   3.942   0.516
 7911SOL    HW124632   1.162   3.847   0.504
 7911SOL    HW224633   1.157   3.997   0.440
 7912SOL     OW24634   6.390   4.608   0.620
 7912SOL    HW124635   6.477   4.592   0.573
 7912SOL    HW224636   6.357   4.700   0.599
 7913SOL     OW24637   1.059   4.659   1.968
 7913SOL    HW124638   0.970   4.674   2.009
 7913SOL    HW224639   1.073   4.561   1.953
 7914SOL     OW24640   0.455   4.646   0.158
 7914SOL    HW124641   0.440   4.602   0.246
 7914SOL    HW224642   0.387   4.718   0.145
 7915SOL     OW24643   4.926   2.229   1.918
 7915SOL    HW124644   4.896   2.270   1.832
 7915SOL    HW224645   5.017   2.264   1.942
 7916SOL     OW24646   0.411   4.930   5.322
 7916SOL    HW124647   0.431   4.930   5.224
 7916SOL    HW224648   0.349   5.005   5.344
 7917SOL     OW24649   3.401   3.137   4.954
 7917SOL    HW124650   3.371   3.172   4.866
 7917SOL    HW224651   3.349   3.054   4.977
 7918SOL     OW24652   0.512   0.821   4.976
 7918SOL    HW124653   0.551   0.845   5.065
 7918SOL    HW224654   0.528   0.724   4.959
 7919SOL     OW24655   1.893   4.183   3.342
 7919SOL    HW124656   1.880   4.143   3.433
 7919SOL    HW224657   1.882   4.113   3.272
 7920SOL     OW24658   0.345   0.077   0.748
 7920SOL    HW124659   0.276   0.022   0.794
 7920SOL    HW224660   0.307   0.115   0.663
 7921SOL     OW24661   5.381   5.825   2.131
 7921SOL    HW124662   5.358   5.757   2.200
 7921SOL    HW224663   5.341   5.913   2.157
 7922SOL     OW24664   0.376   6.275   0.799
 7922SOL    HW124665   0.471   6.301   0.814
 7922SOL    HW224666   0.331   6.344   0.742
 7923SOL     OW24667   3.590   0.534   0.163
 7923SOL    HW124668   3.688   0.541   0.146
 7923SOL    HW224669   3.541   0.550   0.077
 7924SOL     OW24670   4.963   6.972   1.902
 7924SOL    HW124671   4.920   6.897   1.951
 7924SOL    HW224672   4.985   0.029   1.966
 7925SOL     OW24673   0.911   1.093   6.200
 7925SOL    HW124674   0.955   1.141   6.124
 7925SOL    HW224675   0.948   1.000   6.207
 7926SOL     OW24676   4.591   1.627   5.542
 7926SOL    HW124677   4.599   1.724   5.518
 7926SOL    HW224678   4.645   1.608   5.624
 7927SOL     OW24679   4.211   5.651   3.114
 7927SOL    HW124680   4.147   5.720   3.080
 7927SOL    HW224681   4.174   5.608   3.196
 7928SOL     OW24682   1.490   1.653   4.915
 7928SOL    HW124683   1.428   1.707   4.858
 7928SOL    HW224684   1.585   1.680   4.897
 7929SOL     OW24685   4.723   4.252   5.777
 7929SOL    HW124686   4.799   4.193   5.748
 7929SOL    HW224687   4.640   4.224   5.730
 7930SOL     OW24688   4.272   5.546   4.793
 7930SOL    HW124689   4.294   5.501   4.880
 7930SOL    HW224690   4.332   5.510   4.722
 7931SOL     OW24691   3.449   3.133   0.015
 7931SOL    HW124692   3.355   3.146   0.047
 7931SOL    HW224693   3.511   3.188   0.072
 7932SOL     OW24694   1.106   6.533   0.096
 7932SOL    HW124695   1.123   6.466   0.169
 7932SOL    HW224696   1.186   6.538   0.036
 7933SOL     OW24697   0.338   5.878   6.050
 7933SOL    HW124698   0.265   5.812   6.033
 7933SOL    HW224699   0.306   5.970   6.030
 7934SOL     OW24700   1.628   4.712   6.708
 7934SOL    HW124701   1.599   4.800   6.672
 7934SOL    HW224702   1.728   4.710   6.715
 7935SOL     OW24703   5.742   6.519   1.255
 7935SOL    HW124704   5.803   6.570   1.194
 7935SOL    HW224705   5.682   6.460   1.201
 7936SOL     OW24706   3.813   5.977   2.495
 7936SOL    HW124707   3.720   5.961   2.461
 7936SOL    HW224708   3.875   5.991   2.418
 7937SOL     OW24709   6.366   6.362   3.722
 7937SOL    HW124710   6.316   6.434   3.674
 7937SOL    HW224711   6.301   6.301   3.769
 7938SOL     OW24712   6.644   5.789   3.934
 7938SOL    HW124713   6.640   5.850   3.855
 7938SOL    HW224714   6.569   5.722   3.929
 7939SOL     OW24715   1.521   2.547   4.416
 7939SOL    HW124716   1.538   2.603   4.497
 7939SOL    HW224717   1.584   2.469   4.416
 7940SOL     OW24718   1.871   3.100   1.605
 7940SOL    HW124719   1.773   3.086   1.588
 7940SOL    HW224720   1.902   3.179   1.552
 7941SOL     OW24721   5.713   0.705   1.918
 7941SOL    HW124722   5.801   0.679   1.879
 7941SOL    HW224723   5.649   0.628   1.911
 7942SOL     OW24724   6.852   5.823   2.653
 7942SOL    HW124725   6.946   5.841   2.685
 7942SOL    HW224726   6.825   5.731   2.680
 7943SOL     OW24727   6.106   3.447   6.377
 7943SOL    HW124728   6.115   3.476   6.472
 7943SOL    HW224729   6.013   3.467   6.345
 7944SOL     OW24730   0.622   2.614   1.221
 7944SOL    HW124731   0.705   2.597   1.168
 7944SOL    HW224732   0.573   2.527   1.234
 7945SOL     OW24733   6.207   5.358   1.258
 7945SOL    HW124734   6.258   5.439   1.232
 7945SOL    HW224735   6.166   5.372   1.348
 7946SOL     OW24736   3.060   0.583   6.345
 7946SOL    HW124737   3.094   0.514   6.281
 7946SOL    HW224738   2.962   0.595   6.332
 7947SOL     OW24739   4.005   2.019   6.434
 7947SOL    HW124740   4.026   2.074   6.353
 7947SOL    HW224741   4.091   1.993   6.479
 7948SOL     OW24742   1.140   0.027   0.948
 7948SOL    HW124743   1.209   6.983   0.989
 7948SOL    HW224744   1.079   6.990   0.890
 7949SOL     OW24745   4.266   4.769   4.821
 7949SOL    HW124746   4.230   4.687   4.866
 7949SOL    HW224747   4.351   4.797   4.864
 7950SOL     OW24748   4.688   5.221   4.134
 7950SOL    HW124749   4.716   5.288   4.202
 7950SOL    HW224750   4.743   5.138   4.144
 7951SOL     OW24751   2.168   4.183   2.126
 7951SOL    HW124752   2.218   4.134   2.055
 7951SOL    HW224753   2.070   4.177   2.107
 7952SOL     OW24754   0.082   3.442   0.126
 7952SOL    HW124755   0.011   3.483   0.069
 7952SOL    HW224756   0.169   3.489   0.110
 7953SOL     OW24757   3.095   2.179   3.670
 7953SOL    HW124758   3.031   2.105   3.691
 7953SOL    HW224759   3.070   2.261   3.721
 7954SOL     OW24760   3.420   4.578   6.821
 7954SOL    HW124761   3.371   4.581   6.908
 7954SOL    HW224762   3.406   4.489   6.778
 7955SOL     OW24763   1.475   0.316   6.709
 7955SOL    HW124764   1.548   0.362   6.659
 7955SOL    HW224765   1.427   0.382   6.766
 7956SOL     OW24766   3.722   6.440   2.541
 7956SOL    HW124767   3.762   6.363   2.592
 7956SOL    HW224768   3.636   6.466   2.585
 7957SOL     OW24769   1.188   0.708   1.193
 7957SOL    HW124770   1.161   0.744   1.103
 7957SOL    HW224771   1.287   0.718   1.203
 7958SOL     OW24772   3.803   5.134   5.015
 7958SOL    HW124773   3.717   5.179   5.041
 7958SOL    HW224774   3.873   5.203   4.998
 7959SOL     OW24775   4.396   6.023   0.500
 7959SOL    HW124776   4.384   6.102   0.439
 7959SOL    HW224777   4.431   5.946   0.447
 7960SOL     OW24778   2.973   1.527   6.044
 7960SOL    HW124779   2.957   1.429   6.034
 7960SOL    HW224780   2.965   1.553   6.140
 7961SOL     OW24781   6.217   1.558   1.029
 7961SOL    HW124782   6.181   1.479   1.079
 7961SOL    HW224783   6.302   1.533   0.983
 7962SOL     OW24784   0.965   0.698   6.460
 7962SOL    HW124785   0.989   0.733   6.550
 7962SOL    HW224786   0.968   0.598   6.461
 7963SOL     OW24787   6.484   6.047   4.096
 7963SOL    HW124788   6.569   6.005   4.064
 7963SOL    HW224789   6.505   6.125   4.155
 7964SOL     OW24790   0.271   4.593   2.588
 7964SOL    HW124791   0.280   4.504   2.543
 7964SOL    HW224792   0.215   4.653   2.532
 7965SOL     OW24793   4.384   2.943   5.712
 7965SOL    HW124794   4.295   2.939   5.758
 7965SOL    HW224795   4.454   2.906   5.772
 7966SOL     OW24796   1.780   2.479   5.898
 7966SOL    HW124797   1.737   2.393   5.924
 7966SOL    HW224798   1.791   2.536   5.979
 7967SOL     OW24799   3.002   6.639   2.956
 7967SOL    HW124800   2.938   6.564   2.935
 7967SOL    HW224801   3.083   6.630   2.898
 7968SOL     OW24802   1.595   2.963   3.565
 7968SOL    HW124803   1.566   2.884   3.511
 7968SOL    HW224804   1.654   2.932   3.639
 7969SOL     OW24805   3.907   6.097   0.050
 7969SOL    HW124806   3.916   6.195   0.034
 7969SOL    HW224807   3.884   6.081   0.146
 7970SOL     OW24808   6.196   2.944   2.568
 7970SOL    HW124809   6.132   2.983   2.502
 7970SOL    HW224810   6.277   2.910   2.520
 7971SOL     OW24811   3.340   2.075   0.493
 7971SOL    HW124812   3.342   2.174   0.481
 7971SOL    HW224813   3.319   2.053   0.588
 7972SOL     OW24814   2.231   2.870   0.274
 7972SOL    HW124815   2.287   2.947   0.306
 7972SOL    HW224816   2.291   2.800   0.235
 7973SOL     OW24817   4.314   4.744   4.291
 7973SOL    HW124818   4.232   4.769   4.239
 7973SOL    HW224819   4.298   4.762   4.388
 7974SOL     OW24820   5.985   0.688   5.489
 7974SOL    HW124821   5.972   0.771   5.435
 7974SOL    HW224822   6.035   0.621   5.434
 7975SOL     OW24823   6.385   1.708   2.050
 7975SOL    HW124824   6.412   1.742   1.960
 7975SOL    HW224825   6.311   1.765   2.086
 7976SOL     OW24826   0.284   0.349   6.100
 7976SOL    HW124827   0.239   0.349   6.189
 7976SOL    HW224828   0.246   0.276   6.043
 7977SOL     OW24829   4.366   5.898   2.514
 7977SOL    HW124830   4.289   5.846   2.478
 7977SOL    HW224831   4.353   5.913   2.612
 7978SOL     OW24832   5.397   3.902   6.447
 7978SOL    HW124833   5.457   3.923   6.524
 7978SOL    HW224834   5.427   3.952   6.366
 7979SOL     OW24835   4.269   5.922   5.131
 7979SOL    HW124836   4.171   5.907   5.140
 7979SOL    HW224837   4.300   5.888   5.043
 7980SOL     OW24838   2.957   5.712   0.082
 7980SOL    HW124839   2.914   5.712   0.172
 7980SOL    HW224840   2.889   5.690   0.012
 7981SOL     OW24841   0.551   5.210   0.897
 7981SOL    HW124842   0.475   5.218   0.833
 7981SOL    HW224843   0.569   5.298   0.939
 7982SOL     OW24844   1.092   1.377   6.849
 7982SOL    HW124845   1.077   1.434   6.769
 7982SOL    HW224846   1.148   1.427   6.915
 7983SOL     OW24847   5.645   2.231   1.696
 7983SOL    HW124848   5.736   2.190   1.698
 7983SOL    HW224849   5.628   2.271   1.605
 7984SOL     OW24850   1.388   1.221   0.461
 7984SOL    HW124851   1.456   1.161   0.502
 7984SOL    HW224852   1.304   1.217   0.514
 7985SOL     OW24853   2.978   1.144   4.220
 7985SOL    HW124854   2.961   1.047   4.236
 7985SOL    HW224855   3.045   1.177   4.287
 7986SOL     OW24856   3.200   1.080   6.228
 7986SOL    HW124857   3.125   1.066   6.293
 7986SOL    HW224858   3.238   1.172   6.241
 7987SOL     OW24859   1.487   2.701   6.154
 7987SOL    HW124860   1.404   2.756   6.147
 7987SOL    HW224861   1.462   2.604   6.155
 7988SOL     OW24862   0.565   2.476   4.021
 7988SOL    HW124863   0.617   2.516   3.946
 7988SOL    HW224864   0.493   2.539   4.048
 7989SOL     OW24865   3.424   2.434   6.201
 7989SOL    HW124866   3.518   2.401   6.194
 7989SOL    HW224867   3.412   2.516   6.146
 7990SOL     OW24868   0.519   3.585   4.742
 7990SOL    HW124869   0.485   3.601   4.834
 7990SOL    HW224870   0.555   3.492   4.735
 7991SOL     OW24871   5.891   6.778   3.361
 7991SOL    HW124872   5.934   6.789   3.271
 7991SOL    HW224873   5.961   6.768   3.431
 7992SOL     OW24874   1.591   0.484   1.172
 7992SOL    HW124875   1.577   0.460   1.076
 7992SOL    HW224876   1.526   0.555   1.199
 7993SOL     OW24877   0.663   0.150   0.475
 7993SOL    HW124878   0.659   0.117   0.380
 7993SOL    HW224879   0.620   0.240   0.481
 7994SOL     OW24880   4.089   6.911   3.491
 7994SOL    HW124881   4.013   6.962   3.451
 7994SOL    HW224882   4.077   6.906   3.590
 7995SOL     OW24883   4.762   6.111   3.675
 7995SOL    HW124884   4.774   6.209   3.660
 7995SOL    HW224885   4.735   6.094   3.770
 7996SOL     OW24886   2.705   6.536   4.547
 7996SOL    HW124887   2.674   6.593   4.624
 7996SOL    HW224888   2.676   6.579   4.461
 7997SOL     OW24889   0.028   1.319   1.149
 7997SOL    HW124890   0.083   1.370   1.215
 7997SOL    HW224891   0.065   1.226   1.141
 7998SOL     OW24892   2.848   6.598   1.040
 7998SOL    HW124893   2.936   6.562   1.007
 7998SOL    HW224894   2.829   6.686   0.997
 7999SOL     OW24895   0.903   0.029   6.424
 7999SOL    HW124896   0.862   6.960   6.456
 7999SOL    HW224897   0.833   0.086   6.381
 8000SOL     OW24898   4.779   0.051   6.766
 8000SOL    HW124899   4.772   7.009   6.685
 8000SOL    HW224900   4.860   0.025   6.818
 8001SOL     OW24901   4.384   6.262   1.184
 8001SOL    HW124902   4.308   6.310   1.139
 8001SOL    HW224903   4.427   6.324   1.250
 8002SOL     OW24904   0.615   1.767   6.111
 8002SOL    HW124905   0.707   1.735   6.087
 8002SOL    HW224906   0.597   1.748   6.208
 8003SOL     OW24907   2.913   5.544   2.517
 8003SOL    HW124908   2.920   5.615   2.587
 8003SOL    HW224909   2.975   5.566   2.441
 8004SOL     OW24910   2.136   3.505   2.981
 8004SOL    HW124911   2.120   3.455   2.896
 8004SOL    HW224912   2.166   3.442   3.052
 8005SOL     OW24913   3.360   0.775   1.557
 8005SOL    HW124914   3.285   0.828   1.597
 8005SOL    HW224915   3.442   0.833   1.550
 8006SOL     OW24916   1.630   6.998   6.447
 8006SOL    HW124917   1.715   6.975   6.493
 8006SOL    HW224918   1.648   0.004   6.351
 8007SOL     OW24919   6.837   0.571   4.651
 8007SOL    HW124920   6.822   0.569   4.750
 8007SOL    HW224921   6.749   0.577   4.604
 8008SOL     OW24922   3.964   5.441   6.812
 8008SOL    HW124923   3.883   5.386   6.834
 8008SOL    HW224924   4.041   5.410   6.868
 8009SOL     OW24925   5.725   0.798   2.443
 8009SOL    HW124926   5.690   0.767   2.355
 8009SOL    HW224927   5.659   0.861   2.486
 8010SOL     OW24928   0.868   1.428   5.893
 8010SOL    HW124929   0.825   1.448   5.804
 8010SOL    HW224930   0.842   1.498   5.959
 8011SOL     OW24931   3.334   2.973   1.157
 8011SOL    HW124932   3.390   2.896   1.187
 8011SOL    HW224933   3.393   3.044   1.118
 8012SOL     OW24934   1.744   4.257   1.816
 8012SOL    HW124935   1.786   4.240   1.727
 8012SOL    HW224936   1.685   4.337   1.811
 8013SOL     OW24937   1.396   5.382   3.386
 8013SOL    HW124938   1.300   5.386   3.360
 8013SOL    HW224939   1.431   5.475   3.399
 8014SOL     OW24940   1.057   6.605   5.216
 8014SOL    HW124941   1.023   6.638   5.128
 8014SOL    HW224942   0.983   6.560   5.266
 8015SOL     OW24943   2.655   0.498   6.535
 8015SOL    HW124944   2.725   0.516   6.466
 8015SOL    HW224945   2.586   0.436   6.498
 8016SOL     OW24946   5.302   0.058   5.857
 8016SOL    HW124947   5.352   0.014   5.783
 8016SOL    HW224948   5.228   7.016   5.888
 8017SOL     OW24949   5.638   0.057   0.484
 8017SOL    HW124950   5.692   0.110   0.419
 8017SOL    HW224951   5.591   0.119   0.547
 8018SOL     OW24952   3.200   1.879   5.745
 8018SOL    HW124953   3.298   1.892   5.759
 8018SOL    HW224954   3.150   1.959   5.777
 8019SOL     OW24955   2.403   4.060   6.907
 8019SOL    HW124956   2.331   4.120   6.943
 8019SOL    HW224957   2.403   3.974   6.958
 8020SOL     OW24958   5.508   0.884   1.142
 8020SOL    HW124959   5.597   0.850   1.172
 8020SOL    HW224960   5.447   0.807   1.121
 8021SOL     OW24961   0.920   2.599   1.118
 8021SOL    HW124962   0.987   2.651   1.065
 8021SOL    HW224963   0.953   2.590   1.212
 8022SOL     OW24964   4.942   6.869   2.999
 8022SOL    HW124965   4.911   6.903   3.088
 8022SOL    HW224966   4.862   6.847   2.942
 8023SOL     OW24967   5.617   5.205   2.831
 8023SOL    HW124968   5.622   5.151   2.746
 8023SOL    HW224969   5.629   5.144   2.909
 8024SOL     OW24970   1.746   4.799   6.466
 8024SOL    HW124971   1.836   4.799   6.508
 8024SOL    HW224972   1.747   4.746   6.382
 8025SOL     OW24973   1.583   6.675   6.904
 8025SOL    HW124974   1.637   6.657   6.986
 8025SOL    HW224975   1.629   6.744   6.848
 8026SOL     OW24976   0.838   4.243   6.904
 8026SOL    HW124977   0.883   4.264   6.817
 8026SOL    HW224978   0.775   4.318   6.927
 8027SOL     OW24979   4.603   0.719   5.067
 8027SOL    HW124980   4.521   0.675   5.105
 8027SOL    HW224981   4.575   0.784   4.996
 8028SOL     OW24982   3.293   5.432   4.901
 8028SOL    HW124983   3.377   5.381   4.883
 8028SOL    HW224984   3.230   5.422   4.824
 8029SOL     OW24985   4.820   2.901   1.526
 8029SOL    HW124986   4.837   2.902   1.625
 8029SOL    HW224987   4.844   2.991   1.488
 8030SOL     OW24988   4.445   4.430   0.696
 8030SOL    HW124989   4.358   4.423   0.745
 8030SOL    HW224990   4.490   4.516   0.720
 8031SOL     OW24991   6.077   6.699   1.851
 8031SOL    HW124992   6.006   6.748   1.901
 8031SOL    HW224993   6.036   6.623   1.801
 8032SOL     OW24994   6.794   5.127   1.170
 8032SOL    HW124995   6.696   5.137   1.189
 8032SOL    HW224996   6.841   5.094   1.253
 8033SOL     OW24997   5.206   0.841   5.479
 8033SOL    HW124998   5.130   0.870   5.421
 8033SOL    HW224999   5.287   0.896   5.458
 8034SOL     OW25000   5.176   6.761   4.628
 8034SOL    HW125001   5.216   6.851   4.645
 8034SOL    HW225002   5.240   6.704   4.576
 8035SOL     OW25003   4.980   1.836   4.400
 8035SOL    HW125004   5.045   1.765   4.373
 8035SOL    HW225005   5.004   1.870   4.490
 8036SOL     OW25006   6.949   4.096   3.519
 8036SOL    HW125007   6.941   4.047   3.606
 8036SOL    HW225008   7.014   4.048   3.460
 8037SOL     OW25009   1.830   3.346   7.003
 8037SOL    HW125010   1.826   3.324   6.906
 8037SOL    HW225011   1.801   3.441   7.016
 8038SOL     OW25012   4.001   6.781   2.901
 8038SOL    HW125013   4.014   6.773   2.999
 8038SOL    HW225014   3.903   6.777   2.879
 8039SOL     OW25015   0.599   1.737   4.421
 8039SOL    HW125016   0.604   1.637   4.424
 8039SOL    HW225017   0.526   1.764   4.358
 8040SOL     OW25018   1.636   5.388   6.790
 8040SOL    HW125019   1.626   5.485   6.767
 8040SOL    HW225020   1.674   5.339   6.711
 8041SOL     OW25021   2.178   1.757   2.392
 8041SOL    HW125022   2.150   1.834   2.334
 8041SOL    HW225023   2.242   1.699   2.341
 8042SOL     OW25024   2.954   3.294   3.954
 8042SOL    HW125025   2.931   3.335   3.866
 8042SOL    HW225026   3.038   3.241   3.946
 8043SOL     OW25027   3.696   6.730   1.513
 8043SOL    HW125028   3.638   6.692   1.585
 8043SOL    HW225029   3.754   6.658   1.476
 8044SOL     OW25030   4.166   2.082   1.357
 8044SOL    HW125031   4.191   2.099   1.261
 8044SOL    HW225032   4.245   2.102   1.415
 8045SOL     OW25033   5.075   1.725   2.813
 8045SOL    HW125034   5.161   1.694   2.772
 8045SOL    HW225035   5.039   1.802   2.760
 8046SOL     OW25036   0.072   5.327   0.915
 8046SOL    HW125037   0.111   5.338   1.007
 8046SOL    HW225038   0.064   5.230   0.894
 8047SOL     OW25039   4.180   6.092   4.318
 8047SOL    HW125040   4.185   6.020   4.388
 8047SOL    HW225041   4.090   6.089   4.274
 8048SOL     OW25042   5.146   0.796   5.736
 8048SOL    HW125043   5.172   0.810   5.640
 8048SOL    HW225044   5.199   0.721   5.775
 8049SOL     OW25045   0.846   0.431   0.313
 8049SOL    HW125046   0.793   0.480   0.382
 8049SOL    HW225047   0.785   0.407   0.236
 8050SOL     OW25048   1.324   4.556   3.597
 8050SOL    HW125049   1.396   4.588   3.535
 8050SOL    HW225050   1.272   4.484   3.551
 8051SOL     OW25051   4.463   6.022   3.611
 8051SOL    HW125052   4.450   5.963   3.692
 8051SOL    HW225053   4.512   6.105   3.638
 8052SOL     OW25054   4.368   1.185   1.965
 8052SOL    HW125055   4.384   1.199   1.867
 8052SOL    HW225056   4.440   1.229   2.018
 8053SOL     OW25057   2.863   3.610   3.506
 8053SOL    HW125058   2.960   3.631   3.512
 8053SOL    HW225059   2.825   3.648   3.422
 8054SOL     OW25060   5.441   6.888   4.626
 8054SOL    HW125061   5.419   6.805   4.575
 8054SOL    HW225062   5.426   6.872   4.724
 8055SOL     OW25063   0.939   0.105   5.627
 8055SOL    HW125064   0.856   0.112   5.571
 8055SOL    HW225065   0.916   0.069   5.717
 8056SOL     OW25066   2.610   1.706   4.162
 8056SOL    HW125067   2.632   1.802   4.141
 8056SOL    HW225068   2.694   1.652   4.165
 8057SOL     OW25069   2.835   2.147   3.012
 8057SOL    HW125070   2.799   2.197   2.933
 8057SOL    HW225071   2.934   2.161   3.017
 8058SOL     OW25072   3.705   0.138   2.512
 8058SOL    HW125073   3.642   0.139   2.590
 8058SOL    HW225074   3.752   0.050   2.509
 8059SOL     OW25075   3.324   2.113   4.871
 8059SOL    HW125076   3.265   2.176   4.921
 8059SOL    HW225077   3.274   2.028   4.851
 8060SOL     OW25078   6.005   1.859   4.518
 8060SOL    HW125079   5.999   1.760   4.535
 8060SOL    HW225080   6.048   1.875   4.430
 8061SOL     OW25081   0.204   1.038   3.032
 8061SOL    HW125082   0.208   1.058   2.935
 8061SOL    HW225083   0.292   1.001   3.062
 8062SOL     OW25084   3.849   4.875   3.771
 8062SOL    HW125085   3.939   4.851   3.808
 8062SOL    HW225086   3.781   4.868   3.844
 8063SOL     OW25087   1.558   2.234   1.429
 8063SOL    HW125088   1.531   2.313   1.484
 8063SOL    HW225089   1.526   2.150   1.472
 8064SOL     OW25090   0.386   3.733   1.838
 8064SOL    HW125091   0.315   3.775   1.894
 8064SOL    HW225092   0.382   3.634   1.847
 8065SOL     OW25093   2.565   5.470   3.657
 8065SOL    HW125094   2.515   5.495   3.740
 8065SOL    HW225095   2.580   5.551   3.602
 8066SOL     OW25096   0.286   1.706   5.079
 8066SOL    HW125097   0.329   1.616   5.077
 8066SOL    HW225098   0.225   1.716   5.001
 8067SOL     OW25099   4.548   2.761   1.760
 8067SOL    HW125100   4.535   2.855   1.791
 8067SOL    HW225101   4.543   2.758   1.660
 8068SOL     OW25102   0.010   3.616   1.311
 8068SOL    HW125103   6.972   3.673   1.250
 8068SOL    HW225104   0.095   3.664   1.334
 8069SOL     OW25105   2.513   6.299   1.809
 8069SOL    HW125106   2.526   6.394   1.779
 8069SOL    HW225107   2.423   6.267   1.781
 8070SOL     OW25108   4.037   3.367   0.493
 8070SOL    HW125109   4.068   3.358   0.588
 8070SOL    HW225110   4.066   3.287   0.441
 8071SOL     OW25111   2.670   6.042   4.651
 8071SOL    HW125112   2.623   6.122   4.614
 8071SOL    HW225113   2.609   5.963   4.649
 8072SOL     OW25114   3.679   1.316   0.677
 8072SOL    HW125115   3.721   1.322   0.587
 8072SOL    HW225116   3.587   1.356   0.673
 8073SOL     OW25117   2.913   5.189   4.709
 8073SOL    HW125118   2.926   5.156   4.802
 8073SOL    HW225119   2.824   5.232   4.700
 8074SOL     OW25120   3.812   2.712   0.362
 8074SOL    HW125121   3.778   2.777   0.429
 8074SOL    HW225122   3.819   2.756   0.273
 8075SOL     OW25123   0.182   0.522   0.974
 8075SOL    HW125124   0.258   0.570   0.931
 8075SOL    HW225125   0.200   0.423   0.972
 8076SOL     OW25126   6.454   1.216   5.301
 8076SOL    HW125127   6.521   1.276   5.344
 8076SOL    HW225128   6.364   1.261   5.300
 8077SOL     OW25129   2.740   5.789   2.701
 8077SOL    HW125130   2.700   5.840   2.624
 8077SOL    HW225131   2.762   5.853   2.775
 8078SOL     OW25132   0.521   1.369   0.535
 8078SOL    HW125133   0.572   1.447   0.499
 8078SOL    HW225134   0.423   1.382   0.518
 8079SOL     OW25135   4.722   1.872   3.849
 8079SOL    HW125136   4.764   1.934   3.783
 8079SOL    HW225137   4.623   1.875   3.840
 8080SOL     OW25138   0.583   2.205   0.624
 8080SOL    HW125139   0.552   2.272   0.691
 8080SOL    HW225140   0.683   2.204   0.623
 8081SOL     OW25141   6.138   5.992   5.359
 8081SOL    HW125142   6.229   6.015   5.323
 8081SOL    HW225143   6.075   5.978   5.283
 8082SOL     OW25144   4.304   0.101   2.138
 8082SOL    HW125145   4.275   0.051   2.056
 8082SOL    HW225146   4.340   0.191   2.110
 8083SOL     OW25147   4.857   3.651   3.027
 8083SOL    HW125148   4.849   3.613   2.935
 8083SOL    HW225149   4.819   3.743   3.028
 8084SOL     OW25150   4.242   6.864   0.622
 8084SOL    HW125151   4.328   6.911   0.643
 8084SOL    HW225152   4.223   6.871   0.524
 8085SOL     OW25153   6.574   6.452   1.786
 8085SOL    HW125154   6.495   6.395   1.806
 8085SOL    HW225155   6.627   6.468   1.870
 8086SOL     OW25156   5.568   0.812   2.921
 8086SOL    HW125157   5.582   0.902   2.962
 8086SOL    HW225158   5.495   0.818   2.853
 8087SOL     OW25159   2.773   1.502   6.988
 8087SOL    HW125160   2.777   1.574   6.919
 8087SOL    HW225161   2.856   1.503   0.026
 8088SOL     OW25162   5.536   2.312   1.410
 8088SOL    HW125163   5.470   2.377   1.374
 8088SOL    HW225164   5.534   2.228   1.356
 8089SOL     OW25165   5.681   2.482   0.415
 8089SOL    HW125166   5.600   2.485   0.355
 8089SOL    HW225167   5.651   2.482   0.510
 8090SOL     OW25168   4.443   1.596   0.135
 8090SOL    HW125169   4.344   1.584   0.133
 8090SOL    HW225170   4.480   1.547   0.214
 8091SOL     OW25171   2.278   3.394   5.192
 8091SOL    HW125172   2.309   3.489   5.181
 8091SOL    HW225173   2.344   3.345   5.249
 8092SOL     OW25174   5.924   1.926   4.912
 8092SOL    HW125175   5.967   1.836   4.914
 8092SOL    HW225176   5.935   1.971   5.001
 8093SOL     OW25177   3.697   5.377   2.798
 8093SOL    HW125178   3.795   5.397   2.787
 8093SOL    HW225179   3.670   5.397   2.892
 8094SOL     OW25180   1.490   3.697   4.712
 8094SOL    HW125181   1.535   3.747   4.787
 8094SOL    HW225182   1.559   3.644   4.662
 8095SOL     OW25183   0.179   4.611   4.466
 8095SOL    HW125184   0.080   4.612   4.482
 8095SOL    HW225185   0.197   4.571   4.376
 8096SOL     OW25186   2.389   6.413   3.318
 8096SOL    HW125187   2.314   6.420   3.252
 8096SOL    HW225188   2.431   6.503   3.331
 8097SOL     OW25189   4.013   0.121   3.805
 8097SOL    HW125190   4.001   0.108   3.903
 8097SOL    HW225191   4.043   0.035   3.763
 8098SOL     OW25192   1.645   0.306   3.251
 8098SOL    HW125193   1.636   0.385   3.311
 8098SOL    HW225194   1.555   0.283   3.212
 8099SOL     OW25195   3.638   6.828   4.489
 8099SOL    HW125196   3.560   6.891   4.493
 8099SOL    HW225197   3.673   6.811   4.581
 8100SOL     OW25198   5.918   1.309   0.643
 8100SOL    HW125199   5.834   1.362   0.639
 8100SOL    HW225200   5.987   1.352   0.585
 8101SOL     OW25201   1.904   6.488   2.731
 8101SOL    HW125202   1.823   6.429   2.726
 8101SOL    HW225203   1.915   6.521   2.825
 8102SOL     OW25204   0.427   4.345   3.820
 8102SOL    HW125205   0.414   4.314   3.726
 8102SOL    HW225206   0.521   4.377   3.831
 8103SOL     OW25207   3.908   6.869   1.324
 8103SOL    HW125208   3.828   6.835   1.373
 8103SOL    HW225209   3.980   6.800   1.327
 8104SOL     OW25210   3.716   0.181   6.160
 8104SOL    HW125211   3.736   0.273   6.195
 8104SOL    HW225212   3.796   0.122   6.174
 8105SOL     OW25213   0.636   2.641   3.047
 8105SOL    HW125214   0.595   2.724   3.085
 8105SOL    HW225215   0.728   2.629   3.085
 8106SOL     OW25216   2.114   5.570   3.138
 8106SOL    HW125217   2.155   5.659   3.119
 8106SOL    HW225218   2.041   5.552   3.072
 8107SOL     OW25219   0.883   4.727   4.292
 8107SOL    HW125220   0.941   4.783   4.232
 8107SOL    HW225221   0.887   4.632   4.263
 8108SOL     OW25222   6.254   3.178   5.218
 8108SOL    HW125223   6.255   3.260   5.274
 8108SOL    HW225224   6.236   3.098   5.276
 8109SOL     OW25225   1.063   3.629   5.114
 8109SOL    HW125226   1.083   3.532   5.096
 8109SOL    HW225227   1.149   3.677   5.134
 8110SOL     OW25228   2.834   6.328   1.375
 8110SOL    HW125229   2.925   6.366   1.393
 8110SOL    HW225230   2.821   6.245   1.429
 8111SOL     OW25231   4.969   0.434   5.314
 8111SOL    HW125232   4.927   0.345   5.334
 8111SOL    HW225233   5.067   0.430   5.336
 8112SOL     OW25234   2.295   2.325   4.795
 8112SOL    HW125235   2.319   2.421   4.802
 8112SOL    HW225236   2.374   2.273   4.764
 8113SOL     OW25237   2.885   3.279   0.512
 8113SOL    HW125238   2.982   3.303   0.506
 8113SOL    HW225239   2.875   3.193   0.563
 8114SOL     OW25240   1.725   3.700   2.008
 8114SOL    HW125241   1.751   3.644   1.930
 8114SOL    HW225242   1.779   3.784   2.009
 8115SOL     OW25243   3.539   0.852   0.051
 8115SOL    HW125244   3.567   0.877   6.975
 8115SOL    HW225245   3.497   0.761   0.049
 8116SOL     OW25246   5.325   5.095   5.935
 8116SOL    HW125247   5.291   5.001   5.941
 8116SOL    HW225248   5.253   5.155   5.903
 8117SOL     OW25249   1.279   1.058   3.501
 8117SOL    HW125250   1.298   0.989   3.570
 8117SOL    HW225251   1.294   1.149   3.539
 8118SOL     OW25252   5.952   4.272   5.380
 8118SOL    HW125253   5.979   4.238   5.290
 8118SOL    HW225254   5.959   4.372   5.380
 8119SOL     OW25255   5.744   5.471   5.639
 8119SOL    HW125256   5.686   5.420   5.576
 8119SOL    HW225257   5.831   5.493   5.594
 8120SOL     OW25258   2.524   5.225   0.364
 8120SOL    HW125259   2.477   5.265   0.285
 8120SOL    HW225260   2.569   5.140   0.336
 8121SOL     OW25261   0.706   4.803   1.943
 8121SOL    HW125262   0.727   4.775   2.037
 8121SOL    HW225263   0.719   4.902   1.935
 8122SOL     OW25264   0.750   6.065   2.440
 8122SOL    HW125265   0.785   6.061   2.346
 8122SOL    HW225266   0.813   6.119   2.496
 8123SOL     OW25267   6.681   0.664   5.850
 8123SOL    HW125268   6.620   0.743   5.851
 8123SOL    HW225269   6.757   0.681   5.787
 8124SOL     OW25270   6.167   6.919   0.998
 8124SOL    HW125271   6.079   6.928   0.950
 8124SOL    HW225272   6.152   6.935   1.096
 8125SOL     OW25273   1.355   1.274   3.654
 8125SOL    HW125274   1.266   1.276   3.700
 8125SOL    HW225275   1.426   1.248   3.720
 8126SOL     OW25276   4.731   5.122   2.462
 8126SOL    HW125277   4.658   5.110   2.528
 8126SOL    HW225278   4.819   5.099   2.504
 8127SOL     OW25279   3.001   5.155   6.318
 8127SOL    HW125280   3.023   5.188   6.226
 8127SOL    HW225281   2.961   5.230   6.371
 8128SOL     OW25282   2.897   1.493   1.665
 8128SOL    HW125283   2.866   1.551   1.741
 8128SOL    HW225284   2.846   1.516   1.582
 8129SOL     OW25285   4.872   0.494   6.109
 8129SOL    HW125286   4.911   0.401   6.108
 8129SOL    HW225287   4.817   0.505   6.192
 8130SOL     OW25288   0.066   2.966   6.129
 8130SOL    HW125289   0.097   2.878   6.092
 8130SOL    HW225290   6.985   2.977   6.112
 8131SOL     OW25291   3.668   1.936   1.098
 8131SOL    HW125292   3.762   1.917   1.128
 8131SOL    HW225293   3.669   2.015   1.036
 8132SOL     OW25294   6.028   6.994   5.978
 8132SOL    HW125295   6.012   6.960   5.885
 8132SOL    HW225296   6.122   6.975   6.005
 8133SOL     OW25297   2.573   4.683   1.539
 8133SOL    HW125298   2.483   4.700   1.580
 8133SOL    HW225299   2.643   4.688   1.610
 8134SOL     OW25300   0.426   2.872   5.482
 8134SOL    HW125301   0.427   2.855   5.384
 8134SOL    HW225302   0.368   2.950   5.502
 8135SOL     OW25303   2.596   5.802   1.718
 8135SOL    HW125304   2.585   5.840   1.626
 8135SOL    HW225305   2.533   5.725   1.729
 8136SOL     OW25306   4.264   5.321   3.130
 8136SOL    HW125307   4.240   5.252   3.198
 8136SOL    HW225308   4.186   5.382   3.115
 8137SOL     OW25309   3.287   1.422   5.173
 8137SOL    HW125310   3.376   1.392   5.205
 8137SOL    HW225311   3.254   1.362   5.101
 8138SOL     OW25312   5.504   1.335   0.027
 8138SOL    HW125313   5.491   1.269   0.101
 8138SOL    HW225314   5.590   1.317   6.997
 8139SOL     OW25315   0.543   1.388   3.112
 8139SOL    HW125316   0.458   1.394   3.162
 8139SOL    HW225317   0.545   1.457   3.040
 8140SOL     OW25318   4.779   0.204   1.070
 8140SOL    HW125319   4.724   0.285   1.092
 8140SOL    HW225320   4.858   0.200   1.131
 8141SOL     OW25321   4.442   6.358   5.655
 8141SOL    HW125322   4.525   6.319   5.695
 8141SOL    HW225323   4.426   6.449   5.693
 8142SOL     OW25324   1.220   4.373   6.986
 8142SOL    HW125325   1.188   4.291   6.938
 8142SOL    HW225326   1.284   4.423   6.928
 8143SOL     OW25327   0.062   4.613   0.854
 8143SOL    HW125328   6.989   4.655   0.843
 8143SOL    HW225329   0.088   4.613   0.950
 8144SOL     OW25330   6.801   6.638   6.020
 8144SOL    HW125331   6.762   6.622   5.930
 8144SOL    HW225332   6.757   6.717   6.062
 8145SOL     OW25333   5.835   5.727   1.596
 8145SOL    HW125334   5.759   5.793   1.598
 8145SOL    HW225335   5.876   5.725   1.505
 8146SOL     OW25336   4.767   1.038   5.177
 8146SOL    HW125337   4.725   0.973   5.240
 8146SOL    HW225338   4.730   1.129   5.193
 8147SOL     OW25339   6.717   1.851   1.695
 8147SOL    HW125340   6.691   1.947   1.692
 8147SOL    HW225341   6.793   1.839   1.760
 8148SOL     OW25342   5.250   4.045   0.900
 8148SOL    HW125343   5.323   4.070   0.963
 8148SOL    HW225344   5.256   4.101   0.818
 8149SOL     OW25345   2.368   6.039   2.656
 8149SOL    HW125346   2.272   6.054   2.678
 8149SOL    HW225347   2.381   5.948   2.618
 8150SOL     OW25348   2.051   3.963   1.038
 8150SOL    HW125349   1.988   4.037   1.016
 8150SOL    HW225350   2.015   3.911   1.116
 8151SOL     OW25351   5.220   4.456   2.283
 8151SOL    HW125352   5.130   4.416   2.267
 8151SOL    HW225353   5.290   4.386   2.270
 8152SOL     OW25354   6.213   1.932   2.965
 8152SOL    HW125355   6.133   1.928   2.905
 8152SOL    HW225356   6.293   1.959   2.911
 8153SOL     OW25357   1.384   1.046   3.997
 8153SOL    HW125358   1.452   1.085   3.935
 8153SOL    HW225359   1.412   0.954   4.024
 8154SOL     OW25360   3.551   5.265   2.355
 8154SOL    HW125361   3.551   5.345   2.294
 8154SOL    HW225362   3.621   5.277   2.425
 8155SOL     OW25363   1.917   3.034   1.904
 8155SOL    HW125364   1.889   2.945   1.870
 8155SOL    HW225365   1.847   3.102   1.883
 8156SOL     OW25366   5.211   6.402   0.934
 8156SOL    HW125367   5.234   6.497   0.955
 8156SOL    HW225368   5.154   6.365   1.008
 8157SOL     OW25369   6.327   5.055   5.878
 8157SOL    HW125370   6.374   5.118   5.815
 8157SOL    HW225371   6.392   5.023   5.947
 8158SOL     OW25372   4.882   4.351   0.097
 8158SOL    HW125373   4.964   4.307   0.133
 8158SOL    HW225374   4.823   4.381   0.172
 8159SOL     OW25375   2.579   5.787   2.990
 8159SOL    HW125376   2.481   5.795   3.008
 8159SOL    HW225377   2.608   5.692   3.008
 8160SOL     OW25378   5.056   0.718   3.241
 8160SOL    HW125379   5.101   0.792   3.192
 8160SOL    HW225380   4.971   0.693   3.194
 8161SOL     OW25381   5.943   2.321   6.461
 8161SOL    HW125382   6.031   2.320   6.509
 8161SOL    HW225383   5.908   2.228   6.453
 8162SOL     OW25384   5.778   6.886   6.713
 8162SOL    HW125385   5.839   6.913   6.788
 8162SOL    HW225386   5.706   6.826   6.749
 8163SOL     OW25387   3.011   4.158   5.340
 8163SOL    HW125388   2.970   4.104   5.414
 8163SOL    HW225389   3.038   4.098   5.265
 8164SOL     OW25390   5.002   1.957   0.079
 8164SOL    HW125391   4.931   2.024   0.102
 8164SOL    HW225392   5.059   1.994   0.006
 8165SOL     OW25393   1.022   3.858   5.750
 8165SOL    HW125394   0.973   3.782   5.707
 8165SOL    HW225395   0.957   3.918   5.796
 8166SOL     OW25396   1.263   0.927   3.252
 8166SOL    HW125397   1.308   0.955   3.336
 8166SOL    HW225398   1.167   0.905   3.270
 8167SOL     OW25399   0.174   0.197   4.061
 8167SOL    HW125400   0.180   0.165   3.967
 8167SOL    HW225401   0.089   0.164   4.102
 8168SOL     OW25402   2.234   1.480   3.044
 8168SOL    HW125403   2.183   1.560   3.010
 8168SOL    HW225404   2.172   1.421   3.096
 8169SOL     OW25405   4.701   2.236   0.940
 8169SOL    HW125406   4.703   2.183   1.025
 8169SOL    HW225407   4.609   2.274   0.927
 8170SOL     OW25408   1.236   4.997   2.451
 8170SOL    HW125409   1.163   5.013   2.517
 8170SOL    HW225410   1.239   5.072   2.386
 8171SOL     OW25411   1.561   1.698   6.087
 8171SOL    HW125412   1.560   1.607   6.128
 8171SOL    HW225413   1.586   1.765   6.157
 8172SOL     OW25414   0.702   2.212   2.312
 8172SOL    HW125415   0.692   2.301   2.357
 8172SOL    HW225416   0.779   2.215   2.249
 8173SOL     OW25417   5.583   1.469   2.276
 8173SOL    HW125418   5.621   1.474   2.184
 8173SOL    HW225419   5.565   1.373   2.300
 8174SOL     OW25420   6.427   2.227   1.487
 8174SOL    HW125421   6.512   2.242   1.437
 8174SOL    HW225422   6.364   2.303   1.471
 8175SOL     OW25423   0.780   2.558   5.188
 8175SOL    HW125424   0.846   2.503   5.138
 8175SOL    HW225425   0.741   2.505   5.263
 8176SOL     OW25426   2.243   5.353   1.956
 8176SOL    HW125427   2.333   5.386   1.984
 8176SOL    HW225428   2.203   5.299   2.030
 8177SOL     OW25429   3.693   6.915   3.896
 8177SOL    HW125430   3.665   6.947   3.805
 8177SOL    HW225431   3.612   6.905   3.954
 8178SOL     OW25432   2.653   6.223   6.961
 8178SOL    HW125433   2.719   6.294   6.986
 8178SOL    HW225434   2.659   6.204   6.864
 8179SOL     OW25435   4.878   1.587   5.557
 8179SOL    HW125436   4.881   1.658   5.487
 8179SOL    HW225437   4.903   1.499   5.517
 8180SOL     OW25438   6.530   0.054   4.970
 8180SOL    HW125439   6.530   0.124   4.899
 8180SOL    HW225440   6.440   0.052   5.015
 8181SOL     OW25441   1.943   1.496   0.783
 8181SOL    HW125442   1.921   1.576   0.837
 8181SOL    HW225443   2.008   1.438   0.833
 8182SOL     OW25444   3.443   3.428   5.729
 8182SOL    HW125445   3.358   3.376   5.718
 8182SOL    HW225446   3.470   3.467   5.641
 8183SOL     OW25447   6.610   2.020   5.024
 8183SOL    HW125448   6.579   1.926   5.037
 8183SOL    HW225449   6.572   2.078   5.096
 8184SOL     OW25450   6.357   1.005   0.357
 8184SOL    HW125451   6.318   1.086   0.401
 8184SOL    HW225452   6.371   0.933   0.425
 8185SOL     OW25453   2.972   6.839   0.216
 8185SOL    HW125454   3.016   6.806   0.133
 8185SOL    HW225455   2.873   6.840   0.204
 8186SOL     OW25456   3.730   5.546   5.589
 8186SOL    HW125457   3.677   5.478   5.538
 8186SOL    HW225458   3.827   5.528   5.575
 8187SOL     OW25459   1.463   2.175   4.627
 8187SOL    HW125460   1.502   2.223   4.706
 8187SOL    HW225461   1.365   2.159   4.644
 8188SOL     OW25462   5.781   2.747   2.998
 8188SOL    HW125463   5.803   2.822   2.935
 8188SOL    HW225464   5.690   2.710   2.975
 8189SOL     OW25465   4.568   4.809   3.191
 8189SOL    HW125466   4.630   4.730   3.181
 8189SOL    HW225467   4.551   4.849   3.101
 8190SOL     OW25468   4.513   5.201   4.449
 8190SOL    HW125469   4.421   5.233   4.428
 8190SOL    HW225470   4.580   5.270   4.419
 8191SOL     OW25471   3.846   6.419   2.002
 8191SOL    HW125472   3.828   6.410   2.100
 8191SOL    HW225473   3.843   6.329   1.958
 8192SOL     OW25474   4.290   4.814   0.749
 8192SOL    HW125475   4.237   4.806   0.833
 8192SOL    HW225476   4.230   4.847   0.675
 8193SOL     OW25477   0.008   6.271   4.682
 8193SOL    HW125478   0.033   6.319   4.766
 8193SOL    HW225479   0.090   6.242   4.635
 8194SOL     OW25480   5.513   2.511   1.090
 8194SOL    HW125481   5.460   2.426   1.099
 8194SOL    HW225482   5.594   2.505   1.148
 8195SOL     OW25483   1.127   0.435   1.890
 8195SOL    HW125484   1.127   0.471   1.796
 8195SOL    HW225485   1.034   0.409   1.916
 8196SOL     OW25486   3.756   6.163   6.089
 8196SOL    HW125487   3.811   6.081   6.104
 8196SOL    HW225488   3.782   6.233   6.155
 8197SOL     OW25489   4.654   1.799   0.118
 8197SOL    HW125490   4.748   1.773   0.138
 8197SOL    HW225491   4.594   1.720   0.132
 8198SOL     OW25492   3.431   0.053   2.949
 8198SOL    HW125493   3.384   0.139   2.969
 8198SOL    HW225494   3.390   6.996   3.002
 8199SOL     OW25495   5.906   3.049   6.684
 8199SOL    HW125496   5.882   3.120   6.750
 8199SOL    HW225497   5.867   3.071   6.595
 8200SOL     OW25498   5.075   4.004   1.701
 8200SOL    HW125499   5.101   3.996   1.605
 8200SOL    HW225500   5.027   4.091   1.716
 8201SOL     OW25501   5.678   0.387   3.867
 8201SOL    HW125502   5.620   0.344   3.936
 8201SOL    HW225503   5.629   0.465   3.827
 8202SOL     OW25504   0.450   5.535   4.325
 8202SOL    HW125505   0.370   5.496   4.371
 8202SOL    HW225506   0.444   5.518   4.227
 8203SOL     OW25507   4.673   2.252   6.948
 8203SOL    HW125508   4.650   2.170   7.001
 8203SOL    HW225509   4.689   2.329   7.011
 8204SOL     OW25510   2.789   5.286   0.107
 8204SOL    HW125511   2.870   5.289   0.166
 8204SOL    HW225512   2.750   5.194   0.109
 8205SOL     OW25513   0.373   4.631   0.810
 8205SOL    HW125514   0.397   4.721   0.774
 8205SOL    HW225515   0.275   4.628   0.829
 8206SOL     OW25516   5.093   2.757   6.425
 8206SOL    HW125517   5.102   2.659   6.411
 8206SOL    HW225518   5.183   2.800   6.417
 8207SOL     OW25519   3.125   4.048   4.760
 8207SOL    HW125520   3.117   3.949   4.770
 8207SOL    HW225521   3.048   4.092   4.805
 8208SOL     OW25522   2.193   0.309   1.513
 8208SOL    HW125523   2.166   0.364   1.434
 8208SOL    HW225524   2.282   0.340   1.547
 8209SOL     OW25525   0.417   1.173   6.267
 8209SOL    HW125526   0.481   1.116   6.216
 8209SOL    HW225527   0.340   1.197   6.208
 8210SOL     OW25528   2.293   0.883   1.359
 8210SOL    HW125529   2.266   0.799   1.312
 8210SOL    HW225530   2.311   0.863   1.456
 8211SOL     OW25531   3.660   4.142   2.129
 8211SOL    HW125532   3.597   4.143   2.051
 8211SOL    HW225533   3.670   4.235   2.164
 8212SOL     OW25534   2.157   1.873   1.238
 8212SOL    HW125535   2.079   1.832   1.285
 8212SOL    HW225536   2.241   1.848   1.285
 8213SOL     OW25537   6.364   4.775   2.205
 8213SOL    HW125538   6.404   4.820   2.286
 8213SOL    HW225539   6.400   4.818   2.123
 8214SOL     OW25540   6.820   5.433   4.478
 8214SOL    HW125541   6.723   5.420   4.454
 8214SOL    HW225542   6.842   5.376   4.557
 8215SOL     OW25543   2.883   5.413   6.044
 8215SOL    HW125544   2.927   5.459   6.121
 8215SOL    HW225545   2.822   5.341   6.078
 8216SOL     OW25546   4.845   5.892   3.524
 8216SOL    HW125547   4.920   5.925   3.467
 8216SOL    HW225548   4.805   5.969   3.575
 8217SOL     OW25549   2.356   3.853   1.799
 8217SOL    HW125550   2.432   3.866   1.735
 8217SOL    HW225551   2.309   3.768   1.778
 8218SOL     OW25552   1.051   6.491   4.611
 8218SOL    HW125553   1.123   6.526   4.671
 8218SOL    HW225554   1.000   6.418   4.657
 8219SOL     OW25555   4.309   3.177   0.876
 8219SOL    HW125556   4.271   3.090   0.909
 8219SOL    HW225557   4.407   3.168   0.864
 8220SOL     OW25558   3.265   3.778   4.244
 8220SOL    HW125559   3.358   3.741   4.253
 8220SOL    HW225560   3.243   3.831   4.326
 8221SOL     OW25561   6.062   6.067   3.108
 8221SOL    HW125562   6.017   6.127   3.042
 8221SOL    HW225563   6.071   5.975   3.069
 8222SOL     OW25564   5.025   1.428   1.519
 8222SOL    HW125565   4.948   1.452   1.460
 8222SOL    HW225566   5.067   1.344   1.486
 8223SOL     OW25567   1.324   4.032   5.410
 8223SOL    HW125568   1.270   3.978   5.474
 8223SOL    HW225569   1.395   3.973   5.369
 8224SOL     OW25570   5.741   2.465   2.082
 8224SOL    HW125571   5.677   2.448   2.157
 8224SOL    HW225572   5.796   2.545   2.104
 8225SOL     OW25573   4.214   1.299   1.495
 8225SOL    HW125574   4.232   1.375   1.432
 8225SOL    HW225575   4.200   1.215   1.443
 8226SOL     OW25576   3.407   6.674   0.850
 8226SOL    HW125577   3.422   6.742   0.779
 8226SOL    HW225578   3.455   6.701   0.934
 8227SOL     OW25579   6.438   1.265   2.391
 8227SOL    HW125580   6.417   1.362   2.379
 8227SOL    HW225581   6.489   1.252   2.476
 8228SOL     OW25582   0.217   1.673   6.219
 8228SOL    HW125583   0.250   1.634   6.305
 8228SOL    HW225584   0.251   1.620   6.142
 8229SOL     OW25585   4.000   3.908   1.357
 8229SOL    HW125586   3.928   3.839   1.352
 8229SOL    HW225587   4.086   3.865   1.383
 8230SOL     OW25588   3.584   6.209   5.257
 8230SOL    HW125589   3.563   6.238   5.351
 8230SOL    HW225590   3.514   6.244   5.195
 8231SOL     OW25591   2.926   2.751   1.565
 8231SOL    HW125592   2.845   2.701   1.597
 8231SOL    HW225593   2.988   2.766   1.642
 8232SOL     OW25594   6.037   1.905   2.762
 8232SOL    HW125595   6.088   1.848   2.697
 8232SOL    HW225596   5.980   1.969   2.711
 8233SOL     OW25597   1.576   6.697   6.547
 8233SOL    HW125598   1.634   6.700   6.465
 8233SOL    HW225599   1.577   6.605   6.586
 8234SOL     OW25600   2.746   3.848   0.115
 8234SOL    HW125601   2.786   3.812   0.031
 8234SOL    HW225602   2.713   3.772   0.171
 8235SOL     OW25603   0.174   3.964   0.003
 8235SOL    HW125604   0.168   3.869   6.991
 8235SOL    HW225605   0.202   3.968   0.099
 8236SOL     OW25606   6.905   4.868   0.063
 8236SOL    HW125607   6.878   4.787   0.011
 8236SOL    HW225608   6.959   4.929   0.005
 8237SOL     OW25609   4.716   5.863   6.004
 8237SOL    HW125610   4.676   5.885   5.915
 8237SOL    HW225611   4.767   5.778   5.998
 8238SOL     OW25612   0.618   5.379   7.005
 8238SOL    HW125613   0.694   5.371   6.940
 8238SOL    HW225614   0.591   5.475   7.013
 8239SOL     OW25615   0.535   0.770   5.463
 8239SOL    HW125616   0.439   0.746   5.481
 8239SOL    HW225617   0.565   0.836   5.532
 8240SOL     OW25618   3.387   4.076   2.231
 8240SOL    HW125619   3.404   4.071   2.330
 8240SOL    HW225620   3.473   4.076   2.182
 8241SOL     OW25621   2.786   5.060   5.982
 8241SOL    HW125622   2.715   5.017   5.926
 8241SOL    HW225623   2.744   5.109   6.059
 8242SOL     OW25624   0.589   3.853   6.133
 8242SOL    HW125625   0.637   3.823   6.216
 8242SOL    HW225626   0.584   3.952   6.131
 8243SOL     OW25627   6.669   3.754   1.019
 8243SOL    HW125628   6.658   3.783   0.924
 8243SOL    HW225629   6.673   3.654   1.023
 8244SOL     OW25630   0.263   0.488   3.338
 8244SOL    HW125631   0.337   0.486   3.405
 8244SOL    HW225632   0.191   0.550   3.370
 8245SOL     OW25633   3.642   2.001   2.729
 8245SOL    HW125634   3.689   2.071   2.675
 8245SOL    HW225635   3.615   1.926   2.669
 8246SOL     OW25636   0.728   3.670   6.312
 8246SOL    HW125637   0.820   3.672   6.273
 8246SOL    HW225638   0.681   3.587   6.283
 8247SOL     OW25639   2.035   0.800   3.304
 8247SOL    HW125640   1.997   0.708   3.290
 8247SOL    HW225641   2.035   0.850   3.218
 8248SOL     OW25642   0.284   4.177   4.503
 8248SOL    HW125643   0.270   4.246   4.574
 8248SOL    HW225644   0.217   4.104   4.514
 8249SOL     OW25645   2.220   1.315   5.777
 8249SOL    HW125646   2.150   1.380   5.747
 8249SOL    HW225647   2.256   1.265   5.699
 8250SOL     OW25648   2.300   2.409   1.529
 8250SOL    HW125649   2.325   2.501   1.557
 8250SOL    HW225650   2.381   2.360   1.497
 8251SOL     OW25651   5.097   2.874   3.924
 8251SOL    HW125652   5.171   2.942   3.929
 8251SOL    HW225653   5.091   2.839   3.831
 8252SOL     OW25654   3.936   1.699   6.505
 8252SOL    HW125655   3.978   1.781   6.467
 8252SOL    HW225656   3.990   1.619   6.479
 8253SOL     OW25657   4.083   5.497   5.804
 8253SOL    HW125658   4.024   5.442   5.744
 8253SOL    HW225659   4.086   5.591   5.772
 8254SOL     OW25660   4.757   4.702   5.511
 8254SOL    HW125661   4.717   4.787   5.479
 8254SOL    HW225662   4.693   4.627   5.496
 8255SOL     OW25663   1.518   6.159   4.888
 8255SOL    HW125664   1.479   6.208   4.966
 8255SOL    HW225665   1.454   6.162   4.811
 8256SOL     OW25666   6.731   6.496   2.699
 8256SOL    HW125667   6.774   6.521   2.786
 8256SOL    HW225668   6.727   6.397   2.692
 8257SOL     OW25669   5.273   3.936   2.902
 8257SOL    HW125670   5.185   3.894   2.879
 8257SOL    HW225671   5.347   3.882   2.861
 8258SOL     OW25672   4.873   2.639   1.901
 8258SOL    HW125673   4.886   2.734   1.873
 8258SOL    HW225674   4.932   2.619   1.979
 8259SOL     OW25675   3.755   1.850   5.230
 8259SOL    HW125676   3.772   1.921   5.162
 8259SOL    HW225677   3.829   1.783   5.228
 8260SOL     OW25678   2.610   0.091   1.560
 8260SOL    HW125679   2.569   0.180   1.579
 8260SOL    HW225680   2.540   0.028   1.529
 8261SOL     OW25681   4.975   6.381   3.061
 8261SOL    HW125682   4.904   6.333   3.112
 8261SOL    HW225683   4.971   6.478   3.081
 8262SOL     OW25684   1.106   4.105   0.298
 8262SOL    HW125685   1.090   4.091   0.200
 8262SOL    HW225686   1.153   4.192   0.312
 8263SOL     OW25687   6.969   2.926   6.737
 8263SOL    HW125688   6.909   3.006   6.727
 8263SOL    HW225689   0.044   2.956   6.762
 8264SOL     OW25690   1.465   0.183   1.352
 8264SOL    HW125691   1.509   0.171   1.263
 8264SOL    HW225692   1.367   0.195   1.339
 8265SOL     OW25693   5.658   0.227   1.894
 8265SOL    HW125694   5.598   0.302   1.864
 8265SOL    HW225695   5.671   0.232   1.993
 8266SOL     OW25696   2.439   1.340   4.416
 8266SOL    HW125697   2.465   1.370   4.324
 8266SOL    HW225698   2.408   1.419   4.469
 8267SOL     OW25699   1.531   3.660   1.326
 8267SOL    HW125700   1.463   3.728   1.295
 8267SOL    HW225701   1.562   3.684   1.418
 8268SOL     OW25702   3.004   6.243   6.535
 8268SOL    HW125703   3.025   6.314   6.602
 8268SOL    HW225704   2.994   6.284   6.444
 8269SOL     OW25705   4.697   2.570   2.734
 8269SOL    HW125706   4.719   2.666   2.719
 8269SOL    HW225707   4.740   2.514   2.663
 8270SOL     OW25708   2.930   6.330   4.915
 8270SOL    HW125709   3.020   6.287   4.904
 8270SOL    HW225710   2.882   6.328   4.827
 8271SOL     OW25711   6.674   0.088   2.757
 8271SOL    HW125712   6.716   0.062   2.844
 8271SOL    HW225713   6.603   0.156   2.774
 8272SOL     OW25714   6.509   1.796   2.842
 8272SOL    HW125715   6.466   1.742   2.914
 8272SOL    HW225716   6.513   1.892   2.870
 8273SOL     OW25717   2.733   1.277   0.879
 8273SOL    HW125718   2.658   1.264   0.814
 8273SOL    HW225719   2.717   1.361   0.931
 8274SOL     OW25720   4.441   5.574   4.584
 8274SOL    HW125721   4.444   5.552   4.486
 8274SOL    HW225722   4.534   5.579   4.620
 8275SOL     OW25723   5.315   0.415   4.758
 8275SOL    HW125724   5.266   0.386   4.840
 8275SOL    HW225725   5.302   0.348   4.685
 8276SOL     OW25726   0.776   1.300   5.502
 8276SOL    HW125727   0.678   1.297   5.483
 8276SOL    HW225728   0.821   1.224   5.455
 8277SOL     OW25729   1.315   6.262   6.235
 8277SOL    HW125730   1.293   6.232   6.328
 8277SOL    HW225731   1.242   6.232   6.173
 8278SOL     OW25732   3.447   2.138   6.765
 8278SOL    HW125733   3.401   2.221   6.796
 8278SOL    HW225734   3.420   2.117   6.671
 8279SOL     OW25735   0.401   6.660   4.890
 8279SOL    HW125736   0.404   6.672   4.989
 8279SOL    HW225737   0.465   6.724   4.847
 8280SOL     OW25738   3.564   2.974   0.299
 8280SOL    HW125739   3.564   3.070   0.273
 8280SOL    HW225740   3.553   2.917   0.217
 8281SOL     OW25741   2.250   4.376   1.487
 8281SOL    HW125742   2.342   4.339   1.486
 8281SOL    HW225743   2.194   4.328   1.420
 8282SOL     OW25744   3.613   4.262   0.081
 8282SOL    HW125745   3.650   4.324   0.011
 8282SOL    HW225746   3.534   4.304   0.125
 8283SOL     OW25747   1.591   4.465   4.345
 8283SOL    HW125748   1.559   4.420   4.261
 8283SOL    HW225749   1.569   4.408   4.424
 8284SOL     OW25750   1.532   4.137   2.068
 8284SOL    HW125751   1.556   4.102   1.978
 8284SOL    HW225752   1.441   4.178   2.065
 8285SOL     OW25753   3.380   4.074   4.658
 8285SOL    HW125754   3.292   4.075   4.704
 8285SOL    HW225755   3.381   4.000   4.590
 8286SOL     OW25756   5.317   1.440   4.818
 8286SOL    HW125757   5.240   1.503   4.827
 8286SOL    HW225758   5.349   1.438   4.724
 8287SOL     OW25759   1.002   5.082   3.885
 8287SOL    HW125760   0.977   5.160   3.942
 8287SOL    HW225761   1.050   5.014   3.941
 8288SOL     OW25762   2.553   2.434   2.370
 8288SOL    HW125763   2.512   2.475   2.289
 8288SOL    HW225764   2.620   2.365   2.342
 8289SOL     OW25765   6.881   6.461   6.188
 8289SOL    HW125766   6.810   6.480   6.256
 8289SOL    HW225767   6.871   6.523   6.110
 8290SOL     OW25768   5.059   1.773   0.798
 8290SOL    HW125769   4.993   1.838   0.836
 8290SOL    HW225770   5.137   1.765   0.860
 8291SOL     OW25771   5.914   5.056   6.063
 8291SOL    HW125772   5.921   5.134   6.000
 8291SOL    HW225773   5.916   4.971   6.010
 8292SOL     OW25774   3.270   5.518   6.379
 8292SOL    HW125775   3.285   5.522   6.477
 8292SOL    HW225776   3.318   5.439   6.340
 8293SOL     OW25777   2.225   4.966   1.143
 8293SOL    HW125778   2.186   5.058   1.139
 8293SOL    HW225779   2.309   4.963   1.088
 8294SOL     OW25780   6.198   3.610   4.665
 8294SOL    HW125781   6.250   3.540   4.713
 8294SOL    HW225782   6.175   3.577   4.573
 8295SOL     OW25783   4.950   3.893   2.860
 8295SOL    HW125784   5.001   3.863   2.779
 8295SOL    HW225785   4.900   3.976   2.839
 8296SOL     OW25786   2.601   5.585   0.560
 8296SOL    HW125787   2.681   5.621   0.608
 8296SOL    HW225788   2.530   5.656   0.556
 8297SOL     OW25789   6.759   3.388   2.649
 8297SOL    HW125790   6.682   3.323   2.648
 8297SOL    HW225791   6.787   3.407   2.555
 8298SOL     OW25792   6.997   1.218   0.701
 8298SOL    HW125793   6.916   1.239   0.757
 8298SOL    HW225794   6.973   1.223   0.604
 8299SOL     OW25795   0.536   2.960   2.466
 8299SOL    HW125796   0.469   2.889   2.488
 8299SOL    HW225797   0.489   3.048   2.459
 8300SOL     OW25798   0.158   6.478   4.217
 8300SOL    HW125799   0.251   6.478   4.254
 8300SOL    HW225800   0.117   6.568   4.229
 8301SOL     OW25801   4.327   0.886   6.958
 8301SOL    HW125802   4.234   0.863   6.932
 8301SOL    HW225803   4.359   0.965   6.906
 8302SOL     OW25804   5.404   6.336   6.077
 8302SOL    HW125805   5.455   6.348   5.992
 8302SOL    HW225806   5.456   6.372   6.154
 8303SOL     OW25807   5.667   0.662   3.436
 8303SOL    HW125808   5.706   0.705   3.517
 8303SOL    HW225809   5.722   0.684   3.356
 8304SOL     OW25810   5.860   4.554   1.096
 8304SOL    HW125811   5.941   4.604   1.066
 8304SOL    HW225812   5.863   4.461   1.060
 8305SOL     OW25813   4.568   4.945   4.358
 8305SOL    HW125814   4.486   4.891   4.337
 8305SOL    HW225815   4.544   5.042   4.364
 8306SOL     OW25816   5.949   1.405   3.381
 8306SOL    HW125817   5.866   1.350   3.372
 8306SOL    HW225818   5.972   1.445   3.293
 8307SOL     OW25819   3.905   5.500   1.579
 8307SOL    HW125820   3.923   5.596   1.556
 8307SOL    HW225821   3.860   5.455   1.502
 8308SOL     OW25822   2.270   6.016   0.319
 8308SOL    HW125823   2.204   5.942   0.328
 8308SOL    HW225824   2.225   6.098   0.286
 8309SOL     OW25825   6.437   5.676   2.463
 8309SOL    HW125826   6.430   5.766   2.419
 8309SOL    HW225827   6.532   5.643   2.455
 8310SOL     OW25828   1.308   5.192   1.541
 8310SOL    HW125829   1.398   5.157   1.568
 8310SOL    HW225830   1.281   5.265   1.603
 8311SOL     OW25831   6.343   1.381   5.089
 8311SOL    HW125832   6.252   1.421   5.101
 8311SOL    HW225833   6.362   1.371   4.991
 8312SOL     OW25834   5.385   1.125   6.284
 8312SOL    HW125835   5.301   1.176   6.301
 8312SOL    HW225836   5.365   1.027   6.279
 8313SOL     OW25837   5.632   0.433   6.190
 8313SOL    HW125838   5.538   0.415   6.219
 8313SOL    HW225839   5.679   0.347   6.173
 8314SOL     OW25840   6.470   6.726   6.490
 8314SOL    HW125841   6.386   6.681   6.459
 8314SOL    HW225842   6.461   6.825   6.477
 8315SOL     OW25843   4.045   3.151   2.801
 8315SOL    HW125844   4.000   3.095   2.732
 8315SOL    HW225845   4.021   3.117   2.892
 8316SOL     OW25846   1.591   2.982   1.619
 8316SOL    HW125847   1.545   2.898   1.592
 8316SOL    HW225848   1.528   3.059   1.609
 8317SOL     OW25849   1.418   2.365   2.949
 8317SOL    HW125850   1.414   2.402   2.856
 8317SOL    HW225851   1.396   2.438   3.014
 8318SOL     OW25852   4.118   1.270   6.034
 8318SOL    HW125853   4.053   1.317   6.093
 8318SOL    HW225854   4.091   1.281   5.939
 8319SOL     OW25855   1.140   1.134   1.333
 8319SOL    HW125856   1.111   1.109   1.426
 8319SOL    HW225857   1.233   1.101   1.318
 8320SOL     OW25858   3.134   3.887   2.682
 8320SOL    HW125859   3.227   3.863   2.656
 8320SOL    HW225860   3.131   3.911   2.779
 8321SOL     OW25861   6.518   0.303   0.283
 8321SOL    HW125862   6.433   0.337   0.243
 8321SOL    HW225863   6.593   0.316   0.218
 8322SOL     OW25864   5.911   0.982   1.022
 8322SOL    HW125865   5.937   0.909   0.959
 8322SOL    HW225866   5.927   1.070   0.980
 8323SOL     OW25867   4.154   4.599   1.459
 8323SOL    HW125868   4.195   4.510   1.439
 8323SOL    HW225869   4.204   4.670   1.409
 8324SOL     OW25870   5.518   0.253   0.972
 8324SOL    HW125871   5.585   0.217   1.037
 8324SOL    HW225872   5.426   0.223   0.999
 8325SOL     OW25873   1.638   3.577   5.398
 8325SOL    HW125874   1.695   3.515   5.344
 8325SOL    HW225875   1.690   3.609   5.478
 8326SOL     OW25876   4.333   4.453   5.709
 8326SOL    HW125877   4.385   4.381   5.756
 8326SOL    HW225878   4.249   4.414   5.670
 8327SOL     OW25879   0.021   0.731   5.824
 8327SOL    HW125880   6.963   0.716   5.759
 8327SOL    HW225881   0.042   0.645   5.871
 8328SOL     OW25882   2.777   6.068   6.524
 8328SOL    HW125883   2.860   6.116   6.552
 8328SOL    HW225884   2.801   5.991   6.465
 8329SOL     OW25885   0.511   2.274   4.660
 8329SOL    HW125886   0.485   2.362   4.700
 8329SOL    HW225887   0.435   2.239   4.606
 8330SOL     OW25888   3.007   1.145   6.714
 8330SOL    HW125889   2.932   1.086   6.744
 8330SOL    HW225890   2.982   1.241   6.731
 8331SOL     OW25891   3.595   0.507   0.643
 8331SOL    HW125892   3.536   0.554   0.578
 8331SOL    HW225893   3.538   0.460   0.711
 8332SOL     OW25894   5.856   5.606   2.425
 8332SOL    HW125895   5.854   5.508   2.405
 8332SOL    HW225896   5.801   5.655   2.358
 8333SOL     OW25897   1.247   4.906   0.201
 8333SOL    HW125898   1.274   4.892   0.296
 8333SOL    HW225899   1.168   4.968   0.197
 8334SOL     OW25900   3.459   1.854   5.104
 8334SOL    HW125901   3.498   1.856   5.196
 8334SOL    HW225902   3.516   1.908   5.042
 8335SOL     OW25903   4.765   1.322   0.296
 8335SOL    HW125904   4.848   1.356   0.251
 8335SOL    HW225905   4.789   1.247   0.357
 8336SOL     OW25906   0.617   4.206   2.781
 8336SOL    HW125907   0.582   4.141   2.714
 8336SOL    HW225908   0.717   4.214   2.770
 8337SOL     OW25909   0.406   6.448   3.814
 8337SOL    HW125910   0.495   6.480   3.784
 8337SOL    HW225911   0.350   6.527   3.843
 8338SOL     OW25912   3.355   5.701   1.388
 8338SOL    HW125913   3.400   5.703   1.299
 8338SOL    HW225914   3.282   5.633   1.386
 8339SOL     OW25915   6.457   0.348   1.999
 8339SOL    HW125916   6.368   0.338   2.042
 8339SOL    HW225917   6.475   0.268   1.941
 8340SOL     OW25918   4.832   4.076   1.279
 8340SOL    HW125919   4.864   4.094   1.186
 8340SOL    HW225920   4.836   3.978   1.298
 8341SOL     OW25921   2.413   0.306   6.495
 8341SOL    HW125922   2.452   0.248   6.566
 8341SOL    HW225923   2.470   0.302   6.413
 8342SOL     OW25924   4.576   6.746   0.302
 8342SOL    HW125925   4.550   6.785   0.214
 8342SOL    HW225926   4.647   6.802   0.344
 8343SOL     OW25927   0.447   5.809   3.483
 8343SOL    HW125928   0.488   5.896   3.511
 8343SOL    HW225929   0.518   5.748   3.448
 8344SOL     OW25930   6.522   5.784   4.712
 8344SOL    HW125931   6.560   5.699   4.747
 8344SOL    HW225932   6.556   5.801   4.620
 8345SOL     OW25933   3.911   2.151   2.590
 8345SOL    HW125934   3.994   2.125   2.539
 8345SOL    HW225935   3.830   2.125   2.538
 8346SOL     OW25936   3.635   4.808   0.756
 8346SOL    HW125937   3.597   4.820   0.664
 8346SOL    HW225938   3.729   4.773   0.749
 8347SOL     OW25939   2.849   6.668   5.101
 8347SOL    HW125940   2.854   6.617   5.187
 8347SOL    HW225941   2.918   6.633   5.038
 8348SOL     OW25942   2.133   1.200   1.086
 8348SOL    HW125943   2.087   1.115   1.061
 8348SOL    HW225944   2.198   1.181   1.160
 8349SOL     OW25945   0.949   6.668   2.522
 8349SOL    HW125946   0.901   6.593   2.478
 8349SOL    HW225947   0.883   6.731   2.564
 8350SOL     OW25948   2.745   6.735   6.107
 8350SOL    HW125949   2.663   6.692   6.143
 8350SOL    HW225950   2.789   6.789   6.178
 8351SOL     OW25951   4.934   5.572   4.296
 8351SOL    HW125952   4.976   5.580   4.205
 8351SOL    HW225953   4.847   5.621   4.297
 8352SOL     OW25954   0.614   6.943   3.205
 8352SOL    HW125955   0.597   6.857   3.252
 8352SOL    HW225956   0.601   0.002   3.268
 8353SOL     OW25957   0.790   4.122   1.143
 8353SOL    HW125958   0.867   4.184   1.126
 8353SOL    HW225959   0.796   4.045   1.080
 8354SOL     OW25960   3.405   6.990   4.495
 8354SOL    HW125961   3.469   0.010   4.429
 8354SOL    HW225962   3.423   0.013   4.585
 8355SOL     OW25963   2.607   1.430   5.489
 8355SOL    HW125964   2.534   1.434   5.422
 8355SOL    HW225965   2.661   1.514   5.486
 8356SOL     OW25966   0.885   0.360   1.974
 8356SOL    HW125967   0.924   0.311   2.052
 8356SOL    HW225968   0.852   0.449   2.003
 8357SOL     OW25969   3.300   6.732   5.529
 8357SOL    HW125970   3.373   6.674   5.563
 8357SOL    HW225971   3.243   6.763   5.605
 8358SOL     OW25972   2.056   3.834   5.008
 8358SOL    HW125973   2.143   3.874   4.976
 8358SOL    HW225974   2.055   3.834   5.108
 8359SOL     OW25975   3.258   1.222   5.006
 8359SOL    HW125976   3.281   1.145   5.065
 8359SOL    HW225977   3.323   1.228   4.931
 8360SOL     OW25978   3.851   0.272   0.470
 8360SOL    HW125979   3.777   0.250   0.406
 8360SOL    HW225980   3.820   0.256   0.564
 8361SOL     OW25981   3.444   0.376   1.436
 8361SOL    HW125982   3.432   0.438   1.514
 8361SOL    HW225983   3.516   0.309   1.458
 8362SOL     OW25984   4.826   1.446   1.337
 8362SOL    HW125985   4.746   1.473   1.284
 8362SOL    HW225986   4.853   1.353   1.311
 8363SOL     OW25987   4.599   2.699   0.001
 8363SOL    HW125988   4.651   2.646   0.067
 8363SOL    HW225989   4.660   2.731   6.945
 8364SOL     OW25990   0.490   1.971   4.057
 8364SOL    HW125991   0.541   2.025   4.124
 8364SOL    HW225992   0.445   2.032   3.992
 8365SOL     OW25993   1.811   2.737   2.862
 8365SOL    HW125994   1.728   2.791   2.871
 8365SOL    HW225995   1.889   2.799   2.846
 8366SOL     OW25996   2.466   5.426   0.901
 8366SOL    HW125997   2.463   5.406   0.804
 8366SOL    HW225998   2.526   5.504   0.918
 8367SOL     OW25999   3.205   5.937   4.843
 8367SOL    HW126000   3.238   5.845   4.862
 8367SOL    HW226001   3.189   5.947   4.744
 8368SOL     OW26002   0.882   6.602   6.936
 8368SOL    HW126003   0.972   6.571   6.965
 8368SOL    HW226004   0.889   6.697   6.904
 8369SOL     OW26005   0.572   0.236   5.804
 8369SOL    HW126006   0.574   0.137   5.788
 8369SOL    HW226007   0.651   0.262   5.859
 8370SOL     OW26008   2.950   1.791   5.961
 8370SOL    HW126009   2.942   1.793   5.861
 8370SOL    HW226010   2.950   1.696   5.992
 8371SOL     OW26011   2.076   4.165   0.750
 8371SOL    HW126012   2.052   4.204   0.661
 8371SOL    HW226013   2.158   4.107   0.741
 8372SOL     OW26014   1.853   5.333   1.666
 8372SOL    HW126015   1.809   5.408   1.616
 8372SOL    HW226016   1.872   5.258   1.604
 8373SOL     OW26017   1.931   6.217   3.824
 8373SOL    HW126018   1.858   6.195   3.759
 8373SOL    HW226019   1.892   6.226   3.916
 8374SOL     OW26020   0.148   0.390   5.490
 8374SOL    HW126021   0.244   0.366   5.504
 8374SOL    HW226022   0.090   0.328   5.542
 8375SOL     OW26023   4.053   6.265   5.339
 8375SOL    HW126024   4.017   6.293   5.250
 8375SOL    HW226025   4.153   6.264   5.336
 8376SOL     OW26026   0.917   1.393   4.344
 8376SOL    HW126027   0.967   1.339   4.276
 8376SOL    HW226028   0.831   1.348   4.365
 8377SOL     OW26029   5.519   6.056   0.852
 8377SOL    HW126030   5.502   6.117   0.775
 8377SOL    HW226031   5.611   6.018   0.845
 8378SOL     OW26032   3.522   4.964   2.890
 8378SOL    HW126033   3.426   4.968   2.862
 8378SOL    HW226034   3.579   4.941   2.811
 8379SOL     OW26035   5.157   2.847   1.359
 8379SOL    HW126036   5.120   2.777   1.299
 8379SOL    HW226037   5.149   2.817   1.454
 8380SOL     OW26038   0.879   0.661   1.792
 8380SOL    HW126039   0.780   0.649   1.799
 8380SOL    HW226040   0.911   0.720   1.867
 8381SOL     OW26041   0.309   2.747   4.368
 8381SOL    HW126042   0.318   2.705   4.278
 8381SOL    HW226043   0.233   2.706   4.417
 8382SOL     OW26044   2.122   0.069   2.216
 8382SOL    HW126045   2.167   0.143   2.166
 8382SOL    HW226046   2.119   0.091   2.313
 8383SOL     OW26047   2.888   6.862   6.279
 8383SOL    HW126048   2.966   6.920   6.253
 8383SOL    HW226049   2.860   6.885   6.372
 8384SOL     OW26050   6.310   1.926   1.297
 8384SOL    HW126051   6.295   2.025   1.304
 8384SOL    HW226052   6.281   1.882   1.381
 8385SOL     OW26053   5.060   2.435   6.964
 8385SOL    HW126054   5.000   2.382   6.905
 8385SOL    HW226055   5.142   2.462   6.913
 8386SOL     OW26056   1.479   6.508   1.744
 8386SOL    HW126057   1.504   6.582   1.807
 8386SOL    HW226058   1.380   6.501   1.740
 8387SOL     OW26059   0.920   1.305   1.689
 8387SOL    HW126060   0.868   1.223   1.666
 8387SOL    HW226061   0.880   1.384   1.642
 8388SOL     OW26062   2.473   6.991   0.629
 8388SOL    HW126063   2.531   6.932   0.686
 8388SOL    HW226064   2.413   6.933   0.573
 8389SOL     OW26065   6.835   3.607   4.030
 8389SOL    HW126066   6.922   3.653   4.048
 8389SOL    HW226067   6.814   3.543   4.104
 8390SOL     OW26068   4.206   6.600   0.617
 8390SOL    HW126069   4.227   6.697   0.629
 8390SOL    HW226070   4.109   6.588   0.596
 8391SOL     OW26071   5.750   5.082   1.169
 8391SOL    HW126072   5.720   5.098   1.263
 8391SOL    HW226073   5.850   5.089   1.164
 8392SOL     OW26074   0.233   4.659   5.364
 8392SOL    HW126075   0.317   4.610   5.341
 8392SOL    HW226076   0.240   4.698   5.455
 8393SOL     OW26077   0.104   0.228   2.779
 8393SOL    HW126078   0.027   0.266   2.830
 8393SOL    HW226079   0.115   0.132   2.805
 8394SOL     OW26080   0.639   3.042   1.552
 8394SOL    HW126081   0.711   3.103   1.585
 8394SOL    HW226082   0.675   2.949   1.545
 8395SOL     OW26083   1.653   6.500   4.676
 8395SOL    HW126084   1.704   6.416   4.655
 8395SOL    HW226085   1.604   6.531   4.594
 8396SOL     OW26086   3.970   5.384   2.776
 8396SOL    HW126087   4.045   5.336   2.821
 8396SOL    HW226088   3.984   5.382   2.677
 8397SOL     OW26089   2.634   1.065   2.609
 8397SOL    HW126090   2.710   1.064   2.674
 8397SOL    HW226091   2.559   1.118   2.647
 8398SOL     OW26092   4.425   2.318   6.794
 8398SOL    HW126093   4.504   2.258   6.776
 8398SOL    HW226094   4.384   2.293   6.882
 8399SOL     OW26095   6.047   6.655   0.700
 8399SOL    HW126096   6.038   6.738   0.755
 8399SOL    HW226097   6.143   6.634   0.687
 8400SOL     OW26098   1.621   0.643   4.228
 8400SOL    HW126099   1.623   0.573   4.299
 8400SOL    HW226100   1.659   0.728   4.264
 8401SOL     OW26101   3.323   1.689   6.187
 8401SOL    HW126102   3.261   1.699   6.266
 8401SOL    HW226103   3.318   1.771   6.131
 8402SOL     OW26104   3.736   2.336   5.722
 8402SOL    HW126105   3.821   2.346   5.774
 8402SOL    HW226106   3.667   2.293   5.779
 8403SOL     OW26107   0.936   2.314   4.023
 8403SOL    HW126108   0.863   2.338   4.088
 8403SOL    HW226109   0.998   2.248   4.066
 8404SOL     OW26110   4.270   6.782   6.056
 8404SOL    HW126111   4.244   6.801   6.150
 8404SOL    HW226112   4.188   6.769   6.000
 8405SOL     OW26113   2.825   0.389   5.724
 8405SOL    HW126114   2.822   0.289   5.725
 8405SOL    HW226115   2.733   0.426   5.739
 8406SOL     OW26116   5.653   6.876   0.637
 8406SOL    HW126117   5.723   6.809   0.613
 8406SOL    HW226118   5.643   6.941   0.562
 8407SOL     OW26119   3.490   6.321   4.028
 8407SOL    HW126120   3.526   6.244   3.975
 8407SOL    HW226121   3.417   6.365   3.976
 8408SOL     OW26122   5.461   3.482   2.136
 8408SOL    HW126123   5.509   3.520   2.057
 8408SOL    HW226124   5.369   3.521   2.140
 8409SOL     OW26125   5.689   3.122   3.942
 8409SOL    HW126126   5.630   3.113   3.862
 8409SOL    HW226127   5.680   3.214   3.980
 8410SOL     OW26128   4.879   0.380   1.708
 8410SOL    HW126129   4.849   0.441   1.781
 8410SOL    HW226130   4.839   0.290   1.721
 8411SOL     OW26131   0.788   5.110   0.006
 8411SOL    HW126132   0.694   5.120   0.037
 8411SOL    HW226133   0.796   5.142   6.928
 8412SOL     OW26134   3.437   2.244   1.492
 8412SOL    HW126135   3.411   2.310   1.563
 8412SOL    HW226136   3.504   2.287   1.431
 8413SOL     OW26137   4.224   5.452   0.568
 8413SOL    HW126138   4.304   5.498   0.607
 8413SOL    HW226139   4.247   5.358   0.546
 8414SOL     OW26140   3.650   5.545   3.440
 8414SOL    HW126141   3.579   5.585   3.382
 8414SOL    HW226142   3.728   5.518   3.383
 8415SOL     OW26143   6.757   5.981   3.313
 8415SOL    HW126144   6.833   5.931   3.271
 8415SOL    HW226145   6.793   6.054   3.372
 8416SOL     OW26146   5.472   3.748   2.800
 8416SOL    HW126147   5.495   3.689   2.723
 8416SOL    HW226148   5.481   3.697   2.885
 8417SOL     OW26149   1.333   4.908   5.918
 8417SOL    HW126150   1.384   4.838   5.868
 8417SOL    HW226151   1.335   4.994   5.867
 8418SOL     OW26152   5.794   5.215   0.753
 8418SOL    HW126153   5.891   5.196   0.768
 8418SOL    HW226154   5.739   5.154   0.811
 8419SOL     OW26155   5.288   0.342   2.020
 8419SOL    HW126156   5.203   0.385   2.051
 8419SOL    HW226157   5.349   0.328   2.097
 8420SOL     OW26158   4.467   6.586   0.748
 8420SOL    HW126159   4.499   6.494   0.767
 8420SOL    HW226160   4.370   6.584   0.724
 8421SOL     OW26161   2.341   5.701   6.835
 8421SOL    HW126162   2.275   5.647   6.887
 8421SOL    HW226163   2.369   5.781   6.889
 8422SOL     OW26164   4.157   0.892   1.042
 8422SOL    HW126165   4.128   0.983   1.014
 8422SOL    HW226166   4.179   0.892   1.140
 8423SOL     OW26167   3.742   4.633   5.646
 8423SOL    HW126168   3.734   4.547   5.697
 8423SOL    HW226169   3.652   4.678   5.643
 8424SOL     OW26170   1.846   2.456   2.861
 8424SOL    HW126171   1.831   2.554   2.872
 8424SOL    HW226172   1.933   2.430   2.903
 8425SOL     OW26173   5.025   5.802   0.179
 8425SOL    HW126174   5.101   5.752   0.138
 8425SOL    HW226175   5.031   5.796   0.279
 8426SOL     OW26176   3.366   3.577   3.997
 8426SOL    HW126177   3.402   3.659   3.954
 8426SOL    HW226178   3.442   3.516   4.020
 8427SOL     OW26179   3.608   3.185   4.662
 8427SOL    HW126180   3.621   3.236   4.577
 8427SOL    HW226181   3.636   3.090   4.649
 8428SOL     OW26182   0.529   4.870   1.682
 8428SOL    HW126183   0.509   4.904   1.774
 8428SOL    HW226184   0.606   4.807   1.685
 8429SOL     OW26185   1.610   5.010   3.826
 8429SOL    HW126186   1.686   4.983   3.886
 8429SOL    HW226187   1.586   4.933   3.766
 8430SOL     OW26188   3.340   5.239   3.882
 8430SOL    HW126189   3.431   5.198   3.881
 8430SOL    HW226190   3.272   5.170   3.905
 8431SOL     OW26191   2.857   5.263   0.824
 8431SOL    HW126192   2.882   5.230   0.915
 8431SOL    HW226193   2.931   5.242   0.760
 8432SOL     OW26194   5.854   6.593   6.225
 8432SOL    HW126195   5.891   6.515   6.174
 8432SOL    HW226196   5.921   6.667   6.225
 8433SOL     OW26197   5.407   2.453   0.330
 8433SOL    HW126198   5.376   2.375   0.274
 8433SOL    HW226199   5.338   2.474   0.398
 8434SOL     OW26200   2.645   6.726   4.731
 8434SOL    HW126201   2.690   6.814   4.714
 8434SOL    HW226202   2.613   6.723   4.826
 8435SOL     OW26203   5.840   1.006   1.458
 8435SOL    HW126204   5.762   1.063   1.486
 8435SOL    HW226205   5.902   0.994   1.535
 8436SOL     OW26206   3.551   0.278   3.932
 8436SOL    HW126207   3.462   0.256   3.891
 8436SOL    HW226208   3.623   0.262   3.864
 8437SOL     OW26209   2.373   6.987   3.947
 8437SOL    HW126210   2.325   0.057   3.964
 8437SOL    HW226211   2.465   7.007   3.914
 8438SOL     OW26212   2.707   4.683   2.553
 8438SOL    HW126213   2.712   4.770   2.505
 8438SOL    HW226214   2.798   4.643   2.559
 8439SOL     OW26215   6.409   5.158   2.383
 8439SOL    HW126216   6.370   5.163   2.291
 8439SOL    HW226217   6.355   5.215   2.445
 8440SOL     OW26218   0.759   2.169   3.741
 8440SOL    HW126219   0.770   2.101   3.814
 8440SOL    HW226220   0.832   2.237   3.748
 8441SOL     OW26221   6.098   6.653   0.060
 8441SOL    HW126222   6.112   6.609   0.149
 8441SOL    HW226223   6.093   6.752   0.073
 8442SOL     OW26224   2.679   1.675   5.403
 8442SOL    HW126225   2.704   1.734   5.479
 8442SOL    HW226226   2.761   1.653   5.349
 8443SOL     OW26227   1.804   5.509   3.448
 8443SOL    HW126228   1.863   5.590   3.455
 8443SOL    HW226229   1.785   5.491   3.351
 8444SOL     OW26230   2.757   5.833   3.726
 8444SOL    HW126231   2.785   5.911   3.782
 8444SOL    HW226232   2.801   5.750   3.760
 8445SOL     OW26233   3.879   6.245   0.589
 8445SOL    HW126234   3.974   6.230   0.617
 8445SOL    HW226235   3.855   6.180   0.517
 8446SOL     OW26236   4.389   4.967   6.594
 8446SOL    HW126237   4.420   4.964   6.499
 8446SOL    HW226238   4.389   4.875   6.632
 8447SOL     OW26239   4.666   2.225   2.501
 8447SOL    HW126240   4.607   2.222   2.581
 8447SOL    HW226241   4.731   2.301   2.512
 8448SOL     OW26242   4.756   6.086   4.153
 8448SOL    HW126243   4.702   6.102   4.236
 8448SOL    HW226244   4.702   6.111   4.073
 8449SOL     OW26245   6.721   2.439   4.156
 8449SOL    HW126246   6.654   2.510   4.179
 8449SOL    HW226247   6.779   2.421   4.236
 8450SOL     OW26248   1.186   6.298   1.464
 8450SOL    HW126249   1.200   6.200   1.447
 8450SOL    HW226250   1.132   6.337   1.390
 8451SOL     OW26251   4.130   2.416   0.030
 8451SOL    HW126252   4.219   2.382   0.001
 8451SOL    HW226253   4.097   2.362   0.108
 8452SOL     OW26254   6.242   1.036   3.063
 8452SOL    HW126255   6.300   1.052   3.143
 8452SOL    HW226256   6.200   1.121   3.033
 8453SOL     OW26257   0.095   4.271   6.184
 8453SOL    HW126258   0.117   4.368   6.175
 8453SOL    HW226259   0.154   4.218   6.123
 8454SOL     OW26260   0.212   6.822   1.101
 8454SOL    HW126261   0.262   6.846   1.184
 8454SOL    HW226262   0.201   6.722   1.097
 8455SOL     OW26263   6.042   2.601   1.381
 8455SOL    HW126264   5.995   2.612   1.293
 8455SOL    HW226265   5.974   2.586   1.453
 8456SOL     OW26266   4.608   6.255   2.993
 8456SOL    HW126267   4.575   6.291   3.080
 8456SOL    HW226268   4.632   6.158   3.005
 8457SOL     OW26269   6.586   6.604   4.908
 8457SOL    HW126270   6.670   6.565   4.871
 8457SOL    HW226271   6.558   6.551   4.988
 8458SOL     OW26272   3.282   1.516   6.853
 8458SOL    HW126273   3.364   1.563   6.885
 8458SOL    HW226274   3.309   1.441   6.792
 8459SOL     OW26275   2.948   6.661   2.397
 8459SOL    HW126276   2.983   6.616   2.315
 8459SOL    HW226277   2.966   6.760   2.391
 8460SOL     OW26278   4.493   3.647   5.315
 8460SOL    HW126279   4.550   3.587   5.258
 8460SOL    HW226280   4.551   3.701   5.375
 8461SOL     OW26281   6.731   4.429   3.696
 8461SOL    HW126282   6.688   4.356   3.750
 8461SOL    HW226283   6.757   4.504   3.756
 8462SOL     OW26284   3.251   2.576   0.025
 8462SOL    HW126285   3.289   2.668   0.021
 8462SOL    HW226286   3.155   2.577   7.012
 8463SOL     OW26287   6.934   6.871   0.773
 8463SOL    HW126288   6.970   6.790   0.727
 8463SOL    HW226289   6.843   6.892   0.738
 8464SOL     OW26290   5.262   3.711   5.322
 8464SOL    HW126291   5.232   3.667   5.407
 8464SOL    HW226292   5.353   3.680   5.299
 8465SOL     OW26293   1.148   2.895   1.054
 8465SOL    HW126294   1.122   2.868   1.146
 8465SOL    HW226295   1.152   2.814   0.995
 8466SOL     OW26296   0.748   0.042   5.033
 8466SOL    HW126297   0.704   7.003   5.103
 8466SOL    HW226298   0.841   0.008   5.017
 8467SOL     OW26299   4.236   0.144   1.201
 8467SOL    HW126300   4.211   0.158   1.297
 8467SOL    HW226301   4.275   0.053   1.190
 8468SOL     OW26302   4.249   1.952   6.522
 8468SOL    HW126303   4.283   1.909   6.605
 8468SOL    HW226304   4.308   1.927   6.445
 8469SOL     OW26305   3.667   1.260   6.052
 8469SOL    HW126306   3.593   1.306   6.003
 8469SOL    HW226307   3.634   1.175   6.092
 8470SOL     OW26308   1.822   4.113   0.066
 8470SOL    HW126309   1.881   4.131   7.004
 8470SOL    HW226310   1.810   4.014   0.077
 8471SOL     OW26311   3.537   0.890   3.999
 8471SOL    HW126312   3.580   0.972   3.962
 8471SOL    HW226313   3.582   0.865   4.085
 8472SOL     OW26314   6.816   0.443   5.455
 8472SOL    HW126315   6.725   0.406   5.471
 8472SOL    HW226316   6.817   0.495   5.370
 8473SOL     OW26317   6.766   6.045   0.280
 8473SOL    HW126318   6.800   5.982   0.349
 8473SOL    HW226319   6.704   6.111   0.323
 8474SOL     OW26320   3.477   3.121   2.186
 8474SOL    HW126321   3.473   3.041   2.126
 8474SOL    HW226322   3.551   3.182   2.156
 8475SOL     OW26323   6.572   2.628   3.932
 8475SOL    HW126324   6.531   2.712   3.968
 8475SOL    HW226325   6.671   2.636   3.932
 8476SOL     OW26326   6.758   2.295   0.848
 8476SOL    HW126327   6.732   2.355   0.924
 8476SOL    HW226328   6.804   2.214   0.885
 8477SOL     OW26329   4.999   6.667   1.358
 8477SOL    HW126330   5.074   6.623   1.309
 8477SOL    HW226331   5.021   6.673   1.455
 8478SOL     OW26332   1.894   6.993   6.572
 8478SOL    HW126333   1.858   6.937   6.647
 8478SOL    HW226334   1.904   0.070   6.603
 8479SOL     OW26335   0.746   2.792   0.900
 8479SOL    HW126336   0.787   2.746   0.822
 8479SOL    HW226337   0.788   2.882   0.912
 8480SOL     OW26338   4.112   1.829   6.910
 8480SOL    HW126339   4.078   1.898   6.973
 8480SOL    HW226340   4.052   1.748   6.913
 8481SOL     OW26341   4.547   2.714   4.944
 8481SOL    HW126342   4.520   2.661   4.863
 8481SOL    HW226343   4.496   2.800   4.946
 8482SOL     OW26344   4.397   6.033   1.604
 8482SOL    HW126345   4.432   6.034   1.510
 8482SOL    HW226346   4.420   6.120   1.648
 8483SOL     OW26347   4.462   6.462   1.948
 8483SOL    HW126348   4.477   6.411   2.033
 8483SOL    HW226349   4.486   6.558   1.963
 8484SOL     OW26350   0.169   6.304   3.425
 8484SOL    HW126351   0.248   6.308   3.364
 8484SOL    HW226352   0.201   6.306   3.520
 8485SOL     OW26353   3.917   2.528   6.940
 8485SOL    HW126354   3.997   2.494   6.990
 8485SOL    HW226355   3.937   2.528   6.842
 8486SOL     OW26356   2.842   1.978   2.546
 8486SOL    HW126357   2.846   2.022   2.456
 8486SOL    HW226358   2.868   2.044   2.616
 8487SOL     OW26359   6.122   1.179   5.552
 8487SOL    HW126360   6.096   1.099   5.605
 8487SOL    HW226361   6.205   1.220   5.591
 8488SOL     OW26362   5.140   5.824   0.639
 8488SOL    HW126363   5.076   5.784   0.705
 8488SOL    HW226364   5.089   5.867   0.565
 8489SOL     OW26365   6.245   2.196   1.187
 8489SOL    HW126366   6.267   2.243   1.102
 8489SOL    HW226367   6.274   2.252   1.265
 8490SOL     OW26368   4.561   6.568   4.179
 8490SOL    HW126369   4.563   6.530   4.271
 8490SOL    HW226370   4.622   6.516   4.120
 8491SOL     OW26371   2.998   5.996   1.283
 8491SOL    HW126372   2.943   5.913   1.296
 8491SOL    HW226373   2.958   6.051   1.210
 8492SOL     OW26374   4.654   3.851   5.475
 8492SOL    HW126375   4.664   3.872   5.573
 8492SOL    HW226376   4.737   3.806   5.442
 8493SOL     OW26377   2.127   2.755   6.416
 8493SOL    HW126378   2.152   2.816   6.491
 8493SOL    HW226379   2.181   2.778   6.335
 8494SOL     OW26380   3.592   5.705   1.543
 8494SOL    HW126381   3.650   5.633   1.506
 8494SOL    HW226382   3.519   5.727   1.478
 8495SOL     OW26383   5.661   5.054   2.599
 8495SOL    HW126384   5.757   5.029   2.609
 8495SOL    HW226385   5.605   4.972   2.596
 8496SOL     OW26386   1.158   2.472   1.544
 8496SOL    HW126387   1.182   2.431   1.456
 8496SOL    HW226388   1.240   2.515   1.583
 8497SOL     OW26389   6.319   1.167   3.519
 8497SOL    HW126390   6.232   1.139   3.478
 8497SOL    HW226391   6.313   1.160   3.618
 8498SOL     OW26392   6.558   6.726   3.223
 8498SOL    HW126393   6.468   6.723   3.267
 8498SOL    HW226394   6.625   6.680   3.280
 8499SOL     OW26395   2.022   4.565   6.418
 8499SOL    HW126396   2.030   4.467   6.401
 8499SOL    HW226397   1.999   4.612   6.333
 8500SOL     OW26398   1.771   5.950   5.642
 8500SOL    HW126399   1.743   5.875   5.702
 8500SOL    HW226400   1.696   5.971   5.579
 8501SOL     OW26401   0.186   2.409   6.973
 8501SOL    HW126402   0.090   2.427   6.951
 8501SOL    HW226403   0.194   2.374   0.049
 8502SOL     OW26404   1.153   3.592   1.148
 8502SOL    HW126405   1.156   3.593   1.048
 8502SOL    HW226406   1.147   3.687   1.181
 8503SOL     OW26407   1.035   6.461   4.093
 8503SOL    HW126408   0.981   6.449   4.176
 8503SOL    HW226409   1.107   6.391   4.090
 8504SOL     OW26410   2.569   4.915   2.042
 8504SOL    HW126411   2.656   4.878   2.074
 8504SOL    HW226412   2.523   4.848   1.984
 8505SOL     OW26413   5.449   3.429   3.830
 8505SOL    HW126414   5.421   3.520   3.800
 8505SOL    HW226415   5.375   3.364   3.812
 8506SOL     OW26416   0.180   0.647   6.653
 8506SOL    HW126417   0.162   0.745   6.652
 8506SOL    HW226418   0.105   0.600   6.699
 8507SOL     OW26419   3.936   0.530   5.636
 8507SOL    HW126420   3.885   0.519   5.551
 8507SOL    HW226421   4.030   0.558   5.616
 8508SOL     OW26422   5.982   1.648   4.905
 8508SOL    HW126423   6.028   1.625   4.819
 8508SOL    HW226424   6.029   1.603   4.981
 8509SOL     OW26425   4.486   1.650   4.577
 8509SOL    HW126426   4.485   1.750   4.583
 8509SOL    HW226427   4.453   1.612   4.664
 8510SOL     OW26428   6.131   4.453   2.608
 8510SOL    HW126429   6.209   4.506   2.575
 8510SOL    HW226430   6.046   4.494   2.574
 8511SOL     OW26431   5.934   3.467   2.337
 8511SOL    HW126432   5.921   3.450   2.435
 8511SOL    HW226433   5.854   3.514   2.301
 8512SOL     OW26434   2.967   2.164   1.817
 8512SOL    HW126435   2.930   2.222   1.890
 8512SOL    HW226436   3.027   2.219   1.758
 8513SOL     OW26437   5.626   4.676   1.127
 8513SOL    HW126438   5.717   4.636   1.111
 8513SOL    HW226439   5.559   4.624   1.074
 8514SOL     OW26440   2.722   2.344   3.779
 8514SOL    HW126441   2.655   2.369   3.848
 8514SOL    HW226442   2.676   2.330   3.691
 8515SOL     OW26443   5.328   2.291   0.678
 8515SOL    HW126444   5.273   2.213   0.707
 8515SOL    HW226445   5.389   2.318   0.752
 8516SOL     OW26446   5.882   2.119   1.741
 8516SOL    HW126447   5.981   2.104   1.748
 8516SOL    HW226448   5.834   2.033   1.758
 8517SOL     OW26449   1.437   2.424   6.130
 8517SOL    HW126450   1.362   2.376   6.084
 8517SOL    HW226451   1.518   2.365   6.130
 8518SOL     OW26452   4.491   4.317   0.444
 8518SOL    HW126453   4.404   4.306   0.397
 8518SOL    HW226454   4.475   4.357   0.535
 8519SOL     OW26455   1.399   4.405   1.855
 8519SOL    HW126456   1.405   4.333   1.786
 8519SOL    HW226457   1.492   4.430   1.884
 8520SOL     OW26458   3.327   2.355   0.412
 8520SOL    HW126459   3.332   2.444   0.366
 8520SOL    HW226460   3.245   2.352   0.469
 8521SOL     OW26461   2.400   5.290   6.514
 8521SOL    HW126462   2.390   5.191   6.519
 8521SOL    HW226463   2.324   5.334   6.562
 8522SOL     OW26464   1.650   6.466   1.107
 8522SOL    HW126465   1.656   6.404   1.186
 8522SOL    HW226466   1.555   6.472   1.077
 8523SOL     OW26467   2.551   6.670   6.498
 8523SOL    HW126468   2.620   6.601   6.521
 8523SOL    HW226469   2.592   6.761   6.503
 8524SOL     OW26470   0.434   2.465   5.003
 8524SOL    HW126471   0.341   2.476   5.039
 8524SOL    HW226472   0.500   2.501   5.069
 8525SOL     OW26473   6.617   3.991   3.261
 8525SOL    HW126474   6.614   4.039   3.349
 8525SOL    HW226475   6.693   3.927   3.260
 8526SOL     OW26476   3.815   5.590   0.233
 8526SOL    HW126477   3.769   5.677   0.215
 8526SOL    HW226478   3.910   5.607   0.257
 8527SOL     OW26479   3.167   0.795   6.216
 8527SOL    HW126480   3.130   0.744   6.294
 8527SOL    HW226481   3.171   0.892   6.239
 8528SOL     OW26482   4.143   2.129   6.061
 8528SOL    HW126483   4.242   2.136   6.075
 8528SOL    HW226484   4.095   2.184   6.130
 8529SOL     OW26485   0.146   0.315   1.367
 8529SOL    HW126486   0.116   0.399   1.411
 8529SOL    HW226487   0.073   0.280   1.309
 8530SOL     OW26488   3.510   3.076   5.444
 8530SOL    HW126489   3.562   3.108   5.523
 8530SOL    HW226490   3.551   3.112   5.360
 8531SOL     OW26491   6.849   5.194   2.641
 8531SOL    HW126492   6.824   5.188   2.545
 8531SOL    HW226493   6.849   5.103   2.681
 8532SOL     OW26494   4.128   5.304   4.608
 8532SOL    HW126495   4.031   5.296   4.588
 8532SOL    HW226496   4.141   5.318   4.706
 8533SOL     OW26497   2.159   0.122   5.504
 8533SOL    HW126498   2.060   0.119   5.500
 8533SOL    HW226499   2.197   0.113   5.412
 8534SOL     OW26500   6.256   3.160   3.781
 8534SOL    HW126501   6.164   3.132   3.805
 8534SOL    HW226502   6.312   3.168   3.863
 8535SOL     OW26503   6.895   1.237   4.934
 8535SOL    HW126504   6.827   1.274   4.870
 8535SOL    HW226505   6.878   1.274   5.025
 8536SOL     OW26506   5.662   1.833   4.852
 8536SOL    HW126507   5.579   1.889   4.857
 8536SOL    HW226508   5.742   1.892   4.860
 8537SOL     OW26509   5.593   1.713   2.506
 8537SOL    HW126510   5.574   1.665   2.420
 8537SOL    HW226511   5.680   1.763   2.498
 8538SOL     OW26512   0.649   1.590   6.305
 8538SOL    HW126513   0.585   1.514   6.301
 8538SOL    HW226514   0.713   1.576   6.381
 8539SOL     OW26515   5.734   1.077   2.244
 8539SOL    HW126516   5.690   1.043   2.161
 8539SOL    HW226517   5.828   1.044   2.248
 8540SOL     OW26518   4.920   1.195   6.995
 8540SOL    HW126519   4.834   1.206   6.944
 8540SOL    HW226520   4.950   1.284   0.011
 8541SOL     OW26521   2.721   2.141   4.279
 8541SOL    HW126522   2.693   2.236   4.264
 8541SOL    HW226523   2.819   2.138   4.299
 8542SOL     OW26524   2.812   4.498   7.002
 8542SOL    HW126525   2.772   4.574   0.038
 8542SOL    HW226526   2.740   4.432   6.980
 8543SOL     OW26527   3.473   1.238   6.926
 8543SOL    HW126528   3.426   1.268   7.009
 8543SOL    HW226529   3.416   1.172   6.878
 8544SOL     OW26530   5.497   2.814   4.847
 8544SOL    HW126531   5.566   2.753   4.886
 8544SOL    HW226532   5.542   2.892   4.803
 8545SOL     OW26533   4.565   6.892   4.163
 8545SOL    HW126534   4.495   6.875   4.093
 8545SOL    HW226535   4.576   6.810   4.219
 8546SOL     OW26536   0.541   0.372   2.782
 8546SOL    HW126537   0.459   0.349   2.834
 8546SOL    HW226538   0.619   0.320   2.817
 8547SOL     OW26539   1.423   6.425   6.516
 8547SOL    HW126540   1.359   6.350   6.535
 8547SOL    HW226541   1.408   6.458   6.423
 8548SOL     OW26542   6.891   3.336   5.554
 8548SOL    HW126543   6.950   3.367   5.479
 8548SOL    HW226544   6.799   3.317   5.519
 8549SOL     OW26545   1.186   3.152   4.963
 8549SOL    HW126546   1.208   3.092   4.886
 8549SOL    HW226547   1.178   3.098   5.047
 8550SOL     OW26548   1.357   5.270   6.735
 8550SOL    HW126549   1.409   5.248   6.817
 8550SOL    HW226550   1.335   5.368   6.735
 8551SOL     OW26551   2.250   3.164   6.556
 8551SOL    HW126552   2.341   3.125   6.570
 8551SOL    HW226553   2.208   3.121   6.475
 8552SOL     OW26554   2.248   0.055   2.977
 8552SOL    HW126555   2.223   0.147   3.008
 8552SOL    HW226556   2.269   7.015   3.056
 8553SOL     OW26557   4.233   4.389   6.946
 8553SOL    HW126558   4.174   4.396   6.866
 8553SOL    HW226559   4.311   4.450   6.936
 8554SOL     OW26560   0.671   4.938   0.739
 8554SOL    HW126561   0.727   4.906   0.816
 8554SOL    HW226562   0.701   5.030   0.712
 8555SOL     OW26563   2.590   0.984   4.000
 8555SOL    HW126564   2.596   0.910   3.933
 8555SOL    HW226565   2.676   1.036   4.000
 8556SOL     OW26566   1.886   5.530   5.363
 8556SOL    HW126567   1.794   5.550   5.327
 8556SOL    HW226568   1.923   5.611   5.406
 8557SOL     OW26569   6.937   6.805   2.316
 8557SOL    HW126570   6.879   6.884   2.299
 8557SOL    HW226571   6.889   6.739   2.374
 8558SOL     OW26572   2.328   4.711   3.313
 8558SOL    HW126573   2.239   4.757   3.305
 8558SOL    HW226574   2.363   4.723   3.405
 8559SOL     OW26575   1.754   0.280   2.506
 8559SOL    HW126576   1.701   0.214   2.559
 8559SOL    HW226577   1.754   0.253   2.410
 8560SOL     OW26578   0.294   6.455   1.542
 8560SOL    HW126579   0.199   6.464   1.572
 8560SOL    HW226580   0.328   6.545   1.512
 8561SOL     OW26581   3.187   0.807   2.429
 8561SOL    HW126582   3.095   0.831   2.397
 8561SOL    HW226583   3.227   0.740   2.367
 8562SOL     OW26584   4.112   6.382   6.300
 8562SOL    HW126585   4.019   6.420   6.308
 8562SOL    HW226586   4.107   6.284   6.285
 8563SOL     OW26587   1.513   4.802   1.120
 8563SOL    HW126588   1.414   4.796   1.138
 8563SOL    HW226589   1.550   4.710   1.108
 8564SOL     OW26590   3.377   0.186   5.146
 8564SOL    HW126591   3.354   0.091   5.166
 8564SOL    HW226592   3.476   0.194   5.133
 8565SOL     OW26593   3.440   5.702   1.135
 8565SOL    HW126594   3.373   5.654   1.079
 8565SOL    HW226595   3.531   5.695   1.093
 8566SOL     OW26596   1.045   6.966   1.478
 8566SOL    HW126597   1.072   0.024   1.417
 8566SOL    HW226598   1.045   6.999   1.572
 8567SOL     OW26599   0.619   2.083   3.510
 8567SOL    HW126600   0.662   2.064   3.599
 8567SOL    HW226601   0.603   2.181   3.501
 8568SOL     OW26602   5.884   1.416   6.919
 8568SOL    HW126603   5.824   1.480   6.966
 8568SOL    HW226604   5.920   1.348   6.983
 8569SOL     OW26605   4.370   0.993   6.031
 8569SOL    HW126606   4.379   0.902   6.071
 8569SOL    HW226607   4.273   1.012   6.013
 8570SOL     OW26608   1.726   1.659   4.547
 8570SOL    HW126609   1.631   1.675   4.574
 8570SOL    HW226610   1.762   1.740   4.501
 8571SOL     OW26611   0.617   5.804   5.094
 8571SOL    HW126612   0.701   5.752   5.110
 8571SOL    HW226613   0.635   5.902   5.102
 8572SOL     OW26614   2.768   5.115   6.597
 8572SOL    HW126615   2.840   5.182   6.577
 8572SOL    HW226616   2.808   5.023   6.602
 8573SOL     OW26617   3.546   6.009   6.533
 8573SOL    HW126618   3.627   6.068   6.534
 8573SOL    HW226619   3.536   5.969   6.442
 8574SOL     OW26620   0.185   6.499   6.550
 8574SOL    HW126621   0.267   6.479   6.604
 8574SOL    HW226622   0.152   6.591   6.572
 8575SOL     OW26623   2.153   2.552   3.732
 8575SOL    HW126624   2.114   2.569   3.823
 8575SOL    HW226625   2.245   2.591   3.727
 8576SOL     OW26626   1.466   4.466   5.861
 8576SOL    HW126627   1.407   4.467   5.942
 8576SOL    HW226628   1.562   4.466   5.889
 8577SOL     OW26629   1.187   6.843   4.446
 8577SOL    HW126630   1.219   6.789   4.524
 8577SOL    HW226631   1.153   6.782   4.375
 8578SOL     OW26632   6.177   6.593   4.316
 8578SOL    HW126633   6.184   6.692   4.326
 8578SOL    HW226634   6.083   6.569   4.291
 8579SOL     OW26635   2.355   0.605   2.208
 8579SOL    HW126636   2.405   0.618   2.123
 8579SOL    HW226637   2.299   0.685   2.227
 8580SOL     OW26638   2.319   5.950   1.560
 8580SOL    HW126639   2.263   5.965   1.479
 8580SOL    HW226640   2.413   5.931   1.533
 8581SOL     OW26641   3.404   3.687   0.768
 8581SOL    HW126642   3.428   3.772   0.722
 8581SOL    HW226643   3.315   3.655   0.734
 8582SOL     OW26644   4.709   4.289   4.618
 8582SOL    HW126645   4.629   4.343   4.644
 8582SOL    HW226646   4.720   4.212   4.681
 8583SOL     OW26647   5.008   0.578   4.381
 8583SOL    HW126648   5.070   0.509   4.344
 8583SOL    HW226649   4.997   0.652   4.315
 8584SOL     OW26650   0.467   5.473   6.761
 8584SOL    HW126651   0.534   5.400   6.768
 8584SOL    HW226652   0.401   5.466   6.836
 8585SOL     OW26653   0.137   6.896   6.310
 8585SOL    HW126654   0.226   6.850   6.306
 8585SOL    HW226655   0.140   6.969   6.378
 8586SOL     OW26656   3.122   6.607   2.022
 8586SOL    HW126657   3.119   6.705   2.001
 8586SOL    HW226658   3.119   6.554   1.937
 8587SOL     OW26659   1.500   0.345   4.056
 8587SOL    HW126660   1.475   0.436   4.089
 8587SOL    HW226661   1.452   0.275   4.110
 8588SOL     OW26662   3.251   0.422   0.378
 8588SOL    HW126663   3.258   0.398   0.475
 8588SOL    HW226664   3.171   0.480   0.363
 8589SOL     OW26665   5.195   2.533   5.527
 8589SOL    HW126666   5.269   2.473   5.497
 8589SOL    HW226667   5.210   2.562   5.621
 8590SOL     OW26668   6.756   6.516   3.097
 8590SOL    HW126669   6.814   6.445   3.137
 8590SOL    HW226670   6.673   6.527   3.152
 8591SOL     OW26671   0.521   4.050   0.215
 8591SOL    HW126672   0.434   4.056   0.166
 8591SOL    HW226673   0.505   4.018   0.308
 8592SOL     OW26674   6.572   2.492   6.518
 8592SOL    HW126675   6.512   2.530   6.447
 8592SOL    HW226676   6.526   2.500   6.607
 8593SOL     OW26677   2.143   1.869   0.293
 8593SOL    HW126678   2.208   1.828   0.230
 8593SOL    HW226679   2.171   1.851   0.387
 8594SOL     OW26680   4.482   2.547   5.155
 8594SOL    HW126681   4.561   2.543   5.216
 8594SOL    HW226682   4.483   2.634   5.105
 8595SOL     OW26683   0.702   1.833   3.569
 8595SOL    HW126684   0.670   1.907   3.510
 8595SOL    HW226685   0.623   1.785   3.607
 8596SOL     OW26686   1.363   5.005   2.876
 8596SOL    HW126687   1.269   5.020   2.906
 8596SOL    HW226688   1.405   5.093   2.854
 8597SOL     OW26689   4.589   1.887   0.903
 8597SOL    HW126690   4.666   1.846   0.952
 8597SOL    HW226691   4.506   1.875   0.957
 8598SOL     OW26692   6.082   0.271   0.382
 8598SOL    HW126693   6.009   0.298   0.445
 8598SOL    HW226694   6.066   0.178   0.349
 8599SOL     OW26695   1.558   2.589   4.698
 8599SOL    HW126696   1.467   2.570   4.734
 8599SOL    HW226697   1.627   2.550   4.759
 8600SOL     OW26698   5.255   4.629   5.579
 8600SOL    HW126699   5.317   4.687   5.632
 8600SOL    HW226700   5.289   4.536   5.578
 8601SOL     OW26701   1.430   1.692   4.588
 8601SOL    HW126702   1.379   1.742   4.658
 8601SOL    HW226703   1.415   1.735   4.499
 8602SOL     OW26704   3.237   5.991   2.291
 8602SOL    HW126705   3.216   5.934   2.371
 8602SOL    HW226706   3.170   6.065   2.285
 8603SOL     OW26707   4.875   5.433   0.925
 8603SOL    HW126708   4.882   5.471   1.017
 8603SOL    HW226709   4.797   5.475   0.877
 8604SOL     OW26710   0.260   3.094   4.821
 8604SOL    HW126711   0.301   3.183   4.841
 8604SOL    HW226712   0.318   3.022   4.859
 8605SOL     OW26713   2.503   5.582   4.354
 8605SOL    HW126714   2.431   5.637   4.312
 8605SOL    HW226715   2.465   5.497   4.390
 8606SOL     OW26716   1.449   3.164   6.282
 8606SOL    HW126717   1.352   3.159   6.260
 8606SOL    HW226718   1.501   3.118   6.210
 8607SOL     OW26719   3.230   5.335   0.071
 8607SOL    HW126720   3.163   5.376   0.010
 8607SOL    HW226721   3.225   5.379   0.161
 8608SOL     OW26722   3.150   4.872   2.566
 8608SOL    HW126723   3.090   4.805   2.610
 8608SOL    HW226724   3.122   4.885   2.471
 8609SOL     OW26725   5.357   0.830   2.774
 8609SOL    HW126726   5.297   0.895   2.726
 8609SOL    HW226727   5.316   0.739   2.772
 8610SOL     OW26728   1.123   2.327   2.893
 8610SOL    HW126729   1.216   2.330   2.928
 8610SOL    HW226730   1.092   2.421   2.874
 8611SOL     OW26731   3.388   1.926   4.617
 8611SOL    HW126732   3.406   1.928   4.519
 8611SOL    HW226733   3.345   2.012   4.645
 8612SOL     OW26734   2.784   3.269   0.259
 8612SOL    HW126735   2.719   3.343   0.240
 8612SOL    HW226736   2.804   3.267   0.357
 8613SOL     OW26737   2.882   1.705   1.430
 8613SOL    HW126738   2.824   1.781   1.403
 8613SOL    HW226739   2.959   1.739   1.484
 8614SOL     OW26740   1.242   2.852   3.187
 8614SOL    HW126741   1.263   2.755   3.193
 8614SOL    HW226742   1.225   2.888   3.279
 8615SOL     OW26743   4.191   1.229   5.008
 8615SOL    HW126744   4.282   1.215   5.047
 8615SOL    HW226745   4.182   1.173   4.925
 8616SOL     OW26746   3.132   4.432   1.696
 8616SOL    HW126747   3.034   4.416   1.706
 8616SOL    HW226748   3.153   4.528   1.716
 8617SOL     OW26749   6.268   1.612   5.858
 8617SOL    HW126750   6.351   1.561   5.883
 8617SOL    HW226751   6.197   1.596   5.927
 8618SOL     OW26752   6.460   4.569   0.905
 8618SOL    HW126753   6.449   4.576   0.805
 8618SOL    HW226754   6.395   4.501   0.940
 8619SOL     OW26755   3.774   4.901   2.140
 8619SOL    HW126756   3.736   4.853   2.061
 8619SOL    HW226757   3.702   4.917   2.207
 8620SOL     OW26758   1.294   0.337   3.338
 8620SOL    HW126759   1.307   0.264   3.405
 8620SOL    HW226760   1.349   0.417   3.364
 8621SOL     OW26761   5.316   1.590   3.398
 8621SOL    HW126762   5.219   1.570   3.382
 8621SOL    HW226763   5.335   1.684   3.372
 8622SOL     OW26764   5.542   3.253   1.281
 8622SOL    HW126765   5.497   3.178   1.330
 8622SOL    HW226766   5.641   3.236   1.277
 8623SOL     OW26767   0.358   3.675   4.181
 8623SOL    HW126768   0.372   3.771   4.157
 8623SOL    HW226769   0.446   3.635   4.208
 8624SOL     OW26770   1.890   3.935   4.818
 8624SOL    HW126771   1.935   3.873   4.882
 8624SOL    HW226772   1.915   3.909   4.724
 8625SOL     OW26773   4.505   0.358   6.517
 8625SOL    HW126774   4.487   0.435   6.579
 8625SOL    HW226775   4.444   0.282   6.540
 8626SOL     OW26776   3.356   3.111   6.179
 8626SOL    HW126777   3.367   3.203   6.141
 8626SOL    HW226778   3.404   3.045   6.121
 8627SOL     OW26779   0.974   1.785   3.212
 8627SOL    HW126780   1.019   1.826   3.132
 8627SOL    HW226781   1.020   1.816   3.295
 8628SOL     OW26782   6.354   6.538   1.194
 8628SOL    HW126783   6.414   6.563   1.118
 8628SOL    HW226784   6.396   6.465   1.248
 8629SOL     OW26785   1.552   5.352   5.113
 8629SOL    HW126786   1.464   5.340   5.159
 8629SOL    HW226787   1.623   5.301   5.162
 8630SOL     OW26788   5.202   4.586   4.052
 8630SOL    HW126789   5.109   4.624   4.058
 8630SOL    HW226790   5.204   4.515   3.981
 8631SOL     OW26791   0.336   5.128   6.248
 8631SOL    HW126792   0.413   5.084   6.295
 8631SOL    HW226793   0.346   5.228   6.254
 8632SOL     OW26794   4.051   5.258   4.866
 8632SOL    HW126795   4.080   5.163   4.856
 8632SOL    HW226796   4.063   5.287   4.961
 8633SOL     OW26797   5.428   2.156   5.572
 8633SOL    HW126798   5.370   2.112   5.641
 8633SOL    HW226799   5.520   2.168   5.609
 8634SOL     OW26800   4.589   2.894   0.295
 8634SOL    HW126801   4.530   2.963   0.253
 8634SOL    HW226802   4.684   2.923   0.288
 8635SOL     OW26803   5.319   3.284   6.522
 8635SOL    HW126804   5.359   3.375   6.534
 8635SOL    HW226805   5.281   3.253   6.609
 8636SOL     OW26806   5.968   5.985   0.783
 8636SOL    HW126807   5.960   6.065   0.724
 8636SOL    HW226808   5.877   5.955   0.812
 8637SOL     OW26809   2.469   0.773   6.736
 8637SOL    HW126810   2.499   0.752   6.643
 8637SOL    HW226811   2.389   0.717   6.758
 8638SOL     OW26812   3.417   2.188   5.256
 8638SOL    HW126813   3.487   2.155   5.194
 8638SOL    HW226814   3.346   2.237   5.205
 8639SOL     OW26815   5.440   2.718   0.281
 8639SOL    HW126816   5.367   2.773   0.242
 8639SOL    HW226817   5.419   2.621   0.269
 8640SOL     OW26818   4.336   3.846   6.703
 8640SOL    HW126819   4.307   3.837   6.798
 8640SOL    HW226820   4.339   3.942   6.677
 8641SOL     OW26821   4.524   4.695   3.634
 8641SOL    HW126822   4.606   4.748   3.612
 8641SOL    HW226823   4.449   4.724   3.574
 8642SOL     OW26824   1.302   6.057   3.438
 8642SOL    HW126825   1.376   6.046   3.372
 8642SOL    HW226826   1.279   5.969   3.479
 8643SOL     OW26827   2.480   0.437   0.010
 8643SOL    HW126828   2.514   0.345   0.029
 8643SOL    HW226829   2.547   0.488   6.973
 8644SOL     OW26830   5.086   2.534   5.273
 8644SOL    HW126831   5.133   2.537   5.361
 8644SOL    HW226832   5.104   2.618   5.222
 8645SOL     OW26833   4.556   4.008   1.390
 8645SOL    HW126834   4.556   3.945   1.313
 8645SOL    HW226835   4.639   4.064   1.388
 8646SOL     OW26836   6.917   1.807   0.696
 8646SOL    HW126837   6.896   1.885   0.636
 8646SOL    HW226838   6.990   1.752   0.655
 8647SOL     OW26839   2.874   5.379   6.440
 8647SOL    HW126840   2.921   5.456   6.397
 8647SOL    HW226841   2.776   5.397   6.443
 8648SOL     OW26842   6.497   0.365   2.751
 8648SOL    HW126843   6.570   0.418   2.796
 8648SOL    HW226844   6.430   0.336   2.820
 8649SOL     OW26845   5.767   5.352   5.881
 8649SOL    HW126846   5.687   5.374   5.936
 8649SOL    HW226847   5.756   5.390   5.789
 8650SOL     OW26848   2.185   5.116   4.481
 8650SOL    HW126849   2.187   5.156   4.572
 8650SOL    HW226850   2.269   5.063   4.466
 8651SOL     OW26851   4.618   0.376   0.311
 8651SOL    HW126852   4.619   0.318   0.392
 8651SOL    HW226853   4.595   0.321   0.230
 8652SOL     OW26854   1.778   5.254   3.525
 8652SOL    HW126855   1.782   5.354   3.533
 8652SOL    HW226856   1.683   5.223   3.530
 8653SOL     OW26857   6.265   0.362   6.420
 8653SOL    HW126858   6.278   0.456   6.450
 8653SOL    HW226859   6.209   0.360   6.337
 8654SOL     OW26860   1.089   5.020   2.058
 8654SOL    HW126861   1.158   4.957   2.093
 8654SOL    HW226862   1.110   5.043   1.963
 8655SOL     OW26863   6.508   0.775   4.230
 8655SOL    HW126864   6.493   0.842   4.158
 8655SOL    HW226865   6.605   0.753   4.236
 8656SOL     OW26866   0.155   6.952   0.871
 8656SOL    HW126867   0.072   6.903   0.845
 8656SOL    HW226868   0.181   6.926   0.964
 8657SOL     OW26869   5.025   4.840   6.910
 8657SOL    HW126870   5.056   4.745   6.910
 8657SOL    HW226871   5.011   4.871   7.004
 8658SOL     OW26872   6.359   6.351   0.435
 8658SOL    HW126873   6.372   6.363   0.533
 8658SOL    HW226874   6.448   6.337   0.391
 8659SOL     OW26875   4.740   2.109   2.259
 8659SOL    HW126876   4.706   2.127   2.351
 8659SOL    HW226877   4.699   2.175   2.195
 8660SOL     OW26878   6.973   3.690   1.862
 8660SOL    HW126879   6.880   3.659   1.880
 8660SOL    HW226880   6.981   3.718   1.766
 8661SOL     OW26881   6.197   4.127   1.256
 8661SOL    HW126882   6.144   4.122   1.171
 8661SOL    HW226883   6.148   4.079   1.328
 8662SOL     OW26884   4.474   5.500   1.001
 8662SOL    HW126885   4.466   5.591   1.042
 8662SOL    HW226886   4.552   5.498   0.937
 8663SOL     OW26887   2.780   5.830   2.124
 8663SOL    HW126888   2.745   5.887   2.050
 8663SOL    HW226889   2.707   5.814   2.191
 8664SOL     OW26890   1.995   6.599   1.372
 8664SOL    HW126891   2.025   6.508   1.344
 8664SOL    HW226892   1.910   6.622   1.325
 8665SOL     OW26893   5.734   5.725   5.055
 8665SOL    HW126894   5.695   5.713   5.147
 8665SOL    HW226895   5.668   5.775   4.998
 8666SOL     OW26896   5.939   1.534   3.663
 8666SOL    HW126897   5.843   1.523   3.688
 8666SOL    HW226898   5.952   1.511   3.566
 8667SOL     OW26899   3.843   2.137   3.739
 8667SOL    HW126900   3.839   2.111   3.642
 8667SOL    HW226901   3.935   2.168   3.761
 8668SOL     OW26902   4.910   3.403   3.494
 8668SOL    HW126903   4.862   3.412   3.407
 8668SOL    HW226904   4.858   3.343   3.555
 8669SOL     OW26905   1.702   6.361   6.066
 8669SOL    HW126906   1.784   6.330   6.018
 8669SOL    HW226907   1.679   6.295   6.138
 8670SOL     OW26908   4.106   4.978   5.864
 8670SOL    HW126909   4.084   5.063   5.912
 8670SOL    HW226910   4.042   4.966   5.788
 8671SOL     OW26911   5.403   1.515   2.932
 8671SOL    HW126912   5.340   1.550   2.863
 8671SOL    HW226913   5.492   1.557   2.920
 8672SOL     OW26914   1.164   5.438   4.124
 8672SOL    HW126915   1.202   5.380   4.052
 8672SOL    HW226916   1.223   5.518   4.138
 8673SOL     OW26917   5.280   2.945   0.179
 8673SOL    HW126918   5.235   2.956   0.268
 8673SOL    HW226919   5.245   3.013   0.115
 8674SOL     OW26920   4.739   6.344   2.740
 8674SOL    HW126921   4.715   6.288   2.819
 8674SOL    HW226922   4.721   6.440   2.760
 8675SOL     OW26923   3.884   2.174   4.734
 8675SOL    HW126924   3.968   2.142   4.777
 8675SOL    HW226925   3.827   2.220   4.802
 8676SOL     OW26926   5.324   0.067   3.168
 8676SOL    HW126927   5.242   0.111   3.204
 8676SOL    HW226928   5.300   6.995   3.129
 8677SOL     OW26929   2.275   5.428   6.262
 8677SOL    HW126930   2.272   5.328   6.260
 8677SOL    HW226931   2.359   5.458   6.306
 8678SOL     OW26932   0.012   0.307   2.545
 8678SOL    HW126933   0.038   0.402   2.528
 8678SOL    HW226934   0.036   0.282   2.638
 8679SOL     OW26935   0.145   2.161   3.311
 8679SOL    HW126936   0.206   2.193   3.384
 8679SOL    HW226937   0.155   2.221   3.231
 8680SOL     OW26938   0.472   3.144   6.869
 8680SOL    HW126939   0.381   3.134   6.829
 8680SOL    HW226940   0.541   3.127   6.799
 8681SOL     OW26941   4.863   5.148   1.395
 8681SOL    HW126942   4.788   5.118   1.454
 8681SOL    HW226943   4.825   5.199   1.317
 8682SOL     OW26944   5.111   6.357   2.624
 8682SOL    HW126945   5.078   6.418   2.696
 8682SOL    HW226946   5.208   6.372   2.609
 8683SOL     OW26947   1.867   1.698   4.248
 8683SOL    HW126948   1.951   1.647   4.271
 8683SOL    HW226949   1.867   1.718   4.150
 8684SOL     OW26950   6.093   2.525   4.945
 8684SOL    HW126951   6.021   2.512   5.014
 8684SOL    HW226952   6.127   2.619   4.951
 8685SOL     OW26953   0.007   1.907   6.481
 8685SOL    HW126954   0.059   1.860   6.552
 8685SOL    HW226955   6.926   1.900   6.501
 8686SOL     OW26956   0.321   1.347   3.448
 8686SOL    HW126957   0.312   1.349   3.349
 8686SOL    HW226958   0.292   1.434   3.487
 8687SOL     OW26959   5.003   4.871   1.965
 8687SOL    HW126960   5.031   4.966   1.982
 8687SOL    HW226961   5.060   4.810   2.020
 8688SOL     OW26962   1.221   5.386   6.142
 8688SOL    HW126963   1.297   5.451   6.141
 8688SOL    HW226964   1.225   5.329   6.060
 8689SOL     OW26965   3.729   3.773   0.659
 8689SOL    HW126966   3.695   3.740   0.747
 8689SOL    HW226967   3.827   3.790   0.665
 8690SOL     OW26968   1.524   3.969   3.800
 8690SOL    HW126969   1.474   3.968   3.712
 8690SOL    HW226970   1.517   3.878   3.842
 8691SOL     OW26971   3.845   1.824   5.873
 8691SOL    HW126972   3.870   1.875   5.955
 8691SOL    HW226973   3.750   1.793   5.880
 8692SOL     OW26974   3.033   1.398   4.683
 8692SOL    HW126975   2.945   1.444   4.671
 8692SOL    HW226976   3.030   1.340   4.764
 8693SOL     OW26977   5.451   0.320   0.341
 8693SOL    HW126978   5.482   0.382   0.269
 8693SOL    HW226979   5.381   0.259   0.305
 8694SOL     OW26980   4.989   0.666   4.820
 8694SOL    HW126981   5.031   0.645   4.908
 8694SOL    HW226982   4.906   0.612   4.808
 8695SOL     OW26983   3.937   2.834   5.872
 8695SOL    HW126984   4.030   2.865   5.892
 8695SOL    HW226985   3.941   2.752   5.815
 8696SOL     OW26986   2.022   4.833   5.342
 8696SOL    HW126987   1.983   4.806   5.429
 8696SOL    HW226988   2.118   4.804   5.337
 8697SOL     OW26989   0.220   3.297   6.272
 8697SOL    HW126990   0.208   3.249   6.185
 8697SOL    HW226991   0.139   3.284   6.328
 8698SOL     OW26992   4.606   6.012   5.109
 8698SOL    HW126993   4.571   5.935   5.055
 8698SOL    HW226994   4.704   6.001   5.123
 8699SOL     OW26995   1.060   2.490   5.083
 8699SOL    HW126996   1.040   2.468   4.987
 8699SOL    HW226997   1.132   2.430   5.117
 8700SOL     OW26998   1.102   0.833   4.359
 8700SOL    HW126999   1.137   0.917   4.317
 8700SOL    HW227000   1.115   0.838   4.458
 8701SOL     OW27001   1.561   0.790   6.949
 8701SOL    HW127002   1.644   0.769   7.000
 8701SOL    HW227003   1.566   0.748   6.858
 8702SOL     OW27004   5.362   4.870   1.650
 8702SOL    HW127005   5.313   4.939   1.703
 8702SOL    HW227006   5.357   4.893   1.552
 8703SOL     OW27007   2.760   5.396   0.436
 8703SOL    HW127008   2.702   5.473   0.463
 8703SOL    HW227009   2.704   5.328   0.389
 8704SOL     OW27010   0.469   4.337   3.072
 8704SOL    HW127011   0.566   4.358   3.063
 8704SOL    HW227012   0.426   4.403   3.134
 8705SOL     OW27013   5.240   1.007   6.635
 8705SOL    HW127014   5.145   1.014   6.605
 8705SOL    HW227015   5.258   1.074   6.707
 8706SOL     OW27016   5.208   2.005   6.841
 8706SOL    HW127017   5.230   2.093   6.801
 8706SOL    HW227018   5.203   1.936   6.769
 8707SOL     OW27019   6.993   1.459   5.817
 8707SOL    HW127020   6.963   1.389   5.881
 8707SOL    HW227021   6.923   1.530   5.810
 8708SOL     OW27022   4.208   1.454   2.669
 8708SOL    HW127023   4.231   1.513   2.592
 8708SOL    HW227024   4.112   1.428   2.664
 8709SOL     OW27025   6.978   6.861   0.309
 8709SOL    HW127026   6.879   6.852   0.315
 8709SOL    HW227027   7.013   6.797   0.241
 8710SOL     OW27028   2.178   2.861   3.570
 8710SOL    HW127029   2.262   2.817   3.600
 8710SOL    HW227030   2.119   2.793   3.526
 8711SOL     OW27031   1.829   6.949   2.928
 8711SOL    HW127032   1.821   6.861   2.880
 8711SOL    HW227033   1.773   6.947   3.011
 8712SOL     OW27034   4.203   2.110   4.780
 8712SOL    HW127035   4.236   2.024   4.741
 8712SOL    HW227036   4.186   2.098   4.878
 8713SOL     OW27037   6.461   3.314   3.356
 8713SOL    HW127038   6.520   3.261   3.295
 8713SOL    HW227039   6.391   3.360   3.302
 8714SOL     OW27040   0.948   0.083   5.356
 8714SOL    HW127041   1.002   0.011   5.313
 8714SOL    HW227042   0.966   0.085   5.454
 8715SOL     OW27043   4.177   0.486   1.270
 8715SOL    HW127044   4.249   0.454   1.208
 8715SOL    HW227045   4.090   0.442   1.247
 8716SOL     OW27046   0.164   0.249   0.990
 8716SOL    HW127047   0.157   0.154   0.958
 8716SOL    HW227048   0.107   0.261   1.072
 8717SOL     OW27049   2.889   3.576   4.767
 8717SOL    HW127050   2.790   3.588   4.774
 8717SOL    HW227051   2.910   3.478   4.758
 8718SOL     OW27052   1.548   3.250   5.606
 8718SOL    HW127053   1.623   3.313   5.625
 8718SOL    HW227054   1.552   3.221   5.511
 8719SOL     OW27055   4.516   6.825   6.799
 8719SOL    HW127056   4.507   6.924   6.789
 8719SOL    HW227057   4.563   6.787   6.719
 8720SOL     OW27058   0.112   4.986   6.039
 8720SOL    HW127059   0.143   4.909   5.984
 8720SOL    HW227060   0.190   5.030   6.082
 8721SOL     OW27061   6.922   2.680   1.567
 8721SOL    HW127062   6.878   2.757   1.520
 8721SOL    HW227063   6.897   2.681   1.663
 8722SOL     OW27064   3.411   1.113   0.463
 8722SOL    HW127065   3.497   1.162   0.478
 8722SOL    HW227066   3.431   1.024   0.422
 8723SOL     OW27067   4.761   6.578   1.938
 8723SOL    HW127068   4.695   6.546   2.005
 8723SOL    HW227069   4.816   6.502   1.904
 8724SOL     OW27070   5.231   6.720   5.162
 8724SOL    HW127071   5.156   6.770   5.118
 8724SOL    HW227072   5.318   6.755   5.129
 8725SOL     OW27073   1.468   6.232   5.603
 8725SOL    HW127074   1.433   6.249   5.695
 8725SOL    HW227075   1.452   6.136   5.578
 8726SOL     OW27076   0.241   1.578   3.561
 8726SOL    HW127077   0.242   1.677   3.576
 8726SOL    HW227078   0.155   1.540   3.594
 8727SOL     OW27079   5.000   0.174   2.063
 8727SOL    HW127080   4.905   0.156   2.089
 8727SOL    HW227081   5.008   0.269   2.033
 8728SOL     OW27082   6.241   1.091   2.210
 8728SOL    HW127083   6.318   1.095   2.275
 8728SOL    HW227084   6.189   1.007   2.226
 8729SOL     OW27085   3.816   5.307   5.307
 8729SOL    HW127086   3.779   5.400   5.322
 8729SOL    HW227087   3.744   5.240   5.325
 8730SOL     OW27088   5.448   4.449   2.673
 8730SOL    HW127089   5.448   4.350   2.683
 8730SOL    HW227090   5.498   4.490   2.749
 8731SOL     OW27091   1.343   2.795   2.907
 8731SOL    HW127092   1.283   2.825   2.981
 8731SOL    HW227093   1.415   2.863   2.893
 8732SOL     OW27094   5.862   4.903   1.707
 8732SOL    HW127095   5.794   4.858   1.765
 8732SOL    HW227096   5.874   4.851   1.623
 8733SOL     OW27097   2.139   5.666   1.454
 8733SOL    HW127098   2.091   5.749   1.485
 8733SOL    HW227099   2.189   5.626   1.531
 8734SOL     OW27100   1.242   3.928   1.999
 8734SOL    HW127101   1.210   3.993   2.067
 8734SOL    HW227102   1.214   3.959   1.908
 8735SOL     OW27103   0.537   2.462   0.140
 8735SOL    HW127104   0.525   2.561   0.137
 8735SOL    HW227105   0.525   2.429   0.234
 8736SOL     OW27106   0.319   5.299   0.237
 8736SOL    HW127107   0.331   5.337   0.329
 8736SOL    HW227108   0.399   5.245   0.213
 8737SOL     OW27109   1.865   6.392   0.127
 8737SOL    HW127110   1.859   6.372   0.225
 8737SOL    HW227111   1.948   6.352   0.089
 8738SOL     OW27112   3.126   5.400   4.146
 8738SOL    HW127113   3.094   5.392   4.241
 8738SOL    HW227114   3.180   5.319   4.123
 8739SOL     OW27115   5.965   5.793   6.564
 8739SOL    HW127116   5.889   5.849   6.594
 8739SOL    HW227117   6.016   5.842   6.493
 8740SOL     OW27118   4.160   1.044   4.776
 8740SOL    HW127119   4.174   0.946   4.788
 8740SOL    HW227120   4.105   1.060   4.694
 8741SOL     OW27121   2.410   1.261   2.241
 8741SOL    HW127122   2.453   1.175   2.213
 8741SOL    HW227123   2.333   1.242   2.302
 8742SOL     OW27124   4.887   6.323   1.927
 8742SOL    HW127125   4.971   6.270   1.916
 8742SOL    HW227126   4.857   6.318   2.023
 8743SOL     OW27127   1.596   6.985   2.293
 8743SOL    HW127128   1.499   6.997   2.309
 8743SOL    HW227129   1.610   6.920   2.218
 8744SOL     OW27130   3.950   2.816   6.738
 8744SOL    HW127131   3.855   2.832   6.715
 8744SOL    HW227132   3.965   2.718   6.754
 8745SOL     OW27133   6.507   1.788   6.198
 8745SOL    HW127134   6.504   1.888   6.203
 8745SOL    HW227135   6.546   1.760   6.110
 8746SOL     OW27136   4.724   5.685   4.438
 8746SOL    HW127137   4.634   5.722   4.418
 8746SOL    HW227138   4.721   5.633   4.524
 8747SOL     OW27139   0.312   2.257   3.506
 8747SOL    HW127140   0.403   2.285   3.475
 8747SOL    HW227141   0.271   2.331   3.559
 8748SOL     OW27142   0.229   1.310   4.358
 8748SOL    HW127143   0.188   1.275   4.274
 8748SOL    HW227144   0.289   1.386   4.335
 8749SOL     OW27145   2.246   0.458   5.168
 8749SOL    HW127146   2.191   0.399   5.227
 8749SOL    HW227147   2.301   0.401   5.106
 8750SOL     OW27148   3.081   3.775   4.802
 8750SOL    HW127149   3.173   3.743   4.780
 8750SOL    HW227150   3.022   3.696   4.818
 8751SOL     OW27151   6.146   2.060   1.798
 8751SOL    HW127152   6.229   2.049   1.744
 8751SOL    HW227153   6.169   2.102   1.886
 8752SOL     OW27154   3.811   2.918   6.314
 8752SOL    HW127155   3.727   2.864   6.305
 8752SOL    HW227156   3.793   3.013   6.291
 8753SOL     OW27157   3.124   1.405   6.379
 8753SOL    HW127158   3.150   1.461   6.458
 8753SOL    HW227159   3.206   1.366   6.338
 8754SOL     OW27160   1.806   3.695   5.582
 8754SOL    HW127161   1.803   3.743   5.494
 8754SOL    HW227162   1.872   3.738   5.642
 8755SOL     OW27163   2.354   1.333   0.678
 8755SOL    HW127164   2.444   1.357   0.642
 8755SOL    HW227165   2.351   1.235   0.698
 8756SOL     OW27166   1.263   3.503   4.063
 8756SOL    HW127167   1.250   3.438   3.988
 8756SOL    HW227168   1.240   3.595   4.031
 8757SOL     OW27169   3.583   5.490   6.440
 8757SOL    HW127170   3.614   5.415   6.381
 8757SOL    HW227171   3.560   5.454   6.530
 8758SOL     OW27172   4.985   6.024   2.753
 8758SOL    HW127173   4.949   6.085   2.682
 8758SOL    HW227174   5.015   6.078   2.832
 8759SOL     OW27175   4.656   2.856   6.316
 8759SOL    HW127176   4.638   2.898   6.227
 8759SOL    HW227177   4.741   2.892   6.353
 8760SOL     OW27178   2.609   0.595   5.264
 8760SOL    HW127179   2.614   0.522   5.332
 8760SOL    HW227180   2.667   0.671   5.292
 8761SOL     OW27181   6.136   2.380   1.599
 8761SOL    HW127182   6.145   2.281   1.592
 8761SOL    HW227183   6.042   2.406   1.575
 8762SOL     OW27184   1.254   4.389   3.243
 8762SOL    HW127185   1.334   4.446   3.261
 8762SOL    HW227186   1.198   4.432   3.172
 8763SOL     OW27187   6.445   6.539   6.191
 8763SOL    HW127188   6.368   6.517   6.251
 8763SOL    HW227189   6.530   6.514   6.236
 8764SOL     OW27190   5.395   0.139   5.121
 8764SOL    HW127191   5.473   0.200   5.106
 8764SOL    HW227192   5.415   0.077   5.197
 8765SOL     OW27193   5.417   7.011   3.653
 8765SOL    HW127194   5.412   0.052   3.571
 8765SOL    HW227195   5.325   6.985   3.681
 8766SOL     OW27196   4.250   4.809   4.553
 8766SOL    HW127197   4.241   4.908   4.543
 8766SOL    HW227198   4.279   4.788   4.647
 8767SOL     OW27199   5.119   5.602   3.240
 8767SOL    HW127200   5.073   5.519   3.211
 8767SOL    HW227201   5.203   5.615   3.186
 8768SOL     OW27202   1.331   2.612   0.143
 8768SOL    HW127203   1.316   2.607   0.044
 8768SOL    HW227204   1.429   2.615   0.161
 8769SOL     OW27205   0.132   0.942   3.598
 8769SOL    HW127206   0.224   0.919   3.631
 8769SOL    HW227207   0.065   0.901   3.660
 8770SOL     OW27208   4.451   4.586   2.038
 8770SOL    HW127209   4.460   4.488   2.051
 8770SOL    HW227210   4.388   4.604   1.963
 8771SOL     OW27211   0.947   1.450   6.438
 8771SOL    HW127212   0.879   1.477   6.506
 8771SOL    HW227213   0.948   1.351   6.429
 8772SOL     OW27214   4.854   0.199   6.421
 8772SOL    HW127215   4.904   0.250   6.491
 8772SOL    HW227216   4.771   0.160   6.461
 8773SOL     OW27217   5.282   2.489   3.456
 8773SOL    HW127218   5.280   2.402   3.506
 8773SOL    HW227219   5.376   2.522   3.451
 8774SOL     OW27220   1.376   0.998   6.966
 8774SOL    HW127221   1.445   0.929   6.945
 8774SOL    HW227222   1.286   0.956   6.966
 8775SOL     OW27223   5.536   0.038   5.681
 8775SOL    HW127224   5.615   7.002   5.650
 8775SOL    HW227225   5.552   0.071   5.774
 8776SOL     OW27226   4.414   2.842   0.506
 8776SOL    HW127227   4.380   2.749   0.511
 8776SOL    HW227228   4.475   2.852   0.427
 8777SOL     OW27229   6.477   4.261   3.429
 8777SOL    HW127230   6.504   4.189   3.493
 8777SOL    HW227231   6.556   4.320   3.411
 8778SOL     OW27232   5.787   3.559   5.528
 8778SOL    HW127233   5.805   3.583   5.623
 8778SOL    HW227234   5.873   3.543   5.480
 8779SOL     OW27235   2.905   5.265   2.598
 8779SOL    HW127236   2.981   5.271   2.663
 8779SOL    HW227237   2.915   5.336   2.528
 8780SOL     OW27238   0.330   6.563   2.759
 8780SOL    HW127239   0.397   6.552   2.686
 8780SOL    HW227240   0.282   6.650   2.749
 8781SOL     OW27241   4.935   0.558   3.966
 8781SOL    HW127242   4.953   0.647   4.008
 8781SOL    HW227243   4.857   0.566   3.903
 8782SOL     OW27244   6.481   6.708   1.721
 8782SOL    HW127245   6.509   6.616   1.750
 8782SOL    HW227246   6.522   6.729   1.633
 8783SOL     OW27247   6.239   4.670   3.907
 8783SOL    HW127248   6.244   4.604   3.982
 8783SOL    HW227249   6.330   4.682   3.867
 8784SOL     OW27250   6.650   4.846   5.668
 8784SOL    HW127251   6.694   4.907   5.733
 8784SOL    HW227252   6.668   4.751   5.694
 8785SOL     OW27253   5.508   4.525   0.191
 8785SOL    HW127254   5.511   4.432   0.154
 8785SOL    HW227255   5.419   4.541   0.235
 8786SOL     OW27256   3.005   0.987   0.332
 8786SOL    HW127257   3.045   1.073   0.300
 8786SOL    HW227258   2.913   0.977   0.294
 8787SOL     OW27259   3.272   1.497   1.734
 8787SOL    HW127260   3.186   1.455   1.762
 8787SOL    HW227261   3.267   1.522   1.637
 8788SOL     OW27262   5.970   0.173   5.177
 8788SOL    HW127263   6.007   0.244   5.117
 8788SOL    HW227264   5.908   0.114   5.125
 8789SOL     OW27265   6.104   6.109   4.102
 8789SOL    HW127266   6.174   6.062   4.049
 8789SOL    HW227267   6.035   6.147   4.040
 8790SOL     OW27268   6.591   0.191   6.214
 8790SOL    HW127269   6.658   0.240   6.270
 8790SOL    HW227270   6.637   0.155   6.132
 8791SOL     OW27271   5.307   6.276   5.273
 8791SOL    HW127272   5.281   6.215   5.199
 8791SOL    HW227273   5.248   6.260   5.353
 8792SOL     OW27274   2.723   5.953   3.140
 8792SOL    HW127275   2.662   5.899   3.083
 8792SOL    HW227276   2.670   6.019   3.193
 8793SOL     OW27277   1.257   4.608   2.369
 8793SOL    HW127278   1.272   4.577   2.463
 8793SOL    HW227279   1.197   4.543   2.323
 8794SOL     OW27280   4.633   0.115   2.537
 8794SOL    HW127281   4.625   0.030   2.485
 8794SOL    HW227282   4.719   0.115   2.587
 8795SOL     OW27283   1.396   4.219   5.738
 8795SOL    HW127284   1.375   4.232   5.641
 8795SOL    HW227285   1.411   4.308   5.781
 8796SOL     OW27286   4.325   2.093   4.491
 8796SOL    HW127287   4.344   2.191   4.482
 8796SOL    HW227288   4.391   2.042   4.437
 8797SOL     OW27289   0.335   0.360   6.869
 8797SOL    HW127290   0.264   0.382   6.936
 8797SOL    HW227291   0.393   0.440   6.855
 8798SOL     OW27292   5.109   5.623   6.601
 8798SOL    HW127293   5.039   5.613   6.530
 8798SOL    HW227294   5.115   5.719   6.628
 8799SOL     OW27295   2.651   4.590   3.467
 8799SOL    HW127296   2.658   4.519   3.396
 8799SOL    HW227297   2.725   4.656   3.456
 8800SOL     OW27298   6.281   4.448   6.023
 8800SOL    HW127299   6.281   4.365   5.967
 8800SOL    HW227300   6.269   4.423   6.119
 8801SOL     OW27301   6.924   0.984   4.800
 8801SOL    HW127302   7.016   0.946   4.787
 8801SOL    HW227303   6.928   1.054   4.871
 8802SOL     OW27304   2.309   7.014   6.782
 8802SOL    HW127305   2.276   6.984   6.692
 8802SOL    HW227306   2.231   0.007   6.844
 8803SOL     OW27307   0.230   6.488   6.922
 8803SOL    HW127308   0.282   6.506   6.839
 8803SOL    HW227309   0.289   6.443   6.989
 8804SOL     OW27310   2.467   6.638   2.070
 8804SOL    HW127311   2.389   6.656   2.129
 8804SOL    HW227312   2.545   6.610   2.126
 8805SOL     OW27313   3.313   6.590   3.568
 8805SOL    HW127314   3.348   6.501   3.540
 8805SOL    HW227315   3.377   6.632   3.632
 8806SOL     OW27316   3.275   4.694   1.749
 8806SOL    HW127317   3.267   4.692   1.649
 8806SOL    HW227318   3.370   4.674   1.775
 8807SOL     OW27319   5.113   0.305   6.999
 8807SOL    HW127320   5.177   0.249   6.947
 8807SOL    HW227321   5.106   0.268   0.075
 8808SOL     OW27322   5.963   2.532   6.753
 8808SOL    HW127323   5.964   2.560   6.657
 8808SOL    HW227324   5.892   2.464   6.768
 8809SOL     OW27325   3.993   5.099   3.388
 8809SOL    HW127326   3.954   5.115   3.479
 8809SOL    HW227327   3.956   5.014   3.351
 8810SOL     OW27328   6.319   0.595   4.783
 8810SOL    HW127329   6.340   0.580   4.880
 8810SOL    HW227330   6.228   0.558   4.762
 8811SOL     OW27331   3.595   1.404   2.506
 8811SOL    HW127332   3.553   1.479   2.455
 8811SOL    HW227333   3.640   1.441   2.588
 8812SOL     OW27334   1.950   0.822   0.720
 8812SOL    HW127335   1.982   0.759   0.791
 8812SOL    HW227336   2.024   0.886   0.696
 8813SOL     OW27337   2.218   5.547   2.585
 8813SOL    HW127338   2.230   5.639   2.548
 8813SOL    HW227339   2.291   5.488   2.552
 8814SOL     OW27340   6.683   0.131   0.764
 8814SOL    HW127341   6.703   0.046   0.714
 8814SOL    HW227342   6.647   0.199   0.701
 8815SOL     OW27343   5.784   0.081   0.878
 8815SOL    HW127344   5.766   0.031   0.963
 8815SOL    HW227345   5.698   0.120   0.844
 8816SOL     OW27346   1.350   6.433   0.745
 8816SOL    HW127347   1.373   6.518   0.698
 8816SOL    HW227348   1.376   6.355   0.687
 8817SOL     OW27349   7.012   4.955   3.783
 8817SOL    HW127350   0.002   5.013   3.864
 8817SOL    HW227351   0.012   4.860   3.808
 8818SOL     OW27352   0.905   4.574   4.753
 8818SOL    HW127353   0.974   4.580   4.681
 8818SOL    HW227354   0.908   4.482   4.794
 8819SOL     OW27355   5.512   5.021   5.024
 8819SOL    HW127356   5.547   5.072   4.946
 8819SOL    HW227357   5.516   4.923   5.003
 8820SOL     OW27358   2.855   0.789   5.563
 8820SOL    HW127359   2.916   0.867   5.550
 8820SOL    HW227360   2.773   0.800   5.506
 8821SOL     OW27361   2.038   5.977   1.137
 8821SOL    HW127362   2.020   6.065   1.093
 8821SOL    HW227363   1.952   5.925   1.143
 8822SOL     OW27364   0.833   0.424   4.180
 8822SOL    HW127365   0.736   0.436   4.203
 8822SOL    HW227366   0.888   0.431   4.263
 8823SOL     OW27367   2.325   1.050   2.779
 8823SOL    HW127368   2.256   1.104   2.827
 8823SOL    HW227369   2.280   0.978   2.726
 8824SOL     OW27370   1.332   2.029   0.226
 8824SOL    HW127371   1.395   1.982   0.163
 8824SOL    HW227372   1.337   1.985   0.316
 8825SOL     OW27373   2.016   0.922   2.061
 8825SOL    HW127374   1.934   0.865   2.073
 8825SOL    HW227375   1.992   1.003   2.006
 8826SOL     OW27376   0.895   3.867   0.696
 8826SOL    HW127377   0.830   3.932   0.737
 8826SOL    HW227378   0.851   3.820   0.620
 8827SOL     OW27379   4.284   1.316   2.333
 8827SOL    HW127380   4.223   1.244   2.366
 8827SOL    HW227381   4.300   1.304   2.235
 8828SOL     OW27382   4.274   5.560   6.310
 8828SOL    HW127383   4.238   5.536   6.219
 8828SOL    HW227384   4.220   5.635   6.348
 8829SOL     OW27385   5.211   2.840   1.023
 8829SOL    HW127386   5.285   2.802   0.967
 8829SOL    HW227387   5.168   2.766   1.076
 8830SOL     OW27388   1.073   2.145   2.674
 8830SOL    HW127389   1.148   2.182   2.619
 8830SOL    HW227390   1.080   2.180   2.768
 8831SOL     OW27391   4.604   2.624   3.886
 8831SOL    HW127392   4.548   2.566   3.946
 8831SOL    HW227393   4.580   2.608   3.791
 8832SOL     OW27394   6.996   6.604   2.967
 8832SOL    HW127395   6.913   6.568   3.009
 8832SOL    HW227396   0.050   6.615   3.036
 8833SOL     OW27397   2.595   5.170   5.690
 8833SOL    HW127398   2.537   5.186   5.610
 8833SOL    HW227399   2.672   5.112   5.664
 8834SOL     OW27400   5.857   4.016   5.046
 8834SOL    HW127401   5.937   4.036   5.103
 8834SOL    HW227402   5.823   3.924   5.068
 8835SOL     OW27403   4.880   0.775   5.760
 8835SOL    HW127404   4.851   0.778   5.665
 8835SOL    HW227405   4.980   0.771   5.764
 8836SOL     OW27406   5.190   1.638   0.254
 8836SOL    HW127407   5.269   1.699   0.241
 8836SOL    HW227408   5.221   1.543   0.256
 8837SOL     OW27409   6.843   6.337   2.274
 8837SOL    HW127410   6.930   6.307   2.312
 8837SOL    HW227411   6.781   6.259   2.268
 8838SOL     OW27412   2.056   5.190   3.572
 8838SOL    HW127413   1.958   5.204   3.558
 8838SOL    HW227414   2.102   5.278   3.572
 8839SOL     OW27415   5.274   5.873   1.731
 8839SOL    HW127416   5.286   5.945   1.663
 8839SOL    HW227417   5.184   5.832   1.721
 8840SOL     OW27418   6.713   1.866   3.501
 8840SOL    HW127419   6.710   1.899   3.406
 8840SOL    HW227420   6.685   1.770   3.504
 8841SOL     OW27421   0.787   0.778   4.504
 8841SOL    HW127422   0.866   0.759   4.562
 8841SOL    HW227423   0.816   0.830   4.424
 8842SOL     OW27424   3.543   2.867   2.810
 8842SOL    HW127425   3.631   2.893   2.852
 8842SOL    HW227426   3.476   2.850   2.883
 8843SOL     OW27427   2.175   3.379   5.706
 8843SOL    HW127428   2.205   3.325   5.628
 8843SOL    HW227429   2.145   3.469   5.675
 8844SOL     OW27430   0.414   1.371   5.825
 8844SOL    HW127431   0.481   1.335   5.890
 8844SOL    HW227432   0.456   1.376   5.734
 8845SOL     OW27433   3.526   3.703   0.485
 8845SOL    HW127434   3.509   3.790   0.438
 8845SOL    HW227435   3.597   3.717   0.554
 8846SOL     OW27436   3.613   5.266   4.196
 8846SOL    HW127437   3.530   5.243   4.248
 8846SOL    HW227438   3.589   5.331   4.124
 8847SOL     OW27439   2.561   1.798   2.832
 8847SOL    HW127440   2.510   1.712   2.821
 8847SOL    HW227441   2.634   1.802   2.765
 8848SOL     OW27442   2.477   2.196   2.080
 8848SOL    HW127443   2.545   2.244   2.025
 8848SOL    HW227444   2.395   2.252   2.087
 8849SOL     OW27445   2.908   6.333   3.429
 8849SOL    HW127446   2.980   6.400   3.449
 8849SOL    HW227447   2.893   6.330   3.330
 8850SOL     OW27448   1.496   1.960   6.327
 8850SOL    HW127449   1.512   2.051   6.364
 8850SOL    HW227450   1.579   1.905   6.337
 8851SOL     OW27451   1.133   5.581   2.117
 8851SOL    HW127452   1.214   5.621   2.161
 8851SOL    HW227453   1.120   5.487   2.149
 8852SOL     OW27454   4.940   3.612   5.595
 8852SOL    HW127455   4.881   3.551   5.647
 8852SOL    HW227456   4.899   3.630   5.505
 8853SOL     OW27457   2.603   1.276   6.964
 8853SOL    HW127458   2.605   1.264   6.865
 8853SOL    HW227459   2.673   1.342   6.991
 8854SOL     OW27460   3.424   1.404   5.933
 8854SOL    HW127461   3.503   1.434   5.879
 8854SOL    HW227462   3.346   1.464   5.912
 8855SOL     OW27463   0.599   6.061   1.488
 8855SOL    HW127464   0.542   6.097   1.562
 8855SOL    HW227465   0.593   6.121   1.408
 8856SOL     OW27466   0.410   6.483   6.705
 8856SOL    HW127467   0.430   6.387   6.684
 8856SOL    HW227468   0.496   6.534   6.711
 8857SOL     OW27469   6.748   1.910   4.177
 8857SOL    HW127470   6.838   1.899   4.134
 8857SOL    HW227471   6.699   1.984   4.131
 8858SOL     OW27472   0.599   2.155   5.033
 8858SOL    HW127473   0.502   2.175   5.022
 8858SOL    HW227474   0.612   2.055   5.032
 8859SOL     OW27475   0.110   0.629   3.942
 8859SOL    HW127476   0.094   0.605   3.846
 8859SOL    HW227477   0.122   0.728   3.949
 8860SOL     OW27478   0.694   2.970   2.707
 8860SOL    HW127479   0.707   3.057   2.753
 8860SOL    HW227480   0.656   2.985   2.616
 8861SOL     OW27481   4.333   1.483   5.954
 8861SOL    HW127482   4.245   1.461   5.995
 8861SOL    HW227483   4.336   1.581   5.933
 8862SOL     OW27484   5.644   1.021   3.899
 8862SOL    HW127485   5.714   0.950   3.896
 8862SOL    HW227486   5.668   1.089   3.967
 8863SOL     OW27487   1.516   4.760   4.213
 8863SOL    HW127488   1.520   4.725   4.307
 8863SOL    HW227489   1.595   4.819   4.196
 8864SOL     OW27490   3.349   4.770   6.177
 8864SOL    HW127491   3.415   4.759   6.251
 8864SOL    HW227492   3.398   4.774   6.089
 8865SOL     OW27493   2.962   1.250   6.042
 8865SOL    HW127494   2.964   1.231   5.944
 8865SOL    HW227495   3.029   1.192   6.088
 8866SOL     OW27496   5.185   6.935   2.891
 8866SOL    HW127497   5.244   6.859   2.917
 8866SOL    HW227498   5.090   6.915   2.918
 8867SOL     OW27499   5.934   3.406   2.681
 8867SOL    HW127500   5.919   3.496   2.722
 8867SOL    HW227501   6.028   3.401   2.646
 8868SOL     OW27502   6.913   2.593   0.859
 8868SOL    HW127503   6.938   2.681   0.899
 8868SOL    HW227504   6.854   2.543   0.922
 8869SOL     OW27505   4.107   6.172   4.806
 8869SOL    HW127506   4.131   6.214   4.718
 8869SOL    HW227507   4.074   6.079   4.791
 8870SOL     OW27508   3.407   0.290   0.183
 8870SOL    HW127509   3.467   0.366   0.159
 8870SOL    HW227510   3.336   0.322   0.246
 8871SOL     OW27511   1.951   0.896   4.065
 8871SOL    HW127512   2.025   0.956   4.038
 8871SOL    HW227513   1.978   0.844   4.146
 8872SOL     OW27514   1.661   3.957   5.142
 8872SOL    HW127515   1.680   4.007   5.057
 8872SOL    HW227516   1.632   4.021   5.213
 8873SOL     OW27517   1.062   6.679   1.532
 8873SOL    HW127518   1.131   6.607   1.527
 8873SOL    HW227519   1.108   6.768   1.532
 8874SOL     OW27520   1.964   5.803   2.788
 8874SOL    HW127521   1.916   5.792   2.701
 8874SOL    HW227522   2.061   5.781   2.776
 8875SOL     OW27523   7.004   3.402   5.257
 8875SOL    HW127524   0.040   3.471   5.307
 8875SOL    HW227525   6.938   3.448   5.197
 8876SOL     OW27526   1.989   6.924   4.547
 8876SOL    HW127527   2.013   6.826   4.550
 8876SOL    HW227528   1.900   6.938   4.588
 8877SOL     OW27529   3.134   1.227   4.021
 8877SOL    HW127530   3.056   1.195   4.075
 8877SOL    HW227531   3.218   1.206   4.071
 8878SOL     OW27532   6.592   4.910   6.955
 8878SOL    HW127533   6.624   4.896   6.862
 8878SOL    HW227534   6.646   4.982   6.999
 8879SOL     OW27535   4.644   4.753   2.522
 8879SOL    HW127536   4.601   4.664   2.535
 8879SOL    HW227537   4.582   4.813   2.472
 8880SOL     OW27538   4.980   5.744   5.075
 8880SOL    HW127539   4.958   5.680   5.148
 8880SOL    HW227540   4.933   5.717   4.991
 8881SOL     OW27541   5.637   6.818   3.497
 8881SOL    HW127542   5.707   6.813   3.425
 8881SOL    HW227543   5.673   6.869   3.575
 8882SOL     OW27544   5.333   0.962   1.332
 8882SOL    HW127545   5.401   0.948   1.260
 8882SOL    HW227546   5.368   0.927   1.419
 8883SOL     OW27547   1.590   6.178   6.264
 8883SOL    HW127548   1.649   6.214   6.337
 8883SOL    HW227549   1.494   6.186   6.291
 8884SOL     OW27550   6.280   4.275   6.637
 8884SOL    HW127551   6.325   4.234   6.558
 8884SOL    HW227552   6.205   4.216   6.666
 8885SOL     OW27553   6.875   3.314   0.851
 8885SOL    HW127554   6.849   3.219   0.836
 8885SOL    HW227555   6.799   3.363   0.894
 8886SOL     OW27556   3.405   0.070   4.748
 8886SOL    HW127557   3.336   0.009   4.788
 8886SOL    HW227558   3.470   0.097   4.819
 8887SOL     OW27559   3.447   1.198   0.852
 8887SOL    HW127560   3.409   1.276   0.803
 8887SOL    HW227561   3.447   1.118   0.792
 8888SOL     OW27562   1.855   1.583   5.867
 8888SOL    HW127563   1.890   1.588   5.961
 8888SOL    HW227564   1.930   1.594   5.803
 8889SOL     OW27565   6.704   0.162   5.955
 8889SOL    HW127566   6.658   0.144   5.868
 8889SOL    HW227567   6.697   0.259   5.977
 8890SOL     OW27568   6.236   5.705   3.452
 8890SOL    HW127569   6.231   5.609   3.477
 8890SOL    HW227570   6.248   5.714   3.353
 8891SOL     OW27571   5.002   3.404   6.488
 8891SOL    HW127572   5.010   3.306   6.508
 8891SOL    HW227573   4.907   3.427   6.471
 8892SOL     OW27574   3.462   5.656   3.305
 8892SOL    HW127575   3.503   5.682   3.218
 8892SOL    HW227576   3.404   5.576   3.292
 8893SOL     OW27577   0.526   6.068   3.527
 8893SOL    HW127578   0.544   6.161   3.494
 8893SOL    HW227579   0.604   6.035   3.579
 8894SOL     OW27580   4.024   2.511   6.180
 8894SOL    HW127581   3.948   2.575   6.176
 8894SOL    HW227582   4.066   2.503   6.089
 8895SOL     OW27583   6.514   2.485   2.326
 8895SOL    HW127584   6.560   2.544   2.260
 8895SOL    HW227585   6.446   2.538   2.378
 8896SOL     OW27586   2.628   3.090   5.417
 8896SOL    HW127587   2.582   3.039   5.345
 8896SOL    HW227588   2.633   3.033   5.500
 8897SOL     OW27589   2.087   2.478   3.329
 8897SOL    HW127590   2.127   2.402   3.277
 8897SOL    HW227591   2.045   2.543   3.265
 8898SOL     OW27592   5.152   2.857   2.618
 8898SOL    HW127593   5.057   2.826   2.620
 8898SOL    HW227594   5.172   2.911   2.699
 8899SOL     OW27595   1.770   5.765   1.405
 8899SOL    HW127596   1.733   5.703   1.475
 8899SOL    HW227597   1.868   5.776   1.418
 8900SOL     OW27598   5.870   2.938   2.829
 8900SOL    HW127599   5.819   3.011   2.783
 8900SOL    HW227600   5.956   2.975   2.865
 8901SOL     OW27601   2.436   0.809   5.041
 8901SOL    HW127602   2.388   0.878   4.986
 8901SOL    HW227603   2.454   0.729   4.984
 8902SOL     OW27604   2.411   0.255   0.601
 8902SOL    HW127605   2.430   0.159   0.621
 8902SOL    HW227606   2.367   0.297   0.681
 8903SOL     OW27607   0.971   1.478   5.104
 8903SOL    HW127608   0.902   1.413   5.133
 8903SOL    HW227609   0.927   1.563   5.074
 8904SOL     OW27610   5.794   6.965   3.932
 8904SOL    HW127611   5.755   6.877   3.959
 8904SOL    HW227612   5.770   6.983   3.836
 8905SOL     OW27613   0.900   4.500   3.941
 8905SOL    HW127614   0.810   4.509   3.983
 8905SOL    HW227615   0.963   4.566   3.981
 8906SOL     OW27616   0.595   5.884   6.718
 8906SOL    HW127617   0.526   5.956   6.707
 8906SOL    HW227618   0.645   5.900   6.803
 8907SOL     OW27619   2.575   2.378   5.006
 8907SOL    HW127620   2.533   2.310   4.946
 8907SOL    HW227621   2.576   2.467   4.961
 8908SOL     OW27622   1.278   4.412   6.671
 8908SOL    HW127623   1.352   4.350   6.697
 8908SOL    HW227624   1.314   4.486   6.614
 8909SOL     OW27625   2.545   0.567   6.115
 8909SOL    HW127626   2.589   0.645   6.071
 8909SOL    HW227627   2.452   0.591   6.140
 8910SOL     OW27628   0.010   2.614   6.095
 8910SOL    HW127629   0.100   2.605   6.138
 8910SOL    HW227630   0.021   2.638   5.999
 8911SOL     OW27631   4.372   2.340   4.829
 8911SOL    HW127632   4.326   2.405   4.889
 8911SOL    HW227633   4.310   2.265   4.806
 8912SOL     OW27634   3.330   3.461   6.569
 8912SOL    HW127635   3.251   3.428   6.620
 8912SOL    HW227636   3.405   3.397   6.578
 8913SOL     OW27637   5.162   4.879   5.991
 8913SOL    HW127638   5.122   4.865   5.900
 8913SOL    HW227639   5.094   4.858   6.061
 8914SOL     OW27640   4.818   0.048   4.924
 8914SOL    HW127641   4.851   0.132   4.880
 8914SOL    HW227642   4.872   0.030   5.006
 8915SOL     OW27643   0.460   3.099   3.710
 8915SOL    HW127644   0.493   3.065   3.798
 8915SOL    HW227645   0.427   3.023   3.654
 8916SOL     OW27646   6.846   3.710   0.736
 8916SOL    HW127647   6.906   3.641   0.775
 8916SOL    HW227648   6.752   3.677   0.738
 8917SOL     OW27649   6.687   3.591   0.277
 8917SOL    HW127650   6.606   3.623   0.325
 8917SOL    HW227651   6.681   3.614   0.180
 8918SOL     OW27652   6.580   4.253   1.052
 8918SOL    HW127653   6.558   4.349   1.071
 8918SOL    HW227654   6.554   4.196   1.130
 8919SOL     OW27655   3.644   4.036   0.667
 8919SOL    HW127656   3.676   3.944   0.689
 8919SOL    HW227657   3.564   4.030   0.607
 8920SOL     OW27658   0.742   0.507   0.033
 8920SOL    HW127659   0.652   0.542   0.059
 8920SOL    HW227660   0.803   0.583   0.012
 8921SOL     OW27661   2.309   2.406   2.657
 8921SOL    HW127662   2.234   2.455   2.614
 8921SOL    HW227663   2.394   2.458   2.646
 8922SOL     OW27664   3.929   4.846   1.540
 8922SOL    HW127665   3.844   4.794   1.542
 8922SOL    HW227666   3.920   4.929   1.595
 8923SOL     OW27667   1.663   2.571   6.326
 8923SOL    HW127668   1.597   2.608   6.260
 8923SOL    HW227669   1.735   2.638   6.341
 8924SOL     OW27670   3.413   5.556   5.306
 8924SOL    HW127671   3.484   5.487   5.294
 8924SOL    HW227672   3.354   5.530   5.382
 8925SOL     OW27673   0.739   1.672   2.685
 8925SOL    HW127674   0.836   1.649   2.680
 8925SOL    HW227675   0.688   1.617   2.619
 8926SOL     OW27676   6.806   2.937   6.221
 8926SOL    HW127677   6.788   3.021   6.170
 8926SOL    HW227678   6.722   2.882   6.226
 8927SOL     OW27679   6.864   1.129   4.542
 8927SOL    HW127680   6.926   1.205   4.521
 8927SOL    HW227681   6.893   1.085   4.627
 8928SOL     OW27682   0.115   0.082   6.477
 8928SOL    HW127683   0.024   0.060   6.514
 8928SOL    HW227684   0.170   0.125   6.548
 8929SOL     OW27685   5.960   2.556   4.169
 8929SOL    HW127686   6.046   2.557   4.118
 8929SOL    HW227687   5.925   2.463   4.172
 8930SOL     OW27688   1.530   3.708   3.893
 8930SOL    HW127689   1.548   3.658   3.978
 8930SOL    HW227690   1.533   3.645   3.815
 8931SOL     OW27691   2.450   2.742   0.154
 8931SOL    HW127692   2.526   2.774   0.097
 8931SOL    HW227693   2.486   2.700   0.237
 8932SOL     OW27694   6.408   1.359   1.261
 8932SOL    HW127695   6.449   1.274   1.295
 8932SOL    HW227696   6.322   1.338   1.215
 8933SOL     OW27697   2.220   3.072   5.703
 8933SOL    HW127698   2.253   3.112   5.788
 8933SOL    HW227699   2.248   3.129   5.625
 8934SOL     OW27700   3.501   5.002   4.695
 8934SOL    HW127701   3.426   4.959   4.645
 8934SOL    HW227702   3.492   4.981   4.793
 8935SOL     OW27703   6.711   4.231   0.802
 8935SOL    HW127704   6.667   4.265   0.885
 8935SOL    HW227705   6.749   4.140   0.819
 8936SOL     OW27706   1.101   3.104   2.651
 8936SOL    HW127707   1.196   3.084   2.627
 8936SOL    HW227708   1.068   3.037   2.717
 8937SOL     OW27709   0.033   6.744   4.207
 8937SOL    HW127710   0.128   6.760   4.180
 8937SOL    HW227711   7.000   6.703   4.131
 8938SOL     OW27712   0.359   0.731   0.905
 8938SOL    HW127713   0.366   0.750   1.003
 8938SOL    HW227714   0.338   0.816   0.856
 8939SOL     OW27715   5.964   4.748   4.179
 8939SOL    HW127716   6.062   4.763   4.166
 8939SOL    HW227717   5.918   4.836   4.196
 8940SOL     OW27718   6.159   1.537   2.028
 8940SOL    HW127719   6.246   1.572   2.061
 8940SOL    HW227720   6.101   1.512   2.105
 8941SOL     OW27721   5.676   2.632   4.346
 8941SOL    HW127722   5.753   2.580   4.309
 8941SOL    HW227723   5.605   2.641   4.275
 8942SOL     OW27724   6.341   5.695   5.628
 8942SOL    HW127725   6.421   5.634   5.625
 8942SOL    HW227726   6.361   5.774   5.686
 8943SOL     OW27727   3.929   5.337   0.793
 8943SOL    HW127728   3.964   5.428   0.815
 8943SOL    HW227729   3.845   5.320   0.845
 8944SOL     OW27730   5.664   5.613   4.641
 8944SOL    HW127731   5.761   5.599   4.661
 8944SOL    HW227732   5.651   5.704   4.601
 8945SOL     OW27733   1.113   1.278   3.772
 8945SOL    HW127734   1.071   1.206   3.826
 8945SOL    HW227735   1.048   1.352   3.758
 8946SOL     OW27736   2.961   1.282   3.784
 8946SOL    HW127737   2.952   1.204   3.722
 8946SOL    HW227738   3.029   1.262   3.854
 8947SOL     OW27739   2.519   3.468   5.748
 8947SOL    HW127740   2.605   3.504   5.783
 8947SOL    HW227741   2.462   3.437   5.824
 8948SOL     OW27742   6.218   6.033   3.833
 8948SOL    HW127743   6.298   6.047   3.775
 8948SOL    HW227744   6.146   5.987   3.781
 8949SOL     OW27745   3.982   6.093   0.962
 8949SOL    HW127746   4.038   6.081   0.880
 8949SOL    HW227747   4.008   6.177   1.009
 8950SOL     OW27748   4.033   4.523   0.118
 8950SOL    HW127749   4.112   4.481   0.073
 8950SOL    HW227750   3.971   4.559   0.048
 8951SOL     OW27751   2.362   1.045   4.367
 8951SOL    HW127752   2.326   1.038   4.274
 8951SOL    HW227753   2.392   1.139   4.384
 8952SOL     OW27754   0.628   5.245   3.060
 8952SOL    HW127755   0.592   5.184   3.131
 8952SOL    HW227756   0.609   5.340   3.085
 8953SOL     OW27757   1.123   4.161   0.681
 8953SOL    HW127758   1.027   4.147   0.706
 8953SOL    HW227759   1.155   4.086   0.623
 8954SOL     OW27760   6.841   6.710   4.389
 8954SOL    HW127761   6.751   6.748   4.368
 8954SOL    HW227762   6.911   6.759   4.336
 8955SOL     OW27763   6.865   5.449   3.193
 8955SOL    HW127764   6.862   5.459   3.292
 8955SOL    HW227765   6.960   5.442   3.163
 8956SOL     OW27766   1.909   1.498   6.306
 8956SOL    HW127767   1.924   1.534   6.398
 8956SOL    HW227768   1.962   1.552   6.240
 8957SOL     OW27769   1.800   4.972   1.776
 8957SOL    HW127770   1.843   4.965   1.685
 8957SOL    HW227771   1.841   5.048   1.826
 8958SOL     OW27772   7.005   1.776   4.995
 8958SOL    HW127773   0.025   1.824   4.916
 8958SOL    HW227774   0.027   1.815   5.079
 8959SOL     OW27775   1.990   4.648   2.135
 8959SOL    HW127776   1.977   4.748   2.133
 8959SOL    HW227777   1.924   4.608   2.198
 8960SOL     OW27778   4.027   5.940   3.341
 8960SOL    HW127779   3.995   6.035   3.342
 8960SOL    HW227780   4.088   5.925   3.419
 8961SOL     OW27781   3.334   1.542   3.536
 8961SOL    HW127782   3.342   1.446   3.561
 8961SOL    HW227783   3.248   1.557   3.486
 8962SOL     OW27784   6.003   5.257   2.610
 8962SOL    HW127785   5.954   5.289   2.529
 8962SOL    HW227786   5.975   5.311   2.690
 8963SOL     OW27787   3.754   0.491   5.423
 8963SOL    HW127788   3.709   0.531   5.343
 8963SOL    HW227789   3.748   0.392   5.418
 8964SOL     OW27790   5.449   3.038   2.997
 8964SOL    HW127791   5.379   2.979   3.038
 8964SOL    HW227792   5.470   3.113   3.060
 8965SOL     OW27793   2.036   5.574   0.523
 8965SOL    HW127794   1.991   5.640   0.584
 8965SOL    HW227795   2.105   5.523   0.575
 8966SOL     OW27796   6.763   4.247   0.052
 8966SOL    HW127797   6.697   4.318   0.080
 8966SOL    HW227798   6.714   4.162   0.034
 8967SOL     OW27799   3.981   0.731   1.883
 8967SOL    HW127800   4.007   0.642   1.919
 8967SOL    HW227801   4.021   0.743   1.792
 8968SOL     OW27802   4.404   5.641   2.925
 8968SOL    HW127803   4.500   5.630   2.952
 8968SOL    HW227804   4.350   5.670   3.004
 8969SOL     OW27805   6.675   0.373   3.543
 8969SOL    HW127806   6.737   0.295   3.556
 8969SOL    HW227807   6.607   0.351   3.473
 8970SOL     OW27808   2.598   3.301   6.510
 8970SOL    HW127809   2.613   3.349   6.596
 8970SOL    HW227810   2.577   3.204   6.529
 8971SOL     OW27811   5.698   5.138   1.435
 8971SOL    HW127812   5.670   5.222   1.479
 8971SOL    HW227813   5.684   5.061   1.497
 8972SOL     OW27814   4.585   3.377   6.865
 8972SOL    HW127815   4.640   3.332   6.794
 8972SOL    HW227816   4.629   3.363   6.954
 8973SOL     OW27817   0.297   3.695   3.422
 8973SOL    HW127818   0.297   3.674   3.325
 8973SOL    HW227819   0.335   3.618   3.474
 8974SOL     OW27820   1.146   3.716   4.357
 8974SOL    HW127821   1.103   3.640   4.406
 8974SOL    HW227822   1.212   3.761   4.416
 8975SOL     OW27823   1.328   6.157   0.164
 8975SOL    HW127824   1.276   6.219   0.224
 8975SOL    HW227825   1.331   6.195   0.072
 8976SOL     OW27826   0.873   5.361   0.252
 8976SOL    HW127827   0.832   5.282   0.297
 8976SOL    HW227828   0.827   5.378   0.165
 8977SOL     OW27829   6.835   3.312   6.891
 8977SOL    HW127830   6.880   3.287   6.805
 8977SOL    HW227831   6.856   3.244   6.960
 8978SOL     OW27832   5.378   6.656   4.463
 8978SOL    HW127833   5.386   6.657   4.363
 8978SOL    HW227834   5.443   6.590   4.501
 8979SOL     OW27835   1.150   4.164   5.272
 8979SOL    HW127836   1.089   4.089   5.247
 8979SOL    HW227837   1.233   4.128   5.314
 8980SOL     OW27838   4.542   2.940   5.409
 8980SOL    HW127839   4.455   2.896   5.391
 8980SOL    HW227840   4.535   2.996   5.491
 8981SOL     OW27841   4.307   1.541   5.107
 8981SOL    HW127842   4.246   1.463   5.093
 8981SOL    HW227843   4.378   1.541   5.036
 8982SOL     OW27844   1.696   1.648   1.874
 8982SOL    HW127845   1.764   1.695   1.818
 8982SOL    HW227846   1.742   1.600   1.949
 8983SOL     OW27847   1.278   5.437   0.311
 8983SOL    HW127848   1.241   5.381   0.237
 8983SOL    HW227849   1.338   5.507   0.272
 8984SOL     OW27850   6.236   0.179   3.431
 8984SOL    HW127851   6.322   0.157   3.477
 8984SOL    HW227852   6.160   0.156   3.491
 8985SOL     OW27853   2.208   1.631   0.585
 8985SOL    HW127854   2.115   1.622   0.620
 8985SOL    HW227855   2.250   1.541   0.579
 8986SOL     OW27856   4.033   5.213   1.898
 8986SOL    HW127857   4.016   5.310   1.882
 8986SOL    HW227858   4.129   5.199   1.922
 8987SOL     OW27859   4.931   6.590   0.490
 8987SOL    HW127860   4.969   6.521   0.552
 8987SOL    HW227861   4.849   6.553   0.446
 8988SOL     OW27862   1.685   3.554   0.183
 8988SOL    HW127863   1.669   3.463   0.220
 8988SOL    HW227864   1.625   3.620   0.228
 8989SOL     OW27865   5.020   4.294   2.070
 8989SOL    HW127866   4.949   4.229   2.097
 8989SOL    HW227867   4.977   4.381   2.045
 8990SOL     OW27868   2.046   6.072   2.086
 8990SOL    HW127869   2.061   6.159   2.040
 8990SOL    HW227870   2.106   6.065   2.166
 8991SOL     OW27871   1.651   1.803   6.704
 8991SOL    HW127872   1.652   1.731   6.636
 8991SOL    HW227873   1.564   1.853   6.699
 8992SOL     OW27874   6.432   2.085   6.673
 8992SOL    HW127875   6.456   2.174   6.634
 8992SOL    HW227876   6.457   2.013   6.608
 8993SOL     OW27877   4.803   2.801   2.625
 8993SOL    HW127878   4.832   2.889   2.587
 8993SOL    HW227879   4.746   2.754   2.558
 8994SOL     OW27880   0.699   4.683   4.914
 8994SOL    HW127881   0.761   4.651   4.842
 8994SOL    HW227882   0.605   4.667   4.886
 8995SOL     OW27883   1.173   2.486   6.676
 8995SOL    HW127884   1.137   2.519   6.589
 8995SOL    HW227885   1.106   2.424   6.718
 8996SOL     OW27886   6.683   5.167   1.500
 8996SOL    HW127887   6.588   5.159   1.471
 8996SOL    HW227888   6.735   5.088   1.467
 8997SOL     OW27889   4.262   1.510   6.438
 8997SOL    HW127890   4.289   1.414   6.451
 8997SOL    HW227891   4.167   1.514   6.408
 8998SOL     OW27892   0.032   3.617   4.916
 8998SOL    HW127893   0.096   3.634   4.841
 8998SOL    HW227894   0.009   3.520   4.918
 8999SOL     OW27895   5.153   6.937   0.254
 8999SOL    HW127896   5.235   6.936   0.311
 8999SOL    HW227897   5.092   6.862   0.281
 9000SOL     OW27898   2.436   4.716   0.032
 9000SOL    HW127899   2.436   4.732   0.131
 9000SOL    HW227900   2.390   4.630   0.012
 9001SOL     OW27901   0.835   5.828   2.647
 9001SOL    HW127902   0.872   5.909   2.602
 9001SOL    HW227903   0.736   5.823   2.632
 9002SOL     OW27904   6.458   5.007   4.402
 9002SOL    HW127905   6.490   4.925   4.449
 9002SOL    HW227906   6.388   4.982   4.335
 9003SOL     OW27907   5.895   2.476   1.574
 9003SOL    HW127908   5.919   2.482   1.671
 9003SOL    HW227909   5.805   2.519   1.560
 9004SOL     OW27910   5.053   6.678   1.645
 9004SOL    HW127911   5.124   6.747   1.658
 9004SOL    HW227912   5.086   6.589   1.675
 9005SOL     OW27913   4.928   1.847   5.087
 9005SOL    HW127914   4.992   1.801   5.149
 9005SOL    HW227915   4.881   1.921   5.137
 9006SOL     OW27916   2.836   6.265   0.705
 9006SOL    HW127917   2.906   6.268   0.775
 9006SOL    HW227918   2.785   6.179   0.712
 9007SOL     OW27919   4.023   6.820   4.171
 9007SOL    HW127920   4.089   6.813   4.246
 9007SOL    HW227921   3.980   6.731   4.155
 9008SOL     OW27922   0.115   5.437   3.110
 9008SOL    HW127923   0.184   5.380   3.065
 9008SOL    HW227924   0.157   5.487   3.186
 9009SOL     OW27925   2.734   1.000   0.229
 9009SOL    HW127926   2.713   1.048   0.313
 9009SOL    HW227927   2.658   1.008   0.165
 9010SOL     OW27928   0.978   0.411   4.419
 9010SOL    HW127929   1.048   0.463   4.467
 9010SOL    HW227930   0.982   0.316   4.448
 9011SOL     OW27931   4.402   2.012   1.501
 9011SOL    HW127932   4.393   1.914   1.518
 9011SOL    HW227933   4.427   2.058   1.585
 9012SOL     OW27934   3.225   4.387   1.081
 9012SOL    HW127935   3.127   4.386   1.063
 9012SOL    HW227936   3.251   4.303   1.130
 9013SOL     OW27937   0.443   6.204   4.263
 9013SOL    HW127938   0.447   6.111   4.301
 9013SOL    HW227939   0.462   6.200   4.165
 9014SOL     OW27940   0.645   0.782   0.226
 9014SOL    HW127941   0.681   0.843   0.156
 9014SOL    HW227942   0.702   0.787   0.308
 9015SOL     OW27943   5.996   2.053   1.181
 9015SOL    HW127944   6.077   2.112   1.182
 9015SOL    HW227945   6.024   1.958   1.166
 9016SOL     OW27946   0.564   6.245   6.491
 9016SOL    HW127947   0.647   6.299   6.505
 9016SOL    HW227948   0.532   6.255   6.397
 9017SOL     OW27949   4.023   2.403   1.708
 9017SOL    HW127950   4.035   2.351   1.623
 9017SOL    HW227951   4.112   2.436   1.739
 9018SOL     OW27952   4.569   1.368   6.042
 9018SOL    HW127953   4.583   1.305   5.966
 9018SOL    HW227954   4.482   1.415   6.030
 9019SOL     OW27955   0.181   0.887   1.798
 9019SOL    HW127956   0.237   0.912   1.719
 9019SOL    HW227957   0.225   0.812   1.848
 9020SOL     OW27958   1.383   3.141   1.563
 9020SOL    HW127959   1.313   3.109   1.626
 9020SOL    HW227960   1.357   3.115   1.469
 9021SOL     OW27961   6.897   0.257   3.748
 9021SOL    HW127962   6.941   0.333   3.795
 9021SOL    HW227963   6.953   0.175   3.758
 9022SOL     OW27964   2.580   1.720   0.555
 9022SOL    HW127965   2.586   1.819   0.570
 9022SOL    HW227966   2.658   1.675   0.598
 9023SOL     OW27967   3.255   3.444   2.407
 9023SOL    HW127968   3.264   3.383   2.329
 9023SOL    HW227969   3.186   3.408   2.470
 9024SOL     OW27970   0.373   4.919   4.754
 9024SOL    HW127971   0.412   4.910   4.846
 9024SOL    HW227972   0.274   4.931   4.761
 9025SOL     OW27973   0.770   5.686   0.267
 9025SOL    HW127974   0.745   5.776   0.304
 9025SOL    HW227975   0.802   5.628   0.342
 9026SOL     OW27976   4.063   3.322   2.067
 9026SOL    HW127977   4.106   3.375   2.140
 9026SOL    HW227978   4.031   3.235   2.104
 9027SOL     OW27979   1.145   1.772   4.527
 9027SOL    HW127980   1.212   1.751   4.456
 9027SOL    HW227981   1.095   1.688   4.552
 9028SOL     OW27982   2.606   3.924   6.076
 9028SOL    HW127983   2.534   3.993   6.068
 9028SOL    HW227984   2.577   3.854   6.141
 9029SOL     OW27985   3.115   5.356   4.682
 9029SOL    HW127986   3.037   5.298   4.705
 9029SOL    HW227987   3.137   5.345   4.585
 9030SOL     OW27988   2.054   1.934   3.509
 9030SOL    HW127989   2.093   2.021   3.540
 9030SOL    HW227990   2.118   1.889   3.447
 9031SOL     OW27991   4.597   5.991   4.556
 9031SOL    HW127992   4.674   6.023   4.500
 9031SOL    HW227993   4.550   5.917   4.509
 9032SOL     OW27994   3.462   3.462   0.957
 9032SOL    HW127995   3.451   3.388   0.890
 9032SOL    HW227996   3.477   3.548   0.908
 9033SOL     OW27997   1.539   5.432   4.086
 9033SOL    HW127998   1.587   5.345   4.099
 9033SOL    HW227999   1.525   5.449   3.989
 9034SOL     OW28000   3.079   0.513   5.095
 9034SOL    HW128001   3.025   0.537   5.015
 9034SOL    HW228002   3.029   0.445   5.149
 9035SOL     OW28003   1.320   5.019   5.491
 9035SOL    HW128004   1.222   5.036   5.503
 9035SOL    HW228005   1.339   4.997   5.395
 9036SOL     OW28006   1.828   1.066   5.501
 9036SOL    HW128007   1.849   0.996   5.569
 9036SOL    HW228008   1.824   1.155   5.546
 9037SOL     OW28009   1.433   3.889   5.728
 9037SOL    HW128010   1.472   3.980   5.720
 9037SOL    HW228011   1.377   3.870   5.647
 9038SOL     OW28012   5.172   6.404   5.936
 9038SOL    HW128013   5.253   6.395   5.993
 9038SOL    HW228014   5.095   6.434   5.992
 9039SOL     OW28015   2.746   4.744   4.395
 9039SOL    HW128016   2.778   4.730   4.489
 9039SOL    HW228017   2.654   4.706   4.386
 9040SOL     OW28018   2.942   2.244   2.661
 9040SOL    HW128019   2.857   2.266   2.708
 9040SOL    HW228020   2.934   2.268   2.564
 9041SOL     OW28021   1.373   2.000   1.839
 9041SOL    HW128022   1.369   2.100   1.834
 9041SOL    HW228023   1.413   1.973   1.926
 9042SOL     OW28024   2.637   6.911   3.705
 9042SOL    HW128025   2.724   6.866   3.684
 9042SOL    HW228026   2.566   6.842   3.719
 9043SOL     OW28027   2.465   1.535   6.802
 9043SOL    HW128028   2.457   1.566   6.708
 9043SOL    HW228029   2.468   1.613   6.864
 9044SOL     OW28030   5.755   1.535   1.968
 9044SOL    HW128031   5.784   1.482   1.888
 9044SOL    HW228032   5.824   1.527   2.040
 9045SOL     OW28033   2.914   1.364   2.416
 9045SOL    HW128034   3.009   1.362   2.384
 9045SOL    HW228035   2.867   1.282   2.384
 9046SOL     OW28036   3.312   4.130   4.335
 9046SOL    HW128037   3.337   4.225   4.352
 9046SOL    HW228038   3.231   4.107   4.389
 9047SOL     OW28039   1.166   2.914   5.627
 9047SOL    HW128040   1.139   3.010   5.636
 9047SOL    HW228041   1.211   2.901   5.538
 9048SOL     OW28042   6.408   1.987   5.801
 9048SOL    HW128043   6.391   2.036   5.715
 9048SOL    HW228044   6.325   1.992   5.857
 9049SOL     OW28045   4.044   6.907   6.539
 9049SOL    HW128046   3.975   6.965   6.582
 9049SOL    HW228047   4.006   6.865   6.457
 9050SOL     OW28048   6.845   3.781   6.793
 9050SOL    HW128049   6.874   3.876   6.778
 9050SOL    HW228050   6.893   3.721   6.729
 9051SOL     OW28051   4.707   6.463   0.462
 9051SOL    HW128052   4.703   6.367   0.437
 9051SOL    HW228053   4.624   6.489   0.510
 9052SOL     OW28054   1.537   2.389   3.758
 9052SOL    HW128055   1.577   2.353   3.842
 9052SOL    HW228056   1.608   2.435   3.704
 9053SOL     OW28057   1.348   1.959   3.042
 9053SOL    HW128058   1.417   1.984   2.974
 9053SOL    HW228059   1.377   1.876   3.091
 9054SOL     OW28060   1.715   0.214   2.260
 9054SOL    HW128061   1.691   0.291   2.201
 9054SOL    HW228062   1.657   0.135   2.236
 9055SOL     OW28063   5.989   3.333   3.696
 9055SOL    HW128064   5.938   3.395   3.637
 9055SOL    HW228065   6.083   3.365   3.705
 9056SOL     OW28066   6.763   1.340   1.614
 9056SOL    HW128067   6.668   1.310   1.625
 9056SOL    HW228068   6.764   1.433   1.576
 9057SOL     OW28069   5.986   5.011   5.564
 9057SOL    HW128070   6.015   4.981   5.655
 9057SOL    HW228071   6.060   5.063   5.521
 9058SOL     OW28072   1.781   1.951   3.475
 9058SOL    HW128073   1.879   1.973   3.481
 9058SOL    HW228074   1.737   2.014   3.412
 9059SOL     OW28075   1.327   1.189   5.304
 9059SOL    HW128076   1.391   1.257   5.342
 9059SOL    HW228077   1.276   1.230   5.229
 9060SOL     OW28078   6.337   3.085   2.334
 9060SOL    HW128079   6.311   3.059   2.241
 9060SOL    HW228080   6.257   3.118   2.384
 9061SOL     OW28081   2.731   5.605   1.944
 9061SOL    HW128082   2.813   5.548   1.939
 9061SOL    HW228083   2.741   5.671   2.018
 9062SOL     OW28084   1.650   6.004   2.040
 9062SOL    HW128085   1.660   6.062   2.121
 9062SOL    HW228086   1.682   5.911   2.061
 9063SOL     OW28087   2.280   0.206   2.707
 9063SOL    HW128088   2.344   0.276   2.738
 9063SOL    HW228089   2.244   0.156   2.786
 9064SOL     OW28090   6.223   2.442   5.812
 9064SOL    HW128091   6.294   2.448   5.742
 9064SOL    HW228092   6.155   2.513   5.796
 9065SOL     OW28093   2.991   6.600   6.541
 9065SOL    HW128094   2.936   6.683   6.553
 9065SOL    HW228095   3.083   6.616   6.576
 9066SOL     OW28096   5.978   6.534   0.485
 9066SOL    HW128097   6.050   6.541   0.416
 9066SOL    HW228098   5.999   6.596   0.561
 9067SOL     OW28099   6.220   0.260   4.552
 9067SOL    HW128100   6.301   0.313   4.577
 9067SOL    HW228101   6.244   0.193   4.482
 9068SOL     OW28102   2.923   7.006   5.569
 9068SOL    HW128103   2.861   0.038   5.631
 9068SOL    HW228104   2.871   6.960   5.498
 9069SOL     OW28105   2.442   2.512   1.927
 9069SOL    HW128106   2.460   2.566   2.009
 9069SOL    HW228107   2.514   2.443   1.916
 9070SOL     OW28108   1.228   3.584   5.899
 9070SOL    HW128109   1.153   3.643   5.870
 9070SOL    HW228110   1.310   3.639   5.914
 9071SOL     OW28111   5.600   0.456   0.818
 9071SOL    HW128112   5.567   0.376   0.869
 9071SOL    HW228113   5.651   0.516   0.879
 9072SOL     OW28114   6.332   1.241   1.981
 9072SOL    HW128115   6.300   1.214   2.072
 9072SOL    HW228116   6.257   1.283   1.931
 9073SOL     OW28117   3.314   6.724   0.244
 9073SOL    HW128118   3.305   6.789   0.320
 9073SOL    HW228119   3.352   6.638   0.279
 9074SOL     OW28120   2.226   1.389   1.740
 9074SOL    HW128121   2.278   1.345   1.812
 9074SOL    HW228122   2.155   1.447   1.780
 9075SOL     OW28123   1.053   1.289   2.688
 9075SOL    HW128124   1.020   1.307   2.780
 9075SOL    HW228125   0.980   1.249   2.633
 9076SOL     OW28126   5.624   2.074   5.176
 9076SOL    HW128127   5.623   1.991   5.232
 9076SOL    HW228128   5.560   2.063   5.100
 9077SOL     OW28129   5.647   6.663   6.867
 9077SOL    HW128130   5.548   6.651   6.861
 9077SOL    HW228131   5.690   6.573   6.880
 9078SOL     OW28132   4.438   3.721   6.470
 9078SOL    HW128133   4.373   3.752   6.539
 9078SOL    HW228134   4.444   3.621   6.472
 9079SOL     OW28135   2.633   6.698   4.337
 9079SOL    HW128136   2.627   6.781   4.281
 9079SOL    HW228137   2.555   6.639   4.317
 9080SOL     OW28138   5.245   2.335   0.108
 9080SOL    HW128139   5.200   2.310   0.193
 9080SOL    HW228140   5.177   2.357   0.038
 9081SOL     OW28141   3.649   6.036   3.145
 9081SOL    HW128142   3.622   6.031   3.241
 9081SOL    HW228143   3.613   5.956   3.097
 9082SOL     OW28144   2.499   6.814   5.349
 9082SOL    HW128145   2.542   6.727   5.327
 9082SOL    HW228146   2.417   6.825   5.293
 9083SOL     OW28147   3.285   5.378   5.996
 9083SOL    HW128148   3.225   5.430   5.936
 9083SOL    HW228149   3.318   5.297   5.947
 9084SOL     OW28150   3.228   3.255   5.503
 9084SOL    HW128151   3.285   3.283   5.426
 9084SOL    HW228152   3.254   3.163   5.533
 9085SOL     OW28153   2.151   4.611   1.524
 9085SOL    HW128154   2.194   4.524   1.499
 9085SOL    HW228155   2.196   4.686   1.476
 9086SOL     OW28156   0.794   4.074   0.488
 9086SOL    HW128157   0.830   4.104   0.577
 9086SOL    HW228158   0.857   4.009   0.447
 9087SOL     OW28159   4.658   2.401   1.832
 9087SOL    HW128160   4.627   2.495   1.814
 9087SOL    HW228161   4.578   2.342   1.844
 9088SOL     OW28162   5.437   5.831   0.679
 9088SOL    HW128163   5.340   5.838   0.654
 9088SOL    HW228164   5.444   5.825   0.779
 9089SOL     OW28165   4.837   6.300   5.398
 9089SOL    HW128166   4.802   6.393   5.395
 9089SOL    HW228167   4.827   6.264   5.491
 9090SOL     OW28168   0.346   0.248   3.195
 9090SOL    HW128169   0.323   0.325   3.255
 9090SOL    HW228170   0.445   0.241   3.186
 9091SOL     OW28171   3.189   4.551   0.825
 9091SOL    HW128172   3.130   4.483   0.782
 9091SOL    HW228173   3.165   4.559   0.922
 9092SOL     OW28174   0.572   1.445   0.814
 9092SOL    HW128175   0.570   1.386   0.733
 9092SOL    HW228176   0.555   1.540   0.787
 9093SOL     OW28177   1.481   6.495   6.229
 9093SOL    HW128178   1.447   6.402   6.213
 9093SOL    HW228179   1.581   6.495   6.224
 9094SOL     OW28180   6.276   5.148   2.819
 9094SOL    HW128181   6.260   5.062   2.771
 9094SOL    HW228182   6.309   5.217   2.754
 9095SOL     OW28183   4.758   4.538   5.769
 9095SOL    HW128184   4.735   4.583   5.683
 9095SOL    HW228185   4.717   4.447   5.771
 9096SOL     OW28186   5.893   3.630   1.899
 9096SOL    HW128187   5.984   3.598   1.926
 9096SOL    HW228188   5.892   3.730   1.898
 9097SOL     OW28189   1.182   1.902   0.653
 9097SOL    HW128190   1.218   1.875   0.742
 9097SOL    HW228191   1.204   1.832   0.586
 9098SOL     OW28192   3.656   1.483   5.797
 9098SOL    HW128193   3.745   1.484   5.751
 9098SOL    HW228194   3.631   1.576   5.824
 9099SOL     OW28195   2.986   2.443   5.751
 9099SOL    HW128196   2.900   2.423   5.798
 9099SOL    HW228197   2.980   2.414   5.656
 9100SOL     OW28198   0.381   3.938   4.159
 9100SOL    HW128199   0.346   4.010   4.100
 9100SOL    HW228200   0.429   3.979   4.236
 9101SOL     OW28201   2.103   2.380   2.972
 9101SOL    HW128202   2.195   2.395   3.010
 9101SOL    HW228203   2.095   2.284   2.944
 9102SOL     OW28204   2.588   0.404   1.843
 9102SOL    HW128205   2.682   0.438   1.846
 9102SOL    HW228206   2.526   0.475   1.878
 9103SOL     OW28207   6.220   2.951   6.490
 9103SOL    HW128208   6.138   2.905   6.455
 9103SOL    HW228209   6.238   3.032   6.435
 9104SOL     OW28210   0.267   6.901   2.211
 9104SOL    HW128211   0.254   6.918   2.113
 9104SOL    HW228212   0.216   6.819   2.237
 9105SOL     OW28213   1.094   1.591   6.639
 9105SOL    HW128214   1.043   1.537   6.572
 9105SOL    HW228215   1.040   1.671   6.666
 9106SOL     OW28216   0.380   2.566   0.990
 9106SOL    HW128217   0.414   2.658   1.012
 9106SOL    HW228218   0.296   2.548   1.040
 9107SOL     OW28219   3.764   0.434   6.299
 9107SOL    HW128220   3.862   0.452   6.298
 9107SOL    HW228221   3.715   0.511   6.258
 9108SOL     OW28222   5.007   4.402   5.897
 9108SOL    HW128223   4.952   4.322   5.922
 9108SOL    HW228224   4.948   4.482   5.890
 9109SOL     OW28225   6.389   2.952   3.682
 9109SOL    HW128226   6.377   2.965   3.584
 9109SOL    HW228227   6.349   3.029   3.732
 9110SOL     OW28228   1.666   5.176   4.168
 9110SOL    HW128229   1.657   5.158   4.266
 9110SOL    HW228230   1.647   5.092   4.117
 9111SOL     OW28231   5.290   2.022   0.564
 9111SOL    HW128232   5.334   2.072   0.490
 9111SOL    HW228233   5.264   1.931   0.533
 9112SOL     OW28234   0.814   5.473   2.582
 9112SOL    HW128235   0.829   5.482   2.681
 9112SOL    HW228236   0.720   5.446   2.565
 9113SOL     OW28237   4.673   2.048   3.063
 9113SOL    HW128238   4.755   2.002   3.096
 9113SOL    HW228239   4.622   2.085   3.140
 9114SOL     OW28240   0.964   5.138   2.354
 9114SOL    HW128241   0.980   5.042   2.332
 9114SOL    HW228242   1.048   5.190   2.340
 9115SOL     OW28243   0.152   5.842   4.317
 9115SOL    HW128244   0.100   5.758   4.306
 9115SOL    HW228245   0.098   5.919   4.280
 9116SOL     OW28246   6.684   0.958   2.095
 9116SOL    HW128247   6.654   1.052   2.112
 9116SOL    HW228248   6.772   0.944   2.140
 9117SOL     OW28249   4.800   2.455   0.061
 9117SOL    HW128250   4.891   2.464   0.019
 9117SOL    HW228251   4.794   2.518   0.138
 9118SOL     OW28252   6.791   3.287   0.520
 9118SOL    HW128253   6.820   3.381   0.505
 9118SOL    HW228254   6.839   3.249   0.599
 9119SOL     OW28255   3.917   0.687   2.540
 9119SOL    HW128256   3.864   0.603   2.528
 9119SOL    HW228257   3.979   0.699   2.462
 9120SOL     OW28258   6.215   1.764   5.645
 9120SOL    HW128259   6.239   1.692   5.710
 9120SOL    HW228260   6.280   1.764   5.569
 9121SOL     OW28261   4.331   0.222   5.768
 9121SOL    HW128262   4.240   0.242   5.730
 9121SOL    HW228263   4.363   0.135   5.733
 9122SOL     OW28264   2.562   4.654   2.284
 9122SOL    HW128265   2.519   4.743   2.294
 9122SOL    HW228266   2.630   4.641   2.356
 9123SOL     OW28267   2.322   0.949   4.108
 9123SOL    HW128268   2.317   0.849   4.111
 9123SOL    HW228269   2.404   0.977   4.058
 9124SOL     OW28270   5.186   5.577   0.497
 9124SOL    HW128271   5.143   5.528   0.572
 9124SOL    HW228272   5.201   5.673   0.522
 9125SOL     OW28273   4.649   4.395   0.232
 9125SOL    HW128274   4.647   4.487   0.194
 9125SOL    HW228275   4.574   4.384   0.297
 9126SOL     OW28276   5.812   3.237   1.287
 9126SOL    HW128277   5.885   3.219   1.354
 9126SOL    HW228278   5.848   3.224   1.194
 9127SOL     OW28279   6.279   1.204   6.365
 9127SOL    HW128280   6.363   1.159   6.396
 9127SOL    HW228281   6.235   1.249   6.443
 9128SOL     OW28282   5.737   2.419   5.532
 9128SOL    HW128283   5.659   2.478   5.551
 9128SOL    HW228284   5.818   2.475   5.512
 9129SOL     OW28285   0.315   2.787   6.871
 9129SOL    HW128286   0.300   2.772   6.969
 9129SOL    HW228287   0.263   2.867   6.842
 9130SOL     OW28288   0.707   2.969   5.970
 9130SOL    HW128289   0.763   3.037   5.922
 9130SOL    HW228290   0.765   2.918   6.034
 9131SOL     OW28291   5.476   2.436   5.789
 9131SOL    HW128292   5.539   2.368   5.825
 9131SOL    HW228293   5.397   2.444   5.850
 9132SOL     OW28294   0.280   5.367   4.467
 9132SOL    HW128295   0.240   5.434   4.530
 9132SOL    HW228296   0.245   5.276   4.489
 9133SOL     OW28297   4.163   6.203   1.350
 9133SOL    HW128298   4.208   6.263   1.415
 9133SOL    HW228299   4.129   6.121   1.397
 9134SOL     OW28300   3.546   5.548   1.860
 9134SOL    HW128301   3.578   5.480   1.794
 9134SOL    HW228302   3.454   5.578   1.835
 9135SOL     OW28303   6.797   0.503   1.459
 9135SOL    HW128304   6.737   0.430   1.425
 9135SOL    HW228305   6.764   0.534   1.548
 9136SOL     OW28306   5.076   6.441   0.072
 9136SOL    HW128307   5.147   6.376   0.047
 9136SOL    HW228308   5.008   6.447   7.016
 9137SOL     OW28309   4.826   1.024   0.229
 9137SOL    HW128310   4.730   0.997   0.218
 9137SOL    HW228311   4.850   1.090   0.159
 9138SOL     OW28312   0.276   5.385   6.935
 9138SOL    HW128313   0.295   5.344   0.007
 9138SOL    HW228314   0.241   5.315   6.872
 9139SOL     OW28315   1.752   2.322   3.111
 9139SOL    HW128316   1.737   2.364   3.022
 9139SOL    HW228317   1.748   2.392   3.182
 9140SOL     OW28318   6.934   3.677   2.200
 9140SOL    HW128319   6.906   3.599   2.255
 9140SOL    HW228320   0.008   3.661   2.162
 9141SOL     OW28321   5.909   6.924   1.653
 9141SOL    HW128322   5.875   6.875   1.733
 9141SOL    HW228323   5.945   6.858   1.587
 9142SOL     OW28324   0.976   3.181   1.162
 9142SOL    HW128325   1.028   3.251   1.212
 9142SOL    HW228326   0.906   3.225   1.106
 9143SOL     OW28327   6.229   2.523   6.981
 9143SOL    HW128328   6.280   2.572   0.035
 9143SOL    HW228329   6.135   2.558   6.977
 9144SOL     OW28330   2.246   4.873   4.687
 9144SOL    HW128331   2.147   4.861   4.680
 9144SOL    HW228332   2.268   4.917   4.774
 9145SOL     OW28333   0.319   5.820   6.951
 9145SOL    HW128334   0.398   5.761   6.968
 9145SOL    HW228335   0.274   5.790   6.866
 9146SOL     OW28336   5.475   3.115   3.380
 9146SOL    HW128337   5.446   3.209   3.394
 9146SOL    HW228338   5.413   3.053   3.428
 9147SOL     OW28339   5.797   6.685   4.931
 9147SOL    HW128340   5.718   6.719   4.880
 9147SOL    HW228341   5.814   6.590   4.906
 9148SOL     OW28342   4.875   6.158   2.531
 9148SOL    HW128343   4.845   6.245   2.570
 9148SOL    HW228344   4.796   6.100   2.511
 9149SOL     OW28345   5.226   3.499   2.657
 9149SOL    HW128346   5.207   3.589   2.616
 9149SOL    HW228347   5.190   3.427   2.597
 9150SOL     OW28348   3.023   5.270   1.179
 9150SOL    HW128349   2.927   5.294   1.165
 9150SOL    HW228350   3.039   5.253   1.276
 9151SOL     OW28351   1.907   4.195   3.654
 9151SOL    HW128352   1.843   4.268   3.678
 9151SOL    HW228353   1.869   4.107   3.681
 9152SOL     OW28354   2.181   3.990   4.295
 9152SOL    HW128355   2.210   3.962   4.386
 9152SOL    HW228356   2.178   3.911   4.235
 9153SOL     OW28357   0.476   2.731   0.397
 9153SOL    HW128358   0.529   2.755   0.315
 9153SOL    HW228359   0.445   2.636   0.390
 9154SOL     OW28360   6.031   4.340   5.025
 9154SOL    HW128361   6.059   4.300   4.938
 9154SOL    HW228362   5.945   4.391   5.014
 9155SOL     OW28363   1.788   4.312   2.778
 9155SOL    HW128364   1.814   4.367   2.857
 9155SOL    HW228365   1.729   4.237   2.807
 9156SOL     OW28366   0.410   1.989   0.597
 9156SOL    HW128367   0.360   1.961   0.679
 9156SOL    HW228368   0.483   2.053   0.622
 9157SOL     OW28369   2.527   4.401   7.016
 9157SOL    HW128370   2.526   4.301   7.010
 9157SOL    HW228371   2.436   4.436   6.994
 9158SOL     OW28372   6.631   4.402   4.930
 9158SOL    HW128373   6.673   4.396   4.840
 9158SOL    HW228374   6.535   4.376   4.924
 9159SOL     OW28375   1.374   0.565   3.135
 9159SOL    HW128376   1.405   0.531   3.224
 9159SOL    HW228377   1.275   0.556   3.129
 9160SOL     OW28378   0.282   6.399   5.757
 9160SOL    HW128379   0.288   6.299   5.766
 9160SOL    HW228380   0.201   6.432   5.806
 9161SOL     OW28381   5.494   5.460   3.381
 9161SOL    HW128382   5.425   5.401   3.338
 9161SOL    HW228383   5.585   5.424   3.362
 9162SOL     OW28384   3.850   0.661   3.130
 9162SOL    HW128385   3.908   0.727   3.083
 9162SOL    HW228386   3.822   0.698   3.219
 9163SOL     OW28387   0.010   3.003   4.050
 9163SOL    HW128388   7.008   2.967   4.142
 9163SOL    HW228389   0.031   3.100   4.057
 9164SOL     OW28390   2.062   0.597   6.948
 9164SOL    HW128391   1.979   0.627   6.997
 9164SOL    HW228392   2.111   0.530   7.004
 9165SOL     OW28393   5.506   1.638   5.994
 9165SOL    HW128394   5.487   1.714   5.932
 9165SOL    HW228395   5.421   1.598   6.026
 9166SOL     OW28396   4.579   5.347   0.622
 9166SOL    HW128397   4.643   5.292   0.675
 9166SOL    HW228398   4.485   5.318   0.642
 9167SOL     OW28399   1.909   1.923   5.997
 9167SOL    HW128400   1.827   1.912   5.940
 9167SOL    HW228401   1.933   2.020   6.003
 9168SOL     OW28402   6.783   6.116   6.802
 9168SOL    HW128403   6.730   6.052   6.746
 9168SOL    HW228404   6.868   6.140   6.754
 9169SOL     OW28405   6.743   6.719   6.619
 9169SOL    HW128406   6.796   6.728   6.535
 9169SOL    HW228407   6.663   6.779   6.614
 9170SOL     OW28408   2.117   0.046   6.954
 9170SOL    HW128409   2.159   0.099   0.011
 9170SOL    HW228410   2.018   0.044   6.967
 9171SOL     OW28411   3.682   6.083   0.903
 9171SOL    HW128412   3.649   6.171   0.936
 9171SOL    HW228413   3.778   6.071   0.929
 9172SOL     OW28414   4.889   0.822   4.012
 9172SOL    HW128415   4.967   0.880   3.988
 9172SOL    HW228416   4.850   0.782   3.929
 9173SOL     OW28417   6.517   4.215   5.174
 9173SOL    HW128418   6.422   4.244   5.185
 9173SOL    HW228419   6.560   4.206   5.264
 9174SOL     OW28420   0.729   5.487   0.715
 9174SOL    HW128421   0.789   5.556   0.675
 9174SOL    HW228422   0.676   5.528   0.790
 9175SOL     OW28423   1.246   6.676   6.634
 9175SOL    HW128424   1.314   6.684   6.561
 9175SOL    HW228425   1.227   6.766   6.672
 9176SOL     OW28426   2.868   0.518   1.806
 9176SOL    HW128427   2.925   0.549   1.882
 9176SOL    HW228428   2.897   0.564   1.721
 9177SOL     OW28429   0.931   3.415   4.217
 9177SOL    HW128430   0.858   3.347   4.207
 9177SOL    HW228431   0.987   3.417   4.134
 9178SOL     OW28432   2.053   5.153   6.521
 9178SOL    HW128433   1.969   5.200   6.493
 9178SOL    HW228434   2.081   5.090   6.449
 9179SOL     OW28435   1.619   5.344   4.597
 9179SOL    HW128436   1.623   5.267   4.534
 9179SOL    HW228437   1.647   5.428   4.549
 9180SOL     OW28438   5.953   2.423   3.202
 9180SOL    HW128439   5.943   2.476   3.118
 9180SOL    HW228440   5.863   2.395   3.235
 9181SOL     OW28441   5.544   2.326   4.101
 9181SOL    HW128442   5.502   2.236   4.112
 9181SOL    HW228443   5.486   2.396   4.144
 9182SOL     OW28444   2.798   6.980   3.402
 9182SOL    HW128445   2.765   0.000   3.489
 9182SOL    HW228446   2.839   0.036   3.348
 9183SOL     OW28447   4.327   4.706   6.685
 9183SOL    HW128448   4.286   4.631   6.634
 9183SOL    HW228449   4.378   4.669   6.763
 9184SOL     OW28450   4.288   2.147   1.110
 9184SOL    HW128451   4.266   2.191   1.023
 9184SOL    HW228452   4.361   2.198   1.155
 9185SOL     OW28453   0.004   6.726   4.861
 9185SOL    HW128454   0.001   6.771   4.772
 9185SOL    HW228455   0.037   6.791   4.930
 9186SOL     OW28456   5.533   0.340   4.958
 9186SOL    HW128457   5.527   0.300   4.866
 9186SOL    HW228458   5.473   0.420   4.963
 9187SOL     OW28459   3.995   2.108   6.921
 9187SOL    HW128460   3.954   2.049   6.852
 9187SOL    HW228461   3.925   2.167   6.961
 9188SOL     OW28462   2.138   0.676   1.281
 9188SOL    HW128463   2.163   0.721   1.195
 9188SOL    HW228464   2.066   0.728   1.326
 9189SOL     OW28465   3.548   5.991   2.362
 9189SOL    HW128466   3.514   5.951   2.277
 9189SOL    HW228467   3.545   6.090   2.356
 9190SOL     OW28468   0.663   3.256   5.635
 9190SOL    HW128469   0.705   3.281   5.548
 9190SOL    HW228470   0.661   3.157   5.645
 9191SOL     OW28471   5.810   0.976   6.568
 9191SOL    HW128472   5.746   0.992   6.492
 9191SOL    HW228473   5.820   1.060   6.620
 9192SOL     OW28474   6.614   2.083   6.207
 9192SOL    HW128475   6.670   2.163   6.182
 9192SOL    HW228476   6.545   2.111   6.273
 9193SOL     OW28477   3.848   3.375   4.577
 9193SOL    HW128478   3.877   3.386   4.672
 9193SOL    HW228479   3.881   3.288   4.541
 9194SOL     OW28480   2.917   6.970   2.474
 9194SOL    HW128481   2.930   6.968   2.573
 9194SOL    HW228482   2.937   0.045   2.439
 9195SOL     OW28483   1.912   3.432   2.843
 9195SOL    HW128484   1.829   3.449   2.790
 9195SOL    HW228485   1.916   3.496   2.920
 9196SOL     OW28486   5.038   6.740   3.565
 9196SOL    HW128487   4.989   6.718   3.649
 9196SOL    HW228488   5.032   6.664   3.501
 9197SOL     OW28489   3.122   5.178   0.941
 9197SOL    HW128490   3.138   5.079   0.948
 9197SOL    HW228491   3.105   5.216   1.032
 9198SOL     OW28492   6.365   4.287   6.926
 9198SOL    HW128493   6.314   4.265   7.009
 9198SOL    HW228494   6.301   4.302   6.851
 9199SOL     OW28495   0.577   2.725   5.883
 9199SOL    HW128496   0.556   2.678   5.969
 9199SOL    HW228497   0.612   2.816   5.903
 9200SOL     OW28498   2.575   6.071   5.716
 9200SOL    HW128499   2.575   6.121   5.629
 9200SOL    HW228500   2.483   6.038   5.735
 9201SOL     OW28501   0.434   2.920   0.613
 9201SOL    HW128502   0.476   2.830   0.597
 9201SOL    HW228503   0.344   2.923   0.570
 9202SOL     OW28504   0.661   5.616   3.428
 9202SOL    HW128505   0.694   5.561   3.505
 9202SOL    HW228506   0.728   5.687   3.407
 9203SOL     OW28507   5.611   3.349   5.848
 9203SOL    HW128508   5.562   3.267   5.819
 9203SOL    HW228509   5.560   3.430   5.819
 9204SOL     OW28510   4.971   3.634   4.028
 9204SOL    HW128511   5.070   3.625   4.019
 9204SOL    HW228512   4.939   3.581   4.106
 9205SOL     OW28513   5.046   5.889   3.142
 9205SOL    HW128514   5.046   5.789   3.142
 9205SOL    HW228515   4.956   5.923   3.116
 9206SOL     OW28516   3.242   6.902   3.530
 9206SOL    HW128517   3.184   6.864   3.458
 9206SOL    HW228518   3.192   6.905   3.616
 9207SOL     OW28519   3.874   4.984   0.198
 9207SOL    HW128520   3.833   4.904   0.241
 9207SOL    HW228521   3.909   4.958   0.108
 9208SOL     OW28522   5.643   3.880   2.092
 9208SOL    HW128523   5.705   3.872   2.013
 9208SOL    HW228524   5.677   3.823   2.167
 9209SOL     OW28525   4.453   0.420   1.375
 9209SOL    HW128526   4.378   0.440   1.438
 9209SOL    HW228527   4.417   0.404   1.283
 9210SOL     OW28528   0.804   0.666   1.490
 9210SOL    HW128529   0.876   0.715   1.442
 9210SOL    HW228530   0.844   0.604   1.558
 9211SOL     OW28531   5.585   3.362   6.697
 9211SOL    HW128532   5.632   3.340   6.782
 9211SOL    HW228533   5.528   3.443   6.709
 9212SOL     OW28534   4.969   4.498   4.768
 9212SOL    HW128535   4.946   4.479   4.863
 9212SOL    HW228536   4.909   4.571   4.733
 9213SOL     OW28537   4.718   5.975   4.782
 9213SOL    HW128538   4.779   6.054   4.786
 9213SOL    HW228539   4.671   5.973   4.694
 9214SOL     OW28540   6.876   2.680   5.145
 9214SOL    HW128541   6.872   2.589   5.104
 9214SOL    HW228542   6.946   2.734   5.098
 9215SOL     OW28543   1.575   4.607   2.530
 9215SOL    HW128544   1.481   4.600   2.564
 9215SOL    HW228545   1.579   4.677   2.459
 9216SOL     OW28546   2.434   6.692   3.690
 9216SOL    HW128547   2.492   6.691   3.609
 9216SOL    HW228548   2.490   6.676   3.772
 9217SOL     OW28549   6.110   2.543   0.445
 9217SOL    HW128550   6.114   2.470   0.376
 9217SOL    HW228551   6.021   2.589   0.439
 9218SOL     OW28552   4.374   0.228   6.934
 9218SOL    HW128553   4.319   0.272   6.863
 9218SOL    HW228554   4.316   0.206   7.012
 9219SOL     OW28555   4.299   3.594   5.999
 9219SOL    HW128556   4.386   3.587   5.949
 9219SOL    HW228557   4.224   3.571   5.937
 9220SOL     OW28558   1.293   6.695   2.166
 9220SOL    HW128559   1.312   6.601   2.191
 9220SOL    HW228560   1.210   6.726   2.213
 9221SOL     OW28561   2.610   0.115   4.088
 9221SOL    HW128562   2.682   0.154   4.145
 9221SOL    HW228563   2.544   0.186   4.064
 9222SOL     OW28564   2.775   5.719   4.670
 9222SOL    HW128565   2.799   5.800   4.725
 9222SOL    HW228566   2.717   5.747   4.594
 9223SOL     OW28567   1.088   3.214   3.896
 9223SOL    HW128568   1.061   3.120   3.921
 9223SOL    HW228569   1.182   3.214   3.863
 9224SOL     OW28570   1.463   4.545   3.348
 9224SOL    HW128571   1.551   4.504   3.373
 9224SOL    HW228572   1.471   4.591   3.260
 9225SOL     OW28573   3.632   6.301   5.622
 9225SOL    HW128574   3.674   6.365   5.686
 9225SOL    HW228575   3.652   6.207   5.651
 9226SOL     OW28576   0.421   6.659   1.432
 9226SOL    HW128577   0.516   6.635   1.452
 9226SOL    HW228578   0.419   6.744   1.379
 9227SOL     OW28579   1.858   6.355   1.669
 9227SOL    HW128580   1.766   6.314   1.667
 9227SOL    HW228581   1.853   6.446   1.709
 9228SOL     OW28582   2.057   2.258   0.084
 9228SOL    HW128583   2.128   2.259   0.013
 9228SOL    HW228584   2.050   2.349   0.125
 9229SOL     OW28585   1.229   4.568   5.715
 9229SOL    HW128586   1.280   4.641   5.760
 9229SOL    HW228587   1.206   4.596   5.621
 9230SOL     OW28588   4.875   3.140   3.236
 9230SOL    HW128589   4.964   3.120   3.195
 9230SOL    HW228590   4.848   3.065   3.297
 9231SOL     OW28591   1.290   2.686   5.271
 9231SOL    HW128592   1.254   2.726   5.187
 9231SOL    HW228593   1.384   2.655   5.257
 9232SOL     OW28594   2.972   5.531   0.312
 9232SOL    HW128595   2.891   5.472   0.314
 9232SOL    HW228596   2.964   5.601   0.383
 9233SOL     OW28597   0.078   6.409   0.796
 9233SOL    HW128598   0.077   6.333   0.861
 9233SOL    HW228599   0.053   6.376   0.705
 9234SOL     OW28600   2.840   5.536   0.802
 9234SOL    HW128601   2.876   5.566   0.890
 9234SOL    HW228602   2.824   5.438   0.804
 9235SOL     OW28603   1.712   2.751   3.185
 9235SOL    HW128604   1.661   2.734   3.269
 9235SOL    HW228605   1.675   2.832   3.140
 9236SOL     OW28606   1.824   3.825   0.178
 9236SOL    HW128607   1.874   3.809   0.093
 9236SOL    HW228608   1.746   3.762   0.183
 9237SOL     OW28609   0.160   5.548   3.344
 9237SOL    HW128610   0.072   5.520   3.380
 9237SOL    HW228611   0.192   5.629   3.392
 9238SOL     OW28612   2.705   2.903   5.998
 9238SOL    HW128613   2.768   2.962   5.948
 9238SOL    HW228614   2.636   2.958   6.045
 9239SOL     OW28615   0.262   4.317   6.472
 9239SOL    HW128616   0.216   4.400   6.440
 9239SOL    HW228617   0.333   4.291   6.407
 9240SOL     OW28618   4.924   2.919   1.809
 9240SOL    HW128619   4.839   2.956   1.847
 9240SOL    HW228620   4.980   2.994   1.773
 9241SOL     OW28621   0.337   5.458   0.494
 9241SOL    HW128622   0.431   5.431   0.473
 9241SOL    HW228623   0.336   5.516   0.575
 9242SOL     OW28624   1.417   3.975   1.308
 9242SOL    HW128625   1.345   4.010   1.368
 9242SOL    HW228626   1.431   4.039   1.232
 9243SOL     OW28627   6.635   0.729   1.316
 9243SOL    HW128628   6.603   0.779   1.397
 9243SOL    HW228629   6.699   0.658   1.345
 9244SOL     OW28630   2.698   5.660   6.066
 9244SOL    HW128631   2.773   5.724   6.083
 9244SOL    HW228632   2.736   5.569   6.048
 9245SOL     OW28633   0.799   5.082   3.568
 9245SOL    HW128634   0.873   5.126   3.516
 9245SOL    HW228635   0.837   5.008   3.624
 9246SOL     OW28636   5.930   0.162   2.768
 9246SOL    HW128637   5.885   0.138   2.682
 9246SOL    HW228638   5.877   0.233   2.815
 9247SOL     OW28639   2.721   6.235   2.976
 9247SOL    HW128640   2.697   6.158   2.917
 9247SOL    HW228641   2.658   6.238   3.054
 9248SOL     OW28642   3.021   1.858   4.430
 9248SOL    HW128643   2.997   1.762   4.444
 9248SOL    HW228644   3.042   1.872   4.333
 9249SOL     OW28645   4.318   4.780   1.353
 9249SOL    HW128646   4.396   4.804   1.295
 9249SOL    HW228647   4.249   4.852   1.347
 9250SOL     OW28648   6.043   3.164   4.517
 9250SOL    HW128649   6.137   3.190   4.495
 9250SOL    HW228650   6.036   3.146   4.615
 9251SOL     OW28651   4.265   1.612   2.465
 9251SOL    HW128652   4.246   1.574   2.375
 9251SOL    HW228653   4.269   1.712   2.460
 9252SOL     OW28654   5.374   0.677   4.790
 9252SOL    HW128655   5.343   0.584   4.770
 9252SOL    HW228656   5.346   0.702   4.883
 9253SOL     OW28657   5.409   4.830   5.694
 9253SOL    HW128658   5.467   4.869   5.765
 9253SOL    HW228659   5.375   4.903   5.635
 9254SOL     OW28660   4.491   5.005   3.376
 9254SOL    HW128661   4.537   4.938   3.316
 9254SOL    HW228662   4.397   4.976   3.392
 9255SOL     OW28663   5.052   3.668   6.586
 9255SOL    HW128664   4.958   3.676   6.620
 9255SOL    HW228665   5.068   3.575   6.553
 9256SOL     OW28666   2.806   0.634   2.633
 9256SOL    HW128667   2.714   0.647   2.595
 9256SOL    HW228668   2.834   0.539   2.621
 9257SOL     OW28669   6.255   5.249   3.318
 9257SOL    HW128670   6.270   5.258   3.220
 9257SOL    HW228671   6.209   5.162   3.337
 9258SOL     OW28672   4.098   3.005   1.805
 9258SOL    HW128673   4.077   3.015   1.903
 9258SOL    HW228674   4.192   3.034   1.788
 9259SOL     OW28675   1.144   1.569   0.980
 9259SOL    HW128676   1.071   1.631   1.006
 9259SOL    HW228677   1.154   1.498   1.049
 9260SOL     OW28678   5.989   1.864   5.550
 9260SOL    HW128679   6.003   1.963   5.543
 9260SOL    HW228680   6.067   1.822   5.596
 9261SOL     OW28681   3.846   1.349   0.366
 9261SOL    HW128682   3.891   1.420   0.312
 9261SOL    HW228683   3.815   1.275   0.305
 9262SOL     OW28684   0.356   5.753   5.176
 9262SOL    HW128685   0.455   5.752   5.160
 9262SOL    HW228686   0.339   5.764   5.274
 9263SOL     OW28687   3.478   6.466   2.689
 9263SOL    HW128688   3.422   6.432   2.614
 9263SOL    HW228689   3.495   6.391   2.754
 9264SOL     OW28690   4.787   3.997   0.666
 9264SOL    HW128691   4.860   3.928   0.665
 9264SOL    HW228692   4.780   4.039   0.575
 9265SOL     OW28693   3.469   2.487   0.181
 9265SOL    HW128694   3.561   2.453   0.197
 9265SOL    HW228695   3.417   2.418   0.129
 9266SOL     OW28696   1.284   6.057   0.853
 9266SOL    HW128697   1.355   6.023   0.791
 9266SOL    HW228698   1.201   6.076   0.801
 9267SOL     OW28699   6.837   1.911   4.656
 9267SOL    HW128700   6.806   1.945   4.568
 9267SOL    HW228701   6.889   1.826   4.643
 9268SOL     OW28702   1.780   7.004   2.505
 9268SOL    HW128703   1.795   6.907   2.521
 9268SOL    HW228704   1.724   7.017   2.423
 9269SOL     OW28705   4.503   1.108   6.308
 9269SOL    HW128706   4.585   1.164   6.319
 9269SOL    HW228707   4.513   1.049   6.227
 9270SOL     OW28708   4.384   6.531   6.134
 9270SOL    HW128709   4.345   6.623   6.124
 9270SOL    HW228710   4.365   6.497   6.226
 9271SOL     OW28711   6.027   6.993   0.437
 9271SOL    HW128712   6.079   6.919   0.478
 9271SOL    HW228713   5.978   0.027   0.509
 9272SOL     OW28714   1.391   5.486   5.911
 9272SOL    HW128715   1.461   5.428   5.870
 9272SOL    HW228716   1.336   5.529   5.839
 9273SOL     OW28717   5.566   6.339   3.098
 9273SOL    HW128718   5.602   6.349   3.191
 9273SOL    HW228719   5.560   6.241   3.075
 9274SOL     OW28720   6.805   1.761   0.337
 9274SOL    HW128721   6.756   1.788   0.420
 9274SOL    HW228722   6.762   1.680   0.298
 9275SOL     OW28723   6.549   0.593   6.842
 9275SOL    HW128724   6.507   0.619   6.929
 9275SOL    HW228725   6.480   0.595   6.769
 9276SOL     OW28726   1.999   4.492   0.998
 9276SOL    HW128727   1.913   4.499   0.946
 9276SOL    HW228728   1.981   4.512   1.094
 9277SOL     OW28729   4.628   4.447   1.816
 9277SOL    HW128730   4.571   4.527   1.794
 9277SOL    HW228731   4.574   4.379   1.864
 9278SOL     OW28732   1.904   0.148   5.496
 9278SOL    HW128733   1.845   0.181   5.570
 9278SOL    HW228734   1.848   0.108   5.424
 9279SOL     OW28735   2.953   0.345   1.551
 9279SOL    HW128736   2.954   0.266   1.612
 9279SOL    HW228737   2.999   0.422   1.595
 9280SOL     OW28738   2.169   2.046   2.209
 9280SOL    HW128739   2.158   2.070   2.306
 9280SOL    HW228740   2.255   1.996   2.197
 9281SOL     OW28741   3.100   4.207   6.839
 9281SOL    HW128742   3.029   4.224   6.770
 9281SOL    HW228743   3.110   4.109   6.854
 9282SOL     OW28744   5.207   1.378   3.572
 9282SOL    HW128745   5.149   1.311   3.618
 9282SOL    HW228746   5.300   1.373   3.608
 9283SOL     OW28747   4.799   0.343   4.250
 9283SOL    HW128748   4.894   0.360   4.224
 9283SOL    HW228749   4.769   0.415   4.312
 9284SOL     OW28750   2.991   2.683   5.517
 9284SOL    HW128751   2.973   2.753   5.447
 9284SOL    HW228752   2.903   2.651   5.554
 9285SOL     OW28753   5.111   3.531   1.395
 9285SOL    HW128754   5.047   3.588   1.447
 9285SOL    HW228755   5.061   3.482   1.324
 9286SOL     OW28756   5.790   5.800   1.098
 9286SOL    HW128757   5.888   5.801   1.078
 9286SOL    HW228758   5.774   5.831   1.192
 9287SOL     OW28759   3.608   4.993   6.657
 9287SOL    HW128760   3.641   4.905   6.690
 9287SOL    HW228761   3.520   5.014   6.700
 9288SOL     OW28762   4.591   1.341   2.646
 9288SOL    HW128763   4.515   1.327   2.709
 9288SOL    HW228764   4.677   1.317   2.691
 9289SOL     OW28765   4.452   6.963   1.417
 9289SOL    HW128766   4.493   0.028   1.376
 9289SOL    HW228767   4.449   6.890   1.349
 9290SOL     OW28768   5.275   0.850   3.642
 9290SOL    HW128769   5.333   0.823   3.565
 9290SOL    HW228770   5.324   0.917   3.699
 9291SOL     OW28771   1.324   5.120   5.771
 9291SOL    HW128772   1.324   5.073   5.683
 9291SOL    HW228773   1.390   5.195   5.769
 9292SOL     OW28774   2.402   2.532   6.344
 9292SOL    HW128775   2.383   2.510   6.248
 9292SOL    HW228776   2.316   2.555   6.390
 9293SOL     OW28777   6.206   3.829   6.583
 9293SOL    HW128778   6.138   3.756   6.574
 9293SOL    HW228779   6.258   3.814   6.667
 9294SOL     OW28780   5.370   0.799   5.995
 9294SOL    HW128781   5.332   0.844   6.077
 9294SOL    HW228782   5.388   0.868   5.925
 9295SOL     OW28783   4.888   0.457   5.591
 9295SOL    HW128784   4.965   0.496   5.640
 9295SOL    HW228785   4.898   0.474   5.493
 9296SOL     OW28786   1.958   5.305   6.954
 9296SOL    HW128787   2.005   5.290   0.024
 9296SOL    HW228788   1.926   5.399   6.950
 9297SOL     OW28789   0.960   6.799   2.831
 9297SOL    HW128790   1.047   6.798   2.881
 9297SOL    HW228791   0.970   6.856   2.749
 9298SOL     OW28792   0.789   6.373   6.483
 9298SOL    HW128793   0.781   6.454   6.426
 9298SOL    HW228794   0.868   6.383   6.544
 9299SOL     OW28795   0.719   2.039   4.211
 9299SOL    HW128796   0.787   2.028   4.138
 9299SOL    HW228797   0.747   2.114   4.271
 9300SOL     OW28798   0.805   4.516   5.732
 9300SOL    HW128799   0.876   4.468   5.783
 9300SOL    HW228800   0.741   4.560   5.795
 9301SOL     OW28801   5.446   5.527   4.379
 9301SOL    HW128802   5.458   5.621   4.347
 9301SOL    HW228803   5.494   5.516   4.466
 9302SOL     OW28804   1.957   3.346   4.023
 9302SOL    HW128805   1.956   3.249   4.000
 9302SOL    HW228806   1.980   3.358   4.119
 9303SOL     OW28807   2.860   3.887   0.405
 9303SOL    HW128808   2.918   3.805   0.399
 9303SOL    HW228809   2.811   3.899   0.319
 9304SOL     OW28810   4.567   4.652   0.810
 9304SOL    HW128811   4.501   4.713   0.767
 9304SOL    HW228812   4.658   4.693   0.807
 9305SOL     OW28813   3.989   0.966   0.626
 9305SOL    HW128814   4.084   0.968   0.655
 9305SOL    HW228815   3.936   0.911   0.690
 9306SOL     OW28816   1.258   3.559   5.478
 9306SOL    HW128817   1.313   3.505   5.414
 9306SOL    HW228818   1.204   3.497   5.535
 9307SOL     OW28819   1.292   3.891   1.059
 9307SOL    HW128820   1.324   3.981   1.028
 9307SOL    HW228821   1.199   3.900   1.094
 9308SOL     OW28822   1.599   3.406   1.709
 9308SOL    HW128823   1.629   3.380   1.617
 9308SOL    HW228824   1.524   3.472   1.702
 9309SOL     OW28825   2.918   5.903   5.889
 9309SOL    HW128826   2.832   5.887   5.841
 9309SOL    HW228827   2.902   5.902   5.988
 9310SOL     OW28828   5.676   5.762   5.715
 9310SOL    HW128829   5.606   5.750   5.786
 9310SOL    HW228830   5.688   5.677   5.665
 9311SOL     OW28831   4.951   4.757   1.035
 9311SOL    HW128832   4.950   4.658   1.042
 9311SOL    HW228833   4.953   4.784   0.939
 9312SOL     OW28834   1.692   2.961   0.973
 9312SOL    HW128835   1.675   3.054   1.005
 9312SOL    HW228836   1.644   2.895   1.031
 9313SOL     OW28837   0.286   0.723   1.420
 9313SOL    HW128838   0.220   0.653   1.447
 9313SOL    HW228839   0.276   0.802   1.481
 9314SOL     OW28840   6.527   3.485   6.516
 9314SOL    HW128841   6.583   3.486   6.433
 9314SOL    HW228842   6.481   3.397   6.524
 9315SOL     OW28843   6.893   6.897   5.694
 9315SOL    HW128844   6.902   6.948   5.779
 9315SOL    HW228845   6.893   6.960   5.616
 9316SOL     OW28846   6.092   6.368   5.277
 9316SOL    HW128847   6.032   6.307   5.329
 9316SOL    HW228848   6.129   6.318   5.198
 9317SOL     OW28849   4.475   5.655   4.060
 9317SOL    HW128850   4.484   5.754   4.067
 9317SOL    HW228851   4.456   5.630   3.965
 9318SOL     OW28852   6.348   0.289   6.819
 9318SOL    HW128853   6.322   0.377   6.858
 9318SOL    HW228854   6.384   0.303   6.727
 9319SOL     OW28855   2.729   3.018   1.324
 9319SOL    HW128856   2.780   3.101   1.345
 9319SOL    HW228857   2.634   3.030   1.353
 9320SOL     OW28858   4.184   0.489   5.546
 9320SOL    HW128859   4.269   0.503   5.496
 9320SOL    HW228860   4.165   0.391   5.553
 9321SOL     OW28861   1.146   0.807   4.645
 9321SOL    HW128862   1.069   0.814   4.709
 9321SOL    HW228863   1.226   0.853   4.683
 9322SOL     OW28864   0.444   4.148   6.971
 9322SOL    HW128865   0.528   4.101   6.946
 9322SOL    HW228866   0.366   4.100   6.932
 9323SOL     OW28867   0.996   1.103   4.561
 9323SOL    HW128868   0.971   1.131   4.654
 9323SOL    HW228869   1.083   1.147   4.536
 9324SOL     OW28870   2.006   4.307   2.323
 9324SOL    HW128871   2.081   4.295   2.258
 9324SOL    HW228872   1.948   4.225   2.323
 9325SOL     OW28873   6.747   0.030   6.923
 9325SOL    HW128874   6.818   6.976   6.917
 9325SOL    HW228875   6.752   0.075   7.012
 9326SOL     OW28876   2.412   4.957   0.462
 9326SOL    HW128877   2.428   4.872   0.412
 9326SOL    HW228878   2.441   5.035   0.407
 9327SOL     OW28879   4.067   0.085   2.337
 9327SOL    HW128880   4.135   0.100   2.266
 9327SOL    HW228881   4.021   0.171   2.359
 9328SOL     OW28882   2.367   0.969   4.821
 9328SOL    HW128883   2.424   0.936   4.746
 9328SOL    HW228884   2.372   1.069   4.825
 9329SOL     OW28885   6.079   4.109   1.013
 9329SOL    HW128886   6.046   4.043   0.945
 9329SOL    HW228887   6.061   4.202   0.980
 9330SOL     OW28888   6.544   0.497   5.655
 9330SOL    HW128889   6.593   0.424   5.607
 9330SOL    HW228890   6.610   0.550   5.709
 9331SOL     OW28891   2.427   0.780   6.391
 9331SOL    HW128892   2.357   0.846   6.362
 9331SOL    HW228893   2.427   0.702   6.329
 9332SOL     OW28894   3.424   5.307   0.564
 9332SOL    HW128895   3.371   5.302   0.649
 9332SOL    HW228896   3.505   5.364   0.579
 9333SOL     OW28897   3.560   5.400   6.687
 9333SOL    HW128898   3.584   5.469   6.755
 9333SOL    HW228899   3.484   5.344   6.721
 9334SOL     OW28900   4.315   6.425   5.192
 9334SOL    HW128901   4.274   6.367   5.123
 9334SOL    HW228902   4.326   6.374   5.277
 9335SOL     OW28903   1.579   1.418   6.810
 9335SOL    HW128904   1.655   1.457   6.862
 9335SOL    HW228905   1.552   1.481   6.737
 9336SOL     OW28906   4.486   6.908   4.693
 9336SOL    HW128907   4.448   6.920   4.785
 9336SOL    HW228908   4.585   6.896   4.699
 9337SOL     OW28909   4.583   0.910   5.382
 9337SOL    HW128910   4.518   0.871   5.316
 9337SOL    HW228911   4.544   0.904   5.474
 9338SOL     OW28912   5.975   0.212   1.256
 9338SOL    HW128913   5.948   0.281   1.322
 9338SOL    HW228914   6.033   0.255   1.186
 9339SOL     OW28915   6.197   6.125   6.784
 9339SOL    HW128916   6.273   6.186   6.805
 9339SOL    HW228917   6.207   6.090   6.691
 9340SOL     OW28918   3.571   4.940   3.164
 9340SOL    HW128919   3.536   4.945   3.071
 9340SOL    HW228920   3.670   4.929   3.162
 9341SOL     OW28921   5.503   4.928   1.174
 9341SOL    HW128922   5.596   4.961   1.189
 9341SOL    HW228923   5.507   4.838   1.128
 9342SOL     OW28924   2.415   0.302   5.005
 9342SOL    HW128925   2.495   0.247   5.030
 9342SOL    HW228926   2.339   0.242   4.983
 9343SOL     OW28927   4.697   4.351   2.188
 9343SOL    HW128928   4.668   4.387   2.277
 9343SOL    HW228929   4.617   4.335   2.130
 9344SOL     OW28930   5.374   6.151   1.766
 9344SOL    HW128931   5.456   6.105   1.802
 9344SOL    HW228932   5.350   6.112   1.677
 9345SOL     OW28933   6.454   4.932   1.244
 9345SOL    HW128934   6.445   4.885   1.332
 9345SOL    HW228935   6.458   5.031   1.260
 9346SOL     OW28936   4.543   0.374   1.842
 9346SOL    HW128937   4.526   0.328   1.754
 9346SOL    HW228938   4.639   0.401   1.848
 9347SOL     OW28939   3.310   5.874   0.652
 9347SOL    HW128940   3.402   5.911   0.663
 9347SOL    HW228941   3.245   5.949   0.639
 9348SOL     OW28942   2.997   5.677   2.744
 9348SOL    HW128943   2.918   5.738   2.739
 9348SOL    HW228944   3.079   5.727   2.714
 9349SOL     OW28945   6.541   5.291   2.039
 9349SOL    HW128946   6.585   5.349   2.107
 9349SOL    HW228947   6.563   5.325   1.947
 9350SOL     OW28948   6.600   1.784   4.755
 9350SOL    HW128949   6.542   1.865   4.754
 9350SOL    HW228950   6.691   1.808   4.722
 9351SOL     OW28951   3.651   6.977   6.423
 9351SOL    HW128952   3.654   0.051   6.463
 9351SOL    HW228953   3.699   6.977   6.335
 9352SOL     OW28954   3.653   2.260   6.422
 9352SOL    HW128955   3.662   2.200   6.343
 9352SOL    HW228956   3.730   2.243   6.485
 9353SOL     OW28957   1.103   4.730   1.452
 9353SOL    HW128958   1.155   4.803   1.496
 9353SOL    HW228959   1.034   4.769   1.391
 9354SOL     OW28960   0.052   1.806   6.028
 9354SOL    HW128961   0.077   1.762   5.942
 9354SOL    HW228962   0.074   1.745   6.104
 9355SOL     OW28963   7.011   1.401   4.475
 9355SOL    HW128964   0.078   1.383   4.423
 9355SOL    HW228965   6.949   1.455   4.419
 9356SOL     OW28966   4.723   5.858   2.298
 9356SOL    HW128967   4.772   5.791   2.353
 9356SOL    HW228968   4.779   5.884   2.219
 9357SOL     OW28969   2.575   3.439   6.164
 9357SOL    HW128970   2.668   3.413   6.190
 9357SOL    HW228971   2.512   3.365   6.188
 9358SOL     OW28972   5.906   2.775   2.421
 9358SOL    HW128973   5.882   2.721   2.501
 9358SOL    HW228974   5.872   2.869   2.432
 9359SOL     OW28975   1.089   3.448   5.670
 9359SOL    HW128976   1.147   3.456   5.751
 9359SOL    HW228977   1.043   3.535   5.653
 9360SOL     OW28978   1.518   6.007   6.586
 9360SOL    HW128979   1.474   6.016   6.675
 9360SOL    HW228980   1.597   6.069   6.582
 9361SOL     OW28981   1.414   6.503   3.349
 9361SOL    HW128982   1.507   6.539   3.344
 9361SOL    HW228983   1.358   6.545   3.278
 9362SOL     OW28984   1.977   2.971   2.847
 9362SOL    HW128985   1.904   3.037   2.866
 9362SOL    HW228986   2.047   3.015   2.792
 9363SOL     OW28987   4.021   6.559   2.247
 9363SOL    HW128988   3.987   6.653   2.254
 9363SOL    HW228989   4.085   6.553   2.171
 9364SOL     OW28990   3.824   2.668   6.076
 9364SOL    HW128991   3.876   2.751   6.096
 9364SOL    HW228992   3.810   2.660   5.977
 9365SOL     OW28993   2.307   2.007   4.584
 9365SOL    HW128994   2.393   2.026   4.536
 9365SOL    HW228995   2.248   1.952   4.526
 9366SOL     OW28996   3.406   6.246   6.986
 9366SOL    HW128997   3.389   6.167   0.028
 9366SOL    HW228998   3.395   6.220   6.890
 9367SOL     OW28999   6.634   6.165   2.273
 9367SOL    HW129000   6.628   6.114   2.187
 9367SOL    HW229001   6.583   6.117   2.343
 9368SOL     OW29002   3.080   1.594   3.430
 9368SOL    HW129003   2.990   1.572   3.392
 9368SOL    HW229004   3.071   1.669   3.496
 9369SOL     OW29005   6.564   6.810   4.715
 9369SOL    HW129006   6.657   6.843   4.731
 9369SOL    HW229007   6.540   6.742   4.784
 9370SOL     OW29008   5.019   0.699   2.523
 9370SOL    HW129009   4.941   0.754   2.492
 9370SOL    HW229010   4.996   0.602   2.515
 9371SOL     OW29011   2.022   4.853   0.676
 9371SOL    HW129012   2.053   4.852   0.771
 9371SOL    HW229013   2.042   4.766   0.633
 9372SOL     OW29014   5.310   5.759   2.594
 9372SOL    HW129015   5.260   5.725   2.674
 9372SOL    HW229016   5.309   5.859   2.594
 9373SOL     OW29017   4.533   1.990   2.855
 9373SOL    HW129018   4.582   1.990   2.942
 9373SOL    HW229019   4.532   1.897   2.817
 9374SOL     OW29020   0.702   3.701   0.544
 9374SOL    HW129021   0.612   3.685   0.585
 9374SOL    HW229022   0.691   3.719   0.446
 9375SOL     OW29023   6.956   1.598   2.848
 9375SOL    HW129024   0.020   1.647   2.815
 9375SOL    HW229025   6.876   1.658   2.843
 9376SOL     OW29026   2.596   4.491   1.294
 9376SOL    HW129027   2.593   4.557   1.369
 9376SOL    HW229028   2.687   4.488   1.255
 9377SOL     OW29029   2.121   5.319   4.297
 9377SOL    HW129030   2.030   5.356   4.313
 9377SOL    HW229031   2.148   5.262   4.375
 9378SOL     OW29032   1.885   1.239   4.899
 9378SOL    HW129033   1.945   1.159   4.908
 9378SOL    HW229034   1.822   1.225   4.823
 9379SOL     OW29035   4.107   5.748   5.636
 9379SOL    HW129036   4.046   5.816   5.597
 9379SOL    HW229037   4.202   5.777   5.625
 9380SOL     OW29038   5.344   5.001   4.594
 9380SOL    HW129039   5.347   5.047   4.506
 9380SOL    HW229040   5.432   4.956   4.611
 9381SOL     OW29041   3.715   2.420   6.124
 9381SOL    HW129042   3.808   2.433   6.090
 9381SOL    HW229043   3.702   2.472   6.208
 9382SOL     OW29044   3.522   0.858   3.669
 9382SOL    HW129045   3.502   0.763   3.644
 9382SOL    HW229046   3.460   0.918   3.620
 9383SOL     OW29047   0.984   5.887   4.567
 9383SOL    HW129048   0.989   5.822   4.492
 9383SOL    HW229049   0.936   5.845   4.644
 9384SOL     OW29050   4.064   0.353   1.765
 9384SOL    HW129051   4.109   0.413   1.831
 9384SOL    HW229052   4.133   0.311   1.706
 9385SOL     OW29053   4.568   0.952   3.799
 9385SOL    HW129054   4.585   1.037   3.748
 9385SOL    HW229055   4.648   0.893   3.793
 9386SOL     OW29056   1.992   5.984   5.071
 9386SOL    HW129057   1.906   5.975   5.021
 9386SOL    HW229058   1.982   6.051   5.144
 9387SOL     OW29059   2.777   1.679   6.776
 9387SOL    HW129060   2.755   1.773   6.752
 9387SOL    HW229061   2.867   1.655   6.739
 9388SOL     OW29062   2.575   5.760   2.295
 9388SOL    HW129063   2.582   5.665   2.325
 9388SOL    HW229064   2.484   5.776   2.257
 9389SOL     OW29065   2.121   0.060   3.761
 9389SOL    HW129066   2.219   0.048   3.745
 9389SOL    HW229067   2.099   0.034   3.855
 9390SOL     OW29068   4.859   4.699   5.192
 9390SOL    HW129069   4.906   4.775   5.238
 9390SOL    HW229070   4.832   4.728   5.100
 9391SOL     OW29071   2.867   1.498   4.939
 9391SOL    HW129072   2.860   1.502   5.039
 9391SOL    HW229073   2.904   1.585   4.905
 9392SOL     OW29074   6.655   6.840   5.056
 9392SOL    HW129075   6.605   6.927   5.057
 9392SOL    HW229076   6.611   6.777   4.991
 9393SOL     OW29077   3.306   6.402   6.538
 9393SOL    HW129078   3.304   6.396   6.438
 9393SOL    HW229079   3.315   6.497   6.566
 9394SOL     OW29080   6.996   1.441   2.246
 9394SOL    HW129081   0.073   1.424   2.216
 9394SOL    HW229082   6.998   1.485   2.336
 9395SOL     OW29083   2.871   1.544   1.197
 9395SOL    HW129084   2.926   1.461   1.208
 9395SOL    HW229085   2.885   1.603   1.277
 9396SOL     OW29086   1.995   5.088   3.826
 9396SOL    HW129087   1.981   5.179   3.789
 9396SOL    HW229088   2.024   5.026   3.753
 9397SOL     OW29089   5.192   6.939   6.350
 9397SOL    HW129090   5.291   6.933   6.361
 9397SOL    HW229091   5.164   6.888   6.268
 9398SOL     OW29092   6.321   0.611   5.051
 9398SOL    HW129093   6.402   0.552   5.057
 9398SOL    HW229094   6.347   0.705   5.071
 9399SOL     OW29095   0.494   1.758   5.737
 9399SOL    HW129096   0.523   1.686   5.673
 9399SOL    HW229097   0.428   1.818   5.691
 9400SOL     OW29098   4.487   0.656   1.741
 9400SOL    HW129099   4.527   0.602   1.816
 9400SOL    HW229100   4.433   0.596   1.682
 9401SOL     OW29101   6.009   0.916   3.588
 9401SOL    HW129102   6.063   0.866   3.521
 9401SOL    HW229103   6.008   1.013   3.564
 9402SOL     OW29104   1.210   5.421   3.017
 9402SOL    HW129105   1.166   5.506   2.987
 9402SOL    HW229106   1.300   5.414   2.975
 9403SOL     OW29107   6.167   1.306   3.068
 9403SOL    HW129108   6.090   1.352   3.024
 9403SOL    HW229109   6.221   1.372   3.119
 9404SOL     OW29110   1.880   3.230   0.205
 9404SOL    HW129111   1.852   3.276   0.120
 9404SOL    HW229112   1.956   3.168   0.186
 9405SOL     OW29113   2.093   4.853   3.368
 9405SOL    HW129114   2.028   4.902   3.311
 9405SOL    HW229115   2.130   4.914   3.438
 9406SOL     OW29116   6.819   3.154   6.058
 9406SOL    HW129117   6.742   3.142   5.995
 9406SOL    HW229118   6.897   3.193   6.009
 9407SOL     OW29119   2.589   5.162   3.189
 9407SOL    HW129120   2.675   5.143   3.235
 9407SOL    HW229121   2.524   5.201   3.254
 9408SOL     OW29122   6.341   2.554   6.019
 9408SOL    HW129123   6.407   2.490   6.058
 9408SOL    HW229124   6.304   2.516   5.934
 9409SOL     OW29125   5.930   6.123   0.332
 9409SOL    HW129126   5.922   6.023   0.327
 9409SOL    HW229127   6.026   6.148   0.339
 9410SOL     OW29128   2.887   0.309   1.285
 9410SOL    HW129129   2.919   0.311   1.380
 9410SOL    HW229130   2.886   0.402   1.248
 9411SOL     OW29131   3.085   3.000   2.284
 9411SOL    HW129132   3.087   2.978   2.187
 9411SOL    HW229133   3.036   2.929   2.334
 9412SOL     OW29134   6.986   1.993   2.877
 9412SOL    HW129135   0.052   2.001   2.821
 9412SOL    HW229136   7.012   1.976   2.972
 9413SOL     OW29137   3.551   5.799   3.551
 9413SOL    HW129138   3.638   5.776   3.508
 9413SOL    HW229139   3.480   5.737   3.518
 9414SOL     OW29140   2.743   0.803   3.231
 9414SOL    HW129141   2.822   0.836   3.282
 9414SOL    HW229142   2.679   0.759   3.295
 9415SOL     OW29143   2.810   6.808   1.654
 9415SOL    HW129144   2.787   6.777   1.562
 9415SOL    HW229145   2.735   6.787   1.717
 9416SOL     OW29146   0.365   2.482   0.506
 9416SOL    HW129147   0.351   2.383   0.502
 9416SOL    HW229148   0.305   2.522   0.575
 9417SOL     OW29149   4.895   0.878   0.460
 9417SOL    HW129150   4.970   0.815   0.439
 9417SOL    HW229151   4.883   0.942   0.384
 9418SOL     OW29152   4.316   6.884   1.181
 9418SOL    HW129153   4.283   6.888   1.087
 9418SOL    HW229154   4.255   6.827   1.236
 9419SOL     OW29155   3.082   5.099   6.039
 9419SOL    HW129156   3.112   5.114   5.945
 9419SOL    HW229157   2.982   5.107   6.044
 9420SOL     OW29158   6.853   3.718   5.665
 9420SOL    HW129159   6.782   3.701   5.733
 9420SOL    HW229160   6.815   3.771   5.590
 9421SOL     OW29161   2.037   6.307   4.300
 9421SOL    HW129162   2.072   6.306   4.394
 9421SOL    HW229163   2.049   6.216   4.259
 9422SOL     OW29164   3.200   5.368   3.164
 9422SOL    HW129165   3.202   5.272   3.194
 9422SOL    HW229166   3.293   5.397   3.143
 9423SOL     OW29167   2.904   6.853   3.713
 9423SOL    HW129168   2.960   6.770   3.704
 9423SOL    HW229169   2.962   6.929   3.741
 9424SOL     OW29170   5.030   1.313   4.588
 9424SOL    HW129171   4.957   1.344   4.649
 9424SOL    HW229172   5.068   1.228   4.622
 9425SOL     OW29173   6.063   3.136   0.546
 9425SOL    HW129174   6.132   3.195   0.588
 9425SOL    HW229175   5.979   3.189   0.531
 9426SOL     OW29176   3.849   1.669   6.146
 9426SOL    HW129177   3.878   1.764   6.157
 9426SOL    HW229178   3.750   1.663   6.159
 9427SOL     OW29179   2.587   4.885   3.278
 9427SOL    HW129180   2.565   4.955   3.347
 9427SOL    HW229181   2.508   4.826   3.264
 9428SOL     OW29182   6.663   1.071   0.966
 9428SOL    HW129183   6.692   1.132   1.040
 9428SOL    HW229184   6.600   1.003   1.002
 9429SOL     OW29185   2.114   3.663   2.755
 9429SOL    HW129186   2.131   3.612   2.839
 9429SOL    HW229187   2.068   3.604   2.689
 9430SOL     OW29188   0.674   4.119   3.224
 9430SOL    HW129189   0.750   4.161   3.273
 9430SOL    HW229190   0.642   4.182   3.152
 9431SOL     OW29191   6.305   3.745   0.922
 9431SOL    HW129192   6.327   3.770   1.016
 9431SOL    HW229193   6.371   3.789   0.860
 9432SOL     OW29194   5.376   0.441   3.472
 9432SOL    HW129195   5.350   0.486   3.386
 9432SOL    HW229196   5.322   0.480   3.547
 9433SOL     OW29197   2.877   5.949   2.900
 9433SOL    HW129198   2.962   5.994   2.927
 9433SOL    HW229199   2.828   5.919   2.982
 9434SOL     OW29200   4.981   5.379   2.839
 9434SOL    HW129201   4.985   5.433   2.755
 9434SOL    HW229202   5.019   5.288   2.824
 9435SOL     OW29203   0.193   2.403   5.129
 9435SOL    HW129204   0.165   2.368   5.218
 9435SOL    HW229205   0.172   2.335   5.059
 9436SOL     OW29206   1.427   2.659   1.221
 9436SOL    HW129207   1.519   2.622   1.212
 9436SOL    HW229208   1.385   2.669   1.131
 9437SOL     OW29209   0.976   6.120   2.822
 9437SOL    HW129210   0.991   6.217   2.840
 9437SOL    HW229211   1.046   6.086   2.759
 9438SOL     OW29212   0.095   0.176   1.639
 9438SOL    HW129213   0.127   0.234   1.564
 9438SOL    HW229214   0.118   0.218   1.727
 9439SOL     OW29215   0.570   3.665   1.210
 9439SOL    HW129216   0.536   3.754   1.239
 9439SOL    HW229217   0.669   3.671   1.195
 9440SOL     OW29218   3.858   4.841   3.183
 9440SOL    HW129219   3.939   4.789   3.156
 9440SOL    HW229220   3.852   4.843   3.283
 9441SOL     OW29221   6.733   3.886   5.449
 9441SOL    HW129222   6.643   3.882   5.492
 9441SOL    HW229223   6.769   3.979   5.456
 9442SOL     OW29224   4.927   3.412   0.912
 9442SOL    HW129225   4.884   3.501   0.900
 9442SOL    HW229226   5.018   3.412   0.870
 9443SOL     OW29227   2.254   5.213   0.750
 9443SOL    HW129228   2.336   5.259   0.716
 9443SOL    HW229229   2.237   5.132   0.694
 9444SOL     OW29230   1.386   3.081   0.476
 9444SOL    HW129231   1.447   3.133   0.415
 9444SOL    HW229232   1.308   3.047   0.423
 9445SOL     OW29233   6.151   3.168   3.255
 9445SOL    HW129234   6.055   3.185   3.233
 9445SOL    HW229235   6.206   3.248   3.232
 9446SOL     OW29236   5.825   5.825   3.560
 9446SOL    HW129237   5.872   5.741   3.533
 9446SOL    HW229238   5.729   5.806   3.580
 9447SOL     OW29239   6.156   4.049   3.448
 9447SOL    HW129240   6.162   4.110   3.370
 9447SOL    HW229241   6.135   4.102   3.530
 9448SOL     OW29242   0.670   0.290   6.908
 9448SOL    HW129243   0.591   0.317   6.853
 9448SOL    HW229244   0.702   0.368   6.961
 9449SOL     OW29245   6.322   6.714   0.631
 9449SOL    HW129246   6.339   6.809   0.657
 9449SOL    HW229247   6.407   6.663   0.633
 9450SOL     OW29248   2.047   5.421   4.847
 9450SOL    HW129249   2.022   5.444   4.941
 9450SOL    HW229250   2.120   5.482   4.816
 9451SOL     OW29251   3.960   0.071   6.000
 9451SOL    HW129252   4.003   0.018   5.928
 9451SOL    HW229253   4.009   0.158   6.012
 9452SOL     OW29254   1.620   3.798   0.548
 9452SOL    HW129255   1.683   3.733   0.591
 9452SOL    HW229256   1.587   3.863   0.616
 9453SOL     OW29257   2.448   5.032   3.458
 9453SOL    HW129258   2.429   5.128   3.440
 9453SOL    HW229259   2.372   4.992   3.508
 9454SOL     OW29260   3.492   3.604   6.388
 9454SOL    HW129261   3.537   3.665   6.453
 9454SOL    HW229262   3.418   3.555   6.434
 9455SOL     OW29263   2.729   1.703   3.596
 9455SOL    HW129264   2.727   1.646   3.678
 9455SOL    HW229265   2.758   1.648   3.518
 9456SOL     OW29266   0.120   3.417   1.083
 9456SOL    HW129267   0.195   3.378   1.136
 9456SOL    HW229268   0.035   3.409   1.135
 9457SOL     OW29269   1.841   3.387   5.294
 9457SOL    HW129270   1.916   3.441   5.333
 9457SOL    HW229271   1.827   3.305   5.349
 9458SOL     OW29272   1.171   2.901   0.295
 9458SOL    HW129273   1.121   2.986   0.310
 9458SOL    HW229274   1.210   2.900   0.203
 9459SOL     OW29275   5.278   4.383   3.855
 9459SOL    HW129276   5.335   4.302   3.871
 9459SOL    HW229277   5.336   4.464   3.851
 9460SOL     OW29278   1.139   3.602   3.664
 9460SOL    HW129279   1.178   3.690   3.691
 9460SOL    HW229280   1.082   3.566   3.738
 9461SOL     OW29281   0.007   1.700   1.476
 9461SOL    HW129282   0.017   1.793   1.512
 9461SOL    HW229283   6.997   1.705   1.380
 9462SOL     OW29284   2.138   4.000   3.243
 9462SOL    HW129285   2.044   4.031   3.254
 9462SOL    HW229286   2.143   3.901   3.258
 9463SOL     OW29287   6.245   0.531   1.844
 9463SOL    HW129288   6.248   0.458   1.913
 9463SOL    HW229289   6.154   0.535   1.804
 9464SOL     OW29290   6.073   0.632   0.543
 9464SOL    HW129291   6.164   0.646   0.582
 9464SOL    HW229292   6.040   0.540   0.567
 9465SOL     OW29293   1.810   4.506   2.293
 9465SOL    HW129294   1.713   4.516   2.269
 9465SOL    HW229295   1.834   4.409   2.295
 9466SOL     OW29296   3.627   4.414   5.792
 9466SOL    HW129297   3.562   4.385   5.722
 9466SOL    HW229298   3.659   4.334   5.843
 9467SOL     OW29299   1.651   2.496   2.410
 9467SOL    HW129300   1.585   2.571   2.404
 9467SOL    HW229301   1.742   2.533   2.430
 9468SOL     OW29302   5.588   4.006   6.289
 9468SOL    HW129303   5.548   4.026   6.200
 9468SOL    HW229304   5.687   3.995   6.281
 9469SOL     OW29305   6.539   5.393   1.745
 9469SOL    HW129306   6.475   5.386   1.669
 9469SOL    HW229307   6.625   5.347   1.720
 9470SOL     OW29308   5.261   3.206   5.966
 9470SOL    HW129309   5.232   3.287   6.017
 9470SOL    HW229310   5.203   3.129   5.991
 9471SOL     OW29311   6.748   2.006   4.420
 9471SOL    HW129312   6.743   1.962   4.330
 9471SOL    HW229313   6.666   2.061   4.435
 9472SOL     OW29314   6.693   2.979   5.251
 9472SOL    HW129315   6.634   3.059   5.256
 9472SOL    HW229316   6.781   3.000   5.296
 9473SOL     OW29317   2.328   5.150   6.903
 9473SOL    HW129318   2.259   5.196   6.846
 9473SOL    HW229319   2.419   5.175   6.870
 9474SOL     OW29320   0.315   2.661   0.099
 9474SOL    HW129321   0.230   2.684   0.147
 9474SOL    HW229322   0.307   2.571   0.057
 9475SOL     OW29323   3.620   3.416   6.663
 9475SOL    HW129324   3.582   3.336   6.617
 9475SOL    HW229325   3.625   3.400   6.761
 9476SOL     OW29326   3.627   4.141   4.732
 9476SOL    HW129327   3.643   4.238   4.753
 9476SOL    HW229328   3.532   4.128   4.704
 9477SOL     OW29329   0.725   3.351   1.241
 9477SOL    HW129330   0.689   3.262   1.216
 9477SOL    HW229331   0.654   3.404   1.287
 9478SOL     OW29332   4.833   3.020   0.316
 9478SOL    HW129333   4.839   3.118   0.301
 9478SOL    HW229334   4.836   3.000   0.414
 9479SOL     OW29335   4.061   6.086   6.716
 9479SOL    HW129336   4.015   6.081   6.627
 9479SOL    HW229337   3.996   6.063   6.788
 9480SOL     OW29338   5.662   4.428   0.442
 9480SOL    HW129339   5.656   4.478   0.355
 9480SOL    HW229340   5.748   4.378   0.446
 9481SOL     OW29341   4.806   2.885   2.151
 9481SOL    HW129342   4.737   2.815   2.168
 9481SOL    HW229343   4.783   2.935   2.068
 9482SOL     OW29344   0.486   1.620   3.441
 9482SOL    HW129345   0.402   1.594   3.489
 9482SOL    HW229346   0.482   1.718   3.419
 9483SOL     OW29347   1.900   1.328   1.398
 9483SOL    HW129348   1.834   1.314   1.324
 9483SOL    HW229349   1.972   1.389   1.367
 9484SOL     OW29350   4.281   0.369   3.965
 9484SOL    HW129351   4.362   0.398   4.017
 9484SOL    HW229352   4.226   0.308   4.021
 9485SOL     OW29353   0.347   0.939   0.759
 9485SOL    HW129354   0.417   1.000   0.724
 9485SOL    HW229355   0.276   0.992   0.805
 9486SOL     OW29356   3.826   6.562   1.363
 9486SOL    HW129357   3.864   6.471   1.352
 9486SOL    HW229358   3.751   6.575   1.297
 9487SOL     OW29359   3.778   3.656   3.848
 9487SOL    HW129360   3.857   3.710   3.818
 9487SOL    HW229361   3.708   3.717   3.884
 9488SOL     OW29362   2.401   6.622   1.112
 9488SOL    HW129363   2.352   6.702   1.147
 9488SOL    HW229364   2.493   6.620   1.150
 9489SOL     OW29365   4.769   4.328   1.593
 9489SOL    HW129366   4.687   4.360   1.640
 9489SOL    HW229367   4.844   4.394   1.607
 9490SOL     OW29368   6.492   4.846   1.986
 9490SOL    HW129369   6.470   4.748   1.989
 9490SOL    HW229370   6.567   4.866   2.049
 9491SOL     OW29371   5.809   4.993   4.203
 9491SOL    HW129372   5.731   4.954   4.252
 9491SOL    HW229373   5.789   5.089   4.180
 9492SOL     OW29374   3.709   2.879   3.805
 9492SOL    HW129375   3.623   2.886   3.856
 9492SOL    HW229376   3.777   2.833   3.862
 9493SOL     OW29377   3.303   5.655   4.256
 9493SOL    HW129378   3.244   5.663   4.176
 9493SOL    HW229379   3.360   5.573   4.246
 9494SOL     OW29380   5.002   3.429   2.256
 9494SOL    HW129381   4.988   3.345   2.203
 9494SOL    HW229382   5.063   3.490   2.206
 9495SOL     OW29383   6.551   2.079   3.573
 9495SOL    HW129384   6.627   2.021   3.544
 9495SOL    HW229385   6.468   2.052   3.524
 9496SOL     OW29386   6.432   3.891   1.503
 9496SOL    HW129387   6.491   3.957   1.550
 9496SOL    HW229388   6.352   3.938   1.466
 9497SOL     OW29389   5.724   6.263   6.054
 9497SOL    HW129390   5.642   6.301   6.011
 9497SOL    HW229391   5.699   6.183   6.108
 9498SOL     OW29392   4.095   6.892   4.622
 9498SOL    HW129393   4.082   6.802   4.664
 9498SOL    HW229394   4.031   6.902   4.546
 9499SOL     OW29395   2.584   5.403   6.364
 9499SOL    HW129396   2.545   5.492   6.340
 9499SOL    HW229397   2.521   5.355   6.424
 9500SOL     OW29398   5.154   0.136   0.737
 9500SOL    HW129399   5.152   0.158   0.835
 9500SOL    HW229400   5.169   0.038   0.725
 9501SOL     OW29401   3.099   1.260   4.428
 9501SOL    HW129402   3.181   1.316   4.414
 9501SOL    HW229403   3.046   1.297   4.504
 9502SOL     OW29404   5.213   2.963   4.968
 9502SOL    HW129405   5.133   3.005   4.925
 9502SOL    HW229406   5.292   2.973   4.909
 9503SOL     OW29407   0.366   1.623   1.156
 9503SOL    HW129408   0.369   1.716   1.192
 9503SOL    HW229409   0.275   1.584   1.172
 9504SOL     OW29410   0.238   2.522   0.743
 9504SOL    HW129411   0.305   2.565   0.803
 9504SOL    HW229412   0.173   2.468   0.798
 9505SOL     OW29413   4.797   4.523   3.478
 9505SOL    HW129414   4.753   4.578   3.549
 9505SOL    HW229415   4.729   4.494   3.412
 9506SOL     OW29416   0.909   1.844   6.253
 9506SOL    HW129417   0.835   1.816   6.315
 9506SOL    HW229418   0.982   1.887   6.305
 9507SOL     OW29419   1.029   2.075   3.372
 9507SOL    HW129420   0.950   2.073   3.312
 9507SOL    HW229421   1.110   2.101   3.319
 9508SOL     OW29422   6.536   2.598   0.857
 9508SOL    HW129423   6.505   2.525   0.796
 9508SOL    HW229424   6.497   2.685   0.827
 9509SOL     OW29425   0.896   0.862   4.012
 9509SOL    HW129426   0.910   0.764   4.019
 9509SOL    HW229427   0.837   0.882   3.934
 9510SOL     OW29428   1.447   3.668   3.132
 9510SOL    HW129429   1.361   3.652   3.083
 9510SOL    HW229430   1.492   3.749   3.093
 9511SOL     OW29431   1.438   0.540   0.532
 9511SOL    HW129432   1.374   0.474   0.493
 9511SOL    HW229433   1.393   0.629   0.541
 9512SOL     OW29434   6.106   1.779   1.763
 9512SOL    HW129435   6.146   1.727   1.838
 9512SOL    HW229436   6.090   1.873   1.793
 9513SOL     OW29437   2.259   3.966   6.695
 9513SOL    HW129438   2.300   4.007   6.777
 9513SOL    HW229439   2.318   3.893   6.661
 9514SOL     OW29440   2.454   5.210   5.930
 9514SOL    HW129441   2.485   5.156   6.008
 9514SOL    HW229442   2.514   5.194   5.852
 9515SOL     OW29443   2.193   5.672   1.187
 9515SOL    HW129444   2.251   5.749   1.163
 9515SOL    HW229445   2.177   5.673   1.286
 9516SOL     OW29446   5.387   4.388   5.549
 9516SOL    HW129447   5.469   4.354   5.502
 9516SOL    HW229448   5.370   4.332   5.630
 9517SOL     OW29449   1.904   5.007   1.139
 9517SOL    HW129450   1.952   5.090   1.113
 9517SOL    HW229451   1.946   4.928   1.094
 9518SOL     OW29452   2.248   2.171   6.919
 9518SOL    HW129453   2.211   2.093   6.969
 9518SOL    HW229454   2.206   2.175   6.829
 9519SOL     OW29455   3.879   3.468   4.875
 9519SOL    HW129456   3.804   3.501   4.932
 9519SOL    HW229457   3.957   3.530   4.884
 9520SOL     OW29458   1.836   1.504   3.413
 9520SOL    HW129459   1.789   1.568   3.352
 9520SOL    HW229460   1.780   1.422   3.425
 9521SOL     OW29461   4.988   5.505   1.563
 9521SOL    HW129462   4.893   5.515   1.532
 9521SOL    HW229463   5.004   5.410   1.588
 9522SOL     OW29464   3.178   5.513   1.347
 9522SOL    HW129465   3.199   5.419   1.374
 9522SOL    HW229466   3.151   5.515   1.251
 9523SOL     OW29467   2.637   4.641   5.242
 9523SOL    HW129468   2.630   4.560   5.301
 9523SOL    HW229469   2.695   4.620   5.163
 9524SOL     OW29470   3.723   3.212   1.120
 9524SOL    HW129471   3.753   3.304   1.096
 9524SOL    HW229472   3.625   3.212   1.138
 9525SOL     OW29473   2.455   2.736   5.509
 9525SOL    HW129474   2.427   2.729   5.413
 9525SOL    HW229475   2.476   2.645   5.544
 9526SOL     OW29476   6.022   5.127   1.675
 9526SOL    HW129477   5.956   5.051   1.679
 9526SOL    HW229478   6.104   5.102   1.725
 9527SOL     OW29479   0.568   0.453   4.244
 9527SOL    HW129480   0.551   0.409   4.332
 9527SOL    HW229481   0.513   0.408   4.173
 9528SOL     OW29482   6.680   1.497   0.441
 9528SOL    HW129483   6.696   1.584   0.487
 9528SOL    HW229484   6.645   1.430   0.506
 9529SOL     OW29485   6.476   3.531   6.108
 9529SOL    HW129486   6.392   3.565   6.065
 9529SOL    HW229487   6.551   3.535   6.042
 9530SOL     OW29488   1.553   4.498   2.179
 9530SOL    HW129489   1.520   4.405   2.196
 9530SOL    HW229490   1.545   4.520   2.082
 9531SOL     OW29491   4.176   5.064   2.813
 9531SOL    HW129492   4.238   5.086   2.888
 9531SOL    HW229493   4.211   5.103   2.728
 9532SOL     OW29494   6.143   0.051   1.969
 9532SOL    HW129495   6.050   0.053   1.930
 9532SOL    HW229496   6.194   6.993   1.928
 9533SOL     OW29497   0.099   6.049   5.740
 9533SOL    HW129498   7.016   6.043   5.729
 9533SOL    HW229499   0.120   6.070   5.836
 9534SOL     OW29500   0.308   4.092   4.906
 9534SOL    HW129501   0.366   4.062   4.831
 9534SOL    HW229502   0.355   4.164   4.958
 9535SOL     OW29503   1.973   1.232   6.269
 9535SOL    HW129504   2.053   1.203   6.322
 9535SOL    HW229505   1.942   1.321   6.301
 9536SOL     OW29506   2.790   4.005   5.658
 9536SOL    HW129507   2.833   3.950   5.586
 9536SOL    HW229508   2.730   3.948   5.713
 9537SOL     OW29509   2.855   6.601   3.258
 9537SOL    HW129510   2.884   6.686   3.213
 9537SOL    HW229511   2.849   6.528   3.189
 9538SOL     OW29512   5.745   2.155   3.463
 9538SOL    HW129513   5.818   2.122   3.402
 9538SOL    HW229514   5.786   2.188   3.549
 9539SOL     OW29515   2.719   3.928   5.282
 9539SOL    HW129516   2.783   3.881   5.343
 9539SOL    HW229517   2.744   3.910   5.187
 9540SOL     OW29518   5.906   4.150   4.338
 9540SOL    HW129519   5.979   4.084   4.359
 9540SOL    HW229520   5.926   4.194   4.250
 9541SOL     OW29521   4.047   0.332   5.815
 9541SOL    HW129522   4.060   0.364   5.909
 9541SOL    HW229523   4.027   0.411   5.756
 9542SOL     OW29524   5.246   4.518   4.684
 9542SOL    HW129525   5.254   4.457   4.605
 9542SOL    HW229526   5.164   4.495   4.737
 9543SOL     OW29527   3.692   0.889   5.263
 9543SOL    HW129528   3.789   0.902   5.240
 9543SOL    HW229529   3.652   0.977   5.289
 9544SOL     OW29530   6.909   1.681   3.799
 9544SOL    HW129531   6.916   1.612   3.727
 9544SOL    HW229532   6.938   1.641   3.886
 9545SOL     OW29533   5.769   5.295   4.310
 9545SOL    HW129534   5.708   5.238   4.365
 9545SOL    HW229535   5.857   5.304   4.356
 9546SOL     OW29536   3.769   2.310   5.459
 9546SOL    HW129537   3.675   2.331   5.433
 9546SOL    HW229538   3.779   2.318   5.558
 9547SOL     OW29539   2.079   6.294   4.553
 9547SOL    HW129540   2.136   6.360   4.602
 9547SOL    HW229541   2.063   6.214   4.611
 9548SOL     OW29542   6.509   5.553   6.239
 9548SOL    HW129543   6.412   5.562   6.261
 9548SOL    HW229544   6.564   5.568   6.321
 9549SOL     OW29545   2.556   2.992   1.088
 9549SOL    HW129546   2.478   2.942   1.125
 9549SOL    HW229547   2.639   2.969   1.140
 9550SOL     OW29548   0.736   1.297   0.328
 9550SOL    HW129549   0.831   1.326   0.340
 9550SOL    HW229550   0.683   1.324   0.408
 9551SOL     OW29551   5.803   1.084   4.525
 9551SOL    HW129552   5.888   1.095   4.473
 9551SOL    HW229553   5.803   0.995   4.571
 9552SOL     OW29554   1.684   6.783   3.426
 9552SOL    HW129555   1.739   6.708   3.463
 9552SOL    HW229556   1.735   6.869   3.433
 9553SOL     OW29557   6.088   4.058   6.681
 9553SOL    HW129558   6.044   4.075   6.593
 9553SOL    HW229559   6.129   3.966   6.680
 9554SOL     OW29560   2.324   0.195   1.273
 9554SOL    HW129561   2.286   0.198   1.366
 9554SOL    HW229562   2.285   0.118   1.224
 9555SOL     OW29563   0.979   1.361   2.945
 9555SOL    HW129564   0.987   1.458   2.925
 9555SOL    HW229565   1.057   1.332   3.002
 9556SOL     OW29566   1.872   2.589   1.634
 9556SOL    HW129567   1.951   2.608   1.691
 9556SOL    HW229568   1.812   2.523   1.680
 9557SOL     OW29569   0.300   0.367   2.955
 9557SOL    HW129570   0.211   0.363   2.910
 9557SOL    HW229571   0.303   0.299   3.029
 9558SOL     OW29572   6.100   6.318   4.441
 9558SOL    HW129573   6.195   6.287   4.445
 9558SOL    HW229574   6.042   6.244   4.408
 9559SOL     OW29575   0.552   4.245   1.023
 9559SOL    HW129576   0.618   4.202   1.084
 9559SOL    HW229577   0.600   4.304   0.958
 9560SOL     OW29578   1.401   2.056   3.470
 9560SOL    HW129579   1.375   1.961   3.488
 9560SOL    HW229580   1.390   2.075   3.372
 9561SOL     OW29581   1.821   6.311   0.412
 9561SOL    HW129582   1.887   6.245   0.448
 9561SOL    HW229583   1.825   6.395   0.465
 9562SOL     OW29584   3.382   0.174   5.876
 9562SOL    HW129585   3.423   0.195   5.964
 9562SOL    HW229586   3.341   0.257   5.838
 9563SOL     OW29587   6.451   0.177   0.938
 9563SOL    HW129588   6.514   0.140   0.870
 9563SOL    HW229589   6.503   0.206   1.018
 9564SOL     OW29590   2.891   0.450   0.127
 9564SOL    HW129591   2.886   0.411   0.219
 9564SOL    HW229592   2.828   0.401   0.067
 9565SOL     OW29593   4.031   6.617   4.696
 9565SOL    HW129594   3.979   6.653   4.774
 9565SOL    HW229595   4.091   6.543   4.727
 9566SOL     OW29596   1.998   4.862   0.111
 9566SOL    HW129597   1.917   4.837   0.057
 9566SOL    HW229598   2.076   4.875   0.050
 9567SOL     OW29599   5.881   4.632   6.733
 9567SOL    HW129600   5.858   4.712   6.789
 9567SOL    HW229601   5.928   4.564   6.789
 9568SOL     OW29602   4.615   2.361   6.510
 9568SOL    HW129603   4.549   2.295   6.474
 9568SOL    HW229604   4.575   2.453   6.506
 9569SOL     OW29605   0.170   1.026   2.736
 9569SOL    HW129606   0.079   1.047   2.701
 9569SOL    HW229607   0.181   0.927   2.745
 9570SOL     OW29608   1.259   3.228   2.303
 9570SOL    HW129609   1.276   3.248   2.207
 9570SOL    HW229610   1.181   3.166   2.311
 9571SOL     OW29611   2.785   3.981   6.599
 9571SOL    HW129612   2.694   3.964   6.559
 9571SOL    HW229613   2.855   3.943   6.539
 9572SOL     OW29614   1.894   5.882   2.211
 9572SOL    HW129615   1.949   5.931   2.143
 9572SOL    HW229616   1.941   5.797   2.237
 9573SOL     OW29617   1.263   0.598   6.559
 9573SOL    HW129618   1.276   0.570   6.464
 9573SOL    HW229619   1.239   0.695   6.562
 9574SOL     OW29620   3.873   3.291   4.228
 9574SOL    HW129621   3.857   3.389   4.213
 9574SOL    HW229622   3.893   3.247   4.141
 9575SOL     OW29623   6.036   1.769   1.159
 9575SOL    HW129624   6.110   1.711   1.125
 9575SOL    HW229625   5.965   1.712   1.199
 9576SOL     OW29626   2.534   0.330   2.541
 9576SOL    HW129627   2.509   0.425   2.562
 9576SOL    HW229628   2.476   0.296   2.467
 9577SOL     OW29629   1.564   0.697   4.600
 9577SOL    HW129630   1.507   0.706   4.682
 9577SOL    HW229631   1.553   0.778   4.543
 9578SOL     OW29632   0.940   3.952   3.431
 9578SOL    HW129633   0.871   4.012   3.471
 9578SOL    HW229634   1.013   3.936   3.497
 9579SOL     OW29635   1.788   5.028   2.938
 9579SOL    HW129636   1.821   5.091   3.008
 9579SOL    HW229637   1.853   4.952   2.929
 9580SOL     OW29638   4.216   2.907   0.922
 9580SOL    HW129639   4.292   2.842   0.925
 9580SOL    HW229640   4.165   2.895   0.837
 9581SOL     OW29641   0.871   5.435   6.632
 9581SOL    HW129642   0.936   5.477   6.568
 9581SOL    HW229643   0.828   5.506   6.688
 9582SOL     OW29644   4.722   4.720   4.921
 9582SOL    HW129645   4.800   4.729   4.860
 9582SOL    HW229646   4.684   4.628   4.914
 9583SOL     OW29647   3.643   4.951   1.167
 9583SOL    HW129648   3.595   5.024   1.120
 9583SOL    HW229649   3.731   4.935   1.123
 9584SOL     OW29650   6.751   6.441   0.185
 9584SOL    HW129651   6.752   6.413   0.089
 9584SOL    HW229652   6.845   6.461   0.215
 9585SOL     OW29653   6.422   0.442   3.742
 9585SOL    HW129654   6.324   0.424   3.755
 9585SOL    HW229655   6.457   0.493   3.821
 9586SOL     OW29656   5.734   3.831   2.717
 9586SOL    HW129657   5.655   3.791   2.764
 9586SOL    HW229658   5.702   3.895   2.647
 9587SOL     OW29659   6.660   1.072   2.555
 9587SOL    HW129660   6.598   1.111   2.623
 9587SOL    HW229661   6.635   0.977   2.537
 9588SOL     OW29662   0.263   1.928   2.498
 9588SOL    HW129663   0.354   1.955   2.530
 9588SOL    HW229664   0.238   1.983   2.418
 9589SOL     OW29665   2.706   5.374   5.447
 9589SOL    HW129666   2.662   5.441   5.387
 9589SOL    HW229667   2.671   5.386   5.540
 9590SOL     OW29668   0.615   4.176   2.143
 9590SOL    HW129669   0.544   4.143   2.080
 9590SOL    HW229670   0.589   4.153   2.237
 9591SOL     OW29671   3.050   6.072   0.076
 9591SOL    HW129672   2.952   6.059   0.092
 9591SOL    HW229673   3.093   5.982   0.062
 9592SOL     OW29674   3.515   4.279   1.335
 9592SOL    HW129675   3.467   4.198   1.367
 9592SOL    HW229676   3.449   4.350   1.310
 9593SOL     OW29677   6.884   0.003   4.549
 9593SOL    HW129678   6.859   6.987   4.640
 9593SOL    HW229679   6.968   6.975   4.519
 9594SOL     OW29680   1.509   6.244   3.236
 9594SOL    HW129681   1.609   6.244   3.242
 9594SOL    HW229682   1.476   6.338   3.235
 9595SOL     OW29683   1.945   4.421   5.186
 9595SOL    HW129684   1.949   4.345   5.250
 9595SOL    HW229685   1.960   4.388   5.093
 9596SOL     OW29686   0.316   6.150   0.331
 9596SOL    HW129687   0.409   6.128   0.300
 9596SOL    HW229688   0.256   6.160   0.251
 9597SOL     OW29689   0.411   4.907   0.746
 9597SOL    HW129690   0.383   4.975   0.679
 9597SOL    HW229691   0.505   4.926   0.776
 9598SOL     OW29692   0.896   3.680   5.348
 9598SOL    HW129693   0.825   3.736   5.305
 9598SOL    HW229694   0.970   3.666   5.283
 9599SOL     OW29695   3.454   0.640   5.449
 9599SOL    HW129696   3.496   0.605   5.365
 9599SOL    HW229697   3.515   0.623   5.527
 9600SOL     OW29698   2.600   6.587   0.388
 9600SOL    HW129699   2.700   6.587   0.391
 9600SOL    HW229700   2.569   6.626   0.301
 9601SOL     OW29701   6.379   4.012   6.926
 9601SOL    HW129702   6.320   3.990   7.004
 9601SOL    HW229703   6.399   4.110   6.926
 9602SOL     OW29704   6.694   4.800   6.713
 9602SOL    HW129705   6.627   4.754   6.654
 9602SOL    HW229706   6.785   4.766   6.692
 9603SOL     OW29707   3.434   1.048   4.826
 9603SOL    HW129708   3.409   1.055   4.730
 9603SOL    HW229709   3.533   1.061   4.836
 9604SOL     OW29710   4.733   0.531   0.683
 9604SOL    HW129711   4.761   0.546   0.777
 9604SOL    HW229712   4.813   0.508   0.627
 9605SOL     OW29713   0.804   4.831   4.521
 9605SOL    HW129714   0.830   4.784   4.437
 9605SOL    HW229715   0.884   4.841   4.581
 9606SOL     OW29716   1.624   6.016   5.316
 9606SOL    HW129717   1.583   6.102   5.286
 9606SOL    HW229718   1.723   6.026   5.319
 9607SOL     OW29719   1.352   2.272   1.865
 9607SOL    HW129720   1.431   2.333   1.854
 9607SOL    HW229721   1.268   2.321   1.844
 9608SOL     OW29722   6.387   6.146   1.630
 9608SOL    HW129723   6.386   6.214   1.703
 9608SOL    HW229724   6.331   6.178   1.554
 9609SOL     OW29725   1.976   4.041   5.891
 9609SOL    HW129726   1.943   3.990   5.971
 9609SOL    HW229727   1.990   3.979   5.815
 9610SOL     OW29728   1.507   4.530   4.047
 9610SOL    HW129729   1.511   4.608   4.110
 9610SOL    HW229730   1.589   4.474   4.058
 9611SOL     OW29731   0.487   0.128   0.127
 9611SOL    HW129732   0.545   0.062   0.176
 9611SOL    HW229733   0.497   0.114   0.029
 9612SOL     OW29734   6.472   3.050   1.175
 9612SOL    HW129735   6.408   3.052   1.098
 9612SOL    HW229736   6.474   2.959   1.214
 9613SOL     OW29737   3.859   6.638   3.307
 9613SOL    HW129738   3.838   6.635   3.404
 9613SOL    HW229739   3.779   6.672   3.257
 9614SOL     OW29740   3.821   2.621   1.004
 9614SOL    HW129741   3.794   2.647   0.911
 9614SOL    HW229742   3.846   2.524   1.006
 9615SOL     OW29743   0.887   0.080   2.126
 9615SOL    HW129744   0.933   0.020   2.060
 9615SOL    HW229745   0.839   0.025   2.194
 9616SOL     OW29746   4.620   3.262   0.454
 9616SOL    HW129747   4.608   3.207   0.371
 9616SOL    HW229748   4.565   3.345   0.448
 9617SOL     OW29749   0.875   3.893   4.606
 9617SOL    HW129750   0.970   3.917   4.626
 9617SOL    HW229751   0.847   3.933   4.519
 9618SOL     OW29752   4.921   0.229   6.151
 9618SOL    HW129753   4.929   0.201   6.247
 9618SOL    HW229754   5.002   0.199   6.102
 9619SOL     OW29755   1.104   0.511   0.302
 9619SOL    HW129756   1.011   0.475   0.315
 9619SOL    HW229757   1.169   0.454   0.353
 9620SOL     OW29758   5.799   1.715   6.671
 9620SOL    HW129759   5.741   1.671   6.602
 9620SOL    HW229760   5.859   1.646   6.712
 9621SOL     OW29761   1.640   1.534   2.971
 9621SOL    HW129762   1.545   1.526   2.938
 9621SOL    HW229763   1.682   1.444   2.973
 9622SOL     OW29764   6.185   1.294   6.870
 9622SOL    HW129765   6.096   1.255   6.898
 9622SOL    HW229766   6.200   1.379   6.920
 9623SOL     OW29767   3.918   5.310   5.644
 9623SOL    HW129768   3.831   5.278   5.607
 9623SOL    HW229769   3.986   5.313   5.570
 9624SOL     OW29770   5.662   4.174   3.658
 9624SOL    HW129771   5.593   4.156   3.588
 9624SOL    HW229772   5.666   4.097   3.722
 9625SOL     OW29773   5.297   5.140   6.938
 9625SOL    HW129774   5.264   5.057   6.894
 9625SOL    HW229775   5.370   5.117   7.002
 9626SOL     OW29776   2.103   6.015   5.889
 9626SOL    HW129777   2.202   6.011   5.876
 9626SOL    HW229778   2.068   6.102   5.854
 9627SOL     OW29779   6.825   4.024   4.451
 9627SOL    HW129780   6.876   3.977   4.378
 9627SOL    HW229781   6.884   4.032   4.532
 9628SOL     OW29782   6.072   4.292   0.318
 9628SOL    HW129783   6.109   4.301   0.410
 9628SOL    HW229784   6.050   4.383   0.282
 9629SOL     OW29785   6.438   6.051   2.539
 9629SOL    HW129786   6.513   6.003   2.585
 9629SOL    HW229787   6.419   6.007   2.452
 9630SOL     OW29788   6.666   6.076   5.471
 9630SOL    HW129789   6.681   5.982   5.501
 9630SOL    HW229790   6.646   6.134   5.550
 9631SOL     OW29791   5.182   1.759   0.527
 9631SOL    HW129792   5.137   1.731   0.612
 9631SOL    HW229793   5.139   1.712   0.450
 9632SOL     OW29794   2.255   5.561   1.670
 9632SOL    HW129795   2.181   5.540   1.733
 9632SOL    HW229796   2.342   5.561   1.719
 9633SOL     OW29797   4.020   4.341   0.415
 9633SOL    HW129798   4.052   4.253   0.450
 9633SOL    HW229799   3.943   4.327   0.352
 9634SOL     OW29800   6.818   6.246   3.823
 9634SOL    HW129801   6.819   6.292   3.912
 9634SOL    HW229802   6.880   6.168   3.825
 9635SOL     OW29803   2.255   4.449   5.327
 9635SOL    HW129804   2.283   4.542   5.349
 9635SOL    HW229805   2.331   4.399   5.286
 9636SOL     OW29806   4.524   1.585   6.308
 9636SOL    HW129807   4.458   1.520   6.347
 9636SOL    HW229808   4.566   1.546   6.226
 9637SOL     OW29809   3.741   2.448   0.232
 9637SOL    HW129810   3.787   2.537   0.239
 9637SOL    HW229811   3.713   2.418   0.323
 9638SOL     OW29812   0.253   3.062   5.551
 9638SOL    HW129813   0.256   3.162   5.546
 9638SOL    HW229814   0.200   3.034   5.631
 9639SOL     OW29815   4.312   2.281   2.180
 9639SOL    HW129816   4.392   2.224   2.162
 9639SOL    HW229817   4.332   2.345   2.254
 9640SOL     OW29818   3.258   0.649   2.634
 9640SOL    HW129819   3.236   0.556   2.603
 9640SOL    HW229820   3.238   0.714   2.562
 9641SOL     OW29821   5.671   5.398   1.552
 9641SOL    HW129822   5.739   5.397   1.625
 9641SOL    HW229823   5.598   5.464   1.575
 9642SOL     OW29824   1.323   5.644   4.129
 9642SOL    HW129825   1.305   5.725   4.185
 9642SOL    HW229826   1.407   5.599   4.160
 9643SOL     OW29827   5.033   4.289   3.540
 9643SOL    HW129828   5.132   4.286   3.545
 9643SOL    HW229829   5.003   4.379   3.508
 9644SOL     OW29830   1.331   5.501   5.606
 9644SOL    HW129831   1.286   5.413   5.621
 9644SOL    HW229832   1.269   5.562   5.555
 9645SOL     OW29833   3.090   4.829   4.080
 9645SOL    HW129834   3.041   4.821   4.167
 9645SOL    HW229835   3.053   4.763   4.015
 9646SOL     OW29836   2.453   4.774   1.812
 9646SOL    HW129837   2.362   4.732   1.816
 9646SOL    HW229838   2.448   4.860   1.762
 9647SOL     OW29839   0.114   6.367   2.310
 9647SOL    HW129840   0.207   6.365   2.273
 9647SOL    HW229841   0.114   6.415   2.398
 9648SOL     OW29842   3.942   2.544   6.671
 9648SOL    HW129843   3.863   2.590   6.630
 9648SOL    HW229844   3.989   2.490   6.601
 9649SOL     OW29845   1.994   4.152   6.839
 9649SOL    HW129846   1.939   4.234   6.820
 9649SOL    HW229847   1.982   4.086   6.766
 9650SOL     OW29848   4.764   5.044   3.353
 9650SOL    HW129849   4.671   5.029   3.386
 9650SOL    HW229850   4.769   5.128   3.299
 9651SOL     OW29851   5.361   1.686   1.214
 9651SOL    HW129852   5.393   1.769   1.259
 9651SOL    HW229853   5.305   1.633   1.277
 9652SOL     OW29854   1.575   4.826   1.843
 9652SOL    HW129855   1.494   4.830   1.785
 9652SOL    HW229856   1.656   4.853   1.791
 9653SOL     OW29857   5.172   5.425   4.941
 9653SOL    HW129858   5.253   5.445   4.997
 9653SOL    HW229859   5.193   5.351   4.878
 9654SOL     OW29860   3.463   3.145   3.110
 9654SOL    HW129861   3.404   3.130   3.189
 9654SOL    HW229862   3.443   3.234   3.069
 9655SOL     OW29863   0.292   1.600   0.290
 9655SOL    HW129864   0.197   1.574   0.276
 9655SOL    HW229865   0.298   1.679   0.351
 9656SOL     OW29866   4.201   2.307   0.917
 9656SOL    HW129867   4.223   2.404   0.910
 9656SOL    HW229868   4.214   2.264   0.827
 9657SOL     OW29869   5.370   3.289   2.806
 9657SOL    HW129870   5.386   3.372   2.752
 9657SOL    HW229871   5.453   3.266   2.856
 9658SOL     OW29872   5.143   1.748   2.340
 9658SOL    HW129873   5.223   1.687   2.343
 9658SOL    HW229874   5.076   1.717   2.407
 9659SOL     OW29875   0.335   3.559   0.057
 9659SOL    HW129876   0.369   3.492   0.123
 9659SOL    HW229877   0.391   3.555   6.991
 9660SOL     OW29878   0.697   6.795   2.885
 9660SOL    HW129879   0.797   6.802   2.893
 9660SOL    HW229880   0.661   6.750   2.967
 9661SOL     OW29881   3.351   6.213   1.336
 9661SOL    HW129882   3.321   6.231   1.429
 9661SOL    HW229883   3.341   6.116   1.315
 9662SOL     OW29884   3.674   2.988   5.935
 9662SOL    HW129885   3.597   2.929   5.958
 9662SOL    HW229886   3.759   2.948   5.970
 9663SOL     OW29887   6.293   6.276   2.343
 9663SOL    HW129888   6.353   6.353   2.322
 9663SOL    HW229889   6.325   6.230   2.426
 9664SOL     OW29890   5.588   5.197   4.495
 9664SOL    HW129891   5.595   5.261   4.571
 9664SOL    HW229892   5.608   5.104   4.527
 9665SOL     OW29893   6.121   5.948   6.392
 9665SOL    HW129894   6.158   5.906   6.310
 9665SOL    HW229895   6.157   6.041   6.401
 9666SOL     OW29896   6.598   4.019   2.262
 9666SOL    HW129897   6.574   4.045   2.168
 9666SOL    HW229898   6.595   4.100   2.320
 9667SOL     OW29899   4.283   3.076   6.758
 9667SOL    HW129900   4.251   3.006   6.822
 9667SOL    HW229901   4.237   3.065   6.671
 9668SOL     OW29902   0.075   0.692   6.178
 9668SOL    HW129903   0.128   0.655   6.254
 9668SOL    HW229904   0.075   0.792   6.183
 9669SOL     OW29905   2.117   0.024   1.899
 9669SOL    HW129906   2.152   6.947   1.905
 9669SOL    HW229907   2.056   0.042   1.976
 9670SOL     OW29908   6.970   4.903   5.536
 9670SOL    HW129909   6.994   4.874   5.629
 9670SOL    HW229910   6.979   5.002   5.530
 9671SOL     OW29911   0.022   4.159   6.941
 9671SOL    HW129912   6.945   4.185   6.966
 9671SOL    HW229913   0.050   4.079   6.994
 9672SOL     OW29914   1.712   5.308   3.254
 9672SOL    HW129915   1.745   5.297   3.348
 9672SOL    HW229916   1.676   5.222   3.221
 9673SOL     OW29917   4.259   3.780   1.243
 9673SOL    HW129918   4.193   3.820   1.179
 9673SOL    HW229919   4.298   3.852   1.300
 9674SOL     OW29920   3.313   6.880   3.101
 9674SOL    HW129921   3.364   6.795   3.091
 9674SOL    HW229922   3.215   6.860   3.101
 9675SOL     OW29923   5.548   2.479   6.719
 9675SOL    HW129924   5.558   2.574   6.750
 9675SOL    HW229925   5.615   2.422   6.766
 9676SOL     OW29926   1.773   3.416   5.684
 9676SOL    HW129927   1.836   3.364   5.742
 9676SOL    HW229928   1.821   3.495   5.645
 9677SOL     OW29929   6.869   5.657   4.710
 9677SOL    HW129930   6.875   5.751   4.677
 9677SOL    HW229931   6.796   5.609   4.663
 9678SOL     OW29932   2.991   3.874   3.706
 9678SOL    HW129933   3.034   3.855   3.794
 9678SOL    HW229934   2.903   3.825   3.701
 9679SOL     OW29935   3.281   1.166   2.984
 9679SOL    HW129936   3.209   1.099   3.001
 9679SOL    HW229937   3.255   1.224   2.907
 9680SOL     OW29938   4.368   0.953   3.332
 9680SOL    HW129939   4.442   0.887   3.320
 9680SOL    HW229940   4.315   0.960   3.247
 9681SOL     OW29941   2.946   1.845   0.772
 9681SOL    HW129942   3.022   1.812   0.828
 9681SOL    HW229943   2.947   1.945   0.769
 9682SOL     OW29944   4.720   4.308   3.710
 9682SOL    HW129945   4.757   4.394   3.745
 9682SOL    HW229946   4.622   4.318   3.693
 9683SOL     OW29947   3.289   6.115   1.935
 9683SOL    HW129948   3.244   6.071   1.857
 9683SOL    HW229949   3.338   6.046   1.988
 9684SOL     OW29950   0.633   3.228   6.419
 9684SOL    HW129951   0.733   3.223   6.424
 9684SOL    HW229952   0.605   3.323   6.410
 9685SOL     OW29953   3.691   4.285   0.965
 9685SOL    HW129954   3.721   4.229   1.043
 9685SOL    HW229955   3.608   4.335   0.991
 9686SOL     OW29956   0.552   2.767   6.760
 9686SOL    HW129957   0.546   2.710   6.678
 9686SOL    HW229958   0.461   2.782   6.797
 9687SOL     OW29959   1.205   0.640   4.138
 9687SOL    HW129960   1.130   0.611   4.078
 9687SOL    HW229961   1.168   0.673   4.224
 9688SOL     OW29962   1.056   2.841   1.316
 9688SOL    HW129963   1.015   2.757   1.351
 9688SOL    HW229964   0.984   2.910   1.303
 9689SOL     OW29965   0.883   4.511   6.320
 9689SOL    HW129966   0.895   4.476   6.227
 9689SOL    HW229967   0.871   4.434   6.383
 9690SOL     OW29968   6.169   5.408   6.690
 9690SOL    HW129969   6.142   5.498   6.724
 9690SOL    HW229970   6.087   5.359   6.660
 9691SOL     OW29971   3.535   5.072   1.402
 9691SOL    HW129972   3.477   5.014   1.460
 9691SOL    HW229973   3.583   5.016   1.336
 9692SOL     OW29974   3.889   6.152   2.240
 9692SOL    HW129975   3.839   6.119   2.160
 9692SOL    HW229976   3.871   6.250   2.253
 9693SOL     OW29977   5.543   3.983   2.572
 9693SOL    HW129978   5.481   3.913   2.537
 9693SOL    HW229979   5.601   4.016   2.498
 9694SOL     OW29980   3.019   1.365   0.865
 9694SOL    HW129981   3.083   1.440   0.847
 9694SOL    HW229982   2.927   1.401   0.877
 9695SOL     OW29983   7.016   3.355   3.181
 9695SOL    HW129984   0.090   3.313   3.194
 9695SOL    HW229985   0.001   3.411   3.099
 9696SOL     OW29986   5.435   3.039   1.449
 9696SOL    HW129987   5.473   2.967   1.391
 9696SOL    HW229988   5.340   3.056   1.423
 9697SOL     OW29989   0.437   5.048   6.893
 9697SOL    HW129990   0.479   5.084   6.810
 9697SOL    HW229991   0.421   4.950   6.883
 9698SOL     OW29992   5.158   1.821   6.264
 9698SOL    HW129993   5.114   1.762   6.332
 9698SOL    HW229994   5.088   1.869   6.211
 9699SOL     OW29995   6.442   5.540   6.607
 9699SOL    HW129996   6.404   5.523   6.698
 9699SOL    HW229997   6.436   5.637   6.586
 9700SOL     OW29998   4.851   5.699   4.841
 9700SOL    HW129999   4.812   5.791   4.828
 9700SOL    HW230000   4.811   5.636   4.775
 9701SOL     OW30001   3.978   4.617   5.953
 9701SOL    HW130002   3.963   4.524   5.921
 9701SOL    HW230003   4.064   4.652   5.915
 9702SOL     OW30004   4.499   0.605   6.685
 9702SOL    HW130005   4.552   0.591   6.769
 9702SOL    HW230006   4.403   0.622   6.708
 9703SOL     OW30007   4.784   4.035   3.877
 9703SOL    HW130008   4.708   4.000   3.932
 9703SOL    HW230009   4.871   4.012   3.922
 9704SOL     OW30010   3.482   0.050   1.882
 9704SOL    HW130011   3.505   0.134   1.932
 9704SOL    HW230012   3.547   6.995   1.906
 9705SOL     OW30013   5.641   4.300   5.434
 9705SOL    HW130014   5.659   4.205   5.409
 9705SOL    HW230015   5.723   4.339   5.477
 9706SOL     OW30016   2.217   3.109   0.777
 9706SOL    HW130017   2.135   3.090   0.830
 9706SOL    HW230018   2.288   3.145   0.837
 9707SOL     OW30019   6.104   4.662   2.181
 9707SOL    HW130020   6.027   4.726   2.186
 9707SOL    HW230021   6.188   4.708   2.211
 9708SOL     OW30022   1.415   1.844   4.087
 9708SOL    HW130023   1.349   1.801   4.025
 9708SOL    HW230024   1.381   1.838   4.181
 9709SOL     OW30025   5.115   6.200   2.904
 9709SOL    HW130026   5.096   6.221   2.808
 9709SOL    HW230027   5.064   6.262   2.962
 9710SOL     OW30028   6.805   1.438   1.045
 9710SOL    HW130029   6.837   1.528   1.017
 9710SOL    HW230030   6.873   1.394   1.104
 9711SOL     OW30031   3.683   5.313   6.020
 9711SOL    HW130032   3.678   5.277   6.113
 9711SOL    HW230033   3.687   5.413   6.024
 9712SOL     OW30034   5.227   3.997   6.214
 9712SOL    HW130035   5.227   4.034   6.307
 9712SOL    HW230036   5.314   4.017   6.169
 9713SOL     OW30037   1.685   4.493   2.988
 9713SOL    HW130038   1.724   4.549   2.915
 9713SOL    HW230039   1.622   4.548   3.042
 9714SOL     OW30040   4.413   6.248   6.687
 9714SOL    HW130041   4.402   6.165   6.742
 9714SOL    HW230042   4.338   6.311   6.708
 9715SOL     OW30043   5.759   4.542   0.107
 9715SOL    HW130044   5.752   4.471   0.036
 9715SOL    HW230045   5.670   4.555   0.150
 9716SOL     OW30046   3.651   4.729   6.737
 9716SOL    HW130047   3.748   4.705   6.739
 9716SOL    HW230048   3.597   4.646   6.723
 9717SOL     OW30049   5.699   6.159   5.742
 9717SOL    HW130050   5.623   6.107   5.782
 9717SOL    HW230051   5.758   6.097   5.690
 9718SOL     OW30052   4.858   3.282   0.336
 9718SOL    HW130053   4.912   3.363   0.356
 9718SOL    HW230054   4.775   3.283   0.392
 9719SOL     OW30055   6.651   1.055   5.510
 9719SOL    HW130056   6.603   1.065   5.598
 9719SOL    HW230057   6.589   1.078   5.435
 9720SOL     OW30058   0.224   5.175   2.239
 9720SOL    HW130059   0.236   5.214   2.331
 9720SOL    HW230060   0.312   5.143   2.205
 9721SOL     OW30061   0.300   1.837   0.401
 9721SOL    HW130062   0.317   1.879   0.490
 9721SOL    HW230063   0.270   1.907   0.336
 9722SOL     OW30064   4.397   0.876   4.512
 9722SOL    HW130065   4.396   0.910   4.418
 9722SOL    HW230066   4.487   0.837   4.532
 9723SOL     OW30067   3.028   6.854   3.130
 9723SOL    HW130068   3.010   6.775   3.071
 9723SOL    HW230069   3.005   6.938   3.081
 9724SOL     OW30070   1.251   4.367   0.282
 9724SOL    HW130071   1.210   4.381   0.192
 9724SOL    HW230072   1.313   4.443   0.303
 9725SOL     OW30073   4.941   5.300   5.696
 9725SOL    HW130074   4.970   5.209   5.668
 9725SOL    HW230075   4.877   5.337   5.629
 9726SOL     OW30076   5.150   1.484   3.943
 9726SOL    HW130077   5.119   1.393   3.915
 9726SOL    HW230078   5.070   1.541   3.964
 9727SOL     OW30079   1.003   2.687   6.960
 9727SOL    HW130080   0.977   2.692   0.040
 9727SOL    HW230081   1.099   2.661   6.953
 9728SOL     OW30082   1.368   0.222   5.457
 9728SOL    HW130083   1.339   0.130   5.432
 9728SOL    HW230084   1.376   0.278   5.375
 9729SOL     OW30085   1.137   4.563   3.072
 9729SOL    HW130086   1.185   4.602   2.993
 9729SOL    HW230087   1.040   4.555   3.051
 9730SOL     OW30088   1.180   4.053   3.565
 9730SOL    HW130089   1.134   4.050   3.654
 9730SOL    HW230090   1.256   3.989   3.566
 9731SOL     OW30091   5.118   4.237   1.168
 9731SOL    HW130092   5.037   4.231   1.111
 9731SOL    HW230093   5.091   4.253   1.263
 9732SOL     OW30094   6.704   5.569   2.475
 9732SOL    HW130095   6.774   5.596   2.410
 9732SOL    HW230096   6.747   5.531   2.557
 9733SOL     OW30097   5.673   5.263   0.059
 9733SOL    HW130098   5.591   5.210   0.039
 9733SOL    HW230099   5.699   5.250   0.155
 9734SOL     OW30100   6.339   1.837   1.021
 9734SOL    HW130101   6.329   1.738   1.015
 9734SOL    HW230102   6.317   1.868   1.114
 9735SOL     OW30103   2.057   3.574   3.918
 9735SOL    HW130104   2.014   3.490   3.950
 9735SOL    HW230105   2.012   3.605   3.835
 9736SOL     OW30106   6.021   1.827   6.434
 9736SOL    HW130107   5.936   1.774   6.438
 9736SOL    HW230108   6.081   1.798   6.509
 9737SOL     OW30109   5.643   2.946   3.259
 9737SOL    HW130110   5.717   2.914   3.318
 9737SOL    HW230111   5.585   3.010   3.309
 9738SOL     OW30112   2.086   0.451   0.341
 9738SOL    HW130113   2.088   0.379   0.410
 9738SOL    HW230114   2.045   0.534   0.380
 9739SOL     OW30115   5.860   5.485   1.364
 9739SOL    HW130116   5.835   5.485   1.267
 9739SOL    HW230117   5.778   5.469   1.419
 9740SOL     OW30118   6.767   1.579   3.471
 9740SOL    HW130119   6.701   1.533   3.411
 9740SOL    HW230120   6.793   1.518   3.545
 9741SOL     OW30121   3.957   1.411   2.776
 9741SOL    HW130122   3.904   1.412   2.691
 9741SOL    HW230123   3.927   1.487   2.834
 9742SOL     OW30124   4.691   1.144   0.494
 9742SOL    HW130125   4.761   1.185   0.553
 9742SOL    HW230126   4.619   1.211   0.476
 9743SOL     OW30127   6.880   3.066   4.695
 9743SOL    HW130128   6.845   3.111   4.778
 9743SOL    HW230129   6.827   3.096   4.616
 9744SOL     OW30130   1.819   7.001   1.972
 9744SOL    HW130131   1.840   0.081   1.984
 9744SOL    HW230132   1.845   6.950   2.055
 9745SOL     OW30133   5.431   2.647   6.425
 9745SOL    HW130134   5.387   2.726   6.469
 9745SOL    HW230135   5.483   2.596   6.493
 9746SOL     OW30136   6.404   0.316   5.293
 9746SOL    HW130137   6.406   0.256   5.212
 9746SOL    HW230138   6.313   0.359   5.299
 9747SOL     OW30139   2.725   1.146   1.720
 9747SOL    HW130140   2.702   1.136   1.623
 9747SOL    HW230141   2.816   1.109   1.737
 9748SOL     OW30142   0.112   0.893   3.334
 9748SOL    HW130143   0.124   0.900   3.433
 9748SOL    HW230144   0.126   0.983   3.292
 9749SOL     OW30145   2.679   0.388   4.506
 9749SOL    HW130146   2.756   0.441   4.542
 9749SOL    HW230147   2.639   0.334   4.580
 9750SOL     OW30148   6.026   4.076   2.964
 9750SOL    HW130149   6.037   4.086   2.865
 9750SOL    HW230150   5.932   4.045   2.984
 9751SOL     OW30151   2.086   1.149   0.347
 9751SOL    HW130152   2.032   1.066   0.362
 9751SOL    HW230153   2.055   1.221   0.409
 9752SOL     OW30154   4.570   2.319   5.027
 9752SOL    HW130155   4.512   2.316   4.946
 9752SOL    HW230156   4.568   2.412   5.066
 9753SOL     OW30157   6.845   5.464   5.860
 9753SOL    HW130158   6.880   5.376   5.827
 9753SOL    HW230159   6.920   5.529   5.868
 9754SOL     OW30160   1.947   0.331   0.094
 9754SOL    HW130161   2.006   0.348   0.015
 9754SOL    HW230162   1.986   0.375   0.175
 9755SOL     OW30163   3.482   3.647   4.345
 9755SOL    HW130164   3.402   3.588   4.356
 9755SOL    HW230165   3.555   3.617   4.406
 9756SOL     OW30166   5.885   3.549   6.986
 9756SOL    HW130167   5.855   3.550   0.065
 9756SOL    HW230168   5.985   3.551   6.983
 9757SOL     OW30169   5.668   3.868   3.505
 9757SOL    HW130170   5.708   3.865   3.597
 9757SOL    HW230171   5.694   3.953   3.461
 9758SOL     OW30172   2.564   0.105   6.716
 9758SOL    HW130173   2.489   0.056   6.761
 9758SOL    HW230174   2.633   0.130   6.784
 9759SOL     OW30175   1.439   0.263   0.249
 9759SOL    HW130176   1.394   0.203   0.183
 9759SOL    HW230177   1.529   0.288   0.216
 9760SOL     OW30178   5.130   3.006   5.522
 9760SOL    HW130179   5.160   3.092   5.482
 9760SOL    HW230180   5.101   2.943   5.450
 9761SOL     OW30181   6.587   1.591   2.160
 9761SOL    HW130182   6.606   1.588   2.258
 9761SOL    HW230183   6.497   1.634   2.145
 9762SOL     OW30184   3.566   1.367   4.312
 9762SOL    HW130185   3.584   1.325   4.401
 9762SOL    HW230186   3.644   1.350   4.251
 9763SOL     OW30187   4.875   1.785   2.196
 9763SOL    HW130188   4.972   1.806   2.211
 9763SOL    HW230189   4.819   1.855   2.242
 9764SOL     OW30190   0.212   2.911   3.158
 9764SOL    HW130191   0.187   2.959   3.075
 9764SOL    HW230192   0.304   2.871   3.148
 9765SOL     OW30193   6.891   0.319   2.915
 9765SOL    HW130194   6.867   0.242   2.974
 9765SOL    HW230195   6.858   0.404   2.956
 9766SOL     OW30196   2.734   6.867   2.298
 9766SOL    HW130197   2.654   6.825   2.343
 9766SOL    HW230198   2.804   6.887   2.367
 9767SOL     OW30199   3.968   0.907   5.214
 9767SOL    HW130200   4.018   0.862   5.287
 9767SOL    HW230201   3.952   0.842   5.139
 9768SOL     OW30202   5.877   1.512   2.439
 9768SOL    HW130203   5.968   1.491   2.404
 9768SOL    HW230204   5.828   1.427   2.459
 9769SOL     OW30205   4.138   1.225   3.433
 9769SOL    HW130206   4.210   1.275   3.480
 9769SOL    HW230207   4.158   1.224   3.334
 9770SOL     OW30208   4.602   0.728   6.479
 9770SOL    HW130209   4.555   0.689   6.558
 9770SOL    HW230210   4.535   0.750   6.408
 9771SOL     OW30211   2.463   6.135   0.088
 9771SOL    HW130212   2.408   6.062   0.046
 9771SOL    HW230213   2.531   6.167   0.022
 9772SOL     OW30214   2.033   6.230   1.817
 9772SOL    HW130215   1.960   6.268   1.759
 9772SOL    HW230216   2.119   6.230   1.766
 9773SOL     OW30217   4.981   5.598   4.032
 9773SOL    HW130218   4.911   5.553   3.977
 9773SOL    HW230219   4.971   5.697   4.024
 9774SOL     OW30220   0.492   4.996   1.981
 9774SOL    HW130221   0.545   5.079   1.964
 9774SOL    HW230222   0.477   4.987   2.080
 9775SOL     OW30223   2.544   0.674   3.422
 9775SOL    HW130224   2.454   0.657   3.460
 9775SOL    HW230225   2.608   0.604   3.454
 9776SOL     OW30226   1.025   4.326   4.854
 9776SOL    HW130227   1.049   4.371   4.940
 9776SOL    HW230228   0.952   4.259   4.872
 9777SOL     OW30229   6.865   6.015   0.028
 9777SOL    HW130230   6.809   6.048   6.969
 9777SOL    HW230231   6.818   6.032   0.114
 9778SOL     OW30232   0.124   1.170   4.153
 9778SOL    HW130233   0.068   1.208   4.080
 9778SOL    HW230234   0.089   1.080   4.178
 9779SOL     OW30235   1.107   1.308   4.158
 9779SOL    HW130236   1.076   1.230   4.105
 9779SOL    HW230237   1.207   1.315   4.153
 9780SOL     OW30238   2.547   2.256   1.455
 9780SOL    HW130239   2.619   2.323   1.441
 9780SOL    HW230240   2.551   2.187   1.382
 9781SOL     OW30241   2.141   3.736   4.155
 9781SOL    HW130242   2.076   3.698   4.221
 9781SOL    HW230243   2.127   3.694   4.066
 9782SOL     OW30244   0.182   1.435   0.898
 9782SOL    HW130245   0.099   1.396   0.938
 9782SOL    HW230246   0.262   1.390   0.938
 9783SOL     OW30247   4.031   2.239   2.799
 9783SOL    HW130248   3.958   2.269   2.859
 9783SOL    HW230249   3.993   2.210   2.711
 9784SOL     OW30250   3.310   1.435   4.783
 9784SOL    HW130251   3.347   1.526   4.801
 9784SOL    HW230252   3.234   1.442   4.718
 9785SOL     OW30253   0.538   2.605   6.123
 9785SOL    HW130254   0.561   2.659   6.204
 9785SOL    HW230255   0.542   2.508   6.145
 9786SOL     OW30256   2.015   4.266   0.177
 9786SOL    HW130257   2.045   4.209   0.254
 9786SOL    HW230258   1.919   4.246   0.157
 9787SOL     OW30259   4.200   3.992   1.790
 9787SOL    HW130260   4.189   3.894   1.806
 9787SOL    HW230261   4.297   4.012   1.774
 9788SOL     OW30262   0.781   0.875   3.724
 9788SOL    HW130263   0.730   0.791   3.741
 9788SOL    HW230264   0.733   0.929   3.654
 9789SOL     OW30265   1.684   5.224   0.829
 9789SOL    HW130266   1.784   5.219   0.826
 9789SOL    HW230267   1.651   5.284   0.756
 9790SOL     OW30268   6.629   4.481   6.757
 9790SOL    HW130269   6.619   4.515   6.664
 9790SOL    HW230270   6.686   4.544   6.810
 9791SOL     OW30271   0.528   1.537   2.194
 9791SOL    HW130272   0.618   1.500   2.218
 9791SOL    HW230273   0.533   1.579   2.103
 9792SOL     OW30274   4.450   4.878   0.547
 9792SOL    HW130275   4.424   4.831   0.463
 9792SOL    HW230276   4.390   4.850   0.622
 9793SOL     OW30277   4.119   6.451   2.777
 9793SOL    HW130278   4.065   6.376   2.815
 9793SOL    HW230279   4.058   6.516   2.730
 9794SOL     OW30280   0.206   4.514   6.994
 9794SOL    HW130281   0.114   4.487   6.963
 9794SOL    HW230282   0.249   4.437   0.024
 9795SOL     OW30283   2.143   1.599   4.337
 9795SOL    HW130284   2.126   1.540   4.259
 9795SOL    HW230285   2.215   1.559   4.394
 9796SOL     OW30286   3.689   2.559   1.459
 9796SOL    HW130287   3.722   2.525   1.547
 9796SOL    HW230288   3.681   2.482   1.395
 9797SOL     OW30289   2.433   5.453   0.169
 9797SOL    HW130290   2.437   5.548   0.200
 9797SOL    HW230291   2.503   5.438   0.099
 9798SOL     OW30292   2.675   0.737   1.792
 9798SOL    HW130293   2.708   0.644   1.776
 9798SOL    HW230294   2.711   0.798   1.722
 9799SOL     OW30295   3.338   2.929   4.495
 9799SOL    HW130296   3.315   2.907   4.590
 9799SOL    HW230297   3.429   2.895   4.474
 9800SOL     OW30298   3.586   5.880   5.003
 9800SOL    HW130299   3.514   5.948   5.018
 9800SOL    HW230300   3.560   5.822   4.926
 9801SOL     OW30301   4.725   3.893   6.954
 9801SOL    HW130302   4.700   3.974   7.007
 9801SOL    HW230303   4.695   3.905   6.859
 9802SOL     OW30304   0.004   4.026   1.336
 9802SOL    HW130305   0.087   4.043   1.283
 9802SOL    HW230306   6.957   3.971   1.281
 9803SOL     OW30307   1.006   2.324   6.841
 9803SOL    HW130308   1.032   2.350   6.934
 9803SOL    HW230309   0.908   2.307   6.838
 9804SOL     OW30310   1.807   6.714   2.538
 9804SOL    HW130311   1.837   6.647   2.606
 9804SOL    HW230312   1.721   6.684   2.497
 9805SOL     OW30313   1.775   0.056   3.880
 9805SOL    HW130314   1.715   0.121   3.833
 9805SOL    HW230315   1.782   0.082   3.977
 9806SOL     OW30316   1.108   0.756   0.210
 9806SOL    HW130317   1.103   0.665   0.252
 9806SOL    HW230318   1.115   0.825   0.282
 9807SOL     OW30319   2.562   4.562   0.430
 9807SOL    HW130320   2.610   4.484   0.390
 9807SOL    HW230321   2.628   4.620   0.478
 9808SOL     OW30322   4.198   0.192   5.461
 9808SOL    HW130323   4.147   0.114   5.497
 9808SOL    HW230324   4.261   0.161   5.390
 9809SOL     OW30325   1.088   2.223   6.390
 9809SOL    HW130326   1.011   2.248   6.449
 9809SOL    HW230327   1.054   2.196   6.300
 9810SOL     OW30328   1.938   2.578   4.003
 9810SOL    HW130329   1.887   2.631   4.070
 9810SOL    HW230330   1.912   2.482   4.010
 9811SOL     OW30331   5.257   4.677   3.484
 9811SOL    HW130332   5.279   4.614   3.410
 9811SOL    HW230333   5.310   4.761   3.474
 9812SOL     OW30334   3.294   2.266   5.912
 9812SOL    HW130335   3.268   2.293   5.819
 9812SOL    HW230336   3.232   2.194   5.944
 9813SOL     OW30337   5.395   1.290   0.727
 9813SOL    HW130338   5.352   1.264   0.813
 9813SOL    HW230339   5.446   1.376   0.739
 9814SOL     OW30340   6.958   0.295   6.929
 9814SOL    HW130341   0.023   0.335   6.970
 9814SOL    HW230342   6.984   0.213   6.877
 9815SOL     OW30343   5.372   4.324   3.569
 9815SOL    HW130344   5.367   4.326   3.469
 9815SOL    HW230345   5.456   4.367   3.600
 9816SOL     OW30346   6.872   0.953   6.038
 9816SOL    HW130347   6.965   0.943   6.073
 9816SOL    HW230348   6.870   0.931   5.941
 9817SOL     OW30349   3.042   0.072   2.983
 9817SOL    HW130350   3.124   0.129   2.984
 9817SOL    HW230351   3.003   0.071   2.891
 9818SOL     OW30352   1.653   1.243   4.716
 9818SOL    HW130353   1.691   1.191   4.640
 9818SOL    HW230354   1.581   1.303   4.683
 9819SOL     OW30355   4.867   3.210   3.696
 9819SOL    HW130356   4.828   3.118   3.706
 9819SOL    HW230357   4.882   3.249   3.787
 9820SOL     OW30358   4.437   3.452   6.492
 9820SOL    HW130359   4.428   3.362   6.451
 9820SOL    HW230360   4.421   3.445   6.591
 9821SOL     OW30361   5.288   0.763   6.926
 9821SOL    HW130362   5.222   0.688   6.918
 9821SOL    HW230363   5.274   0.827   6.851
 9822SOL     OW30364   2.476   6.365   3.714
 9822SOL    HW130365   2.402   6.309   3.675
 9822SOL    HW230366   2.441   6.416   3.792
 9823SOL     OW30367   2.580   1.055   6.680
 9823SOL    HW130368   2.501   1.035   6.737
 9823SOL    HW230369   2.582   1.153   6.660
 9824SOL     OW30370   1.965   4.976   4.429
 9824SOL    HW130371   2.010   4.902   4.378
 9824SOL    HW230372   2.029   5.051   4.442
 9825SOL     OW30373   5.362   5.778   4.698
 9825SOL    HW130374   5.280   5.725   4.718
 9825SOL    HW230375   5.358   5.811   4.603
 9826SOL     OW30376   4.164   5.263   5.459
 9826SOL    HW130377   4.148   5.362   5.456
 9826SOL    HW230378   4.237   5.242   5.523
 9827SOL     OW30379   1.638   4.209   3.845
 9827SOL    HW130380   1.565   4.269   3.813
 9827SOL    HW230381   1.603   4.115   3.851
 9828SOL     OW30382   2.572   2.278   5.426
 9828SOL    HW130383   2.516   2.340   5.372
 9828SOL    HW230384   2.662   2.270   5.384
 9829SOL     OW30385   4.509   5.016   6.343
 9829SOL    HW130386   4.558   5.103   6.338
 9829SOL    HW230387   4.448   5.008   6.264
 9830SOL     OW30388   5.197   1.698   1.895
 9830SOL    HW130389   5.291   1.676   1.870
 9830SOL    HW230390   5.194   1.792   1.931
 9831SOL     OW30391   1.399   5.036   2.103
 9831SOL    HW130392   1.498   5.019   2.104
 9831SOL    HW230393   1.351   4.952   2.126
 9832SOL     OW30394   4.762   5.415   2.539
 9832SOL    HW130395   4.781   5.401   2.442
 9832SOL    HW230396   4.711   5.337   2.575
 9833SOL     OW30397   3.222   3.510   4.283
 9833SOL    HW130398   3.160   3.439   4.250
 9833SOL    HW230399   3.195   3.598   4.245
 9834SOL     OW30400   2.479   4.309   5.246
 9834SOL    HW130401   2.573   4.316   5.277
 9834SOL    HW230402   2.456   4.213   5.228
 9835SOL     OW30403   4.000   3.638   5.250
 9835SOL    HW130404   4.077   3.617   5.190
 9835SOL    HW230405   4.034   3.650   5.344
 9836SOL     OW30406   6.794   4.302   3.457
 9836SOL    HW130407   6.837   4.219   3.493
 9836SOL    HW230408   6.764   4.360   3.533
 9837SOL     OW30409   3.684   0.307   2.033
 9837SOL    HW130410   3.690   0.250   2.116
 9837SOL    HW230411   3.588   0.325   2.012
 9838SOL     OW30412   1.745   6.754   0.798
 9838SOL    HW130413   1.752   6.657   0.822
 9838SOL    HW230414   1.798   6.807   0.864
 9839SOL     OW30415   5.157   6.951   3.734
 9839SOL    HW130416   5.100   0.012   3.708
 9839SOL    HW230417   5.119   6.867   3.695
 9840SOL     OW30418   5.615   2.094   1.224
 9840SOL    HW130419   5.671   2.068   1.145
 9840SOL    HW230420   5.660   2.062   1.308
 9841SOL     OW30421   1.531   4.336   5.317
 9841SOL    HW130422   1.463   4.346   5.390
 9841SOL    HW230423   1.500   4.267   5.252
 9842SOL     OW30424   3.660   2.917   1.589
 9842SOL    HW130425   3.714   2.999   1.571
 9842SOL    HW230426   3.564   2.935   1.568
 9843SOL     OW30427   6.808   0.156   2.025
 9843SOL    HW130428   6.739   0.201   2.083
 9843SOL    HW230429   6.810   0.201   1.936
 9844SOL     OW30430   6.652   1.205   3.107
 9844SOL    HW130431   6.698   1.293   3.113
 9844SOL    HW230432   6.554   1.217   3.127
 9845SOL     OW30433   1.975   2.608   3.539
 9845SOL    HW130434   2.014   2.553   3.465
 9845SOL    HW230435   2.038   2.609   3.616
 9846SOL     OW30436   3.656   2.330   1.300
 9846SOL    HW130437   3.702   2.242   1.289
 9846SOL    HW230438   3.645   2.373   1.210
 9847SOL     OW30439   3.884   2.959   3.249
 9847SOL    HW130440   3.796   2.919   3.223
 9847SOL    HW230441   3.876   3.000   3.340
 9848SOL     OW30442   3.681   3.580   5.084
 9848SOL    HW130443   3.590   3.621   5.082
 9848SOL    HW230444   3.748   3.647   5.117
 9849SOL     OW30445   0.635   6.894   6.079
 9849SOL    HW130446   0.686   6.814   6.109
 9849SOL    HW230447   0.557   6.866   6.023
 9850SOL     OW30448   6.287   0.101   3.909
 9850SOL    HW130449   6.242   0.042   3.977
 9850SOL    HW230450   6.293   0.053   3.822
 9851SOL     OW30451   0.137   6.962   4.444
 9851SOL    HW130452   0.168   6.944   4.537
 9851SOL    HW230453   0.207   6.934   4.379
 9852SOL     OW30454   3.296   1.419   4.355
 9852SOL    HW130455   3.283   1.501   4.410
 9852SOL    HW230456   3.393   1.405   4.337
 9853SOL     OW30457   5.254   4.109   4.932
 9853SOL    HW130458   5.279   4.036   4.995
 9853SOL    HW230459   5.299   4.194   4.959
 9854SOL     OW30460   6.803   5.930   4.625
 9854SOL    HW130461   6.766   5.962   4.712
 9854SOL    HW230462   6.874   5.993   4.594
 9855SOL     OW30463   1.917   3.299   1.303
 9855SOL    HW130464   1.817   3.301   1.308
 9855SOL    HW230465   1.956   3.320   1.393
 9856SOL     OW30466   4.672   4.302   4.982
 9856SOL    HW130467   4.668   4.223   4.922
 9856SOL    HW230468   4.631   4.382   4.936
 9857SOL     OW30469   4.889   3.327   2.530
 9857SOL    HW130470   4.837   3.411   2.515
 9857SOL    HW230471   4.976   3.333   2.481
 9858SOL     OW30472   6.664   6.984   1.119
 9858SOL    HW130473   6.757   6.958   1.094
 9858SOL    HW230474   6.653   0.066   1.108
 9859SOL     OW30475   6.073   6.231   2.739
 9859SOL    HW130476   6.014   6.309   2.716
 9859SOL    HW230477   6.169   6.259   2.730
 9860SOL     OW30478   1.719   2.269   3.941
 9860SOL    HW130479   1.727   2.201   3.869
 9860SOL    HW230480   1.765   2.354   3.913
 9861SOL     OW30481   2.842   0.383   2.929
 9861SOL    HW130482   2.845   0.412   2.834
 9861SOL    HW230483   2.933   0.388   2.969
 9862SOL     OW30484   2.952   2.837   6.774
 9862SOL    HW130485   2.872   2.813   6.828
 9862SOL    HW230486   2.931   2.917   6.716
 9863SOL     OW30487   3.496   6.588   1.989
 9863SOL    HW130488   3.435   6.666   2.003
 9863SOL    HW230489   3.589   6.614   2.015
 9864SOL     OW30490   3.066   0.417   3.890
 9864SOL    HW130491   3.093   0.494   3.833
 9864SOL    HW230492   3.137   0.346   3.884
 9865SOL     OW30493   1.402   6.774   4.673
 9865SOL    HW130494   1.462   6.724   4.735
 9865SOL    HW230495   1.455   6.806   4.595
 9866SOL     OW30496   5.487   4.671   6.368
 9866SOL    HW130497   5.568   4.713   6.408
 9866SOL    HW230498   5.454   4.728   6.292
 9867SOL     OW30499   6.960   1.658   0.972
 9867SOL    HW130500   6.954   1.641   0.874
 9867SOL    HW230501   0.022   1.716   0.991
 9868SOL     OW30502   0.417   3.365   4.335
 9868SOL    HW130503   0.501   3.414   4.357
 9868SOL    HW230504   0.434   3.299   4.262
 9869SOL     OW30505   0.491   2.386   1.309
 9869SOL    HW130506   0.587   2.361   1.320
 9869SOL    HW230507   0.437   2.349   1.385
 9870SOL     OW30508   4.265   5.406   2.817
 9870SOL    HW130509   4.331   5.343   2.856
 9870SOL    HW230510   4.274   5.496   2.861
 9871SOL     OW30511   6.379   4.677   5.664
 9871SOL    HW130512   6.444   4.751   5.681
 9871SOL    HW230513   6.318   4.668   5.742
 9872SOL     OW30514   3.056   5.578   5.227
 9872SOL    HW130515   3.151   5.609   5.223
 9872SOL    HW230516   3.004   5.638   5.287
 9873SOL     OW30517   2.694   2.441   0.903
 9873SOL    HW130518   2.705   2.506   0.978
 9873SOL    HW230519   2.637   2.364   0.932
 9874SOL     OW30520   6.242   3.405   5.391
 9874SOL    HW130521   6.266   3.367   5.480
 9874SOL    HW230522   6.301   3.483   5.371
 9875SOL     OW30523   6.083   5.735   2.033
 9875SOL    HW130524   6.016   5.712   2.104
 9875SOL    HW230525   6.034   5.770   1.953
 9876SOL     OW30526   5.316   0.457   4.104
 9876SOL    HW130527   5.362   0.541   4.077
 9876SOL    HW230528   5.372   0.378   4.076
 9877SOL     OW30529   6.255   4.640   4.191
 9877SOL    HW130530   6.327   4.708   4.178
 9877SOL    HW230531   6.217   4.648   4.284
 9878SOL     OW30532   2.913   3.630   5.702
 9878SOL    HW130533   2.862   3.601   5.783
 9878SOL    HW230534   2.996   3.679   5.731
 9879SOL     OW30535   5.062   5.871   5.529
 9879SOL    HW130536   5.095   5.900   5.619
 9879SOL    HW230537   4.975   5.915   5.510
 9880SOL     OW30538   3.164   1.021   0.564
 9880SOL    HW130539   3.261   1.021   0.538
 9880SOL    HW230540   3.113   0.964   0.500
 9881SOL     OW30541   0.302   1.436   5.068
 9881SOL    HW130542   0.275   1.365   5.003
 9881SOL    HW230543   0.234   1.442   5.141
 9882SOL     OW30544   2.044   3.552   5.416
 9882SOL    HW130545   2.120   3.496   5.383
 9882SOL    HW230546   2.066   3.587   5.507
 9883SOL     OW30547   1.039   6.503   0.875
 9883SOL    HW130548   1.058   6.562   0.954
 9883SOL    HW230549   1.124   6.485   0.825
 9884SOL     OW30550   4.819   1.465   0.956
 9884SOL    HW130551   4.829   1.477   0.857
 9884SOL    HW230552   4.908   1.441   0.995
 9885SOL     OW30553   0.095   2.883   4.694
 9885SOL    HW130554   0.029   2.919   4.627
 9885SOL    HW230555   0.120   2.956   4.758
 9886SOL     OW30556   1.428   5.401   0.907
 9886SOL    HW130557   1.483   5.369   0.984
 9886SOL    HW230558   1.480   5.470   0.856
 9887SOL     OW30559   3.961   6.988   0.335
 9887SOL    HW130560   3.951   0.040   0.407
 9887SOL    HW230561   3.895   6.915   0.350
 9888SOL     OW30562   5.190   5.162   2.875
 9888SOL    HW130563   5.155   5.141   2.966
 9888SOL    HW230564   5.274   5.215   2.883
 9889SOL     OW30565   6.602   4.544   1.147
 9889SOL    HW130566   6.555   4.552   1.060
 9889SOL    HW230567   6.682   4.604   1.148
 9890SOL     OW30568   0.768   2.368   1.285
 9890SOL    HW130569   0.864   2.342   1.286
 9890SOL    HW230570   0.742   2.400   1.376
 9891SOL     OW30571   6.060   3.388   1.403
 9891SOL    HW130572   6.092   3.467   1.454
 9891SOL    HW230573   6.014   3.420   1.319
 9892SOL     OW30574   1.127   5.703   2.729
 9892SOL    HW130575   1.200   5.691   2.796
 9892SOL    HW230576   1.044   5.732   2.776
 9893SOL     OW30577   6.397   0.453   2.348
 9893SOL    HW130578   6.463   0.503   2.403
 9893SOL    HW230579   6.402   0.356   2.370
 9894SOL     OW30580   3.027   2.226   6.517
 9894SOL    HW130581   2.972   2.277   6.584
 9894SOL    HW230582   2.989   2.240   6.426
 9895SOL     OW30583   5.376   3.238   5.321
 9895SOL    HW130584   5.334   3.158   5.278
 9895SOL    HW230585   5.428   3.290   5.253
 9896SOL     OW30586   4.952   1.258   0.594
 9896SOL    HW130587   5.046   1.237   0.568
 9896SOL    HW230588   4.938   1.357   0.596
 9897SOL     OW30589   5.326   6.795   2.242
 9897SOL    HW130590   5.348   6.882   2.198
 9897SOL    HW230591   5.236   6.764   2.211
 9898SOL     OW30592   0.796   4.560   5.462
 9898SOL    HW130593   0.820   4.558   5.560
 9898SOL    HW230594   0.734   4.637   5.445
 9899SOL     OW30595   0.479   5.535   2.591
 9899SOL    HW130596   0.467   5.604   2.520
 9899SOL    HW230597   0.404   5.542   2.657
 9900SOL     OW30598   2.029   3.510   2.532
 9900SOL    HW130599   2.057   3.529   2.438
 9900SOL    HW230600   1.936   3.543   2.547
 9901SOL     OW30601   2.481   1.076   0.094
 9901SOL    HW130602   2.515   1.165   0.064
 9901SOL    HW230603   2.410   1.089   0.163
 9902SOL     OW30604   4.152   4.180   1.216
 9902SOL    HW130605   4.243   4.150   1.190
 9902SOL    HW230606   4.134   4.155   1.311
 9903SOL     OW30607   5.251   1.193   1.710
 9903SOL    HW130608   5.208   1.137   1.782
 9903SOL    HW230609   5.193   1.192   1.629
 9904SOL     OW30610   0.260   3.420   6.661
 9904SOL    HW130611   0.264   3.518   6.644
 9904SOL    HW230612   0.187   3.399   6.726
 9905SOL     OW30613   1.332   0.523   6.266
 9905SOL    HW130614   1.320   0.430   6.233
 9905SOL    HW230615   1.422   0.557   6.240
 9906SOL     OW30616   1.990   3.548   0.186
 9906SOL    HW130617   1.965   3.613   0.115
 9906SOL    HW230618   1.909   3.522   0.239
 9907SOL     OW30619   1.366   0.851   2.579
 9907SOL    HW130620   1.346   0.849   2.677
 9907SOL    HW230621   1.315   0.778   2.533
 9908SOL     OW30622   0.978   2.623   5.910
 9908SOL    HW130623   0.940   2.598   5.821
 9908SOL    HW230624   1.063   2.674   5.897
 9909SOL     OW30625   3.867   0.817   2.838
 9909SOL    HW130626   3.782   0.788   2.881
 9909SOL    HW230627   3.847   0.868   2.754
 9910SOL     OW30628   1.561   5.125   1.612
 9910SOL    HW130629   1.610   5.169   1.687
 9910SOL    HW230630   1.609   5.042   1.585
 9911SOL     OW30631   3.753   5.654   2.209
 9911SOL    HW130632   3.721   5.566   2.173
 9911SOL    HW230633   3.698   5.679   2.289
 9912SOL     OW30634   4.904   1.430   2.087
 9912SOL    HW130635   4.812   1.401   2.060
 9912SOL    HW230636   4.939   1.496   2.020
 9913SOL     OW30637   6.105   2.772   1.138
 9913SOL    HW130638   6.051   2.690   1.119
 9913SOL    HW230639   6.052   2.854   1.118
 9914SOL     OW30640   0.245   6.868   5.291
 9914SOL    HW130641   0.323   6.832   5.239
 9914SOL    HW230642   0.197   6.793   5.337
 9915SOL     OW30643   5.369   2.327   3.717
 9915SOL    HW130644   5.346   2.237   3.680
 9915SOL    HW230645   5.465   2.329   3.743
 9916SOL     OW30646   1.677   2.054   3.763
 9916SOL    HW130647   1.671   2.093   3.671
 9916SOL    HW230648   1.622   1.971   3.767
 9917SOL     OW30649   3.433   3.634   5.000
 9917SOL    HW130650   3.395   3.554   5.046
 9917SOL    HW230651   3.433   3.619   4.901
 9918SOL     OW30652   0.911   2.789   1.988
 9918SOL    HW130653   1.008   2.797   2.012
 9918SOL    HW230654   0.899   2.800   1.890
 9919SOL     OW30655   2.356   5.990   2.353
 9919SOL    HW130656   2.272   6.045   2.353
 9919SOL    HW230657   2.342   5.909   2.296
 9920SOL     OW30658   4.055   0.650   2.824
 9920SOL    HW130659   3.970   0.702   2.834
 9920SOL    HW230660   4.124   0.707   2.781
 9921SOL     OW30661   4.534   0.057   4.950
 9921SOL    HW130662   4.489   0.108   4.876
 9921SOL    HW230663   4.632   0.073   4.945
 9922SOL     OW30664   5.057   4.516   1.528
 9922SOL    HW130665   5.093   4.423   1.529
 9922SOL    HW230666   5.100   4.570   1.601
 9923SOL     OW30667   6.214   3.128   0.055
 9923SOL    HW130668   6.302   3.166   0.029
 9923SOL    HW230669   6.216   3.099   0.150
 9924SOL     OW30670   4.679   1.562   2.934
 9924SOL    HW130671   4.611   1.517   2.992
 9924SOL    HW230672   4.675   1.661   2.948
 9925SOL     OW30673   1.235   4.935   3.404
 9925SOL    HW130674   1.207   4.881   3.483
 9925SOL    HW230675   1.316   4.989   3.429
 9926SOL     OW30676   3.926   2.953   0.656
 9926SOL    HW130677   3.893   2.982   0.746
 9926SOL    HW230678   3.859   2.979   0.587
 9927SOL     OW30679   1.202   1.377   1.235
 9927SOL    HW130680   1.153   1.294   1.262
 9927SOL    HW230681   1.299   1.356   1.224
 9928SOL     OW30682   5.446   3.577   3.033
 9928SOL    HW130683   5.474   3.498   3.087
 9928SOL    HW230684   5.352   3.564   3.001
 9929SOL     OW30685   3.018   3.848   4.384
 9929SOL    HW130686   3.016   3.833   4.285
 9929SOL    HW230687   2.971   3.772   4.430
 9930SOL     OW30688   0.567   0.339   6.181
 9930SOL    HW130689   0.475   0.314   6.151
 9930SOL    HW230690   0.613   0.259   6.220
 9931SOL     OW30691   0.003   5.970   4.135
 9931SOL    HW130692   6.933   6.013   4.159
 9931SOL    HW230693   7.011   5.925   4.046
 9932SOL     OW30694   2.691   1.886   6.034
 9932SOL    HW130695   2.695   1.944   6.116
 9932SOL    HW230696   2.783   1.869   6.001
 9933SOL     OW30697   1.529   0.332   3.784
 9933SOL    HW130698   1.443   0.302   3.744
 9933SOL    HW230699   1.531   0.310   3.881
 9934SOL     OW30700   6.077   1.882   6.996
 9934SOL    HW130701   6.074   1.792   6.953
 9934SOL    HW230702   6.154   1.934   6.959
 9935SOL     OW30703   3.388   0.623   0.485
 9935SOL    HW130704   3.320   0.622   0.559
 9935SOL    HW230705   3.361   0.557   0.415
 9936SOL     OW30706   6.318   4.864   0.612
 9936SOL    HW130707   6.224   4.847   0.641
 9936SOL    HW230708   6.367   4.912   0.685
 9937SOL     OW30709   1.009   1.562   2.133
 9937SOL    HW130710   1.014   1.571   2.034
 9937SOL    HW230711   1.086   1.505   2.165
 9938SOL     OW30712   5.888   6.497   4.342
 9938SOL    HW130713   5.946   6.422   4.376
 9938SOL    HW230714   5.860   6.555   4.418
 9939SOL     OW30715   3.420   2.839   0.503
 9939SOL    HW130716   3.406   2.757   0.447
 9939SOL    HW230717   3.454   2.913   0.446
 9940SOL     OW30718   1.377   0.374   2.522
 9940SOL    HW130719   1.325   0.392   2.439
 9940SOL    HW230720   1.455   0.436   2.527
 9941SOL     OW30721   2.921   5.635   5.678
 9941SOL    HW130722   2.926   5.550   5.730
 9941SOL    HW230723   2.845   5.690   5.712
 9942SOL     OW30724   4.177   5.712   2.518
 9942SOL    HW130725   4.117   5.719   2.439
 9942SOL    HW230726   4.246   5.642   2.501
 9943SOL     OW30727   0.881   4.311   6.519
 9943SOL    HW130728   0.843   4.227   6.481
 9943SOL    HW230729   0.946   4.290   6.592
 9944SOL     OW30730   0.785   4.794   6.330
 9944SOL    HW130731   0.804   4.696   6.325
 9944SOL    HW230732   0.867   4.845   6.307
 9945SOL     OW30733   4.947   4.683   6.543
 9945SOL    HW130734   5.009   4.748   6.587
 9945SOL    HW230735   4.984   4.657   6.454
 9946SOL     OW30736   6.502   0.375   3.344
 9946SOL    HW130737   6.445   0.293   3.342
 9946SOL    HW230738   6.507   0.414   3.252
 9947SOL     OW30739   3.184   2.137   4.624
 9947SOL    HW130740   3.234   2.206   4.676
 9947SOL    HW230741   3.089   2.135   4.654
 9948SOL     OW30742   6.598   5.423   5.010
 9948SOL    HW130743   6.558   5.333   5.029
 9948SOL    HW230744   6.694   5.413   4.986
 9949SOL     OW30745   6.780   5.214   3.429
 9949SOL    HW130746   6.847   5.289   3.422
 9949SOL    HW230747   6.802   5.159   3.509
 9950SOL     OW30748   6.360   5.822   6.772
 9950SOL    HW130749   6.362   5.896   6.839
 9950SOL    HW230750   6.278   5.767   6.787
 9951SOL     OW30751   1.096   2.574   3.367
 9951SOL    HW130752   1.046   2.497   3.407
 9951SOL    HW230753   1.134   2.546   3.279
 9952SOL     OW30754   2.197   3.654   0.859
 9952SOL    HW130755   2.188   3.566   0.813
 9952SOL    HW230756   2.158   3.726   0.802
 9953SOL     OW30757   5.775   2.610   3.820
 9953SOL    HW130758   5.752   2.669   3.898
 9953SOL    HW230759   5.862   2.640   3.780
 9954SOL     OW30760   1.186   6.994   4.714
 9954SOL    HW130761   1.255   6.933   4.677
 9954SOL    HW230762   1.231   0.053   4.762
 9955SOL     OW30763   3.644   3.690   6.603
 9955SOL    HW130764   3.739   3.700   6.633
 9955SOL    HW230765   3.619   3.593   6.602
 9956SOL     OW30766   0.876   4.264   3.402
 9956SOL    HW130767   0.968   4.286   3.371
 9956SOL    HW230768   0.869   4.280   3.500
 9957SOL     OW30769   6.136   0.621   2.586
 9957SOL    HW130770   6.067   0.693   2.591
 9957SOL    HW230771   6.096   0.534   2.613
 9958SOL     OW30772   2.600   6.207   6.686
 9958SOL    HW130773   2.658   6.148   6.631
 9958SOL    HW230774   2.558   6.277   6.628
 9959SOL     OW30775   4.109   3.588   3.254
 9959SOL    HW130776   4.136   3.498   3.221
 9959SOL    HW230777   4.107   3.652   3.176
 9960SOL     OW30778   0.997   6.916   1.963
 9960SOL    HW130779   1.087   6.889   1.928
 9960SOL    HW230780   0.936   6.837   1.961
 9961SOL     OW30781   1.448   5.203   3.724
 9961SOL    HW130782   1.433   5.178   3.628
 9961SOL    HW230783   1.502   5.131   3.769
 9962SOL     OW30784   3.959   0.345   2.380
 9962SOL    HW130785   3.865   0.365   2.407
 9962SOL    HW230786   4.022   0.377   2.451
 9963SOL     OW30787   2.740   2.593   5.595
 9963SOL    HW130788   2.695   2.504   5.581
 9963SOL    HW230789   2.707   2.633   5.680
 9964SOL     OW30790   4.363   5.225   5.958
 9964SOL    HW130791   4.295   5.172   6.009
 9964SOL    HW230792   4.429   5.265   6.023
 9965SOL     OW30793   3.570   4.992   5.231
 9965SOL    HW130794   3.473   4.981   5.254
 9965SOL    HW230795   3.619   4.909   5.256
 9966SOL     OW30796   2.046   5.303   2.427
 9966SOL    HW130797   2.093   5.364   2.492
 9966SOL    HW230798   1.948   5.304   2.445
 9967SOL     OW30799   5.100   5.706   2.167
 9967SOL    HW130800   5.166   5.663   2.229
 9967SOL    HW230801   5.140   5.790   2.130
 9968SOL     OW30802   3.153   5.553   6.872
 9968SOL    HW130803   3.056   5.530   6.880
 9968SOL    HW230804   3.180   5.612   6.948
 9969SOL     OW30805   0.968   2.921   3.842
 9969SOL    HW130806   0.902   2.866   3.895
 9969SOL    HW230807   0.950   2.910   3.745
 9970SOL     OW30808   6.860   4.221   2.195
 9970SOL    HW130809   6.939   4.278   2.217
 9970SOL    HW230810   6.782   4.249   2.251
 9971SOL     OW30811   2.526   4.175   0.400
 9971SOL    HW130812   2.584   4.256   0.383
 9971SOL    HW230813   2.523   4.119   0.317
 9972SOL     OW30814   3.549   4.243   0.415
 9972SOL    HW130815   3.473   4.233   0.479
 9972SOL    HW230816   3.580   4.153   0.386
 9973SOL     OW30817   3.974   1.681   5.278
 9973SOL    HW130818   3.970   1.610   5.207
 9973SOL    HW230819   4.057   1.736   5.265
 9974SOL     OW30820   6.624   3.523   3.180
 9974SOL    HW130821   6.700   3.584   3.158
 9974SOL    HW230822   6.660   3.434   3.209
 9975SOL     OW30823   0.362   4.766   6.893
 9975SOL    HW130824   0.322   4.680   6.925
 9975SOL    HW230825   0.301   4.807   6.825
 9976SOL     OW30826   6.387   5.188   5.257
 9976SOL    HW130827   6.454   5.135   5.309
 9976SOL    HW230828   6.395   5.165   5.160
 9977SOL     OW30829   6.728   5.209   5.423
 9977SOL    HW130830   6.666   5.281   5.394
 9977SOL    HW230831   6.676   5.129   5.451
 9978SOL     OW30832   6.583   1.596   4.394
 9978SOL    HW130833   6.591   1.692   4.421
 9978SOL    HW230834   6.486   1.571   4.388
 9979SOL     OW30835   6.547   4.668   6.199
 9979SOL    HW130836   6.611   4.616   6.255
 9979SOL    HW230837   6.527   4.617   6.115
 9980SOL     OW30838   1.522   0.637   6.716
 9980SOL    HW130839   1.589   0.665   6.648
 9980SOL    HW230840   1.430   0.644   6.678
 9981SOL     OW30841   2.425   2.129   1.249
 9981SOL    HW130842   2.356   2.123   1.177
 9981SOL    HW230843   2.516   2.130   1.207
 9982SOL     OW30844   1.091   1.880   2.987
 9982SOL    HW130845   1.181   1.915   3.014
 9982SOL    HW230846   1.056   1.934   2.910
 9983SOL     OW30847   1.214   1.307   1.719
 9983SOL    HW130848   1.116   1.308   1.697
 9983SOL    HW230849   1.264   1.359   1.650
 9984SOL     OW30850   0.771   0.586   1.035
 9984SOL    HW130851   0.735   0.497   1.009
 9984SOL    HW230852   0.786   0.641   0.954
 9985SOL     OW30853   3.364   0.468   0.956
 9985SOL    HW130854   3.461   0.490   0.964
 9985SOL    HW230855   3.319   0.534   0.897
 9986SOL     OW30856   4.471   4.164   6.210
 9986SOL    HW130857   4.379   4.165   6.248
 9986SOL    HW230858   4.535   4.129   6.278
 9987SOL     OW30859   5.269   2.148   2.476
 9987SOL    HW130860   5.295   2.178   2.384
 9987SOL    HW230861   5.282   2.049   2.484
 9988SOL     OW30862   0.155   5.557   4.663
 9988SOL    HW130863   0.147   5.568   4.763
 9988SOL    HW230864   0.065   5.538   4.624
 9989SOL     OW30865   5.201   3.567   2.923
 9989SOL    HW130866   5.111   3.609   2.933
 9989SOL    HW230867   5.212   3.536   2.829
 9990SOL     OW30868   2.302   6.947   3.211
 9990SOL    HW130869   2.396   6.911   3.216
 9990SOL    HW230870   2.286   7.008   3.288
 9991SOL     OW30871   1.134   3.183   4.543
 9991SOL    HW130872   1.131   3.282   4.531
 9991SOL    HW230873   1.227   3.154   4.567
 9992SOL     OW30874   4.669   3.595   0.300
 9992SOL    HW130875   4.614   3.563   0.378
 9992SOL    HW230876   4.638   3.686   0.273
 9993SOL     OW30877   4.187   6.780   2.565
 9993SOL    HW130878   4.105   6.723   2.567
 9993SOL    HW230879   4.196   6.829   2.651
 9994SOL     OW30880   6.338   4.048   4.281
 9994SOL    HW130881   6.400   4.127   4.285
 9994SOL    HW230882   6.280   4.047   4.362
 9995SOL     OW30883   3.276   0.292   2.999
 9995SOL    HW130884   3.206   0.362   3.014
 9995SOL    HW230885   3.351   0.305   3.064
 9996SOL     OW30886   3.241   2.485   1.168
 9996SOL    HW130887   3.217   2.488   1.265
 9996SOL    HW230888   3.157   2.485   1.114
 9997SOL     OW30889   4.795   1.770   1.049
 9997SOL    HW130890   4.815   1.693   0.989
 9997SOL    HW230891   4.811   1.743   1.145
 9998SOL     OW30892   6.099   3.630   2.208
 9998SOL    HW130893   6.195   3.630   2.236
 9998SOL    HW230894   6.050   3.558   2.258
 9999SOL     OW30895   6.179   4.652   4.475
 9999SOL    HW130896   6.111   4.647   4.548
 9999SOL    HW230897   6.261   4.698   4.510
10000SOL     OW30898   6.401   1.603   6.481
10000SOL    HW130899   6.385   1.516   6.526
10000SOL    HW230900   6.355   1.603   6.392
10001SOL     OW30901   5.358   0.806   1.829
10001SOL    HW130902   5.279   0.770   1.879
10001SOL    HW230903   5.417   0.857   1.891
10002SOL     OW30904   1.380   1.061   1.571
10002SOL    HW130905   1.384   1.161   1.576
10002SOL    HW230906   1.324   1.026   1.646
10003SOL     OW30907   3.868   2.018   3.497
10003SOL    HW130908   3.939   1.973   3.443
10003SOL    HW230909   3.794   2.049   3.437
10004SOL     OW30910   5.626   3.283   4.885
10004SOL    HW130911   5.622   3.187   4.912
10004SOL    HW230912   5.574   3.297   4.801
10005SOL     OW30913   4.667   5.689   2.963
10005SOL    HW130914   4.742   5.738   2.919
10005SOL    HW230915   4.627   5.746   3.034
10006SOL     OW30916   5.156   1.053   4.704
10006SOL    HW130917   5.136   0.955   4.705
10006SOL    HW230918   5.252   1.068   4.680
10007SOL     OW30919   0.840   4.163   4.948
10007SOL    HW130920   0.884   4.074   4.943
10007SOL    HW230921   0.809   4.180   5.041
10008SOL     OW30922   4.386   1.352   3.532
10008SOL    HW130923   4.377   1.307   3.621
10008SOL    HW230924   4.428   1.289   3.467
10009SOL     OW30925   1.706   3.191   1.917
10009SOL    HW130926   1.671   3.248   1.991
10009SOL    HW230927   1.686   3.235   1.829
10010SOL     OW30928   2.136   6.496   0.590
10010SOL    HW130929   2.139   6.595   0.576
10010SOL    HW230930   2.223   6.466   0.630
10011SOL     OW30931   0.384   2.440   5.425
10011SOL    HW130932   0.375   2.508   5.499
10011SOL    HW230933   0.480   2.417   5.414
10012SOL     OW30934   4.781   6.904   2.307
10012SOL    HW130935   4.842   6.873   2.380
10012SOL    HW230936   4.689   6.915   2.342
10013SOL     OW30937   2.119   1.747   4.780
10013SOL    HW130938   2.144   1.844   4.769
10013SOL    HW230939   2.143   1.718   4.873
10014SOL     OW30940   6.862   2.017   0.529
10014SOL    HW130941   6.837   2.114   0.525
10014SOL    HW230942   6.886   1.985   0.437
10015SOL     OW30943   2.892   4.431   0.834
10015SOL    HW130944   2.832   4.356   0.806
10015SOL    HW230945   2.843   4.517   0.829
10016SOL     OW30946   2.205   0.109   4.959
10016SOL    HW130947   2.140   0.039   4.990
10016SOL    HW230948   2.174   0.145   4.871
10017SOL     OW30949   1.870   1.894   2.374
10017SOL    HW130950   1.934   1.819   2.390
10017SOL    HW230951   1.921   1.979   2.361
10018SOL     OW30952   6.086   5.383   6.254
10018SOL    HW130953   6.124   5.327   6.182
10018SOL    HW230954   5.988   5.364   6.264
10019SOL     OW30955   0.979   2.340   3.460
10019SOL    HW130956   1.011   2.247   3.445
10019SOL    HW230957   0.953   2.352   3.556
10020SOL     OW30958   0.187   1.697   0.854
10020SOL    HW130959   0.153   1.715   0.761
10020SOL    HW230960   0.185   1.599   0.872
10021SOL     OW30961   0.941   2.756   1.716
10021SOL    HW130962   1.005   2.683   1.689
10021SOL    HW230963   0.971   2.843   1.676
10022SOL     OW30964   3.494   6.807   1.076
10022SOL    HW130965   3.451   6.886   1.119
10022SOL    HW230966   3.536   6.750   1.145
10023SOL     OW30967   2.026   5.376   5.717
10023SOL    HW130968   2.066   5.466   5.696
10023SOL    HW230969   2.097   5.316   5.753
10024SOL     OW30970   1.951   6.993   1.663
10024SOL    HW130971   1.881   0.046   1.645
10024SOL    HW230972   1.977   6.997   1.760
10025SOL     OW30973   1.473   1.361   1.221
10025SOL    HW130974   1.509   1.367   1.128
10025SOL    HW230975   1.532   1.303   1.277
10026SOL     OW30976   4.499   6.294   3.697
10026SOL    HW130977   4.447   6.283   3.781
10026SOL    HW230978   4.575   6.357   3.712
10027SOL     OW30979   0.832   4.465   5.145
10027SOL    HW130980   0.847   4.561   5.123
10027SOL    HW230981   0.734   4.446   5.150
10028SOL     OW30982   1.418   1.622   1.821
10028SOL    HW130983   1.507   1.662   1.840
10028SOL    HW230984   1.354   1.693   1.791
10029SOL     OW30985   3.322   1.836   3.664
10029SOL    HW130986   3.226   1.826   3.639
10029SOL    HW230987   3.335   1.808   3.760
10030SOL     OW30988   2.539   6.939   4.277
10030SOL    HW130989   2.554   6.990   4.193
10030SOL    HW230990   2.609   6.963   4.345
10031SOL     OW30991   5.790   4.932   3.517
10031SOL    HW130992   5.812   4.984   3.434
10031SOL    HW230993   5.692   4.914   3.520
10032SOL     OW30994   3.346   1.066   5.208
10032SOL    HW130995   3.428   1.088   5.260
10032SOL    HW230996   3.347   0.969   5.183
10033SOL     OW30997   4.847   2.389   4.241
10033SOL    HW130998   4.817   2.310   4.294
10033SOL    HW230999   4.795   2.394   4.156
10034SOL     OW31000   3.094   0.101   4.073
10034SOL    HW131001   3.081   0.198   4.094
10034SOL    HW231002   3.031   0.046   4.127
10035SOL     OW31003   0.301   4.471   2.151
10035SOL    HW131004   0.299   4.559   2.103
10035SOL    HW231005   0.396   4.446   2.170
10036SOL     OW31006   5.578   1.276   1.206
10036SOL    HW131007   5.664   1.322   1.228
10036SOL    HW231008   5.588   1.226   1.120
10037SOL     OW31009   5.800   1.636   1.243
10037SOL    HW131010   5.783   1.702   1.316
10037SOL    HW231011   5.764   1.547   1.269
10038SOL     OW31012   4.334   1.256   6.468
10038SOL    HW131013   4.403   1.200   6.422
10038SOL    HW231014   4.245   1.213   6.461
10039SOL     OW31015   3.058   0.317   4.535
10039SOL    HW131016   3.116   0.314   4.616
10039SOL    HW231017   3.085   0.243   4.473
10040SOL     OW31018   4.127   5.783   6.378
10040SOL    HW131019   4.144   5.800   6.281
10040SOL    HW231020   4.044   5.832   6.406
10041SOL     OW31021   4.478   5.812   6.123
10041SOL    HW131022   4.561   5.845   6.078
10041SOL    HW231023   4.503   5.751   6.198
10042SOL     OW31024   0.970   1.510   4.587
10042SOL    HW131025   0.992   1.473   4.497
10042SOL    HW231026   0.929   1.600   4.578
10043SOL     OW31027   6.467   2.013   4.740
10043SOL    HW131028   6.555   2.040   4.780
10043SOL    HW231029   6.451   2.065   4.656
10044SOL     OW31030   2.922   1.567   5.316
10044SOL    HW131031   2.981   1.568   5.396
10044SOL    HW231032   2.977   1.584   5.234
10045SOL     OW31033   3.868   0.003   3.398
10045SOL    HW131034   3.813   0.007   3.481
10045SOL    HW231035   3.811   0.021   3.318
10046SOL     OW31036   2.463   3.791   0.624
10046SOL    HW131037   2.390   3.736   0.664
10046SOL    HW231038   2.527   3.819   0.696
10047SOL     OW31039   0.195   3.791   5.545
10047SOL    HW131040   0.189   3.882   5.503
10047SOL    HW231041   0.286   3.753   5.529
10048SOL     OW31042   6.106   0.828   2.839
10048SOL    HW131043   6.197   0.849   2.803
10048SOL    HW231044   6.037   0.845   2.768
10049SOL     OW31045   0.295   1.212   6.743
10049SOL    HW131046   0.244   1.234   6.659
10049SOL    HW231047   0.371   1.276   6.753
10050SOL     OW31048   5.501   3.650   5.253
10050SOL    HW131049   5.542   3.709   5.183
10050SOL    HW231050   5.527   3.555   5.236
10051SOL     OW31051   5.670   3.689   5.956
10051SOL    HW131052   5.650   3.786   5.943
10051SOL    HW231053   5.598   3.647   6.011
10052SOL     OW31054   1.613   2.112   3.234
10052SOL    HW131055   1.644   2.185   3.173
10052SOL    HW231056   1.541   2.060   3.188
10053SOL     OW31057   3.983   5.765   3.154
10053SOL    HW131058   4.025   5.836   3.212
10053SOL    HW231059   3.955   5.688   3.211
10054SOL     OW31060   5.513   5.845   6.713
10054SOL    HW131061   5.529   5.747   6.700
10054SOL    HW231062   5.600   5.894   6.702
10055SOL     OW31063   5.632   1.407   4.826
10055SOL    HW131064   5.539   1.375   4.808
10055SOL    HW231065   5.634   1.455   4.913
10056SOL     OW31066   5.077   4.350   2.965
10056SOL    HW131067   5.027   4.366   3.050
10056SOL    HW231068   5.103   4.438   2.925
10057SOL     OW31069   4.415   2.598   5.509
10057SOL    HW131070   4.511   2.621   5.526
10057SOL    HW231071   4.367   2.680   5.477
10058SOL     OW31072   0.026   3.218   5.064
10058SOL    HW131073   6.998   3.289   5.119
10058SOL    HW231074   0.121   3.209   5.093
10059SOL     OW31075   6.616   0.918   0.645
10059SOL    HW131076   6.692   0.891   0.704
10059SOL    HW231077   6.623   0.870   0.557
10060SOL     OW31078   1.888   2.659   2.253
10060SOL    HW131079   1.977   2.699   2.277
10060SOL    HW231080   1.817   2.728   2.263
10061SOL     OW31081   4.618   1.038   4.112
10061SOL    HW131082   4.665   1.122   4.140
10061SOL    HW231083   4.609   1.036   4.013
10062SOL     OW31084   5.788   0.765   3.653
10062SOL    HW131085   5.828   0.730   3.738
10062SOL    HW231086   5.840   0.845   3.622
10063SOL     OW31087   2.871   0.898   4.208
10063SOL    HW131088   2.908   0.859   4.123
10063SOL    HW231089   2.792   0.845   4.238
10064SOL     OW31090   4.949   6.756   0.240
10064SOL    HW131091   4.886   6.807   0.298
10064SOL    HW231092   4.900   6.678   0.200
10065SOL     OW31093   3.401   0.358   2.780
10065SOL    HW131094   3.486   0.406   2.803
10065SOL    HW231095   3.352   0.335   2.864
10066SOL     OW31096   0.132   2.641   4.569
10066SOL    HW131097   0.115   2.734   4.601
10066SOL    HW231098   0.073   2.577   4.620
10067SOL     OW31099   0.439   3.866   5.285
10067SOL    HW131100   0.397   3.905   5.367
10067SOL    HW231101   0.452   3.937   5.217
10068SOL     OW31102   0.377   3.472   3.561
10068SOL    HW131103   0.324   3.392   3.533
10068SOL    HW231104   0.334   3.513   3.641
10069SOL     OW31105   3.171   5.477   2.211
10069SOL    HW131106   3.189   5.381   2.232
10069SOL    HW231107   3.135   5.483   2.117
10070SOL     OW31108   0.633   6.063   5.187
10070SOL    HW131109   0.570   6.116   5.130
10070SOL    HW231110   0.604   6.069   5.283
10071SOL     OW31111   6.534   6.174   4.653
10071SOL    HW131112   6.619   6.196   4.607
10071SOL    HW231113   6.458   6.180   4.588
10072SOL     OW31114   6.605   6.318   4.242
10072SOL    HW131115   6.581   6.347   4.150
10072SOL    HW231116   6.646   6.395   4.292
10073SOL     OW31117   6.210   5.071   3.757
10073SOL    HW131118   6.129   5.020   3.728
10073SOL    HW231119   6.262   5.016   3.824
10074SOL     OW31120   2.130   0.394   5.568
10074SOL    HW131121   2.160   0.305   5.535
10074SOL    HW231122   2.038   0.414   5.533
10075SOL     OW31123   1.861   2.684   2.580
10075SOL    HW131124   1.840   2.761   2.519
10075SOL    HW231125   1.809   2.695   2.665
10076SOL     OW31126   6.103   6.403   3.909
10076SOL    HW131127   6.027   6.346   3.940
10076SOL    HW231128   6.161   6.426   3.987
10077SOL     OW31129   4.320   3.125   0.058
10077SOL    HW131130   4.298   3.143   6.979
10077SOL    HW231131   4.311   3.027   0.076
10078SOL     OW31132   6.839   5.632   4.034
10078SOL    HW131133   6.796   5.703   3.978
10078SOL    HW231134   6.811   5.542   4.001
10079SOL     OW31135   5.888   2.855   3.409
10079SOL    HW131136   5.922   2.880   3.318
10079SOL    HW231137   5.960   2.873   3.477
10080SOL     OW31138   5.123   0.484   5.756
10080SOL    HW131139   5.201   0.486   5.818
10080SOL    HW231140   5.151   0.517   5.666
10081SOL     OW31141   0.109   1.127   0.240
10081SOL    HW131142   0.185   1.133   0.175
10081SOL    HW231143   0.105   1.034   0.278
10082SOL     OW31144   0.576   5.446   1.475
10082SOL    HW131145   0.610   5.367   1.423
10082SOL    HW231146   0.649   5.513   1.486
10083SOL     OW31147   4.065   0.558   3.622
10083SOL    HW131148   4.132   0.560   3.697
10083SOL    HW231149   4.103   0.604   3.542
10084SOL     OW31150   1.923   0.182   5.955
10084SOL    HW131151   2.002   0.125   5.933
10084SOL    HW231152   1.952   0.278   5.960
10085SOL     OW31153   3.033   6.338   0.875
10085SOL    HW131154   3.058   6.269   0.943
10085SOL    HW231155   3.091   6.419   0.888
10086SOL     OW31156   5.388   6.316   2.320
10086SOL    HW131157   5.399   6.350   2.414
10086SOL    HW231158   5.475   6.324   2.272
10087SOL     OW31159   6.402   5.648   3.902
10087SOL    HW131160   6.305   5.671   3.899
10087SOL    HW231161   6.439   5.648   3.809
10088SOL     OW31162   6.958   6.623   2.076
10088SOL    HW131163   7.012   6.548   2.112
10088SOL    HW231164   6.943   6.691   2.148
10089SOL     OW31165   2.668   2.012   3.566
10089SOL    HW131166   2.594   2.014   3.634
10089SOL    HW231167   2.685   1.918   3.537
10090SOL     OW31168   0.628   5.215   1.914
10090SOL    HW131169   0.670   5.204   1.824
10090SOL    HW231170   0.694   5.188   1.984
10091SOL     OW31171   6.904   5.400   6.191
10091SOL    HW131172   6.841   5.377   6.117
10091SOL    HW231173   6.851   5.417   6.275
10092SOL     OW31174   2.591   2.926   5.637
10092SOL    HW131175   2.541   2.849   5.599
10092SOL    HW231176   2.540   2.964   5.714
10093SOL     OW31177   4.944   3.156   5.335
10093SOL    HW131178   4.992   3.207   5.407
10093SOL    HW231179   5.002   3.150   5.254
10094SOL     OW31180   3.061   5.607   1.559
10094SOL    HW131181   3.151   5.621   1.601
10094SOL    HW231182   3.072   5.569   1.467
10095SOL     OW31183   5.545   1.684   4.386
10095SOL    HW131184   5.559   1.656   4.480
10095SOL    HW231185   5.589   1.619   4.324
10096SOL     OW31186   3.808   5.728   2.943
10096SOL    HW131187   3.877   5.729   3.015
10096SOL    HW231188   3.833   5.659   2.874
10097SOL     OW31189   1.543   1.871   0.047
10097SOL    HW131190   1.563   1.805   0.119
10097SOL    HW231191   1.472   1.835   7.004
10098SOL     OW31192   3.333   6.960   5.231
10098SOL    HW131193   3.246   6.913   5.248
10098SOL    HW231194   3.388   6.960   5.315
10099SOL     OW31195   1.138   5.081   1.793
10099SOL    HW131196   1.194   5.011   1.749
10099SOL    HW231197   1.042   5.068   1.767
10100SOL     OW31198   5.081   5.988   5.758
10100SOL    HW131199   5.090   5.899   5.802
10100SOL    HW231200   5.036   6.052   5.821
10101SOL     OW31201   6.307   3.028   2.079
10101SOL    HW131202   6.322   3.122   2.047
10101SOL    HW231203   6.373   2.967   2.036
10102SOL     OW31204   6.806   1.466   2.058
10102SOL    HW131205   6.727   1.517   2.093
10102SOL    HW231206   6.874   1.455   2.130
10103SOL     OW31207   2.917   0.645   5.781
10103SOL    HW131208   2.920   0.550   5.749
10103SOL    HW231209   2.889   0.705   5.707
10104SOL     OW31210   1.302   2.124   5.048
10104SOL    HW131211   1.382   2.091   4.998
10104SOL    HW231212   1.244   2.046   5.073
10105SOL     OW31213   1.974   0.426   6.123
10105SOL    HW131214   1.931   0.483   6.193
10105SOL    HW231215   1.989   0.334   6.160
10106SOL     OW31216   3.991   6.622   1.082
10106SOL    HW131217   3.913   6.584   1.032
10106SOL    HW231218   4.059   6.655   1.016
10107SOL     OW31219   5.219   1.509   5.522
10107SOL    HW131220   5.247   1.425   5.477
10107SOL    HW231221   5.150   1.488   5.592
10108SOL     OW31222   6.619   0.836   0.378
10108SOL    HW131223   6.529   0.834   0.335
10108SOL    HW231224   6.637   0.748   0.421
10109SOL     OW31225   6.946   1.232   0.406
10109SOL    HW131226   7.012   1.204   0.337
10109SOL    HW231227   6.858   1.186   0.388
10110SOL     OW31228   5.021   4.965   3.849
10110SOL    HW131229   4.953   4.917   3.905
10110SOL    HW231230   5.113   4.938   3.878
10111SOL     OW31231   6.169   3.703   3.788
10111SOL    HW131232   6.244   3.745   3.839
10111SOL    HW231233   6.201   3.619   3.745
10112SOL     OW31234   6.044   3.649   3.237
10112SOL    HW131235   5.946   3.669   3.231
10112SOL    HW231236   6.087   3.670   3.149
10113SOL     OW31237   4.252   6.836   0.317
10113SOL    HW131238   4.328   6.889   0.281
10113SOL    HW231239   4.167   6.887   0.305
10114SOL     OW31240   4.095   2.132   2.332
10114SOL    HW131241   4.008   2.126   2.282
10114SOL    HW231242   4.163   2.177   2.274
10115SOL     OW31243   4.785   2.052   5.210
10115SOL    HW131244   4.692   2.078   5.187
10115SOL    HW231245   4.839   2.134   5.231
10116SOL     OW31246   1.123   0.478   0.019
10116SOL    HW131247   1.148   0.495   0.114
10116SOL    HW231248   1.048   0.539   7.010
10117SOL     OW31249   6.304   6.510   5.926
10117SOL    HW131250   6.206   6.494   5.943
10117SOL    HW231251   6.354   6.500   6.012
10118SOL     OW31252   2.369   4.456   3.645
10118SOL    HW131253   2.338   4.387   3.579
10118SOL    HW231254   2.356   4.547   3.607
10119SOL     OW31255   6.438   4.991   4.104
10119SOL    HW131256   6.469   4.903   4.138
10119SOL    HW231257   6.504   5.062   4.128
10120SOL     OW31258   1.889   3.598   4.356
10120SOL    HW131259   1.862   3.635   4.267
10120SOL    HW231260   1.954   3.524   4.343
10121SOL     OW31261   5.544   3.916   6.732
10121SOL    HW131262   5.640   3.914   6.705
10121SOL    HW231263   5.501   3.999   6.697
10122SOL     OW31264   5.606   2.514   3.036
10122SOL    HW131265   5.576   2.595   3.087
10122SOL    HW231266   5.550   2.504   2.954
10123SOL     OW31267   5.736   5.906   0.848
10123SOL    HW131268   5.748   5.872   0.942
10123SOL    HW231269   5.687   5.837   0.795
10124SOL     OW31270   1.572   4.585   0.598
10124SOL    HW131271   1.512   4.587   0.678
10124SOL    HW231272   1.632   4.665   0.599
10125SOL     OW31273   1.977   1.664   1.028
10125SOL    HW131274   2.063   1.712   1.011
10125SOL    HW231275   1.987   1.605   1.109
10126SOL     OW31276   0.232   0.220   0.519
10126SOL    HW131277   0.141   0.196   0.553
10126SOL    HW231278   0.256   0.158   0.444
10127SOL     OW31279   2.095   3.374   0.001
10127SOL    HW131280   2.004   3.336   7.002
10127SOL    HW231281   2.093   3.432   0.082
10128SOL     OW31282   3.374   0.857   6.440
10128SOL    HW131283   3.328   0.770   6.455
10128SOL    HW231284   3.307   0.931   6.444
10129SOL     OW31285   6.370   1.411   2.805
10129SOL    HW131286   6.281   1.369   2.784
10129SOL    HW231287   6.358   1.479   2.877
10130SOL     OW31288   1.149   3.372   1.290
10130SOL    HW131289   1.239   3.351   1.329
10130SOL    HW231290   1.158   3.448   1.226
10131SOL     OW31291   2.079   0.048   4.350
10131SOL    HW131292   2.048   7.009   4.427
10131SOL    HW231293   2.148   7.015   4.298
10132SOL     OW31294   2.255   0.614   3.431
10132SOL    HW131295   2.264   0.633   3.333
10132SOL    HW231296   2.268   0.516   3.447
10133SOL     OW31297   4.846   6.674   0.766
10133SOL    HW131298   4.890   6.651   0.679
10133SOL    HW231299   4.909   6.656   0.841
10134SOL     OW31300   6.104   1.223   2.715
10134SOL    HW131301   6.038   1.219   2.790
10134SOL    HW231302   6.073   1.161   2.642
10135SOL     OW31303   5.081   2.943   3.485
10135SOL    HW131304   4.986   2.940   3.453
10135SOL    HW231305   5.115   3.038   3.482
10136SOL     OW31306   4.989   2.212   2.510
10136SOL    HW131307   5.086   2.215   2.535
10136SOL    HW231308   4.953   2.121   2.530
10137SOL     OW31309   0.417   4.575   4.850
10137SOL    HW131310   0.396   4.573   4.752
10137SOL    HW231311   0.337   4.606   4.901
10138SOL     OW31312   4.774   3.567   0.612
10138SOL    HW131313   4.684   3.600   0.583
10138SOL    HW231314   4.767   3.470   0.635
10139SOL     OW31315   2.985   3.411   4.185
10139SOL    HW131316   2.967   3.379   4.092
10139SOL    HW231317   2.935   3.353   4.250
10140SOL     OW31318   0.427   6.373   0.056
10140SOL    HW131319   0.464   6.284   0.029
10140SOL    HW231320   0.499   6.442   0.049
10141SOL     OW31321   4.467   1.285   5.412
10141SOL    HW131322   4.435   1.373   5.448
10141SOL    HW231323   4.468   1.218   5.487
10142SOL     OW31324   6.037   6.508   5.594
10142SOL    HW131325   6.020   6.422   5.641
10142SOL    HW231326   5.950   6.547   5.562
10143SOL     OW31327   5.390   2.265   1.164
10143SOL    HW131328   5.305   2.217   1.148
10143SOL    HW231329   5.461   2.200   1.192
10144SOL     OW31330   4.644   6.994   6.253
10144SOL    HW131331   4.557   0.019   6.278
10144SOL    HW231332   4.700   0.045   6.205
10145SOL     OW31333   3.269   5.718   3.054
10145SOL    HW131334   3.257   5.723   2.955
10145SOL    HW231335   3.320   5.798   3.085
10146SOL     OW31336   5.596   4.257   4.250
10146SOL    HW131337   5.641   4.184   4.301
10146SOL    HW231338   5.544   4.218   4.174
10147SOL     OW31339   4.559   3.954   6.443
10147SOL    HW131340   4.502   3.872   6.435
10147SOL    HW231341   4.640   3.944   6.385
10148SOL     OW31342   5.865   5.105   6.937
10148SOL    HW131343   5.796   5.166   6.975
10148SOL    HW231344   5.925   5.155   6.875
10149SOL     OW31345   5.575   3.665   1.324
10149SOL    HW131346   5.558   3.711   1.411
10149SOL    HW231347   5.494   3.613   1.297
10150SOL     OW31348   4.214   2.805   1.603
10150SOL    HW131349   4.123   2.833   1.631
10150SOL    HW231350   4.270   2.885   1.585
10151SOL     OW31351   0.912   6.702   0.308
10151SOL    HW131352   0.867   6.783   0.271
10151SOL    HW231353   0.950   6.648   0.233
10152SOL     OW31354   6.905   6.172   3.416
10152SOL    HW131355   6.925   6.219   3.503
10152SOL    HW231356   6.986   6.172   3.359
10153SOL     OW31357   5.056   6.342   3.728
10153SOL    HW131358   5.084   6.245   3.731
10153SOL    HW231359   5.058   6.380   3.821
10154SOL     OW31360   3.796   6.411   5.183
10154SOL    HW131361   3.729   6.343   5.212
10154SOL    HW231362   3.829   6.388   5.091
10155SOL     OW31363   5.031   2.144   6.097
10155SOL    HW131364   5.110   2.174   6.044
10155SOL    HW231365   5.029   2.193   6.184
10156SOL     OW31366   5.945   0.529   1.952
10156SOL    HW131367   5.931   0.451   2.013
10156SOL    HW231368   5.981   0.606   2.005
10157SOL     OW31369   6.973   2.377   0.457
10157SOL    HW131370   6.892   2.342   0.504
10157SOL    HW231371   0.036   2.367   0.516
10158SOL     OW31372   6.414   6.068   1.304
10158SOL    HW131373   6.394   5.982   1.349
10158SOL    HW231374   6.401   6.059   1.205
10159SOL     OW31375   3.682   2.725   1.784
10159SOL    HW131376   3.710   2.632   1.761
10159SOL    HW231377   3.672   2.778   1.700
10160SOL     OW31378   1.243   3.376   3.204
10160SOL    HW131379   1.215   3.383   3.300
10160SOL    HW231380   1.259   3.468   3.168
10161SOL     OW31381   3.331   4.143   0.067
10161SOL    HW131382   3.430   4.127   0.061
10161SOL    HW231383   3.314   4.230   0.114
10162SOL     OW31384   2.942   5.668   0.573
10162SOL    HW131385   3.037   5.640   0.557
10162SOL    HW231386   2.904   5.615   0.649
10163SOL     OW31387   0.679   4.018   6.885
10163SOL    HW131388   0.700   3.994   6.791
10163SOL    HW231389   0.741   4.090   6.916
10164SOL     OW31390   6.238   3.457   5.029
10164SOL    HW131391   6.274   3.417   4.945
10164SOL    HW231392   6.176   3.392   5.074
10165SOL     OW31393   6.331   1.989   3.435
10165SOL    HW131394   6.245   2.026   3.472
10165SOL    HW231395   6.319   1.970   3.338
10166SOL     OW31396   2.243   1.842   1.633
10166SOL    HW131397   2.239   1.746   1.606
10166SOL    HW231398   2.318   1.887   1.586
10167SOL     OW31399   0.602   5.386   0.468
10167SOL    HW131400   0.679   5.351   0.416
10167SOL    HW231401   0.635   5.439   0.546
10168SOL     OW31402   7.009   2.459   5.775
10168SOL    HW131403   7.008   2.482   5.678
10168SOL    HW231404   0.026   2.366   5.787
10169SOL     OW31405   0.407   3.860   3.839
10169SOL    HW131406   0.307   3.849   3.836
10169SOL    HW231407   0.443   3.812   3.919
10170SOL     OW31408   6.453   4.946   6.263
10170SOL    HW131409   6.490   4.853   6.261
10170SOL    HW231410   6.515   5.005   6.315
10171SOL     OW31411   0.673   2.785   4.668
10171SOL    HW131412   0.621   2.701   4.654
10171SOL    HW231413   0.620   2.863   4.633
10172SOL     OW31414   0.865   6.360   4.262
10172SOL    HW131415   0.839   6.264   4.250
10172SOL    HW231416   0.806   6.402   4.331
10173SOL     OW31417   2.216   3.283   0.585
10173SOL    HW131418   2.203   3.216   0.658
10173SOL    HW231419   2.134   3.289   0.529
10174SOL     OW31420   5.025   4.863   3.593
10174SOL    HW131421   5.112   4.824   3.562
10174SOL    HW231422   5.033   4.888   3.690
10175SOL     OW31423   5.161   2.710   3.340
10175SOL    HW131424   5.124   2.784   3.395
10175SOL    HW231425   5.200   2.640   3.399
10176SOL     OW31426   6.682   2.852   5.519
10176SOL    HW131427   6.688   2.753   5.507
10176SOL    HW231428   6.665   2.895   5.430
10177SOL     OW31429   1.905   0.682   0.460
10177SOL    HW131430   1.922   0.718   0.552
10177SOL    HW231431   1.807   0.662   0.450
10178SOL     OW31432   0.568   0.771   0.665
10178SOL    HW131433   0.498   0.809   0.726
10178SOL    HW231434   0.524   0.714   0.596
10179SOL     OW31435   0.635   3.056   6.668
10179SOL    HW131436   0.635   3.080   6.571
10179SOL    HW231437   0.618   2.958   6.678
10180SOL     OW31438   4.961   0.430   0.481
10180SOL    HW131439   4.951   0.467   0.388
10180SOL    HW231440   4.924   0.337   0.484
10181SOL     OW31441   0.374   2.240   0.987
10181SOL    HW131442   0.406   2.296   0.910
10181SOL    HW231443   0.403   2.283   1.073
10182SOL     OW31444   5.124   0.773   0.407
10182SOL    HW131445   5.180   0.731   0.335
10182SOL    HW231446   5.140   0.726   0.493
10183SOL     OW31447   5.918   2.782   5.661
10183SOL    HW131448   5.906   2.858   5.724
10183SOL    HW231449   5.885   2.808   5.570
10184SOL     OW31450   4.274   2.232   6.512
10184SOL    HW131451   4.330   2.253   6.593
10184SOL    HW231452   4.282   2.135   6.491
10185SOL     OW31453   6.167   5.910   2.213
10185SOL    HW131454   6.137   5.833   2.157
10185SOL    HW231455   6.132   5.899   2.306
10186SOL     OW31456   5.197   4.035   4.509
10186SOL    HW131457   5.153   4.072   4.590
10186SOL    HW231458   5.259   3.961   4.534
10187SOL     OW31459   1.168   3.690   6.807
10187SOL    HW131460   1.111   3.607   6.801
10187SOL    HW231461   1.224   3.697   6.725
10188SOL     OW31462   2.989   5.290   6.661
10188SOL    HW131463   2.966   5.322   6.753
10188SOL    HW231464   2.938   5.342   6.593
10189SOL     OW31465   0.627   1.043   6.121
10189SOL    HW131466   0.725   1.046   6.143
10189SOL    HW231467   0.585   0.966   6.169
10190SOL     OW31468   4.148   2.699   1.356
10190SOL    HW131469   4.110   2.606   1.356
10190SOL    HW231470   4.140   2.738   1.448
10191SOL     OW31471   4.859   5.354   6.602
10191SOL    HW131472   4.829   5.263   6.629
10191SOL    HW231473   4.942   5.379   6.653
10192SOL     OW31474   3.938   1.481   5.094
10192SOL    HW131475   3.937   1.383   5.114
10192SOL    HW231476   3.893   1.498   5.007
10193SOL     OW31477   2.944   3.172   2.689
10193SOL    HW131478   2.995   3.200   2.608
10193SOL    HW231479   3.000   3.111   2.745
10194SOL     OW31480   4.885   0.276   4.785
10194SOL    HW131481   4.846   0.367   4.798
10194SOL    HW231482   4.877   0.251   4.688
10195SOL     OW31483   6.462   6.856   0.994
10195SOL    HW131484   6.377   6.899   1.023
10195SOL    HW231485   6.540   6.905   1.034
10196SOL     OW31486   4.784   2.027   4.065
10196SOL    HW131487   4.759   2.114   4.023
10196SOL    HW231488   4.747   1.952   4.011
10197SOL     OW31489   5.092   2.514   4.272
10197SOL    HW131490   5.127   2.533   4.180
10197SOL    HW231491   5.007   2.461   4.265
10198SOL     OW31492   3.644   0.216   1.528
10198SOL    HW131493   3.657   0.119   1.505
10198SOL    HW231494   3.680   0.234   1.620
10199SOL     OW31495   1.041   2.062   0.140
10199SOL    HW131496   1.109   2.020   0.201
10199SOL    HW231497   1.070   2.155   0.117
10200SOL     OW31498   5.147   3.285   5.449
10200SOL    HW131499   5.227   3.251   5.401
10200SOL    HW231500   5.148   3.385   5.448
10201SOL     OW31501   0.667   6.405   0.549
10201SOL    HW131502   0.697   6.317   0.585
10201SOL    HW231503   0.703   6.479   0.607
10202SOL     OW31504   2.278   4.527   6.946
10202SOL    HW131505   2.247   4.585   6.871
10202SOL    HW231506   2.206   4.463   6.971
10203SOL     OW31507   0.519   2.853   1.881
10203SOL    HW131508   0.462   2.906   1.943
10203SOL    HW231509   0.502   2.755   1.894
10204SOL     OW31510   3.746   5.798   0.095
10204SOL    HW131511   3.674   5.859   0.063
10204SOL    HW231512   3.803   5.771   0.017
10205SOL     OW31513   3.144   1.109   2.295
10205SOL    HW131514   3.165   1.196   2.340
10205SOL    HW231515   3.061   1.121   2.239
10206SOL     OW31516   5.830   6.745   6.481
10206SOL    HW131517   5.884   6.808   6.426
10206SOL    HW231518   5.815   6.785   6.572
10207SOL     OW31519   2.001   1.164   6.632
10207SOL    HW131520   2.014   1.176   6.731
10207SOL    HW231521   1.906   1.183   6.608
10208SOL     OW31522   6.198   4.341   3.479
10208SOL    HW131523   6.201   4.305   3.572
10208SOL    HW231524   6.289   4.336   3.438
10209SOL     OW31525   0.034   0.313   6.332
10209SOL    HW131526   6.953   0.313   6.314
10209SOL    HW231527   0.062   0.221   6.360
10210SOL     OW31528   5.448   6.585   1.120
10210SOL    HW131529   5.506   6.640   1.180
10210SOL    HW231530   5.494   6.499   1.099
10211SOL     OW31531   3.879   6.213   4.965
10211SOL    HW131532   3.844   6.129   5.007
10211SOL    HW231533   3.978   6.211   4.962
10212SOL     OW31534   0.027   0.110   5.276
10212SOL    HW131535   0.049   0.199   5.236
10212SOL    HW231536   0.026   0.041   5.204
10213SOL     OW31537   5.417   3.068   2.620
10213SOL    HW131538   5.423   3.139   2.690
10213SOL    HW231539   5.365   2.990   2.656
10214SOL     OW31540   1.093   2.067   2.291
10214SOL    HW131541   1.148   2.125   2.232
10214SOL    HW231542   1.141   2.051   2.377
10215SOL     OW31543   3.165   2.990   3.817
10215SOL    HW131544   3.155   3.071   3.759
10215SOL    HW231545   3.163   3.018   3.913
10216SOL     OW31546   0.740   6.980   1.210
10216SOL    HW131547   0.680   6.910   1.249
10216SOL    HW231548   0.684   0.035   1.169
10217SOL     OW31549   2.122   2.055   3.104
10217SOL    HW131550   2.161   1.969   3.133
10217SOL    HW231551   2.172   2.090   3.025
10218SOL     OW31552   1.495   0.775   1.855
10218SOL    HW131553   1.461   0.721   1.778
10218SOL    HW231554   1.595   0.774   1.854
10219SOL     OW31555   0.294   3.217   2.174
10219SOL    HW131556   0.319   3.215   2.271
10219SOL    HW231557   0.195   3.224   2.166
10220SOL     OW31558   4.138   1.757   1.121
10220SOL    HW131559   4.137   1.671   1.069
10220SOL    HW231560   4.231   1.794   1.120
10221SOL     OW31561   1.716   3.593   4.579
10221SOL    HW131562   1.744   3.584   4.483
10221SOL    HW231563   1.798   3.600   4.636
10222SOL     OW31564   2.893   3.755   5.453
10222SOL    HW131565   2.964   3.733   5.387
10222SOL    HW231566   2.912   3.707   5.539
10223SOL     OW31567   1.963   6.045   6.589
10223SOL    HW131568   1.965   5.966   6.650
10223SOL    HW231569   2.036   6.036   6.521
10224SOL     OW31570   6.879   1.421   5.158
10224SOL    HW131571   6.784   1.387   5.157
10224SOL    HW231572   6.898   1.468   5.072
10225SOL     OW31573   2.155   6.389   5.657
10225SOL    HW131574   2.109   6.352   5.738
10225SOL    HW231575   2.243   6.429   5.684
10226SOL     OW31576   2.305   0.515   6.289
10226SOL    HW131577   2.207   0.500   6.288
10226SOL    HW231578   2.346   0.465   6.365
10227SOL     OW31579   5.241   4.512   0.941
10227SOL    HW131580   5.148   4.498   0.907
10227SOL    HW231581   5.237   4.559   1.030
10228SOL     OW31582   0.945   6.518   1.736
10228SOL    HW131583   0.980   6.564   1.654
10228SOL    HW231584   0.875   6.452   1.709
10229SOL     OW31585   1.332   1.724   4.325
10229SOL    HW131586   1.257   1.677   4.277
10229SOL    HW231587   1.418   1.702   4.280
10230SOL     OW31588   6.590   6.755   2.803
10230SOL    HW131589   6.681   6.794   2.785
10230SOL    HW231590   6.539   6.750   2.718
10231SOL     OW31591   6.301   5.219   4.799
10231SOL    HW131592   6.296   5.316   4.820
10231SOL    HW231593   6.324   5.207   4.702
10232SOL     OW31594   2.808   1.098   4.443
10232SOL    HW131595   2.835   1.123   4.350
10232SOL    HW231596   2.764   1.176   4.488
10233SOL     OW31597   4.913   3.325   5.088
10233SOL    HW131598   4.874   3.407   5.046
10233SOL    HW231599   4.878   3.316   5.182
10234SOL     OW31600   5.545   7.005   6.893
10234SOL    HW131601   5.576   0.083   6.893
10234SOL    HW231602   5.590   6.955   6.966
10235SOL     OW31603   3.928   2.975   0.318
10235SOL    HW131604   3.857   2.971   0.389
10235SOL    HW231605   3.909   3.051   0.256
10236SOL     OW31606   2.172   0.748   1.838
10236SOL    HW131607   2.126   0.688   1.903
10236SOL    HW231608   2.105   0.808   1.794
10237SOL     OW31609   6.992   4.447   0.389
10237SOL    HW131610   6.941   4.414   0.469
10237SOL    HW231611   0.034   4.373   0.354
10238SOL     OW31612   3.135   4.030   3.080
10238SOL    HW131613   3.097   4.021   3.172
10238SOL    HW231614   3.127   3.943   3.032
10239SOL     OW31615   2.221   4.350   5.626
10239SOL    HW131616   2.272   4.408   5.690
10239SOL    HW231617   2.202   4.401   5.543
10240SOL     OW31618   1.719   4.664   2.772
10240SOL    HW131619   1.775   4.739   2.737
10240SOL    HW231620   1.662   4.628   2.699
10241SOL     OW31621   6.597   0.548   2.506
10241SOL    HW131622   6.688   0.506   2.511
10241SOL    HW231623   6.558   0.555   2.597
10242SOL     OW31624   6.538   1.602   0.200
10242SOL    HW131625   6.439   1.600   0.193
10242SOL    HW231626   6.568   1.550   0.281
10243SOL     OW31627   1.511   5.225   1.901
10243SOL    HW131628   1.470   5.155   1.959
10243SOL    HW231629   1.457   5.309   1.907
10244SOL     OW31630   1.467   4.050   0.633
10244SOL    HW131631   1.369   4.032   0.644
10244SOL    HW231632   1.511   4.050   0.722
10245SOL     OW31633   2.785   4.737   0.431
10245SOL    HW131634   2.772   4.746   0.333
10245SOL    HW231635   2.876   4.702   0.450
10246SOL     OW31636   3.354   4.074   3.276
10246SOL    HW131637   3.315   4.021   3.201
10246SOL    HW231638   3.282   4.124   3.324
10247SOL     OW31639   6.712   5.071   5.828
10247SOL    HW131640   6.795   5.122   5.806
10247SOL    HW231641   6.683   5.093   5.922
10248SOL     OW31642   2.297   7.017   2.506
10248SOL    HW131643   2.362   7.013   2.430
10248SOL    HW231644   2.321   0.075   2.567
10249SOL     OW31645   3.392   0.329   6.322
10249SOL    HW131646   3.349   0.418   6.308
10249SOL    HW231647   3.412   0.317   6.420
10250SOL     OW31648   6.624   3.074   1.400
10250SOL    HW131649   6.563   3.097   1.324
10250SOL    HW231650   6.659   3.159   1.440
10251SOL     OW31651   3.087   1.637   5.118
10251SOL    HW131652   3.146   1.557   5.120
10251SOL    HW231653   3.141   1.719   5.100
10252SOL     OW31654   4.407   4.515   0.140
10252SOL    HW131655   4.419   4.530   0.042
10252SOL    HW231656   4.348   4.436   0.155
10253SOL     OW31657   2.907   6.023   0.384
10253SOL    HW131658   2.852   5.994   0.306
10253SOL    HW231659   2.878   5.974   0.466
10254SOL     OW31660   4.583   0.619   4.691
10254SOL    HW131661   4.515   0.611   4.618
10254SOL    HW231662   4.596   0.715   4.714
10255SOL     OW31663   2.254   6.795   1.270
10255SOL    HW131664   2.190   6.813   1.344
10255SOL    HW231665   2.247   6.866   1.200
10256SOL     OW31666   6.090   0.768   1.611
10256SOL    HW131667   6.173   0.783   1.558
10256SOL    HW231668   6.022   0.723   1.554
10257SOL     OW31669   1.933   5.042   4.932
10257SOL    HW131670   1.934   4.967   4.866
10257SOL    HW231671   1.904   5.126   4.887
10258SOL     OW31672   3.282   0.863   4.119
10258SOL    HW131673   3.371   0.861   4.073
10258SOL    HW231674   3.272   0.951   4.166
10259SOL     OW31675   0.150   4.487   2.875
10259SOL    HW131676   0.168   4.405   2.819
10259SOL    HW231677   0.163   4.465   2.971
10260SOL     OW31678   0.358   0.885   4.356
10260SOL    HW131679   0.360   0.809   4.421
10260SOL    HW231680   0.429   0.871   4.286
10261SOL     OW31681   6.811   6.033   2.993
10261SOL    HW131682   6.851   6.124   2.991
10261SOL    HW231683   6.778   6.012   3.086
10262SOL     OW31684   1.855   0.150   4.143
10262SOL    HW131685   1.944   0.122   4.179
10262SOL    HW231686   1.836   0.244   4.171
10263SOL     OW31687   5.330   0.875   6.427
10263SOL    HW131688   5.279   0.884   6.341
10263SOL    HW231689   5.288   0.932   6.497
10264SOL     OW31690   5.685   1.916   5.590
10264SOL    HW131691   5.681   2.014   5.611
10264SOL    HW231692   5.605   1.889   5.538
10265SOL     OW31693   2.289   2.243   3.290
10265SOL    HW131694   2.243   2.210   3.208
10265SOL    HW231695   2.378   2.281   3.265
10266SOL     OW31696   3.359   2.896   4.185
10266SOL    HW131697   3.375   2.950   4.267
10266SOL    HW231698   3.310   2.812   4.209
10267SOL     OW31699   0.005   1.346   0.032
10267SOL    HW131700   0.023   1.269   0.094
10267SOL    HW231701   0.051   1.428   0.066
10268SOL     OW31702   5.974   5.143   2.034
10268SOL    HW131703   6.007   5.229   2.074
10268SOL    HW231704   5.901   5.164   1.968
10269SOL     OW31705   0.118   3.210   7.001
10269SOL    HW131706   0.050   3.154   0.032
10269SOL    HW231707   0.108   3.306   0.012
10270SOL     OW31708   2.827   4.821   3.485
10270SOL    HW131709   2.796   4.915   3.470
10270SOL    HW231710   2.910   4.823   3.542
10271SOL     OW31711   3.664   2.404   6.898
10271SOL    HW131712   3.653   2.316   6.943
10271SOL    HW231713   3.756   2.440   6.918
10272SOL     OW31714   0.796   0.730   4.797
10272SOL    HW131715   0.762   0.801   4.858
10272SOL    HW231716   0.732   0.653   4.797
10273SOL     OW31717   3.500   5.650   2.455
10273SOL    HW131718   3.466   5.724   2.512
10273SOL    HW231719   3.454   5.652   2.366
10274SOL     OW31720   6.831   5.388   3.742
10274SOL    HW131721   6.794   5.365   3.832
10274SOL    HW231722   6.926   5.357   3.736
10275SOL     OW31723   0.886   0.276   1.732
10275SOL    HW131724   0.822   0.326   1.672
10275SOL    HW231725   0.871   0.303   1.827
10276SOL     OW31726   5.615   5.111   5.263
10276SOL    HW131727   5.580   5.121   5.170
10276SOL    HW231728   5.625   5.014   5.285
10277SOL     OW31729   2.203   5.564   4.272
10277SOL    HW131730   2.176   5.468   4.284
10277SOL    HW231731   2.199   5.588   4.175
10278SOL     OW31732   0.045   0.721   4.611
10278SOL    HW131733   6.973   0.677   4.623
10278SOL    HW231734   0.094   0.677   4.536
10279SOL     OW31735   2.969   5.102   4.080
10279SOL    HW131736   2.964   5.167   4.155
10279SOL    HW231737   2.949   5.010   4.114
10280SOL     OW31738   0.998   4.354   1.174
10280SOL    HW131739   1.065   4.358   1.100
10280SOL    HW231740   0.937   4.432   1.167
10281SOL     OW31741   5.725   1.124   2.727
10281SOL    HW131742   5.822   1.098   2.731
10281SOL    HW231743   5.712   1.210   2.775
10282SOL     OW31744   5.719   4.603   4.110
10282SOL    HW131745   5.640   4.602   4.172
10282SOL    HW231746   5.783   4.674   4.140
10283SOL     OW31747   1.037   3.884   1.170
10283SOL    HW131748   1.044   3.971   1.219
10283SOL    HW231749   1.010   3.902   1.075
10284SOL     OW31750   5.541   3.198   5.533
10284SOL    HW131751   5.469   3.234   5.472
10284SOL    HW231752   5.501   3.178   5.622
10285SOL     OW31753   5.530   1.110   1.672
10285SOL    HW131754   5.444   1.148   1.706
10285SOL    HW231755   5.512   1.027   1.620
10286SOL     OW31756   2.915   1.998   3.736
10286SOL    HW131757   2.828   1.993   3.688
10286SOL    HW231758   2.900   1.984   3.834
10287SOL     OW31759   2.177   6.318   1.293
10287SOL    HW131760   2.208   6.314   1.197
10287SOL    HW231761   2.247   6.363   1.348
10288SOL     OW31762   4.809   6.000   3.113
10288SOL    HW131763   4.806   6.073   3.182
10288SOL    HW231764   4.716   5.966   3.097
10289SOL     OW31765   2.807   6.849   2.043
10289SOL    HW131766   2.734   6.859   1.976
10289SOL    HW231767   2.769   6.856   2.136
10290SOL     OW31768   2.904   3.615   2.032
10290SOL    HW131769   2.931   3.674   1.956
10290SOL    HW231770   2.925   3.660   2.119
10291SOL     OW31771   3.639   1.954   3.714
10291SOL    HW131772   3.580   1.979   3.638
10291SOL    HW231773   3.696   2.032   3.739
10292SOL     OW31774   1.552   0.158   4.932
10292SOL    HW131775   1.467   0.165   4.985
10292SOL    HW231776   1.541   0.203   4.844
10293SOL     OW31777   1.928   5.027   3.254
10293SOL    HW131778   1.940   5.086   3.174
10293SOL    HW231779   1.856   5.065   3.312
10294SOL     OW31780   5.503   3.206   2.204
10294SOL    HW131781   5.462   3.151   2.132
10294SOL    HW231782   5.484   3.303   2.186
10295SOL     OW31783   5.550   4.437   6.243
10295SOL    HW131784   5.526   4.514   6.301
10295SOL    HW231785   5.468   4.386   6.218
10296SOL     OW31786   4.441   2.473   7.002
10296SOL    HW131787   4.480   2.565   6.995
10296SOL    HW231788   4.427   2.436   6.910
10297SOL     OW31789   2.264   6.842   0.003
10297SOL    HW131790   2.295   6.833   6.925
10297SOL    HW231791   2.195   6.914   0.009
10298SOL     OW31792   3.591   4.976   1.759
10298SOL    HW131793   3.566   4.887   1.798
10298SOL    HW231794   3.691   4.982   1.754
10299SOL     OW31795   4.676   5.415   2.853
10299SOL    HW131796   4.672   5.497   2.910
10299SOL    HW231797   4.770   5.383   2.846
10300SOL     OW31798   1.113   4.140   3.298
10300SOL    HW131799   1.021   4.103   3.290
10300SOL    HW231800   1.134   4.157   3.394
10301SOL     OW31801   5.485   2.153   4.548
10301SOL    HW131802   5.427   2.191   4.620
10301SOL    HW231803   5.492   2.054   4.559
10302SOL     OW31804   0.995   6.111   3.656
10302SOL    HW131805   1.044   6.198   3.657
10302SOL    HW231806   1.037   6.049   3.723
10303SOL     OW31807   1.669   5.803   2.661
10303SOL    HW131808   1.589   5.861   2.678
10303SOL    HW231809   1.641   5.721   2.612
10304SOL     OW31810   4.995   0.434   2.031
10304SOL    HW131811   4.935   0.469   1.959
10304SOL    HW231812   4.988   0.494   2.111
10305SOL     OW31813   0.574   4.439   6.912
10305SOL    HW131814   0.594   4.481   6.824
10305SOL    HW231815   0.503   4.369   6.901
10306SOL     OW31816   4.305   6.244   0.024
10306SOL    HW131817   4.330   6.248   0.121
10306SOL    HW231818   4.250   6.163   0.007
10307SOL     OW31819   2.492   1.884   4.775
10307SOL    HW131820   2.446   1.972   4.780
10307SOL    HW231821   2.474   1.841   4.686
10308SOL     OW31822   2.400   4.388   4.302
10308SOL    HW131823   2.378   4.313   4.239
10308SOL    HW231824   2.383   4.358   4.396
10309SOL     OW31825   5.865   1.317   4.697
10309SOL    HW131826   5.794   1.363   4.751
10309SOL    HW231827   5.824   1.241   4.646
10310SOL     OW31828   3.705   3.143   1.843
10310SOL    HW131829   3.714   3.076   1.917
10310SOL    HW231830   3.611   3.143   1.809
10311SOL     OW31831   0.793   6.568   0.739
10311SOL    HW131832   0.771   6.664   0.755
10311SOL    HW231833   0.881   6.546   0.782
10312SOL     OW31834   2.600   6.515   1.699
10312SOL    HW131835   2.653   6.512   1.614
10312SOL    HW231836   2.660   6.543   1.774
10313SOL     OW31837   4.670   0.437   1.142
10313SOL    HW131838   4.694   0.445   1.239
10313SOL    HW231839   4.576   0.470   1.129
10314SOL     OW31840   6.744   7.005   2.264
10314SOL    HW131841   6.792   0.021   2.183
10314SOL    HW231842   6.659   0.039   2.275
10315SOL     OW31843   6.385   5.951   4.361
10315SOL    HW131844   6.471   5.908   4.391
10315SOL    HW231845   6.380   5.949   4.261
10316SOL     OW31846   6.370   2.668   4.608
10316SOL    HW131847   6.335   2.743   4.552
10316SOL    HW231848   6.357   2.691   4.705
10317SOL     OW31849   3.512   5.728   5.875
10317SOL    HW131850   3.458   5.685   5.803
10317SOL    HW231851   3.451   5.763   5.946
10318SOL     OW31852   5.354   5.815   6.368
10318SOL    HW131853   5.447   5.786   6.345
10318SOL    HW231854   5.289   5.745   6.340
10319SOL     OW31855   1.679   2.212   5.639
10319SOL    HW131856   1.660   2.114   5.641
10319SOL    HW231857   1.643   2.254   5.723
10320SOL     OW31858   0.696   0.624   2.711
10320SOL    HW131859   0.644   0.709   2.723
10320SOL    HW231860   0.656   0.552   2.767
10321SOL     OW31861   4.548   0.678   2.471
10321SOL    HW131862   4.645   0.679   2.448
10321SOL    HW231863   4.497   0.635   2.396
10322SOL     OW31864   6.948   5.869   6.585
10322SOL    HW131865   6.978   5.882   6.679
10322SOL    HW231866   6.976   5.778   6.553
10323SOL     OW31867   6.176   3.483   6.108
10323SOL    HW131868   6.123   3.403   6.079
10323SOL    HW231869   6.160   3.500   6.205
10324SOL     OW31870   3.337   2.921   3.332
10324SOL    HW131871   3.415   2.898   3.391
10324SOL    HW231872   3.277   2.841   3.325
10325SOL     OW31873   0.247   3.668   3.153
10325SOL    HW131874   0.169   3.715   3.109
10325SOL    HW231875   0.257   3.577   3.113
10326SOL     OW31876   3.960   3.982   0.108
10326SOL    HW131877   4.008   4.062   0.075
10326SOL    HW231878   4.019   3.929   0.169
10327SOL     OW31879   2.638   2.329   1.910
10327SOL    HW131880   2.738   2.322   1.914
10327SOL    HW231881   2.605   2.290   1.825
10328SOL     OW31882   6.272   2.451   1.348
10328SOL    HW131883   6.284   2.474   1.252
10328SOL    HW231884   6.189   2.496   1.383
10329SOL     OW31885   3.479   0.545   3.697
10329SOL    HW131886   3.547   0.582   3.760
10329SOL    HW231887   3.525   0.509   3.616
10330SOL     OW31888   3.635   5.879   1.929
10330SOL    HW131889   3.550   5.868   1.982
10330SOL    HW231890   3.671   5.789   1.905
10331SOL     OW31891   6.765   0.713   4.294
10331SOL    HW131892   6.806   0.804   4.307
10331SOL    HW231893   6.833   0.651   4.255
10332SOL     OW31894   5.750   1.768   0.708
10332SOL    HW131895   5.668   1.814   0.744
10332SOL    HW231896   5.760   1.788   0.611
10333SOL     OW31897   6.553   4.725   4.118
10333SOL    HW131898   6.544   4.729   4.018
10333SOL    HW231899   6.643   4.759   4.145
10334SOL     OW31900   2.536   5.980   4.307
10334SOL    HW131901   2.525   5.927   4.223
10334SOL    HW231902   2.582   6.066   4.287
10335SOL     OW31903   2.573   4.850   6.840
10335SOL    HW131904   2.514   4.804   6.906
10335SOL    HW231905   2.668   4.846   6.872
10336SOL     OW31906   5.900   0.142   3.231
10336SOL    HW131907   5.984   0.189   3.202
10336SOL    HW231908   5.821   0.194   3.197
10337SOL     OW31909   6.845   6.382   5.600
10337SOL    HW131910   6.797   6.324   5.667
10337SOL    HW231911   6.836   6.478   5.628
10338SOL     OW31912   2.080   6.465   2.184
10338SOL    HW131913   2.175   6.434   2.174
10338SOL    HW231914   2.026   6.431   2.107
10339SOL     OW31915   2.635   5.884   0.366
10339SOL    HW131916   2.578   5.834   0.300
10339SOL    HW231917   2.624   5.982   0.352
10340SOL     OW31918   0.926   5.614   0.499
10340SOL    HW131919   0.984   5.682   0.456
10340SOL    HW231920   0.968   5.524   0.491
10341SOL     OW31921   2.036   3.351   1.824
10341SOL    HW131922   2.101   3.398   1.884
10341SOL    HW231923   2.044   3.253   1.838
10342SOL     OW31924   0.906   5.837   5.491
10342SOL    HW131925   0.816   5.844   5.535
10342SOL    HW231926   0.951   5.926   5.492
10343SOL     OW31927   1.908   3.805   0.780
10343SOL    HW131928   1.936   3.882   0.838
10343SOL    HW231929   1.909   3.834   0.684
10344SOL     OW31930   4.414   3.336   1.679
10344SOL    HW131931   4.487   3.387   1.633
10344SOL    HW231932   4.346   3.400   1.714
10345SOL     OW31933   1.220   0.880   6.344
10345SOL    HW131934   1.242   0.969   6.303
10345SOL    HW231935   1.148   0.836   6.291
10346SOL     OW31936   5.747   0.781   0.831
10346SOL    HW131937   5.666   0.756   0.778
10346SOL    HW231938   5.768   0.877   0.817
10347SOL     OW31939   5.256   2.622   2.548
10347SOL    HW131940   5.233   2.717   2.569
10347SOL    HW231941   5.312   2.619   2.466
10348SOL     OW31942   6.268   1.589   0.222
10348SOL    HW131943   6.265   1.659   0.294
10348SOL    HW231944   6.175   1.564   0.195
10349SOL     OW31945   6.437   1.098   0.666
10349SOL    HW131946   6.345   1.058   0.673
10349SOL    HW231947   6.505   1.025   0.673
10350SOL     OW31948   2.006   6.154   5.567
10350SOL    HW131949   2.039   6.247   5.582
10350SOL    HW231950   1.927   6.137   5.625
10351SOL     OW31951   5.427   4.805   6.115
10351SOL    HW131952   5.497   4.850   6.059
10351SOL    HW231953   5.351   4.778   6.057
10352SOL     OW31954   5.547   1.964   0.212
10352SOL    HW131955   5.509   1.872   0.211
10352SOL    HW231956   5.640   1.962   0.176
10353SOL     OW31957   5.871   2.071   4.678
10353SOL    HW131958   5.860   2.041   4.773
10353SOL    HW231959   5.911   1.997   4.624
10354SOL     OW31960   6.997   2.201   1.861
10354SOL    HW131961   6.951   2.277   1.906
10354SOL    HW231962   6.932   2.126   1.848
10355SOL     OW31963   1.482   0.922   1.081
10355SOL    HW131964   1.452   0.954   1.171
10355SOL    HW231965   1.403   0.918   1.020
10356SOL     OW31966   0.111   3.646   5.317
10356SOL    HW131967   0.120   3.690   5.406
10356SOL    HW231968   0.062   3.706   5.255
10357SOL     OW31969   3.305   2.645   6.019
10357SOL    HW131970   3.272   2.608   5.932
10357SOL    HW231971   3.252   2.605   6.094
10358SOL     OW31972   0.190   3.278   3.463
10358SOL    HW131973   0.118   3.216   3.495
10358SOL    HW231974   0.206   3.262   3.366
10359SOL     OW31975   5.078   1.397   2.305
10359SOL    HW131976   5.071   1.495   2.323
10359SOL    HW231977   5.011   1.371   2.236
10360SOL     OW31978   4.759   5.611   1.803
10360SOL    HW131979   4.845   5.563   1.821
10360SOL    HW231980   4.685   5.564   1.851
10361SOL     OW31981   2.921   1.178   3.061
10361SOL    HW131982   2.847   1.165   3.128
10361SOL    HW231983   2.947   1.274   3.058
10362SOL     OW31984   0.473   5.509   3.007
10362SOL    HW131985   0.498   5.533   3.101
10362SOL    HW231986   0.425   5.585   2.965
10363SOL     OW31987   5.118   2.981   0.814
10363SOL    HW131988   5.042   3.032   0.854
10363SOL    HW231989   5.162   2.927   0.885
10364SOL     OW31990   3.882   4.155   1.447
10364SOL    HW131991   3.887   4.181   1.543
10364SOL    HW231992   3.938   4.074   1.431
10365SOL     OW31993   4.770   3.917   6.273
10365SOL    HW131994   4.793   3.979   6.198
10365SOL    HW231995   4.829   3.936   6.351
10366SOL     OW31996   3.273   6.836   4.058
10366SOL    HW131997   3.359   6.876   4.088
10366SOL    HW231998   3.203   6.908   4.051
10367SOL     OW31999   6.937   1.844   1.854
10367SOL    HW132000   0.014   1.816   1.873
10367SOL    HW232001   6.882   1.834   1.937
10368SOL     OW32002   2.175   1.205   2.412
10368SOL    HW132003   2.175   1.275   2.484
10368SOL    HW232004   2.144   1.118   2.450
10369SOL     OW32005   3.145   0.005   5.953
10369SOL    HW132006   3.238   0.041   5.944
10369SOL    HW232007   3.143   6.926   5.923
10370SOL     OW32008   6.622   0.783   5.416
10370SOL    HW132009   6.634   0.873   5.459
10370SOL    HW232010   6.687   0.719   5.455
10371SOL     OW32011   1.653   6.095   4.423
10371SOL    HW132012   1.697   6.162   4.483
10371SOL    HW232013   1.600   6.031   4.479
10372SOL     OW32014   2.192   1.190   6.432
10372SOL    HW132015   2.113   1.171   6.490
10372SOL    HW232016   2.218   1.287   6.441
10373SOL     OW32017   1.282   5.789   5.082
10373SOL    HW132018   1.210   5.808   5.016
10373SOL    HW232019   1.337   5.711   5.052
10374SOL     OW32020   2.956   0.697   3.716
10374SOL    HW132021   2.918   0.764   3.653
10374SOL    HW232022   3.043   0.662   3.680
10375SOL     OW32023   2.157   2.110   6.147
10375SOL    HW132024   2.253   2.133   6.161
10375SOL    HW232025   2.134   2.028   6.201
10376SOL     OW32026   1.288   5.798   3.525
10376SOL    HW132027   1.347   5.734   3.475
10376SOL    HW232028   1.220   5.746   3.576
10377SOL     OW32029   0.367   1.167   2.595
10377SOL    HW132030   0.303   1.240   2.574
10377SOL    HW232031   0.321   1.096   2.648
10378SOL     OW32032   5.883   5.940   5.667
10378SOL    HW132033   5.809   5.877   5.688
10378SOL    HW232034   5.949   5.895   5.607
10379SOL     OW32035   2.540   6.120   3.968
10379SOL    HW132036   2.608   6.143   3.899
10379SOL    HW232037   2.562   6.031   4.008
10380SOL     OW32038   0.403   2.545   4.764
10380SOL    HW132039   0.421   2.498   4.851
10380SOL    HW232040   0.352   2.629   4.783
10381SOL     OW32041   4.409   4.139   1.067
10381SOL    HW132042   4.420   4.044   1.096
10381SOL    HW232043   4.396   4.143   0.968
10382SOL     OW32044   2.016   5.502   1.820
10382SOL    HW132045   2.008   5.460   1.910
10382SOL    HW232046   1.969   5.444   1.753
10383SOL     OW32047   1.099   4.120   1.292
10383SOL    HW132048   1.069   4.201   1.242
10383SOL    HW232049   1.146   4.148   1.376
10384SOL     OW32050   6.847   0.252   0.919
10384SOL    HW132051   6.879   0.313   0.846
10384SOL    HW232052   6.770   0.198   0.885
10385SOL     OW32053   4.191   5.856   6.122
10385SOL    HW132054   4.275   5.804   6.132
10385SOL    HW232055   4.182   5.888   6.028
10386SOL     OW32056   6.635   1.349   5.445
10386SOL    HW132057   6.733   1.363   5.436
10386SOL    HW232058   6.604   1.384   5.534
10387SOL     OW32059   4.522   1.686   2.655
10387SOL    HW132060   4.545   1.595   2.687
10387SOL    HW232061   4.432   1.712   2.689
10388SOL     OW32062   2.034   5.641   2.208
10388SOL    HW132063   2.123   5.602   2.232
10388SOL    HW232064   1.964   5.569   2.212
10389SOL     OW32065   6.299   5.256   0.855
10389SOL    HW132066   6.354   5.176   0.830
10389SOL    HW232067   6.214   5.255   0.802
10390SOL     OW32068   1.984   3.055   1.153
10390SOL    HW132069   1.930   3.126   1.199
10390SOL    HW232070   2.003   2.981   1.218
10391SOL     OW32071   0.395   6.387   3.295
10391SOL    HW132072   0.412   6.437   3.210
10391SOL    HW232073   0.466   6.318   3.308
10392SOL     OW32074   6.465   4.824   5.298
10392SOL    HW132075   6.384   4.806   5.353
10392SOL    HW232076   6.474   4.753   5.228
10393SOL     OW32077   2.287   2.320   3.569
10393SOL    HW132078   2.274   2.296   3.473
10393SOL    HW232079   2.216   2.384   3.598
10394SOL     OW32080   2.195   5.602   5.385
10394SOL    HW132081   2.185   5.694   5.346
10394SOL    HW232082   2.150   5.599   5.475
10395SOL     OW32083   0.355   0.674   2.226
10395SOL    HW132084   0.371   0.583   2.188
10395SOL    HW232085   0.261   0.680   2.259
10396SOL     OW32086   4.026   0.924   3.417
10396SOL    HW132087   4.023   0.923   3.517
10396SOL    HW232088   4.114   0.961   3.386
10397SOL     OW32089   2.782   1.600   4.621
10397SOL    HW132090   2.855   1.590   4.554
10397SOL    HW232091   2.759   1.511   4.660
10398SOL     OW32092   4.967   2.601   0.375
10398SOL    HW132093   5.053   2.603   0.426
10398SOL    HW232094   4.916   2.519   0.399
10399SOL     OW32095   4.943   2.756   4.196
10399SOL    HW132096   4.989   2.715   4.275
10399SOL    HW232097   4.997   2.739   4.114
10400SOL     OW32098   4.198   5.900   0.279
10400SOL    HW132099   4.206   5.931   0.185
10400SOL    HW232100   4.288   5.877   0.315
10401SOL     OW32101   0.233   6.973   1.945
10401SOL    HW132102   0.238   0.050   1.909
10401SOL    HW232103   0.316   6.924   1.922
10402SOL     OW32104   0.106   1.397   5.239
10402SOL    HW132105   0.009   1.395   5.216
10402SOL    HW232106   0.123   1.465   5.310
10403SOL     OW32107   4.289   1.652   2.861
10403SOL    HW132108   4.268   1.577   2.799
10403SOL    HW232109   4.205   1.701   2.884
10404SOL     OW32110   6.647   6.689   3.885
10404SOL    HW132111   6.670   6.703   3.789
10404SOL    HW232112   6.585   6.611   3.894
10405SOL     OW32113   1.091   5.817   4.887
10405SOL    HW132114   1.002   5.779   4.860
10405SOL    HW232115   1.154   5.813   4.809
10406SOL     OW32116   2.169   2.788   5.206
10406SOL    HW132117   2.235   2.830   5.144
10406SOL    HW232118   2.129   2.708   5.161
10407SOL     OW32119   2.709   6.870   0.200
10407SOL    HW132120   2.649   6.793   0.177
10407SOL    HW232121   2.654   6.945   0.236
10408SOL     OW32122   4.432   6.668   1.709
10408SOL    HW132123   4.449   6.572   1.731
10408SOL    HW232124   4.424   6.721   1.793
10409SOL     OW32125   0.084   4.259   0.793
10409SOL    HW132126   0.167   4.298   0.754
10409SOL    HW232127   0.013   4.330   0.799
10410SOL     OW32128   5.227   2.583   2.080
10410SOL    HW132129   5.254   2.539   1.993
10410SOL    HW232130   5.178   2.517   2.136
10411SOL     OW32131   2.852   6.250   4.106
10411SOL    HW132132   2.912   6.204   4.172
10411SOL    HW232133   2.836   6.189   4.028
10412SOL     OW32134   0.296   1.156   0.460
10412SOL    HW132135   0.357   1.082   0.432
10412SOL    HW232136   0.218   1.160   0.398
10413SOL     OW32137   6.097   2.675   1.678
10413SOL    HW132138   6.100   2.611   1.601
10413SOL    HW232139   6.091   2.624   1.764
10414SOL     OW32140   3.543   4.879   6.409
10414SOL    HW132141   3.583   4.913   6.323
10414SOL    HW232142   3.564   4.943   6.483
10415SOL     OW32143   1.793   4.621   4.246
10415SOL    HW132144   1.876   4.589   4.291
10415SOL    HW232145   1.715   4.569   4.279
10416SOL     OW32146   5.499   6.736   5.180
10416SOL    HW132147   5.485   6.637   5.181
10416SOL    HW232148   5.564   6.760   5.107
10417SOL     OW32149   4.163   5.051   4.497
10417SOL    HW132150   4.099   5.059   4.421
10417SOL    HW232151   4.145   5.124   4.563
10418SOL     OW32152   6.879   4.088   5.891
10418SOL    HW132153   6.795   4.078   5.837
10418SOL    HW232154   6.956   4.050   5.841
10419SOL     OW32155   3.555   6.720   6.388
10419SOL    HW132156   3.536   6.677   6.476
10419SOL    HW232157   3.577   6.816   6.402
10420SOL     OW32158   0.481   4.034   4.405
10420SOL    HW132159   0.415   4.092   4.452
10420SOL    HW232160   0.510   3.961   4.466
10421SOL     OW32161   1.244   3.722   3.887
10421SOL    HW132162   1.339   3.692   3.880
10421SOL    HW232163   1.242   3.813   3.929
10422SOL     OW32164   6.357   3.397   5.678
10422SOL    HW132165   6.296   3.458   5.729
10422SOL    HW232166   6.449   3.436   5.677
10423SOL     OW32167   5.576   5.006   5.843
10423SOL    HW132168   5.623   5.038   5.761
10423SOL    HW232169   5.506   5.072   5.869
10424SOL     OW32170   4.107   3.327   0.744
10424SOL    HW132171   4.183   3.267   0.767
10424SOL    HW232172   4.028   3.306   0.801
10425SOL     OW32173   1.101   6.204   2.314
10425SOL    HW132174   1.081   6.271   2.243
10425SOL    HW232175   1.028   6.205   2.382
10426SOL     OW32176   5.204   4.460   6.745
10426SOL    HW132177   5.133   4.493   6.807
10426SOL    HW232178   5.286   4.436   6.799
10427SOL     OW32179   4.636   0.925   6.811
10427SOL    HW132180   4.577   0.896   6.886
10427SOL    HW232181   4.726   0.884   6.821
10428SOL     OW32182   3.339   1.126   4.263
10428SOL    HW132183   3.324   1.133   4.362
10428SOL    HW232184   3.436   1.139   4.243
10429SOL     OW32185   0.275   4.303   2.567
10429SOL    HW132186   0.294   4.258   2.654
10429SOL    HW232187   0.183   4.276   2.535
10430SOL     OW32188   4.091   6.693   5.426
10430SOL    HW132189   4.039   6.628   5.481
10430SOL    HW232190   4.188   6.690   5.453
10431SOL     OW32191   2.136   6.399   4.054
10431SOL    HW132192   2.122   6.498   4.052
10431SOL    HW232193   2.089   6.361   4.133
10432SOL     OW32194   6.268   0.241   4.995
10432SOL    HW132195   6.192   0.233   4.931
10432SOL    HW232196   6.260   0.168   5.064
10433SOL     OW32197   0.723   6.440   2.742
10433SOL    HW132198   0.718   6.341   2.742
10433SOL    HW232199   0.656   6.477   2.677
10434SOL     OW32200   3.600   6.250   2.842
10434SOL    HW132201   3.510   6.208   2.853
10434SOL    HW232202   3.670   6.178   2.843
10435SOL     OW32203   1.442   2.268   5.435
10435SOL    HW132204   1.451   2.188   5.374
10435SOL    HW232205   1.533   2.294   5.468
10436SOL     OW32206   5.974   4.824   5.362
10436SOL    HW132207   5.994   4.887   5.437
10436SOL    HW232208   5.933   4.874   5.286
10437SOL     OW32209   5.382   4.578   5.865
10437SOL    HW132210   5.365   4.644   5.792
10437SOL    HW232211   5.327   4.602   5.945
10438SOL     OW32212   0.462   5.969   6.282
10438SOL    HW132213   0.554   5.928   6.283
10438SOL    HW232214   0.422   5.958   6.192
10439SOL     OW32215   4.419   1.148   4.726
10439SOL    HW132216   4.334   1.104   4.755
10439SOL    HW232217   4.406   1.190   4.636
10440SOL     OW32218   0.563   6.975   0.629
10440SOL    HW132219   0.577   0.031   0.562
10440SOL    HW232220   0.487   7.000   0.689
10441SOL     OW32221   3.594   1.822   1.731
10441SOL    HW132222   3.541   1.767   1.666
10441SOL    HW232223   3.672   1.769   1.764
10442SOL     OW32224   4.210   6.432   5.936
10442SOL    HW132225   4.263   6.477   5.864
10442SOL    HW232226   4.261   6.437   6.022
10443SOL     OW32227   4.906   2.555   3.286
10443SOL    HW132228   4.977   2.623   3.304
10443SOL    HW232229   4.948   2.471   3.254
10444SOL     OW32230   3.807   5.504   3.232
10444SOL    HW132231   3.725   5.477   3.182
10444SOL    HW232232   3.876   5.432   3.224
10445SOL     OW32233   0.406   4.906   3.960
10445SOL    HW132234   0.385   4.812   3.985
10445SOL    HW232235   0.502   4.924   3.977
10446SOL     OW32236   2.181   3.050   6.331
10446SOL    HW132237   2.133   3.089   6.252
10446SOL    HW232238   2.216   2.960   6.306
10447SOL     OW32239   0.288   1.319   3.164
10447SOL    HW132240   0.252   1.254   3.098
10447SOL    HW232241   0.263   1.412   3.137
10448SOL     OW32242   4.581   0.472   2.713
10448SOL    HW132243   4.536   0.385   2.693
10448SOL    HW232244   4.549   0.542   2.648
10449SOL     OW32245   1.675   5.675   6.365
10449SOL    HW132246   1.772   5.683   6.345
10449SOL    HW232247   1.654   5.722   6.450
10450SOL     OW32248   0.574   1.160   0.162
10450SOL    HW132249   0.530   1.103   0.232
10450SOL    HW232250   0.640   1.221   0.205
10451SOL     OW32251   1.831   5.912   3.184
10451SOL    HW132252   1.931   5.901   3.191
10451SOL    HW232253   1.802   5.891   3.091
10452SOL     OW32254   6.063   3.058   2.320
10452SOL    HW132255   6.010   3.065   2.235
10452SOL    HW232256   6.044   3.137   2.378
10453SOL     OW32257   5.695   6.921   1.460
10453SOL    HW132258   5.693   6.977   1.543
10453SOL    HW232259   5.785   6.878   1.451
10454SOL     OW32260   4.951   3.113   7.006
10454SOL    HW132261   4.870   3.075   0.033
10454SOL    HW232262   4.976   3.057   6.926
10455SOL     OW32263   7.005   6.396   3.220
10455SOL    HW132264   6.998   6.495   3.219
10455SOL    HW232265   0.034   6.367   3.304
10456SOL     OW32266   1.572   5.166   0.267
10456SOL    HW132267   1.580   5.265   0.256
10456SOL    HW232268   1.663   5.125   0.263
10457SOL     OW32269   3.835   3.329   0.843
10457SOL    HW132270   3.776   3.335   0.763
10457SOL    HW232271   3.799   3.388   0.916
10458SOL     OW32272   6.325   0.131   6.155
10458SOL    HW132273   6.416   0.167   6.176
10458SOL    HW232274   6.256   0.201   6.176
10459SOL     OW32275   4.831   5.964   1.198
10459SOL    HW132276   4.824   5.865   1.210
10459SOL    HW232277   4.747   6.007   1.230
10460SOL     OW32278   0.923   3.954   1.761
10460SOL    HW132279   0.883   4.001   1.682
10460SOL    HW232280   1.022   3.968   1.760
10461SOL     OW32281   5.686   5.134   4.827
10461SOL    HW132282   5.658   5.223   4.791
10461SOL    HW232283   5.786   5.127   4.825
10462SOL     OW32284   4.977   1.826   3.461
10462SOL    HW132285   5.057   1.863   3.414
10462SOL    HW232286   5.001   1.739   3.504
10463SOL     OW32287   4.539   2.894   5.938
10463SOL    HW132288   4.555   2.798   5.960
10463SOL    HW232289   4.623   2.946   5.951
10464SOL     OW32290   0.097   6.459   1.749
10464SOL    HW132291   0.030   6.390   1.721
10464SOL    HW232292   0.050   6.542   1.779
10465SOL     OW32293   6.124   5.864   0.495
10465SOL    HW132294   6.156   5.957   0.477
10465SOL    HW232295   6.152   5.804   0.420
10466SOL     OW32296   4.747   5.020   5.831
10466SOL    HW132297   4.745   4.923   5.854
10466SOL    HW232298   4.836   5.043   5.791
10467SOL     OW32299   2.669   1.821   0.008
10467SOL    HW132300   2.734   1.808   6.950
10467SOL    HW232301   2.713   1.798   0.095
10468SOL     OW32302   3.472   5.318   3.310
10468SOL    HW132303   3.519   5.332   3.397
10468SOL    HW232304   3.410   5.240   3.318
10469SOL     OW32305   3.928   4.507   5.459
10469SOL    HW132306   3.845   4.462   5.426
10469SOL    HW232307   3.904   4.580   5.523
10470SOL     OW32308   1.830   2.439   3.757
10470SOL    HW132309   1.848   2.535   3.777
10470SOL    HW232310   1.910   2.398   3.713
10471SOL     OW32311   3.465   0.826   1.000
10471SOL    HW132312   3.513   0.739   0.988
10471SOL    HW232313   3.526   0.902   0.978
10472SOL     OW32314   3.563   5.926   0.721
10472SOL    HW132315   3.614   5.982   0.786
10472SOL    HW232316   3.612   5.840   0.706
10473SOL     OW32317   6.455   0.068   6.995
10473SOL    HW132318   6.543   0.109   6.968
10473SOL    HW232319   6.381   0.121   6.954
10474SOL     OW32320   4.084   1.621   4.107
10474SOL    HW132321   3.996   1.610   4.060
10474SOL    HW232322   4.158   1.621   4.041
10475SOL     OW32323   4.711   6.601   1.212
10475SOL    HW132324   4.654   6.658   1.152
10475SOL    HW232325   4.689   6.622   1.308
10476SOL     OW32326   6.727   6.738   0.165
10476SOL    HW132327   6.719   6.640   0.182
10476SOL    HW232328   6.760   6.753   0.072
10477SOL     OW32329   6.583   0.602   4.499
10477SOL    HW132330   6.639   0.661   4.441
10477SOL    HW232331   6.526   0.659   4.558
10478SOL     OW32332   6.027   0.812   0.846
10478SOL    HW132333   6.085   0.731   0.851
10478SOL    HW232334   5.936   0.786   0.813
10479SOL     OW32335   6.784   1.824   3.087
10479SOL    HW132336   6.875   1.798   3.119
10479SOL    HW232337   6.750   1.901   3.143
10480SOL     OW32338   0.049   0.547   1.499
10480SOL    HW132339   6.973   0.527   1.469
10480SOL    HW232340   0.048   0.579   1.594
10481SOL     OW32341   2.754   6.995   4.446
10481SOL    HW132342   2.783   0.054   4.388
10481SOL    HW232343   2.800   7.002   4.535
10482SOL     OW32344   6.174   5.029   4.125
10482SOL    HW132345   6.273   5.045   4.114
10482SOL    HW232346   6.124   5.091   4.065
10483SOL     OW32347   6.484   4.792   0.384
10483SOL    HW132348   6.558   4.845   0.344
10483SOL    HW232349   6.439   4.846   0.456
10484SOL     OW32350   6.385   2.024   1.695
10484SOL    HW132351   6.440   2.058   1.771
10484SOL    HW232352   6.416   2.067   1.610
10485SOL     OW32353   2.964   3.655   0.309
10485SOL    HW132354   2.997   3.564   0.282
10485SOL    HW232355   3.024   3.725   0.271
10486SOL     OW32356   0.504   0.432   0.739
10486SOL    HW132357   0.463   0.515   0.777
10486SOL    HW232358   0.571   0.395   0.804
10487SOL     OW32359   4.876   1.179   1.302
10487SOL    HW132360   4.796   1.165   1.361
10487SOL    HW232361   4.910   1.091   1.270
10488SOL     OW32362   3.456   1.343   5.611
10488SOL    HW132363   3.550   1.314   5.592
10488SOL    HW232364   3.450   1.443   5.606
10489SOL     OW32365   0.654   6.517   5.190
10489SOL    HW132366   0.697   6.580   5.255
10489SOL    HW232367   0.723   6.482   5.127
10490SOL     OW32368   5.449   1.805   0.749
10490SOL    HW132369   5.474   1.887   0.801
10490SOL    HW232370   5.393   1.745   0.806
10491SOL     OW32371   2.271   2.471   6.068
10491SOL    HW132372   2.238   2.417   6.145
10491SOL    HW232373   2.215   2.451   5.987
10492SOL     OW32374   5.538   5.008   0.449
10492SOL    HW132375   5.617   5.067   0.437
10492SOL    HW232376   5.506   5.013   0.544
10493SOL     OW32377   3.279   0.354   1.753
10493SOL    HW132378   3.338   0.409   1.694
10493SOL    HW232379   3.264   0.264   1.711
10494SOL     OW32380   5.658   3.947   5.918
10494SOL    HW132381   5.693   4.014   5.983
10494SOL    HW232382   5.621   3.995   5.838
10495SOL     OW32383   1.692   0.052   1.519
10495SOL    HW132384   1.694   6.969   1.505
10495SOL    HW232385   1.613   0.090   1.472
10496SOL     OW32386   6.290   3.882   6.334
10496SOL    HW132387   6.371   3.828   6.311
10496SOL    HW232388   6.257   3.856   6.424
10497SOL     OW32389   1.914   0.214   2.073
10497SOL    HW132390   1.886   0.208   2.168
10497SOL    HW232391   2.009   0.248   2.069
10498SOL     OW32392   4.665   5.107   0.949
10498SOL    HW132393   4.697   5.165   0.875
10498SOL    HW232394   4.565   5.101   0.945
10499SOL     OW32395   4.416   6.737   1.991
10499SOL    HW132396   4.425   6.741   2.090
10499SOL    HW232397   4.320   6.741   1.966
10500SOL     OW32398   6.100   0.976   5.742
10500SOL    HW132399   6.093   1.000   5.839
10500SOL    HW232400   6.152   0.891   5.731
10501SOL     OW32401   2.327   5.780   2.163
10501SOL    HW132402   2.309   5.688   2.200
10501SOL    HW232403   2.318   5.778   2.063
10502SOL     OW32404   2.576   1.688   2.121
10502SOL    HW132405   2.563   1.623   2.046
10502SOL    HW232406   2.655   1.662   2.176
10503SOL     OW32407   4.449   2.762   0.927
10503SOL    HW132408   4.506   2.726   1.001
10503SOL    HW232409   4.504   2.820   0.867
10504SOL     OW32410   1.028   1.744   5.599
10504SOL    HW132411   1.036   1.832   5.552
10504SOL    HW232412   1.006   1.673   5.533
10505SOL     OW32413   5.174   5.028   0.863
10505SOL    HW132414   5.098   4.981   0.819
10505SOL    HW232415   5.167   5.019   0.962
10506SOL     OW32416   0.125   4.585   0.579
10506SOL    HW132417   0.072   4.595   0.663
10506SOL    HW232418   0.068   4.542   0.509
10507SOL     OW32419   1.863   6.539   0.569
10507SOL    HW132420   1.963   6.537   0.567
10507SOL    HW232421   1.832   6.552   0.663
10508SOL     OW32422   6.174   5.660   4.237
10508SOL    HW132423   6.114   5.729   4.278
10508SOL    HW232424   6.227   5.701   4.163
10509SOL     OW32425   0.173   5.125   4.587
10509SOL    HW132426   0.127   5.155   4.670
10509SOL    HW232427   0.253   5.069   4.612
10510SOL     OW32428   4.623   5.735   6.687
10510SOL    HW132429   4.690   5.705   6.618
10510SOL    HW232430   4.671   5.779   6.763
10511SOL     OW32431   3.319   0.963   2.147
10511SOL    HW132432   3.412   0.951   2.182
10511SOL    HW232433   3.270   1.029   2.205
10512SOL     OW32434   4.741   6.936   6.544
10512SOL    HW132435   4.721   6.952   6.447
10512SOL    HW232436   4.721   6.841   6.567
10513SOL     OW32437   5.530   2.399   4.443
10513SOL    HW132438   5.510   2.305   4.470
10513SOL    HW232439   5.577   2.445   4.519
10514SOL     OW32440   0.347   3.144   1.008
10514SOL    HW132441   0.259   3.164   0.963
10514SOL    HW232442   0.404   3.090   0.947
10515SOL     OW32443   0.625   3.728   3.317
10515SOL    HW132444   0.557   3.796   3.289
10515SOL    HW232445   0.618   3.713   3.416
10516SOL     OW32446   4.472   1.366   0.607
10516SOL    HW132447   4.374   1.350   0.595
10516SOL    HW232448   4.503   1.324   0.692
10517SOL     OW32449   0.421   3.079   1.414
10517SOL    HW132450   0.483   3.024   1.470
10517SOL    HW232451   0.360   3.019   1.363
10518SOL     OW32452   0.627   5.900   0.394
10518SOL    HW132453   0.653   5.902   0.491
10518SOL    HW232454   0.531   5.871   0.386
10519SOL     OW32455   3.341   3.496   0.520
10519SOL    HW132456   3.416   3.557   0.496
10519SOL    HW232457   3.370   3.435   0.594
10520SOL     OW32458   0.292   2.312   6.012
10520SOL    HW132459   0.236   2.370   6.072
10520SOL    HW232460   0.301   2.356   5.922
10521SOL     OW32461   6.170   5.722   1.685
10521SOL    HW132462   6.111   5.786   1.735
10521SOL    HW232463   6.248   5.698   1.741
10522SOL     OW32464   1.137   0.500   5.403
10522SOL    HW132465   1.146   0.599   5.414
10522SOL    HW232466   1.157   0.456   5.490
10523SOL     OW32467   1.056   4.790   2.709
10523SOL    HW132468   1.104   4.866   2.665
10523SOL    HW232469   0.971   4.823   2.749
10524SOL     OW32470   1.426   6.895   3.866
10524SOL    HW132471   1.426   6.927   3.771
10524SOL    HW232472   1.343   6.926   3.911
10525SOL     OW32473   4.349   6.490   6.394
10525SOL    HW132474   4.412   6.415   6.413
10525SOL    HW232475   4.254   6.457   6.401
10526SOL     OW32476   1.922   6.995   3.531
10526SOL    HW132477   1.935   6.932   3.608
10526SOL    HW232478   1.920   0.072   3.565
10527SOL     OW32479   1.121   1.055   5.428
10527SOL    HW132480   1.188   1.098   5.368
10527SOL    HW232481   1.164   1.032   5.515
10528SOL     OW32482   1.312   3.224   6.019
10528SOL    HW132483   1.394   3.280   6.005
10528SOL    HW232484   1.288   3.179   5.934
10529SOL     OW32485   3.038   6.106   4.248
10529SOL    HW132486   2.977   6.072   4.319
10529SOL    HW232487   3.133   6.086   4.274
10530SOL     OW32488   1.423   0.142   6.485
10530SOL    HW132489   1.498   0.077   6.490
10530SOL    HW232490   1.437   0.215   6.552
10531SOL     OW32491   0.957   2.771   4.442
10531SOL    HW132492   0.987   2.784   4.347
10531SOL    HW232493   0.891   2.842   4.466
10532SOL     OW32494   1.228   6.617   6.269
10532SOL    HW132495   1.263   6.707   6.295
10532SOL    HW232496   1.305   6.554   6.255
10533SOL     OW32497   3.129   6.994   3.801
10533SOL    HW132498   3.128   0.074   3.775
10533SOL    HW232499   3.143   6.986   3.899
10534SOL     OW32500   6.825   5.869   1.458
10534SOL    HW132501   6.783   5.914   1.536
10534SOL    HW232502   6.845   5.937   1.387
10535SOL     OW32503   1.395   2.024   1.570
10535SOL    HW132504   1.411   2.004   1.667
10535SOL    HW232505   1.393   1.938   1.519
10536SOL     OW32506   4.466   0.697   4.160
10536SOL    HW132507   4.547   0.739   4.121
10536SOL    HW232508   4.384   0.739   4.122
10537SOL     OW32509   3.908   6.012   3.700
10537SOL    HW132510   3.825   5.960   3.716
10537SOL    HW232511   3.898   6.104   3.737
10538SOL     OW32512   5.881   2.719   0.711
10538SOL    HW132513   5.897   2.621   0.700
10538SOL    HW232514   5.924   2.769   0.636
10539SOL     OW32515   0.671   4.772   6.960
10539SOL    HW132516   0.572   4.786   6.954
10539SOL    HW232517   0.717   4.824   6.888
10540SOL     OW32518   1.336   1.960   5.485
10540SOL    HW132519   1.395   1.999   5.414
10540SOL    HW232520   1.261   1.910   5.443
10541SOL     OW32521   3.235   3.974   2.036
10541SOL    HW132522   3.252   3.876   2.042
10541SOL    HW232523   3.287   4.022   2.106
10542SOL     OW32524   0.205   0.065   5.494
10542SOL    HW132525   0.126   0.112   5.455
10542SOL    HW232526   0.261   0.026   5.421
10543SOL     OW32527   6.861   1.571   4.334
10543SOL    HW132528   6.781   1.608   4.287
10543SOL    HW232529   6.942   1.625   4.311
10544SOL     OW32530   2.580   6.800   1.873
10544SOL    HW132531   2.511   6.859   1.832
10544SOL    HW232532   2.537   6.737   1.937
10545SOL     OW32533   0.666   2.130   1.608
10545SOL    HW132534   0.754   2.083   1.594
10545SOL    HW232535   0.677   2.200   1.677
10546SOL     OW32536   1.832   1.155   1.138
10546SOL    HW132537   1.776   1.208   1.075
10546SOL    HW232538   1.866   1.073   1.091
10547SOL     OW32539   4.887   3.500   2.797
10547SOL    HW132540   4.879   3.405   2.766
10547SOL    HW232541   4.914   3.558   2.720
10548SOL     OW32542   5.714   4.324   3.955
10548SOL    HW132543   5.689   4.376   4.037
10548SOL    HW232544   5.636   4.271   3.925
10549SOL     OW32545   0.513   0.303   1.876
10549SOL    HW132546   0.485   0.278   1.783
10549SOL    HW232547   0.555   0.224   1.920
10550SOL     OW32548   4.850   6.708   3.758
10550SOL    HW132549   4.874   6.760   3.841
10550SOL    HW232550   4.764   6.743   3.721
10551SOL     OW32551   1.545   2.306   6.703
10551SOL    HW132552   1.485   2.379   6.671
10551SOL    HW232553   1.536   2.226   6.644
10552SOL     OW32554   3.251   0.634   6.021
10552SOL    HW132555   3.199   0.691   6.084
10552SOL    HW232556   3.265   0.684   5.935
10553SOL     OW32557   0.643   4.533   1.924
10553SOL    HW132558   0.712   4.464   1.943
10553SOL    HW232559   0.687   4.623   1.916
10554SOL     OW32560   5.810   4.728   0.619
10554SOL    HW132561   5.773   4.677   0.697
10554SOL    HW232562   5.761   4.703   0.536
10555SOL     OW32563   1.764   2.626   0.332
10555SOL    HW132564   1.812   2.627   0.244
10555SOL    HW232565   1.804   2.696   0.392
10556SOL     OW32566   1.760   1.785   4.874
10556SOL    HW132567   1.769   1.838   4.790
10556SOL    HW232568   1.842   1.798   4.930
10557SOL     OW32569   2.151   3.100   3.414
10557SOL    HW132570   2.154   3.004   3.444
10557SOL    HW232571   2.192   3.158   3.485
10558SOL     OW32572   4.358   0.138   4.184
10558SOL    HW132573   4.410   0.075   4.125
10558SOL    HW232574   4.274   0.166   4.138
10559SOL     OW32575   4.771   0.553   1.890
10559SOL    HW132576   4.788   0.615   1.814
10559SOL    HW232577   4.732   0.603   1.967
10560SOL     OW32578   4.094   5.992   2.705
10560SOL    HW132579   4.178   5.986   2.758
10560SOL    HW232580   4.113   5.970   2.609
10561SOL     OW32581   3.641   4.000   1.593
10561SOL    HW132582   3.623   4.093   1.626
10561SOL    HW232583   3.692   4.005   1.507
10562SOL     OW32584   4.309   5.304   0.255
10562SOL    HW132585   4.298   5.381   0.193
10562SOL    HW232586   4.233   5.240   0.243
10563SOL     OW32587   0.821   1.580   3.532
10563SOL    HW132588   0.766   1.531   3.466
10563SOL    HW232589   0.788   1.675   3.539
10564SOL     OW32590   5.682   6.152   2.574
10564SOL    HW132591   5.654   6.141   2.669
10564SOL    HW232592   5.607   6.126   2.514
10565SOL     OW32593   0.574   6.979   5.724
10565SOL    HW132594   0.575   6.893   5.776
10565SOL    HW232595   0.597   6.960   5.629
10566SOL     OW32596   3.545   1.851   6.336
10566SOL    HW132597   3.445   1.849   6.341
10566SOL    HW232598   3.583   1.817   6.421
10567SOL     OW32599   2.962   2.232   4.779
10567SOL    HW132600   2.914   2.317   4.758
10567SOL    HW232601   3.028   2.249   4.853
10568SOL     OW32602   6.037   3.314   1.877
10568SOL    HW132603   6.120   3.331   1.825
10568SOL    HW232604   5.957   3.338   1.822
10569SOL     OW32605   5.797   1.943   2.364
10569SOL    HW132606   5.853   2.011   2.317
10569SOL    HW232607   5.827   1.935   2.460
10570SOL     OW32608   1.143   5.392   3.280
10570SOL    HW132609   1.048   5.361   3.273
10570SOL    HW232610   1.188   5.380   3.192
10571SOL     OW32611   0.151   4.273   5.632
10571SOL    HW132612   0.117   4.351   5.685
10571SOL    HW232613   0.092   4.194   5.647
10572SOL     OW32614   6.610   4.079   3.587
10572SOL    HW132615   6.590   3.988   3.624
10572SOL    HW232616   6.651   4.136   3.658
10573SOL     OW32617   5.253   0.370   5.295
10573SOL    HW132618   5.253   0.342   5.199
10573SOL    HW232619   5.341   0.347   5.337
10574SOL     OW32620   1.571   1.636   4.248
10574SOL    HW132621   1.532   1.545   4.258
10574SOL    HW232622   1.670   1.629   4.234
10575SOL     OW32623   6.986   1.572   4.036
10575SOL    HW132624   0.029   1.568   4.115
10575SOL    HW232625   6.910   1.508   4.047
10576SOL     OW32626   0.190   5.734   4.954
10576SOL    HW132627   0.135   5.817   4.945
10576SOL    HW232628   0.250   5.742   5.034
10577SOL     OW32629   1.797   4.471   0.043
10577SOL    HW132630   1.870   4.442   0.106
10577SOL    HW232631   1.831   4.463   6.965
10578SOL     OW32632   4.626   1.088   2.915
10578SOL    HW132633   4.690   1.140   2.858
10578SOL    HW232634   4.638   1.115   3.011
10579SOL     OW32635   4.339   2.896   1.333
10579SOL    HW132636   4.290   2.957   1.272
10579SOL    HW232637   4.293   2.807   1.336
10580SOL     OW32638   6.502   0.354   6.560
10580SOL    HW132639   6.586   0.330   6.511
10580SOL    HW232640   6.428   0.365   6.494
10581SOL     OW32641   6.473   6.989   3.343
10581SOL    HW132642   6.487   0.060   3.299
10581SOL    HW232643   6.390   6.946   3.307
10582SOL     OW32644   4.756   4.774   5.916
10582SOL    HW132645   4.789   4.775   6.010
10582SOL    HW232646   4.765   4.681   5.879
10583SOL     OW32647   4.347   0.861   3.901
10583SOL    HW132648   4.413   0.913   3.848
10583SOL    HW232649   4.326   0.775   3.854
10584SOL     OW32650   6.883   0.347   0.611
10584SOL    HW132651   6.922   0.439   0.604
10584SOL    HW232652   6.957   0.280   0.617
10585SOL     OW32653   2.404   1.566   5.365
10585SOL    HW132654   2.448   1.648   5.329
10585SOL    HW232655   2.378   1.581   5.461
10586SOL     OW32656   6.561   5.449   4.384
10586SOL    HW132657   6.529   5.514   4.453
10586SOL    HW232658   6.545   5.488   4.293
10587SOL     OW32659   6.372   4.605   0.217
10587SOL    HW132660   6.305   4.645   0.155
10587SOL    HW232661   6.408   4.675   0.279
10588SOL     OW32662   1.405   3.486   4.300
10588SOL    HW132663   1.441   3.576   4.325
10588SOL    HW232664   1.325   3.497   4.241
10589SOL     OW32665   6.366   1.054   4.753
10589SOL    HW132666   6.284   1.039   4.698
10589SOL    HW232667   6.344   1.043   4.850
10590SOL     OW32668   0.680   0.469   1.699
10590SOL    HW132669   0.632   0.409   1.763
10590SOL    HW232670   0.633   0.469   1.611
10591SOL     OW32671   1.857   1.929   6.960
10591SOL    HW132672   1.871   1.939   0.042
10591SOL    HW232673   1.759   1.925   6.940
10592SOL     OW32674   5.449   3.560   2.422
10592SOL    HW132675   5.458   3.465   2.450
10592SOL    HW232676   5.401   3.565   2.335
10593SOL     OW32677   2.341   6.138   0.545
10593SOL    HW132678   2.327   6.074   0.470
10593SOL    HW232679   2.385   6.221   0.510
10594SOL     OW32680   5.325   0.572   2.778
10594SOL    HW132681   5.230   0.541   2.768
10594SOL    HW232682   5.373   0.511   2.841
10595SOL     OW32683   4.726   6.112   0.071
10595SOL    HW132684   4.677   6.170   0.007
10595SOL    HW232685   4.824   6.132   0.067
10596SOL     OW32686   4.222   0.208   0.391
10596SOL    HW132687   4.168   0.291   0.398
10596SOL    HW232688   4.235   0.184   0.295
10597SOL     OW32689   3.091   1.539   5.502
10597SOL    HW132690   3.169   1.589   5.463
10597SOL    HW232691   3.117   1.444   5.518
10598SOL     OW32692   3.478   3.023   6.749
10598SOL    HW132693   3.469   2.924   6.757
10598SOL    HW232694   3.439   3.067   6.830
10599SOL     OW32695   5.130   3.623   5.840
10599SOL    HW132696   5.046   3.677   5.844
10599SOL    HW232697   5.113   3.533   5.881
10600SOL     OW32698   2.705   2.861   0.587
10600SOL    HW132699   2.610   2.830   0.594
10600SOL    HW232700   2.756   2.800   0.527
10601SOL     OW32701   1.963   4.677   5.059
10601SOL    HW132702   1.876   4.690   5.012
10601SOL    HW232703   1.959   4.593   5.113
10602SOL     OW32704   2.952   0.847   1.832
10602SOL    HW132705   2.854   0.836   1.845
10602SOL    HW232706   2.970   0.869   1.736
10603SOL     OW32707   3.579   0.450   3.483
10603SOL    HW132708   3.648   0.406   3.425
10603SOL    HW232709   3.488   0.431   3.447
10604SOL     OW32710   6.058   5.633   4.977
10604SOL    HW132711   6.049   5.617   4.878
10604SOL    HW232712   6.056   5.546   5.025
10605SOL     OW32713   1.689   6.267   6.930
10605SOL    HW132714   1.649   6.326   6.860
10605SOL    HW232715   1.735   6.323   6.999
10606SOL     OW32716   6.932   1.161   2.317
10606SOL    HW132717   6.980   1.239   2.276
10606SOL    HW232718   6.848   1.193   2.360
10607SOL     OW32719   4.511   4.984   5.658
10607SOL    HW132720   4.447   5.056   5.686
10607SOL    HW232721   4.594   4.990   5.714
10608SOL     OW32722   5.699   3.028   6.184
10608SOL    HW132723   5.599   3.029   6.176
10608SOL    HW232724   5.739   3.001   6.097
10609SOL     OW32725   1.966   6.686   6.883
10609SOL    HW132726   1.902   6.666   6.957
10609SOL    HW232727   2.011   6.601   6.854
10610SOL     OW32728   0.960   1.968   4.676
10610SOL    HW132729   1.010   1.937   4.595
10610SOL    HW232730   0.932   2.063   4.664
10611SOL     OW32731   2.842   3.896   6.344
10611SOL    HW132732   2.830   3.849   6.257
10611SOL    HW232733   2.850   3.995   6.329
10612SOL     OW32734   3.767   1.777   4.706
10612SOL    HW132735   3.761   1.797   4.608
10612SOL    HW232736   3.675   1.779   4.746
10613SOL     OW32737   5.480   6.031   5.433
10613SOL    HW132738   5.447   6.100   5.497
10613SOL    HW232739   5.532   5.961   5.483
10614SOL     OW32740   5.639   1.603   4.616
10614SOL    HW132741   5.643   1.544   4.696
10614SOL    HW232742   5.724   1.655   4.607
10615SOL     OW32743   4.347   6.969   5.647
10615SOL    HW132744   4.403   6.939   5.569
10615SOL    HW232745   4.384   6.931   5.731
10616SOL     OW32746   2.805   6.709   0.710
10616SOL    HW132747   2.878   6.719   0.642
10616SOL    HW232748   2.748   6.630   0.686
10617SOL     OW32749   3.233   3.273   1.706
10617SOL    HW132750   3.247   3.371   1.719
10617SOL    HW232751   3.147   3.246   1.750
10618SOL     OW32752   0.728   3.685   5.957
10618SOL    HW132753   0.684   3.753   6.016
10618SOL    HW232754   0.820   3.665   5.991
10619SOL     OW32755   0.170   3.810   2.004
10619SOL    HW132756   0.129   3.872   2.071
10619SOL    HW232757   0.099   3.750   1.967
10620SOL     OW32758   0.982   5.770   5.212
10620SOL    HW132759   0.940   5.821   5.286
10620SOL    HW232760   1.055   5.825   5.171
10621SOL     OW32761   0.740   5.615   1.608
10621SOL    HW132762   0.666   5.597   1.672
10621SOL    HW232763   0.799   5.534   1.601
10622SOL     OW32764   5.162   2.328   1.381
10622SOL    HW132765   5.206   2.256   1.434
10622SOL    HW232766   5.226   2.404   1.368
10623SOL     OW32767   0.012   4.774   5.218
10623SOL    HW132768   0.092   4.732   5.261
10623SOL    HW232769   6.965   4.702   5.190
10624SOL     OW32770   0.486   2.613   4.529
10624SOL    HW132771   0.448   2.592   4.619
10624SOL    HW232772   0.416   2.657   4.473
10625SOL     OW32773   0.450   4.522   1.050
10625SOL    HW132774   0.437   4.553   0.956
10625SOL    HW232775   0.470   4.424   1.050
10626SOL     OW32776   2.701   2.865   0.089
10626SOL    HW132777   2.663   2.925   0.160
10626SOL    HW232778   2.801   2.867   0.094
10627SOL     OW32779   5.658   6.921   1.061
10627SOL    HW132780   5.588   6.915   0.990
10627SOL    HW232781   5.638   6.854   1.133
10628SOL     OW32782   5.102   6.449   0.335
10628SOL    HW132783   5.036   6.514   0.373
10628SOL    HW232784   5.091   6.445   0.236
10629SOL     OW32785   2.455   4.877   4.962
10629SOL    HW132786   2.430   4.954   5.020
10629SOL    HW232787   2.395   4.799   4.981
10630SOL     OW32788   6.068   1.520   3.903
10630SOL    HW132789   6.019   1.528   3.817
10630SOL    HW232790   6.164   1.498   3.885
10631SOL     OW32791   2.942   5.140   4.988
10631SOL    HW132792   2.861   5.150   5.046
10631SOL    HW232793   3.017   5.193   5.026
10632SOL     OW32794   5.661   1.422   3.977
10632SOL    HW132795   5.723   1.345   3.993
10632SOL    HW232796   5.686   1.498   4.038
10633SOL     OW32797   2.734   2.767   0.878
10633SOL    HW132798   2.730   2.780   0.779
10633SOL    HW232799   2.643   2.747   0.913
10634SOL     OW32800   3.184   4.923   1.017
10634SOL    HW132801   3.263   4.904   0.959
10634SOL    HW232802   3.177   4.853   1.089
10635SOL     OW32803   1.963   2.763   1.073
10635SOL    HW132804   1.940   2.846   1.123
10635SOL    HW232805   1.890   2.741   1.009
10636SOL     OW32806   1.134   2.125   1.458
10636SOL    HW132807   1.216   2.076   1.488
10636SOL    HW232808   1.053   2.085   1.504
10637SOL     OW32809   2.484   4.615   6.534
10637SOL    HW132810   2.552   4.662   6.589
10637SOL    HW232811   2.502   4.516   6.534
10638SOL     OW32812   6.528   5.384   2.897
10638SOL    HW132813   6.490   5.379   2.804
10638SOL    HW232814   6.586   5.465   2.904
10639SOL     OW32815   0.946   3.185   3.451
10639SOL    HW132816   0.889   3.193   3.533
10639SOL    HW232817   0.946   3.272   3.402
10640SOL     OW32818   3.806   0.233   5.425
10640SOL    HW132819   3.863   0.204   5.502
10640SOL    HW232820   3.826   0.176   5.345
10641SOL     OW32821   2.351   1.980   1.854
10641SOL    HW132822   2.398   2.061   1.817
10641SOL    HW232823   2.324   1.920   1.779
10642SOL     OW32824   6.351   2.768   1.661
10642SOL    HW132825   6.346   2.868   1.663
10642SOL    HW232826   6.260   2.729   1.677
10643SOL     OW32827   1.877   5.024   5.204
10643SOL    HW132828   1.904   5.037   5.108
10643SOL    HW232829   1.939   4.958   5.247
10644SOL     OW32830   5.868   2.695   2.680
10644SOL    HW132831   5.773   2.665   2.683
10644SOL    HW232832   5.878   2.778   2.735
10645SOL     OW32833   1.799   2.452   4.818
10645SOL    HW132834   1.776   2.359   4.790
10645SOL    HW232835   1.873   2.487   4.761
10646SOL     OW32836   0.432   0.585   6.737
10646SOL    HW132837   0.511   0.579   6.675
10646SOL    HW232838   0.351   0.613   6.686
10647SOL     OW32839   2.953   5.674   4.490
10647SOL    HW132840   2.928   5.626   4.406
10647SOL    HW232841   2.880   5.665   4.557
10648SOL     OW32842   5.761   4.571   6.109
10648SOL    HW132843   5.695   4.537   6.176
10648SOL    HW232844   5.728   4.550   6.017
10649SOL     OW32845   0.081   4.797   2.516
10649SOL    HW132846   0.056   4.794   2.419
10649SOL    HW232847   0.171   4.838   2.527
10650SOL     OW32848   1.068   0.014   3.535
10650SOL    HW132849   1.007   0.076   3.485
10650SOL    HW232850   1.150   7.013   3.481
10651SOL     OW32851   5.212   5.884   6.707
10651SOL    HW132852   5.312   5.884   6.719
10651SOL    HW232853   5.189   5.929   6.621
10652SOL     OW32854   3.437   6.881   5.815
10652SOL    HW132855   3.510   6.874   5.883
10652SOL    HW232856   3.384   6.796   5.814
10653SOL     OW32857   4.212   4.687   3.708
10653SOL    HW132858   4.134   4.726   3.758
10653SOL    HW232859   4.252   4.613   3.763
10654SOL     OW32860   5.176   0.965   0.582
10654SOL    HW132861   5.111   0.933   0.650
10654SOL    HW232862   5.165   0.912   0.497
10655SOL     OW32863   2.263   5.412   1.085
10655SOL    HW132864   2.341   5.406   1.022
10655SOL    HW232865   2.238   5.508   1.098
10656SOL     OW32866   6.652   2.288   2.716
10656SOL    HW132867   6.696   2.258   2.800
10656SOL    HW232868   6.554   2.296   2.730
10657SOL     OW32869   6.722   6.882   6.095
10657SOL    HW132870   6.759   6.973   6.078
10657SOL    HW232871   6.631   6.875   6.054
10658SOL     OW32872   6.280   4.587   4.818
10658SOL    HW132873   6.230   4.600   4.904
10658SOL    HW232874   6.320   4.495   4.816
10659SOL     OW32875   6.685   5.651   1.095
10659SOL    HW132876   6.681   5.613   1.002
10659SOL    HW232877   6.678   5.577   1.161
10660SOL     OW32878   4.586   4.541   6.569
10660SOL    HW132879   4.683   4.523   6.589
10660SOL    HW232880   4.575   4.639   6.550
10661SOL     OW32881   1.655   0.449   2.119
10661SOL    HW132882   1.706   0.531   2.146
10661SOL    HW232883   1.631   0.456   2.022
10662SOL     OW32884   5.712   6.994   2.945
10662SOL    HW132885   5.800   6.953   2.966
10662SOL    HW232886   5.675   6.952   2.862
10663SOL     OW32887   0.413   1.652   1.706
10663SOL    HW132888   0.493   1.694   1.664
10663SOL    HW232889   0.367   1.593   1.639
10664SOL     OW32890   0.090   4.409   5.358
10664SOL    HW132891   0.140   4.495   5.357
10664SOL    HW232892   0.107   4.362   5.444
10665SOL     OW32893   1.349   0.957   0.315
10665SOL    HW132894   1.361   0.946   0.216
10665SOL    HW232895   1.406   1.033   0.347
10666SOL     OW32896   3.207   3.753   1.085
10666SOL    HW132897   3.212   3.655   1.104
10666SOL    HW232898   3.267   3.775   1.008
10667SOL     OW32899   3.965   3.274   5.409
10667SOL    HW132900   3.913   3.330   5.345
10667SOL    HW232901   3.903   3.233   5.475
10668SOL     OW32902   2.131   0.620   4.888
10668SOL    HW132903   2.088   0.583   4.970
10668SOL    HW232904   2.113   0.559   4.811
10669SOL     OW32905   5.930   6.645   1.095
10669SOL    HW132906   5.871   6.694   1.030
10669SOL    HW232907   6.026   6.655   1.067
10670SOL     OW32908   5.191   3.310   4.981
10670SOL    HW132909   5.171   3.219   4.946
10670SOL    HW232910   5.124   3.335   5.051
10671SOL     OW32911   2.349   2.631   3.025
10671SOL    HW132912   2.267   2.661   2.976
10671SOL    HW232913   2.348   2.669   3.118
10672SOL     OW32914   6.058   2.847   0.558
10672SOL    HW132915   6.062   2.945   0.539
10672SOL    HW232916   6.113   2.797   0.492
10673SOL     OW32917   1.272   1.202   6.492
10673SOL    HW132918   1.305   1.214   6.586
10673SOL    HW232919   1.176   1.175   6.494
10674SOL     OW32920   3.883   3.636   1.845
10674SOL    HW132921   3.976   3.668   1.829
10674SOL    HW232922   3.882   3.536   1.846
10675SOL     OW32923   1.804   6.672   0.083
10675SOL    HW132924   1.755   6.705   0.164
10675SOL    HW232925   1.827   6.576   0.094
10676SOL     OW32926   6.697   6.192   6.302
10676SOL    HW132927   6.776   6.175   6.362
10676SOL    HW232928   6.636   6.112   6.304
10677SOL     OW32929   0.910   0.842   2.546
10677SOL    HW132930   0.989   0.866   2.602
10677SOL    HW232931   0.903   0.905   2.469
10678SOL     OW32932   3.072   6.042   3.972
10678SOL    HW132933   3.148   5.977   3.975
10678SOL    HW232934   3.036   6.056   4.065
10679SOL     OW32935   4.528   5.638   6.338
10679SOL    HW132936   4.439   5.593   6.347
10679SOL    HW232937   4.600   5.574   6.366
10680SOL     OW32938   2.740   1.907   3.053
10680SOL    HW132939   2.793   1.991   3.040
10680SOL    HW232940   2.666   1.903   2.985
10681SOL     OW32941   1.164   3.312   0.093
10681SOL    HW132942   1.251   3.269   0.067
10681SOL    HW232943   1.180   3.382   0.163
10682SOL     OW32944   2.028   1.305   4.495
10682SOL    HW132945   2.127   1.311   4.487
10682SOL    HW232946   1.993   1.388   4.541
10683SOL     OW32947   3.407   2.078   4.051
10683SOL    HW132948   3.497   2.117   4.031
10683SOL    HW232949   3.410   1.979   4.040
10684SOL     OW32950   5.381   4.214   1.073
10684SOL    HW132951   5.282   4.226   1.086
10684SOL    HW232952   5.423   4.195   1.162
10685SOL     OW32953   0.530   5.928   2.831
10685SOL    HW132954   0.494   5.859   2.894
10685SOL    HW232955   0.503   5.905   2.738
10686SOL     OW32956   1.752   4.914   6.175
10686SOL    HW132957   1.702   4.981   6.119
10686SOL    HW232958   1.824   4.960   6.226
10687SOL     OW32959   6.859   5.387   1.997
10687SOL    HW132960   6.825   5.374   2.090
10687SOL    HW232961   6.821   5.317   1.937
10688SOL     OW32962   5.975   4.539   3.044
10688SOL    HW132963   5.907   4.506   3.109
10688SOL    HW232964   6.016   4.460   2.996
10689SOL     OW32965   0.496   6.529   3.508
10689SOL    HW132966   0.539   6.458   3.563
10689SOL    HW232967   0.426   6.488   3.450
10690SOL     OW32968   6.998   6.327   2.729
10690SOL    HW132969   0.025   6.302   2.815
10690SOL    HW232970   6.913   6.275   2.719
10691SOL     OW32971   0.494   1.960   1.940
10691SOL    HW132972   0.568   2.027   1.941
10691SOL    HW232973   0.441   1.967   2.024
10692SOL     OW32974   2.899   5.056   2.994
10692SOL    HW132975   2.890   4.956   2.997
10692SOL    HW232976   2.816   5.096   2.954
10693SOL     OW32977   2.867   0.314   0.369
10693SOL    HW132978   2.778   0.271   0.377
10693SOL    HW232979   2.936   0.258   0.416
10694SOL     OW32980   5.431   6.601   1.523
10694SOL    HW132981   5.459   6.679   1.578
10694SOL    HW232982   5.510   6.542   1.506
10695SOL     OW32983   5.397   1.935   2.790
10695SOL    HW132984   5.353   1.891   2.712
10695SOL    HW232985   5.354   2.023   2.808
10696SOL     OW32986   6.920   3.947   3.726
10696SOL    HW132987   6.886   4.002   3.803
10696SOL    HW232988   6.886   3.854   3.735
10697SOL     OW32989   0.705   5.443   4.806
10697SOL    HW132990   0.790   5.474   4.849
10697SOL    HW232991   0.627   5.489   4.850
10698SOL     OW32992   4.113   5.719   4.571
10698SOL    HW132993   4.057   5.648   4.529
10698SOL    HW232994   4.203   5.683   4.593
10699SOL     OW32995   3.959   2.839   1.657
10699SOL    HW132996   3.980   2.922   1.708
10699SOL    HW232997   3.864   2.841   1.627
10700SOL     OW32998   0.708   6.812   0.818
10700SOL    HW132999   0.677   6.876   0.748
10700SOL    HW233000   0.644   6.813   0.894
10701SOL     OW33001   3.200   5.834   0.069
10701SOL    HW133002   3.254   5.847   0.152
10701SOL    HW233003   3.119   5.779   0.090
10702SOL     OW33004   6.099   2.646   1.968
10702SOL    HW133005   6.124   2.550   1.963
10702SOL    HW233006   6.014   2.657   2.019
10703SOL     OW33007   2.935   3.334   4.480
10703SOL    HW133008   2.932   3.244   4.437
10703SOL    HW233009   2.957   3.325   4.577
10704SOL     OW33010   6.357   5.601   1.296
10704SOL    HW133011   6.297   5.650   1.360
10704SOL    HW233012   6.451   5.602   1.331
10705SOL     OW33013   6.643   4.279   2.358
10705SOL    HW133014   6.548   4.268   2.386
10705SOL    HW233015   6.691   4.336   2.424
10706SOL     OW33016   4.592   6.574   2.238
10706SOL    HW133017   4.593   6.635   2.317
10706SOL    HW233018   4.550   6.487   2.264
10707SOL     OW33019   0.360   6.736   3.642
10707SOL    HW133020   0.427   6.776   3.706
10707SOL    HW233021   0.407   6.670   3.583
10708SOL     OW33022   4.349   0.813   2.630
10708SOL    HW133023   4.331   0.721   2.665
10708SOL    HW233024   4.386   0.807   2.537
10709SOL     OW33025   6.137   6.794   5.030
10709SOL    HW133026   6.047   6.819   4.993
10709SOL    HW233027   6.194   6.757   4.956
10710SOL     OW33028   0.578   6.840   4.739
10710SOL    HW133029   0.540   6.876   4.654
10710SOL    HW233030   0.669   6.879   4.754
10711SOL     OW33031   1.762   6.387   3.263
10711SOL    HW133032   1.754   6.421   3.356
10711SOL    HW233033   1.858   6.388   3.235
10712SOL     OW33034   2.780   1.120   1.223
10712SOL    HW133035   2.723   1.058   1.275
10712SOL    HW233036   2.724   1.194   1.186
10713SOL     OW33037   0.932   3.350   1.433
10713SOL    HW133038   1.022   3.352   1.389
10713SOL    HW233039   0.860   3.352   1.363
10714SOL     OW33040   6.485   3.856   5.780
10714SOL    HW133041   6.508   3.760   5.790
10714SOL    HW233042   6.465   3.895   5.870
10715SOL     OW33043   4.438   0.180   2.717
10715SOL    HW133044   4.533   0.175   2.686
10715SOL    HW233045   4.380   0.122   2.659
10716SOL     OW33046   5.951   2.959   4.345
10716SOL    HW133047   5.856   2.939   4.369
10716SOL    HW233048   5.977   3.048   4.383
10717SOL     OW33049   1.055   2.708   0.883
10717SOL    HW133050   1.131   2.660   0.840
10717SOL    HW233051   0.984   2.725   0.814
10718SOL     OW33052   0.159   3.161   6.581
10718SOL    HW133053   0.218   3.242   6.573
10718SOL    HW233054   0.161   3.109   6.496
10719SOL     OW33055   5.023   5.866   6.883
10719SOL    HW133056   5.077   5.851   6.966
10719SOL    HW233057   5.085   5.886   6.807
10720SOL     OW33058   6.653   3.047   5.872
10720SOL    HW133059   6.717   2.986   5.826
10720SOL    HW233060   6.593   3.091   5.804
10721SOL     OW33061   6.522   3.991   4.998
10721SOL    HW133062   6.512   4.079   5.044
10721SOL    HW233063   6.618   3.964   4.998
10722SOL     OW33064   6.966   3.807   0.493
10722SOL    HW133065   6.909   3.789   0.573
10722SOL    HW233066   0.016   3.879   0.515
10723SOL     OW33067   6.917   3.557   6.980
10723SOL    HW133068   6.884   3.470   6.942
10723SOL    HW233069   6.850   3.629   6.960
10724SOL     OW33070   4.594   0.206   0.085
10724SOL    HW133071   4.686   0.213   0.047
10724SOL    HW233072   4.527   0.228   0.013
10725SOL     OW33073   0.093   5.315   3.667
10725SOL    HW133074   0.051   5.274   3.585
10725SOL    HW233075   0.180   5.358   3.642
10726SOL     OW33076   5.891   6.187   5.382
10726SOL    HW133077   5.895   6.120   5.456
10726SOL    HW233078   5.822   6.159   5.315
10727SOL     OW33079   0.676   4.970   3.986
10727SOL    HW133080   0.768   4.951   4.019
10727SOL    HW233081   0.654   5.066   4.003
10728SOL     OW33082   6.650   6.001   1.639
10728SOL    HW133083   6.567   6.041   1.603
10728SOL    HW233084   6.636   5.903   1.656
10729SOL     OW33085   5.785   0.998   3.153
10729SOL    HW133086   5.717   1.046   3.096
10729SOL    HW233087   5.805   1.052   3.234
10730SOL     OW33088   2.777   0.771   0.963
10730SOL    HW133089   2.704   0.833   0.991
10730SOL    HW233090   2.849   0.824   0.917
10731SOL     OW33091   2.264   5.802   6.525
10731SOL    HW133092   2.242   5.791   6.622
10731SOL    HW233093   2.337   5.869   6.514
10732SOL     OW33094   5.466   6.213   2.765
10732SOL    HW133095   5.499   6.158   2.841
10732SOL    HW233096   5.390   6.165   2.720
10733SOL     OW33097   5.510   1.987   6.831
10733SOL    HW133098   5.416   1.955   6.848
10733SOL    HW233099   5.522   2.078   6.871
10734SOL     OW33100   1.171   6.902   6.806
10734SOL    HW133101   1.144   6.904   6.902
10734SOL    HW233102   1.173   6.996   6.770
10735SOL     OW33103   1.861   4.837   2.649
10735SOL    HW133104   1.834   4.845   2.554
10735SOL    HW233105   1.960   4.847   2.657
10736SOL     OW33106   0.662   1.037   3.529
10736SOL    HW133107   0.663   1.127   3.573
10736SOL    HW233108   0.630   1.045   3.435
10737SOL     OW33109   1.382   1.850   0.439
10737SOL    HW133110   1.465   1.883   0.483
10737SOL    HW233111   1.371   1.752   0.456
10738SOL     OW33112   2.555   0.735   2.312
10738SOL    HW133113   2.490   0.661   2.296
10738SOL    HW233114   2.623   0.737   2.239
10739SOL     OW33115   0.800   1.393   2.241
10739SOL    HW133116   0.800   1.337   2.158
10739SOL    HW233117   0.860   1.472   2.228
10740SOL     OW33118   1.503   4.340   6.249
10740SOL    HW133119   1.548   4.407   6.308
10740SOL    HW233120   1.427   4.384   6.201
10741SOL     OW33121   0.381   1.122   3.629
10741SOL    HW133122   0.362   1.187   3.556
10741SOL    HW233123   0.467   1.075   3.610
10742SOL     OW33124   6.189   0.305   1.992
10742SOL    HW133125   6.123   0.328   2.063
10742SOL    HW233126   6.172   0.212   1.959
10743SOL     OW33127   2.559   2.399   3.591
10743SOL    HW133128   2.480   2.341   3.572
10743SOL    HW233129   2.571   2.465   3.516
10744SOL     OW33130   3.390   1.786   2.990
10744SOL    HW133131   3.481   1.808   2.954
10744SOL    HW233132   3.400   1.740   3.079
10745SOL     OW33133   0.765   5.195   0.660
10745SOL    HW133134   0.738   5.280   0.704
10745SOL    HW233135   0.861   5.175   0.680
10746SOL     OW33136   1.884   3.934   1.779
10746SOL    HW133137   1.971   3.970   1.747
10746SOL    HW233138   1.859   3.853   1.727
10747SOL     OW33139   4.458   1.556   3.333
10747SOL    HW133140   4.413   1.644   3.345
10747SOL    HW233141   4.395   1.482   3.357
10748SOL     OW33142   4.515   6.698   1.047
10748SOL    HW133143   4.468   6.777   1.085
10748SOL    HW233144   4.538   6.716   0.951
10749SOL     OW33145   0.092   4.692   3.082
10749SOL    HW133146   0.131   4.620   3.140
10749SOL    HW233147   0.029   4.651   3.016
10750SOL     OW33148   3.907   6.078   4.229
10750SOL    HW133149   3.834   6.018   4.263
10750SOL    HW233150   3.897   6.169   4.269
10751SOL     OW33151   0.906   3.642   5.625
10751SOL    HW133152   0.883   3.635   5.528
10751SOL    HW233153   0.837   3.593   5.679
10752SOL     OW33154   6.492   3.940   6.086
10752SOL    HW133155   6.580   3.909   6.051
10752SOL    HW233156   6.465   3.883   6.164
10753SOL     OW33157   5.425   0.755   3.424
10753SOL    HW133158   5.390   0.710   3.342
10753SOL    HW233159   5.517   0.720   3.443
10754SOL     OW33160   1.796   1.557   3.689
10754SOL    HW133161   1.718   1.620   3.694
10754SOL    HW233162   1.822   1.543   3.594
10755SOL     OW33163   0.661   1.823   0.512
10755SOL    HW133164   0.695   1.880   0.587
10755SOL    HW233165   0.574   1.860   0.479
10756SOL     OW33166   6.292   4.149   0.187
10756SOL    HW133167   6.211   4.198   0.218
10756SOL    HW233168   6.372   4.182   0.238
10757SOL     OW33169   0.368   3.533   0.440
10757SOL    HW133170   0.401   3.452   0.391
10757SOL    HW233171   0.296   3.577   0.386
10758SOL     OW33172   1.355   6.205   4.634
10758SOL    HW133173   1.282   6.204   4.703
10758SOL    HW233174   1.325   6.257   4.555
10759SOL     OW33175   1.530   2.763   6.846
10759SOL    HW133176   1.589   2.734   6.771
10759SOL    HW233177   1.572   2.736   6.933
10760SOL     OW33178   0.000   0.623   0.541
10760SOL    HW133179   0.080   0.563   0.530
10760SOL    HW233180   0.023   0.699   0.601
10761SOL     OW33181   0.870   1.701   6.001
10761SOL    HW133182   0.899   1.727   6.093
10761SOL    HW233183   0.946   1.714   5.937
10762SOL     OW33184   4.077   1.835   4.984
10762SOL    HW133185   4.047   1.739   4.985
10762SOL    HW233186   4.155   1.844   4.922
10763SOL     OW33187   4.778   6.297   0.844
10763SOL    HW133188   4.795   6.382   0.794
10763SOL    HW233189   4.825   6.301   0.932
10764SOL     OW33190   5.428   1.658   5.559
10764SOL    HW133191   5.335   1.622   5.554
10764SOL    HW233192   5.466   1.643   5.650
10765SOL     OW33193   5.555   2.849   1.281
10765SOL    HW133194   5.652   2.841   1.304
10765SOL    HW233195   5.545   2.853   1.182
10766SOL     OW33196   3.622   3.237   0.213
10766SOL    HW133197   3.721   3.222   0.222
10766SOL    HW233198   3.596   3.320   0.262
10767SOL     OW33199   1.420   0.424   6.977
10767SOL    HW133200   1.322   0.418   6.996
10767SOL    HW233201   1.465   0.477   0.032
10768SOL     OW33202   5.278   5.359   1.471
10768SOL    HW133203   5.199   5.345   1.531
10768SOL    HW233204   5.277   5.453   1.437
10769SOL     OW33205   1.955   4.884   4.701
10769SOL    HW133206   1.930   4.920   4.611
10769SOL    HW233207   1.952   4.784   4.698
10770SOL     OW33208   5.330   6.930   4.974
10770SOL    HW133209   5.238   6.926   4.934
10770SOL    HW233210   5.343   0.001   5.019
10771SOL     OW33211   4.452   0.193   5.285
10771SOL    HW133212   4.532   0.198   5.344
10771SOL    HW233213   4.417   0.099   5.284
10772SOL     OW33214   6.211   6.903   4.068
10772SOL    HW133215   6.162   6.882   4.152
10772SOL    HW233216   6.309   6.889   4.081
10773SOL     OW33217   6.527   5.132   6.052
10773SOL    HW133218   6.504   5.069   6.127
10773SOL    HW233219   6.566   5.216   6.090
10774SOL     OW33220   1.706   1.561   6.542
10774SOL    HW133221   1.800   1.546   6.571
10774SOL    HW233222   1.671   1.480   6.496
10775SOL     OW33223   0.739   3.840   1.014
10775SOL    HW133224   0.659   3.785   0.992
10775SOL    HW233225   0.815   3.779   1.038
10776SOL     OW33226   1.383   6.215   0.591
10776SOL    HW133227   1.333   6.232   0.505
10776SOL    HW233228   1.402   6.117   0.599
10777SOL     OW33229   4.123   6.223   3.809
10777SOL    HW133230   4.157   6.200   3.717
10777SOL    HW233231   4.036   6.271   3.801
10778SOL     OW33232   6.010   6.186   4.936
10778SOL    HW133233   6.104   6.213   4.952
10778SOL    HW233234   5.987   6.105   4.990
10779SOL     OW33235   5.825   4.984   3.194
10779SOL    HW133236   5.901   5.044   3.171
10779SOL    HW233237   5.859   4.891   3.209
10780SOL     OW33238   1.645   6.865   3.132
10780SOL    HW133239   1.578   6.803   3.092
10780SOL    HW233240   1.655   6.845   3.229
10781SOL     OW33241   3.873   1.264   3.524
10781SOL    HW133242   3.843   1.189   3.583
10781SOL    HW233243   3.963   1.242   3.485
10782SOL     OW33244   6.684   1.885   3.812
10782SOL    HW133245   6.769   1.835   3.828
10782SOL    HW233246   6.668   1.892   3.714
10783SOL     OW33247   1.358   3.327   3.783
10783SOL    HW133248   1.447   3.314   3.826
10783SOL    HW233249   1.357   3.415   3.736
10784SOL     OW33250   2.950   0.391   2.669
10784SOL    HW133251   2.899   0.308   2.649
10784SOL    HW233252   3.042   0.384   2.629
10785SOL     OW33253   0.867   4.872   0.905
10785SOL    HW133254   0.933   4.804   0.875
10785SOL    HW233255   0.911   4.937   0.966
10786SOL     OW33256   4.888   3.268   1.842
10786SOL    HW133257   4.935   3.318   1.915
10786SOL    HW233258   4.813   3.214   1.880
10787SOL     OW33259   3.031   2.165   4.362
10787SOL    HW133260   3.083   2.170   4.277
10787SOL    HW233261   3.093   2.151   4.439
10788SOL     OW33262   1.982   4.317   0.540
10788SOL    HW133263   1.890   4.325   0.579
10788SOL    HW233264   1.978   4.260   0.458
10789SOL     OW33265   6.009   2.392   0.171
10789SOL    HW133266   6.057   2.344   0.097
10789SOL    HW233267   5.951   2.463   0.132
10790SOL     OW33268   1.360   0.900   3.719
10790SOL    HW133269   1.448   0.892   3.764
10790SOL    HW233270   1.295   0.836   3.760
10791SOL     OW33271   0.454   1.346   1.208
10791SOL    HW133272   0.418   1.305   1.124
10791SOL    HW233273   0.431   1.443   1.211
10792SOL     OW33274   3.878   3.344   1.847
10792SOL    HW133275   3.825   3.260   1.860
10792SOL    HW233276   3.962   3.338   1.901
10793SOL     OW33277   5.370   2.990   4.143
10793SOL    HW133278   5.297   2.980   4.211
10793SOL    HW233279   5.359   2.920   4.072
10794SOL     OW33280   3.051   3.744   2.986
10794SOL    HW133281   2.978   3.710   2.927
10794SOL    HW233282   3.112   3.668   3.009
10795SOL     OW33283   6.819   3.704   3.761
10795SOL    HW133284   6.859   3.688   3.852
10795SOL    HW233285   6.779   3.619   3.728
10796SOL     OW33286   4.885   6.387   6.888
10796SOL    HW133287   4.883   6.292   6.860
10796SOL    HW233288   4.797   6.411   6.931
10797SOL     OW33289   4.511   2.296   1.199
10797SOL    HW133290   4.545   2.381   1.240
10797SOL    HW233291   4.570   2.220   1.226
10798SOL     OW33292   2.139   6.768   0.599
10798SOL    HW133293   2.148   6.761   0.698
10798SOL    HW233294   2.229   6.780   0.558
10799SOL     OW33295   3.464   1.173   1.961
10799SOL    HW133296   3.542   1.221   2.001
10799SOL    HW233297   3.480   1.074   1.964
10800SOL     OW33298   1.256   0.089   0.091
10800SOL    HW133299   1.194   0.145   0.036
10800SOL    HW233300   1.343   0.079   0.044
10801SOL     OW33301   1.047   0.014   4.937
10801SOL    HW133302   1.100   7.012   4.854
10801SOL    HW233303   1.039   0.113   4.948
10802SOL     OW33304   1.887   3.079   4.224
10802SOL    HW133305   1.976   3.106   4.260
10802SOL    HW233306   1.816   3.098   4.292
10803SOL     OW33307   4.090   4.332   5.555
10803SOL    HW133308   4.109   4.267   5.481
10803SOL    HW233309   4.023   4.399   5.524
10804SOL     OW33310   6.755   4.229   1.436
10804SOL    HW133311   6.784   4.226   1.341
10804SOL    HW233312   6.802   4.305   1.483
10805SOL     OW33313   3.294   6.688   6.608
10805SOL    HW133314   3.312   6.785   6.593
10805SOL    HW233315   3.229   6.677   6.683
10806SOL     OW33316   4.955   4.524   6.311
10806SOL    HW133317   4.873   4.533   6.255
10806SOL    HW233318   4.952   4.438   6.361
10807SOL     OW33319   2.286   0.108   3.469
10807SOL    HW133320   2.280   0.025   3.525
10807SOL    HW233321   2.194   0.140   3.447
10808SOL     OW33322   6.621   4.173   6.692
10808SOL    HW133323   6.549   4.146   6.628
10808SOL    HW233324   6.605   4.266   6.725
10809SOL     OW33325   2.320   6.206   3.486
10809SOL    HW133326   2.243   6.239   3.540
10809SOL    HW233327   2.352   6.279   3.426
10810SOL     OW33328   1.732   6.975   4.601
10810SOL    HW133329   1.686   6.904   4.547
10810SOL    HW233330   1.692   6.977   4.693
10811SOL     OW33331   4.197   4.657   5.820
10811SOL    HW133332   4.247   4.589   5.768
10811SOL    HW233333   4.191   4.742   5.767
10812SOL     OW33334   0.910   3.521   1.815
10812SOL    HW133335   0.885   3.618   1.821
10812SOL    HW233336   0.836   3.465   1.854
10813SOL     OW33337   1.527   5.805   0.245
10813SOL    HW133338   1.575   5.893   0.240
10813SOL    HW233339   1.587   5.735   0.283
10814SOL     OW33340   1.512   6.630   0.184
10814SOL    HW133341   1.573   6.628   0.263
10814SOL    HW233342   1.482   6.537   0.163
10815SOL     OW33343   4.906   4.848   3.179
10815SOL    HW133344   4.839   4.911   3.219
10815SOL    HW233345   4.945   4.790   3.250
10816SOL     OW33346   1.204   1.807   1.724
10816SOL    HW133347   1.204   1.789   1.625
10816SOL    HW233348   1.253   1.893   1.741
10817SOL     OW33349   5.233   0.143   2.235
10817SOL    HW133350   5.148   0.140   2.183
10817SOL    HW233351   5.243   0.232   2.279
10818SOL     OW33352   4.357   4.213   5.309
10818SOL    HW133353   4.454   4.202   5.285
10818SOL    HW233354   4.332   4.309   5.302
10819SOL     OW33355   6.960   4.441   6.968
10819SOL    HW133356   6.927   4.361   0.003
10819SOL    HW233357   6.894   4.516   6.978
10820SOL     OW33358   5.708   5.774   4.376
10820SOL    HW133359   5.754   5.695   4.335
10820SOL    HW233360   5.611   5.753   4.389
10821SOL     OW33361   5.689   6.366   2.186
10821SOL    HW133362   5.731   6.370   2.277
10821SOL    HW233363   5.627   6.445   2.175
10822SOL     OW33364   0.972   2.898   3.056
10822SOL    HW133365   0.944   2.994   3.064
10822SOL    HW233366   1.052   2.882   3.112
10823SOL     OW33367   1.630   5.190   2.256
10823SOL    HW133368   1.633   5.100   2.299
10823SOL    HW233369   1.653   5.181   2.159
10824SOL     OW33370   5.058   0.116   4.174
10824SOL    HW133371   4.962   0.097   4.188
10824SOL    HW233372   5.071   0.215   4.162
10825SOL     OW33373   3.082   0.498   6.730
10825SOL    HW133374   3.105   0.485   6.826
10825SOL    HW233375   3.077   0.410   6.684
10826SOL     OW33376   0.594   3.528   3.970
10826SOL    HW133377   0.572   3.534   3.872
10826SOL    HW233378   0.651   3.448   3.987
10827SOL     OW33379   5.774   4.105   4.575
10827SOL    HW133380   5.819   4.122   4.487
10827SOL    HW233381   5.842   4.079   4.643
10828SOL     OW33382   1.275   5.425   1.758
10828SOL    HW133383   1.183   5.409   1.793
10828SOL    HW233384   1.314   5.507   1.802
10829SOL     OW33385   3.690   2.441   0.663
10829SOL    HW133386   3.633   2.423   0.743
10829SOL    HW233387   3.669   2.375   0.592
10830SOL     OW33388   5.419   2.005   3.723
10830SOL    HW133389   5.352   2.012   3.798
10830SOL    HW233390   5.468   1.918   3.731
10831SOL     OW33391   4.121   5.983   1.547
10831SOL    HW133392   4.068   6.017   1.624
10831SOL    HW233393   4.219   5.999   1.563
10832SOL     OW33394   0.310   2.219   0.454
10832SOL    HW133395   0.243   2.191   0.523
10832SOL    HW233396   0.387   2.155   0.454
10833SOL     OW33397   1.464   1.248   3.086
10833SOL    HW133398   1.392   1.315   3.066
10833SOL    HW233399   1.471   1.183   3.010
10834SOL     OW33400   1.475   2.052   6.086
10834SOL    HW133401   1.476   2.018   6.180
10834SOL    HW233402   1.381   2.066   6.056
10835SOL     OW33403   6.141   1.976   0.760
10835SOL    HW133404   6.152   1.904   0.828
10835SOL    HW233405   6.216   2.041   0.768
10836SOL     OW33406   6.608   1.234   4.821
10836SOL    HW133407   6.594   1.135   4.817
10836SOL    HW233408   6.520   1.281   4.812
10837SOL     OW33409   0.476   4.954   0.341
10837SOL    HW133410   0.442   4.873   0.390
10837SOL    HW233411   0.416   4.973   0.263
10838SOL     OW33412   5.822   6.516   5.174
10838SOL    HW133413   5.910   6.482   5.140
10838SOL    HW233414   5.776   6.567   5.101
10839SOL     OW33415   3.202   3.304   0.359
10839SOL    HW133416   3.234   3.220   0.404
10839SOL    HW233417   3.251   3.383   0.397
10840SOL     OW33418   3.684   5.475   1.375
10840SOL    HW133419   3.595   5.433   1.389
10840SOL    HW233420   3.701   5.485   1.277
10841SOL     OW33421   3.807   6.714   0.717
10841SOL    HW133422   3.721   6.717   0.666
10841SOL    HW233423   3.880   6.682   0.657
10842SOL     OW33424   5.369   3.472   1.246
10842SOL    HW133425   5.325   3.448   1.332
10842SOL    HW233426   5.445   3.409   1.229
10843SOL     OW33427   1.063   2.172   1.908
10843SOL    HW133428   1.083   2.080   1.877
10843SOL    HW233429   1.010   2.220   1.838
10844SOL     OW33430   0.165   6.911   3.974
10844SOL    HW133431   0.248   6.873   4.014
10844SOL    HW233432   0.175   7.010   3.964
10845SOL     OW33433   3.405   0.599   6.979
10845SOL    HW133434   3.428   0.622   6.885
10845SOL    HW233435   3.306   0.604   6.993
10846SOL     OW33436   4.910   3.133   0.952
10846SOL    HW133437   4.890   3.114   1.048
10846SOL    HW233438   4.870   3.221   0.926
10847SOL     OW33439   3.727   2.966   6.625
10847SOL    HW133440   3.762   2.968   6.532
10847SOL    HW233441   3.658   3.038   6.637
10848SOL     OW33442   3.011   2.560   6.933
10848SOL    HW133443   2.931   2.510   6.967
10848SOL    HW233444   2.982   2.620   6.858
10849SOL     OW33445   2.437   4.564   2.825
10849SOL    HW133446   2.350   4.605   2.797
10849SOL    HW233447   2.420   4.486   2.885
10850SOL     OW33448   4.057   6.122   0.370
10850SOL    HW133449   4.117   6.054   0.330
10850SOL    HW233450   3.962   6.099   0.349
10851SOL     OW33451   2.891   2.902   6.427
10851SOL    HW133452   2.906   2.804   6.438
10851SOL    HW233453   2.795   2.919   6.405
10852SOL     OW33454   0.413   6.520   6.236
10852SOL    HW133455   0.502   6.501   6.195
10852SOL    HW233456   0.373   6.434   6.268
10853SOL     OW33457   3.576   1.717   5.922
10853SOL    HW133458   3.577   1.660   6.004
10853SOL    HW233459   3.558   1.812   5.948
10854SOL     OW33460   5.719   6.427   5.403
10854SOL    HW133461   5.767   6.341   5.426
10854SOL    HW233462   5.738   6.451   5.308
10855SOL     OW33463   2.846   6.154   2.114
10855SOL    HW133464   2.813   6.060   2.128
10855SOL    HW233465   2.771   6.210   2.079
10856SOL     OW33466   6.144   1.729   2.276
10856SOL    HW133467   6.059   1.695   2.234
10856SOL    HW233468   6.164   1.820   2.241
10857SOL     OW33469   5.755   3.401   3.286
10857SOL    HW133470   5.733   3.370   3.378
10857SOL    HW233471   5.776   3.499   3.288
10858SOL     OW33472   0.870   2.322   6.537
10858SOL    HW133473   0.905   2.293   6.626
10858SOL    HW233474   0.808   2.252   6.501
10859SOL     OW33475   2.172   3.848   3.823
10859SOL    HW133476   2.217   3.852   3.734
10859SOL    HW233477   2.194   3.760   3.866
10860SOL     OW33478   6.505   1.139   6.042
10860SOL    HW133479   6.558   1.122   6.125
10860SOL    HW233480   6.447   1.219   6.056
10861SOL     OW33481   3.794   2.946   2.927
10861SOL    HW133482   3.754   2.914   3.013
10861SOL    HW233483   3.870   3.008   2.947
10862SOL     OW33484   3.051   1.577   6.701
10862SOL    HW133485   3.027   1.481   6.687
10862SOL    HW233486   3.109   1.585   6.782
10863SOL     OW33487   4.048   0.451   2.153
10863SOL    HW133488   3.963   0.502   2.139
10863SOL    HW233489   4.046   0.408   2.243
10864SOL     OW33490   2.612   5.119   0.759
10864SOL    HW133491   2.570   5.186   0.698
10864SOL    HW233492   2.699   5.154   0.793
10865SOL     OW33493   5.641   1.565   3.748
10865SOL    HW133494   5.550   1.608   3.754
10865SOL    HW233495   5.658   1.512   3.831
10866SOL     OW33496   5.031   5.114   0.606
10866SOL    HW133497   5.124   5.150   0.602
10866SOL    HW233498   4.986   5.129   0.518
10867SOL     OW33499   3.224   4.292   0.345
10867SOL    HW133500   3.283   4.278   0.425
10867SOL    HW233501   3.140   4.239   0.356
10868SOL     OW33502   1.895   2.005   3.914
10868SOL    HW133503   1.821   2.005   3.847
10868SOL    HW233504   1.885   1.926   3.975
10869NA      NA33505   0.290   2.137   6.177
10870NA      NA33506   4.361   4.655   5.223
10871NA      NA33507   2.411   4.494   2.306
10872NA      NA33508   4.881   4.155   3.662
10873NA      NA33509   4.308   2.447   5.279
10874NA      NA33510   3.280   4.283   1.575
10875NA      NA33511   0.674   4.582   0.084
10876NA      NA33512   3.755   3.912   2.519
10877NA      NA33513   4.926   4.926   1.240
10878NA      NA33514   3.433   0.063   5.678
10879NA      NA33515   6.063   5.777   0.701
10880NA      NA33516   2.378   0.657   5.241
10881NA      NA33517   4.068   4.683   1.667
10882NA      NA33518   3.963   2.731   1.191
   7.01679   7.01679   7.01679
