Generated by trjconv : CNT in water t= 513.00000
33518
    1C        C    1   2.839   2.767   4.747
    1C        C    2   2.892   2.713   4.867
    1C        C    3   2.839   2.769   4.984
    1C        C    4   2.843   2.768   4.261
    1C        C    5   2.899   2.727   4.384
    1C        C    6   2.845   2.776   4.505
    1C        C    7   3.010   2.641   4.626
    1C        C    8   2.893   2.720   4.625
    1C        C    9   3.076   2.605   4.746
    1C        C   10   3.003   2.627   4.865
    1C        C   11   3.179   2.495   4.977
    1C        C   12   3.051   2.553   4.973
    1C        C   13   2.850   2.772   3.771
    1C        C   14   2.900   2.723   3.894
    1C        C   15   2.849   2.773   4.016
    1C        C   16   3.017   2.647   4.138
    1C        C   17   2.899   2.725   4.139
    1C        C   18   3.080   2.617   4.261
    1C        C   19   3.020   2.654   4.383
    1C        C   20   3.208   2.559   4.503
    1C        C   21   3.075   2.607   4.505
    1C        C   22   3.274   2.531   4.624
    1C        C   23   3.204   2.543   4.746
    1C        C   24   3.411   2.483   4.866
    1C        C   25   3.268   2.499   4.865
    1C        C   26   3.489   2.474   4.982
    1C        C   27   2.844   2.767   3.282
    1C        C   28   2.902   2.723   3.402
    1C        C   29   2.848   2.769   3.524
    1C        C   30   3.016   2.643   3.648
    1C        C   31   2.902   2.727   3.648
    1C        C   32   3.076   2.606   3.770
    1C        C   33   3.015   2.641   3.893
    1C        C   34   3.206   2.552   4.017
    1C        C   35   3.077   2.610   4.016
    1C        C   36   3.277   2.534   4.138
    1C        C   37   3.208   2.558   4.259
    1C        C   38   3.414   2.509   4.381
    1C        C   39   3.276   2.537   4.381
    1C        C   40   3.486   2.502   4.503
    1C        C   41   3.414   2.510   4.624
    1C        C   42   3.626   2.487   4.743
    1C        C   43   3.484   2.485   4.744
    1C        C   44   3.704   2.489   4.861
    1C        C   45   3.628   2.480   4.979
    1C        C   46   2.836   2.753   2.791
    1C        C   47   2.893   2.713   2.914
    1C        C   48   2.840   2.760   3.036
    1C        C   49   3.013   2.641   3.162
    1C        C   50   2.897   2.721   3.159
    1C        C   51   3.077   2.602   3.282
    1C        C   52   3.016   2.639   3.404
    1C        C   53   3.207   2.549   3.527
    1C        C   54   3.077   2.604   3.527
    1C        C   55   3.275   2.532   3.649
    1C        C   56   3.209   2.557   3.771
    1C        C   57   3.414   2.512   3.893
    1C        C   58   3.275   2.535   3.894
    1C        C   59   3.486   2.500   4.015
    1C        C   60   3.415   2.506   4.137
    1C        C   61   3.627   2.498   4.259
    1C        C   62   3.485   2.501   4.260
    1C        C   63   3.697   2.512   4.381
    1C        C   64   3.627   2.505   4.503
    1C        C   65   3.835   2.546   4.620
    1C        C   66   3.700   2.507   4.625
    1C        C   67   3.904   2.567   4.742
    1C        C   68   3.840   2.528   4.861
    1C        C   69   4.051   2.585   4.974
    1C        C   70   3.919   2.538   4.977
    1C        C   71   2.821   2.732   2.305
    1C        C   72   2.879   2.689   2.426
    1C        C   73   2.827   2.741   2.547
    1C        C   74   3.002   2.622   2.674
    1C        C   75   2.884   2.700   2.669
    1C        C   76   3.072   2.599   2.794
    1C        C   77   3.011   2.635   2.917
    1C        C   78   3.203   2.547   3.039
    1C        C   79   3.073   2.602   3.040
    1C        C   80   3.274   2.529   3.159
    1C        C   81   3.208   2.550   3.282
    1C        C   82   3.414   2.501   3.401
    1C        C   83   3.275   2.528   3.405
    1C        C   84   3.483   2.498   3.524
    1C        C   85   3.414   2.506   3.647
    1C        C   86   3.624   2.501   3.769
    1C        C   87   3.483   2.502   3.770
    1C        C   88   3.695   2.511   3.890
    1C        C   89   3.627   2.505   4.014
    1C        C   90   3.832   2.549   4.133
    1C        C   91   3.697   2.508   4.137
    1C        C   92   3.900   2.570   4.255
    1C        C   93   3.834   2.548   4.378
    1C        C   94   4.033   2.625   4.497
    1C        C   95   3.904   2.568   4.499
    1C        C   96   4.096   2.660   4.618
    1C        C   97   4.032   2.629   4.740
    1C        C   98   4.197   2.761   4.864
    1C        C   99   4.105   2.652   4.860
    1C        C  100   4.222   2.837   4.979
    1C        C  101   2.821   2.728   2.065
    1C        C  102   2.988   2.592   2.189
    1C        C  103   2.873   2.678   2.184
    1C        C  104   3.062   2.578   2.310
    1C        C  105   3.000   2.615   2.431
    1C        C  106   3.197   2.537   2.552
    1C        C  107   3.066   2.589   2.553
    1C        C  108   3.268   2.515   2.672
    1C        C  109   3.202   2.542   2.795
    1C        C  110   3.410   2.498   2.914
    1C        C  111   3.271   2.526   2.917
    1C        C  112   3.483   2.495   3.034
    1C        C  113   3.414   2.506   3.157
    1C        C  114   3.626   2.501   3.279
    1C        C  115   3.484   2.495   3.279
    1C        C  116   3.695   2.510   3.402
    1C        C  117   3.625   2.500   3.524
    1C        C  118   3.831   2.543   3.646
    1C        C  119   3.694   2.508   3.647
    1C        C  120   3.896   2.575   3.767
    1C        C  121   3.831   2.550   3.890
    1C        C  122   4.024   2.641   4.012
    1C        C  123   3.898   2.577   4.011
    1C        C  124   4.085   2.674   4.135
    1C        C  125   4.027   2.631   4.256
    1C        C  126   4.198   2.762   4.377
    1C        C  127   4.091   2.669   4.376
    1C        C  128   4.243   2.815   4.500
    1C        C  129   4.194   2.762   4.621
    1C        C  130   4.327   2.931   4.739
    1C        C  131   4.246   2.814   4.742
    1C        C  132   4.358   3.000   4.858
    1C        C  133   4.289   2.959   4.973
    1C        C  134   3.171   2.472   2.081
    1C        C  135   3.036   2.508   2.084
    1C        C  136   3.258   2.483   2.190
    1C        C  137   3.194   2.524   2.309
    1C        C  138   3.401   2.478   2.427
    1C        C  139   3.264   2.509   2.430
    1C        C  140   3.478   2.480   2.546
    1C        C  141   3.407   2.494   2.668
    1C        C  142   3.619   2.487   2.791
    1C        C  143   3.478   2.487   2.790
    1C        C  144   3.692   2.500   2.911
    1C        C  145   3.624   2.496   3.035
    1C        C  146   3.835   2.529   3.154
    1C        C  147   3.696   2.502   3.157
    1C        C  148   3.899   2.556   3.277
    1C        C  149   3.833   2.537   3.401
    1C        C  150   4.025   2.625   3.523
    1C        C  151   3.900   2.558   3.523
    1C        C  152   4.085   2.665   3.645
    1C        C  153   4.023   2.635   3.768
    1C        C  154   4.199   2.758   3.888
    1C        C  155   4.086   2.675   3.889
    1C        C  156   4.251   2.807   4.011
    1C        C  157   4.198   2.759   4.133
    1C        C  158   4.336   2.920   4.252
    1C        C  159   4.251   2.807   4.254
    1C        C  160   4.373   2.983   4.373
    1C        C  161   4.329   2.927   4.496
    1C        C  162   4.433   3.114   4.614
    1C        C  163   4.367   2.989   4.617
    1C        C  164   4.464   3.183   4.733
    1C        C  165   4.433   3.120   4.855
    1C        C  166   4.514   3.319   4.972
    1C        C  167   4.476   3.186   4.971
    1C        C  168   3.473   2.433   2.074
    1C        C  169   3.397   2.459   2.189
    1C        C  170   3.616   2.458   2.307
    1C        C  171   3.474   2.459   2.308
    1C        C  172   3.689   2.484   2.425
    1C        C  173   3.618   2.490   2.547
    1C        C  174   3.825   2.538   2.666
    1C        C  175   3.689   2.499   2.669
    1C        C  176   3.894   2.556   2.788
    1C        C  177   3.830   2.531   2.912
    1C        C  178   4.025   2.619   3.032
    1C        C  179   3.902   2.551   3.032
    1C        C  180   4.085   2.659   3.154
    1C        C  181   4.024   2.623   3.276
    1C        C  182   4.194   2.746   3.399
    1C        C  183   4.084   2.657   3.399
    1C        C  184   4.247   2.799   3.519
    1C        C  185   4.197   2.750   3.642
    1C        C  186   4.338   2.911   3.761
    1C        C  187   4.249   2.802   3.763
    1C        C  188   4.378   2.972   3.883
    1C        C  189   4.337   2.918   4.007
    1C        C  190   4.443   3.101   4.126
    1C        C  191   4.378   2.976   4.129
    1C        C  192   4.465   3.171   4.247
    1C        C  193   4.434   3.110   4.371
    1C        C  194   4.506   3.313   4.491
    1C        C  195   4.458   3.180   4.492
    1C        C  196   4.521   3.386   4.611
    1C        C  197   4.507   3.319   4.735
    1C        C  198   4.550   3.535   4.850
    1C        C  199   4.530   3.393   4.854
    1C        C  200   4.581   3.622   4.960
    1C        C  201   3.612   2.418   2.072
    1C        C  202   3.825   2.505   2.184
    1C        C  203   3.690   2.458   2.185
    1C        C  204   3.900   2.529   2.303
    1C        C  205   3.826   2.517   2.423
    1C        C  206   4.018   2.617   2.544
    1C        C  207   3.892   2.553   2.543
    1C        C  208   4.082   2.652   2.664
    1C        C  209   4.018   2.622   2.787
    1C        C  210   4.190   2.748   2.906
    1C        C  211   4.081   2.659   2.908
    1C        C  212   4.244   2.794   3.028
    1C        C  213   4.197   2.745   3.152
    1C        C  214   4.330   2.905   3.271
    1C        C  215   4.244   2.794   3.276
    1C        C  216   4.368   2.968   3.392
    1C        C  217   4.333   2.911   3.516
    1C        C  218   4.435   3.098   3.637
    1C        C  219   4.374   2.970   3.638
    1C        C  220   4.463   3.165   3.758
    1C        C  221   4.437   3.101   3.881
    1C        C  222   4.498   3.304   4.001
    1C        C  223   4.466   3.166   4.003
    1C        C  224   4.506   3.376   4.122
    1C        C  225   4.499   3.308   4.246
    1C        C  226   4.520   3.521   4.364
    1C        C  227   4.513   3.380   4.367
    1C        C  228   4.519   3.595   4.484
    1C        C  229   4.529   3.527   4.608
    1C        C  230   4.501   3.741   4.723
    1C        C  231   4.534   3.603   4.726
    1C        C  232   4.497   3.820   4.840
    1C        C  233   4.541   3.756   4.957
    1C        C  234   4.020   2.599   2.064
    1C        C  235   3.893   2.542   2.067
    1C        C  236   4.083   2.645   2.181
    1C        C  237   4.024   2.600   2.301
    1C        C  238   4.195   2.732   2.422
    1C        C  239   4.080   2.647   2.421
    1C        C  240   4.254   2.779   2.541
    1C        C  241   4.197   2.735   2.663
    1C        C  242   4.332   2.903   2.783
    1C        C  243   4.245   2.792   2.783
    1C        C  244   4.373   2.960   2.905
    1C        C  245   4.336   2.902   3.028
    1C        C  246   4.432   3.092   3.147
    1C        C  247   4.372   2.965   3.150
    1C        C  248   4.454   3.160   3.269
    1C        C  249   4.429   3.096   3.392
    1C        C  250   4.495   3.298   3.513
    1C        C  251   4.458   3.162   3.514
    1C        C  252   4.504   3.370   3.634
    1C        C  253   4.497   3.303   3.758
    1C        C  254   4.518   3.515   3.876
    1C        C  255   4.509   3.374   3.879
    1C        C  256   4.517   3.587   3.997
    1C        C  257   4.517   3.517   4.119
    1C        C  258   4.492   3.729   4.238
    1C        C  259   4.515   3.589   4.240
    1C        C  260   4.474   3.801   4.358
    1C        C  261   4.490   3.733   4.481
    1C        C  262   4.424   3.938   4.600
    1C        C  263   4.473   3.806   4.601
    1C        C  264   4.398   4.007   4.720
    1C        C  265   4.431   3.945   4.843
    1C        C  266   4.321   4.129   4.957
    1C        C  267   4.383   4.005   4.960
    1C        C  268   4.259   2.771   2.062
    1C        C  269   4.197   2.728   2.180
    1C        C  270   4.342   2.887   2.295
    1C        C  271   4.249   2.780   2.301
    1C        C  272   4.375   2.952   2.416
    1C        C  273   4.338   2.892   2.539
    1C        C  274   4.442   3.081   2.659
    1C        C  275   4.376   2.956   2.659
    1C        C  276   4.466   3.150   2.780
    1C        C  277   4.438   3.086   2.903
    1C        C  278   4.501   3.290   3.024
    1C        C  279   4.465   3.153   3.024
    1C        C  280   4.507   3.363   3.145
    1C        C  281   4.493   3.296   3.269
    1C        C  282   4.511   3.508   3.387
    1C        C  283   4.504   3.367   3.390
    1C        C  284   4.515   3.581   3.509
    1C        C  285   4.513   3.511   3.631
    1C        C  286   4.488   3.723   3.749
    1C        C  287   4.511   3.584   3.752
    1C        C  288   4.470   3.794   3.870
    1C        C  289   4.485   3.725   3.993
    1C        C  290   4.424   3.927   4.114
    1C        C  291   4.474   3.795   4.115
    1C        C  292   4.395   3.997   4.234
    1C        C  293   4.425   3.933   4.357
    1C        C  294   4.320   4.122   4.478
    1C        C  295   4.394   4.001   4.477
    1C        C  296   4.284   4.188   4.597
    1C        C  297   4.329   4.131   4.718
    1C        C  298   4.196   4.306   4.836
    1C        C  299   4.285   4.193   4.838
    1C        C  300   4.165   4.392   4.946
    1C        C  301   4.348   2.878   2.060
    1C        C  302   4.468   3.065   2.177
    1C        C  303   4.396   2.942   2.175
    1C        C  304   4.479   3.141   2.297
    1C        C  305   4.441   3.077   2.417
    1C        C  306   4.499   3.284   2.536
    1C        C  307   4.469   3.146   2.537
    1C        C  308   4.508   3.357   2.656
    1C        C  309   4.497   3.287   2.779
    1C        C  310   4.519   3.499   2.898
    1C        C  311   4.514   3.357   2.900
    1C        C  312   4.513   3.572   3.018
    1C        C  313   4.510   3.504   3.142
    1C        C  314   4.483   3.715   3.260
    1C        C  315   4.507   3.576   3.263
    1C        C  316   4.468   3.784   3.383
    1C        C  317   4.490   3.720   3.506
    1C        C  318   4.431   3.927   3.626
    1C        C  319   4.472   3.792   3.627
    1C        C  320   4.398   3.993   3.747
    1C        C  321   4.426   3.928   3.870
    1C        C  322   4.315   4.109   3.988
    1C        C  323   4.393   3.991   3.992
    1C        C  324   4.272   4.166   4.110
    1C        C  325   4.327   4.120   4.232
    1C        C  326   4.185   4.279   4.351
    1C        C  327   4.285   4.180   4.354
    1C        C  328   4.131   4.331   4.471
    1C        C  329   4.190   4.294   4.593
    1C        C  330   4.021   4.428   4.710
    1C        C  331   4.140   4.350   4.713
    1C        C  332   3.966   4.484   4.827
    1C        C  333   4.049   4.470   4.939
    1C        C  334   4.550   3.266   2.062
    1C        C  335   4.531   3.127   2.064
    1C        C  336   4.536   3.348   2.175
    1C        C  337   4.515   3.278   2.296
    1C        C  338   4.519   3.496   2.410
    1C        C  339   4.514   3.355   2.414
    1C        C  340   4.514   3.569   2.531
    1C        C  341   4.520   3.497   2.653
    1C        C  342   4.498   3.709   2.772
    1C        C  343   4.514   3.568   2.775
    1C        C  344   4.481   3.781   2.892
    1C        C  345   4.494   3.712   3.015
    1C        C  346   4.432   3.917   3.137
    1C        C  347   4.475   3.782   3.136
    1C        C  348   4.401   3.983   3.258
    1C        C  349   4.424   3.919   3.381
    1C        C  350   4.321   4.104   3.501
    1C        C  351   4.401   3.988   3.502
    1C        C  352   4.271   4.160   3.621
    1C        C  353   4.317   4.108   3.744
    1C        C  354   4.171   4.263   3.864
    1C        C  355   4.272   4.164   3.866
    1C        C  356   4.116   4.310   3.986
    1C        C  357   4.172   4.265   4.108
    1C        C  358   4.006   4.396   4.229
    1C        C  359   4.123   4.317   4.230
    1C        C  360   3.947   4.441   4.349
    1C        C  361   4.015   4.412   4.469
    1C        C  362   3.824   4.511   4.593
    1C        C  363   3.954   4.455   4.589
    1C        C  364   3.758   4.548   4.713
    1C        C  365   3.837   4.541   4.829
    1C        C  366   3.628   4.594   4.947
    1C        C  367   3.763   4.564   4.947
    1C        C  368   4.508   3.567   2.055
    1C        C  369   4.523   3.488   2.170
    1C        C  370   4.499   3.706   2.286
    1C        C  371   4.518   3.566   2.288
    1C        C  372   4.480   3.778   2.406
    1C        C  373   4.497   3.709   2.528
    1C        C  374   4.436   3.912   2.647
    1C        C  375   4.479   3.778   2.650
    1C        C  376   4.402   3.976   2.769
    1C        C  377   4.429   3.912   2.892
    1C        C  378   4.319   4.093   3.010
    1C        C  379   4.404   3.981   3.014
    1C        C  380   4.272   4.148   3.131
    1C        C  381   4.320   4.098   3.254
    1C        C  382   4.170   4.248   3.375
    1C        C  383   4.274   4.153   3.376
    1C        C  384   4.121   4.303   3.495
    1C        C  385   4.173   4.262   3.620
    1C        C  386   4.003   4.389   3.738
    1C        C  387   4.121   4.312   3.741
    1C        C  388   3.942   4.428   3.860
    1C        C  389   4.000   4.390   3.983
    1C        C  390   3.817   4.492   4.106
    1C        C  391   3.942   4.427   4.106
    1C        C  392   3.749   4.512   4.228
    1C        C  393   3.818   4.499   4.351
    1C        C  394   3.612   4.546   4.472
    1C        C  395   3.751   4.523   4.473
    1C        C  396   3.543   4.563   4.595
    1C        C  397   3.617   4.562   4.715
    1C        C  398   3.406   4.548   4.840
    1C        C  399   3.545   4.575   4.835
    1C        C  400   3.340   4.505   4.956
    1C        C  401   4.500   3.706   2.047
    1C        C  402   4.452   3.915   2.163
    1C        C  403   4.490   3.779   2.166
    1C        C  404   4.411   3.978   2.282
    1C        C  405   4.434   3.911   2.404
    1C        C  406   4.328   4.096   2.524
    1C        C  407   4.406   3.978   2.526
    1C        C  408   4.280   4.149   2.646
    1C        C  409   4.324   4.093   2.768
    1C        C  410   4.174   4.247   2.886
    1C        C  411   4.277   4.151   2.888
    1C        C  412   4.120   4.292   3.009
    1C        C  413   4.171   4.247   3.133
    1C        C  414   3.995   4.369   3.251
    1C        C  415   4.113   4.292   3.253
    1C        C  416   3.935   4.406   3.374
    1C        C  417   4.001   4.379   3.496
    1C        C  418   3.806   4.469   3.617
    1C        C  419   3.936   4.414   3.616
    1C        C  420   3.742   4.498   3.740
    1C        C  421   3.811   4.481   3.862
    1C        C  422   3.608   4.533   3.983
    1C        C  423   3.747   4.511   3.984
    1C        C  424   3.540   4.537   4.107
    1C        C  425   3.610   4.536   4.230
    1C        C  426   3.398   4.546   4.355
    1C        C  427   3.539   4.547   4.352
    1C        C  428   3.330   4.545   4.479
    1C        C  429   3.402   4.556   4.599
    1C        C  430   3.191   4.522   4.724
    1C        C  431   3.331   4.543   4.721
    1C        C  432   3.121   4.496   4.845
    1C        C  433   3.202   4.492   4.959
    1C        C  434   4.386   4.127   2.052
    1C        C  435   4.444   4.000   2.051
    1C        C  436   4.300   4.163   2.161
    1C        C  437   4.329   4.094   2.282
    1C        C  438   4.180   4.249   2.401
    1C        C  439   4.282   4.150   2.403
    1C        C  440   4.126   4.298   2.521
    1C        C  441   4.178   4.248   2.642
    1C        C  442   4.004   4.372   2.763
    1C        C  443   4.120   4.291   2.763
    1C        C  444   3.942   4.408   2.885
    1C        C  445   4.001   4.368   3.007
    1C        C  446   3.807   4.462   3.127
    1C        C  447   3.936   4.403   3.127
    1C        C  448   3.742   4.487   3.250
    1C        C  449   3.808   4.467   3.373
    1C        C  450   3.603   4.527   3.495
    1C        C  451   3.740   4.493   3.494
    1C        C  452   3.535   4.542   3.618
    1C        C  453   3.605   4.532   3.740
    1C        C  454   3.395   4.548   3.863
    1C        C  455   3.536   4.546   3.862
    1C        C  456   3.328   4.539   3.987
    1C        C  457   3.399   4.539   4.109
    1C        C  458   3.191   4.506   4.236
    1C        C  459   3.328   4.538   4.232
    1C        C  460   3.124   4.487   4.360
    1C        C  461   3.191   4.518   4.480
    1C        C  462   2.996   4.436   4.603
    1C        C  463   3.123   4.497   4.602
    1C        C  464   2.926   4.404   4.722
    1C        C  465   2.986   4.448   4.844
    1C        C  466   2.796   4.333   4.959
    1C        C  467   2.902   4.425   4.958
    1C        C  468   4.121   4.286   2.040
    1C        C  469   4.182   4.245   2.159
    1C        C  470   4.005   4.370   2.279
    1C        C  471   4.127   4.297   2.279
    1C        C  472   3.936   4.396   2.399
    1C        C  473   4.003   4.368   2.520
    1C        C  474   3.811   4.461   2.644
    1C        C  475   3.941   4.405   2.642
    1C        C  476   3.741   4.485   2.764
    1C        C  477   3.811   4.461   2.885
    1C        C  478   3.602   4.516   3.009
    1C        C  479   3.740   4.484   3.005
    1C        C  480   3.534   4.529   3.132
    1C        C  481   3.604   4.518   3.254
    1C        C  482   3.390   4.544   3.375
    1C        C  483   3.531   4.536   3.374
    1C        C  484   3.324   4.531   3.499
    1C        C  485   3.393   4.546   3.621
    1C        C  486   3.185   4.505   3.744
    1C        C  487   3.322   4.542   3.742
    1C        C  488   3.123   4.477   3.868
    1C        C  489   3.192   4.503   3.989
    1C        C  490   3.003   4.417   4.116
    1C        C  491   3.126   4.485   4.112
    1C        C  492   2.939   4.386   4.238
    1C        C  493   2.996   4.428   4.360
    1C        C  494   2.828   4.301   4.483
    1C        C  495   2.935   4.394   4.483
    1C        C  496   2.772   4.255   4.604
    1C        C  497   2.812   4.319   4.723
    1C        C  498   2.661   4.166   4.844
    1C        C  499   2.746   4.278   4.841
    1C        C  500   2.591   4.119   4.955
    1C        C  501   4.004   4.360   2.038
    1C        C  502   3.815   4.464   2.155
    1C        C  503   3.942   4.402   2.157
    1C        C  504   3.742   4.478   2.275
    1C        C  505   3.806   4.450   2.398
    1C        C  506   3.606   4.510   2.519
    1C        C  507   3.744   4.480   2.521
    1C        C  508   3.533   4.519   2.640
    1C        C  509   3.602   4.512   2.763
    1C        C  510   3.392   4.531   2.886
    1C        C  511   3.533   4.525   2.886
    1C        C  512   3.320   4.529   3.007
    1C        C  513   3.393   4.537   3.128
    1C        C  514   3.187   4.496   3.254
    1C        C  515   3.323   4.534   3.251
    1C        C  516   3.120   4.473   3.376
    1C        C  517   3.186   4.500   3.499
    1C        C  518   2.996   4.412   3.625
    1C        C  519   3.118   4.484   3.622
    1C        C  520   2.939   4.374   3.748
    1C        C  521   2.998   4.412   3.871
    1C        C  522   2.837   4.280   3.996
    1C        C  523   2.942   4.375   3.995
    1C        C  524   2.790   4.233   4.120
    1C        C  525   2.830   4.296   4.240
    1C        C  526   2.702   4.128   4.364
    1C        C  527   2.782   4.244   4.363
    1C        C  528   2.658   4.071   4.486
    1C        C  529   2.688   4.141   4.605
    1C        C  530   2.586   3.957   4.731
    1C        C  531   2.645   4.086   4.728
    1C        C  532   2.540   3.899   4.853
    1C        C  533   2.530   3.992   4.960
    1C        C  534   3.613   4.548   2.037
    1C        C  535   3.748   4.511   2.041
    1C        C  536   3.534   4.536   2.156
    1C        C  537   3.604   4.514   2.277
    1C        C  538   3.392   4.522   2.400
    1C        C  539   3.533   4.524   2.399
    1C        C  540   3.322   4.514   2.522
    1C        C  541   3.392   4.521   2.645
    1C        C  542   3.180   4.495   2.765
    1C        C  543   3.319   4.524   2.766
    1C        C  544   3.115   4.476   2.889
    1C        C  545   3.183   4.497   3.011
    1C        C  546   2.991   4.406   3.136
    1C        C  547   3.117   4.471   3.134
    1C        C  548   2.935   4.368   3.260
    1C        C  549   2.994   4.410   3.381
    1C        C  550   2.829   4.280   3.505
    1C        C  551   2.935   4.373   3.504
    1C        C  552   2.783   4.229   3.629
    1C        C  553   2.833   4.281   3.751
    1C        C  554   2.704   4.115   3.874
    1C        C  555   2.786   4.230   3.874
    1C        C  556   2.668   4.058   3.998
    1C        C  557   2.705   4.120   4.120
    1C        C  558   2.602   3.939   4.245
    1C        C  559   2.664   4.065   4.243
    1C        C  560   2.569   3.875   4.367
    1C        C  561   2.596   3.944   4.488
    1C        C  562   2.532   3.747   4.614
    1C        C  563   2.569   3.883   4.612
    1C        C  564   2.518   3.677   4.736
    1C        C  565   2.524   3.756   4.854
    1C        C  566   2.528   3.545   4.977
    1C        C  567   2.527   3.684   4.973
    1C        C  568   3.327   4.477   2.036
    1C        C  569   3.395   4.508   2.155
    1C        C  570   3.185   4.478   2.279
    1C        C  571   3.323   4.512   2.277
    1C        C  572   3.115   4.462   2.401
    1C        C  573   3.185   4.481   2.522
    1C        C  574   2.986   4.407   2.647
    1C        C  575   3.114   4.466   2.644
    1C        C  576   2.934   4.362   2.771
    1C        C  577   2.993   4.405   2.891
    1C        C  578   2.827   4.273   3.015
    1C        C  579   2.933   4.366   3.013
    1C        C  580   2.780   4.222   3.138
    1C        C  581   2.830   4.274   3.260
    1C        C  582   2.699   4.111   3.386
    1C        C  583   2.781   4.226   3.383
    1C        C  584   2.662   4.054   3.510
    1C        C  585   2.698   4.116   3.631
    1C        C  586   2.597   3.930   3.755
    1C        C  587   2.666   4.053   3.754
    1C        C  588   2.575   3.866   3.879
    1C        C  589   2.607   3.931   4.001
    1C        C  590   2.537   3.734   4.128
    1C        C  591   2.578   3.869   4.124
    1C        C  592   2.520   3.667   4.251
    1C        C  593   2.528   3.740   4.372
    1C        C  594   2.509   3.531   4.497
    1C        C  595   2.519   3.672   4.495
    1C        C  596   2.514   3.459   4.619
    1C        C  597   2.516   3.534   4.738
    1C        C  598   2.535   3.325   4.861
    1C        C  599   2.524   3.466   4.862
    1C        C  600   2.524   3.245   4.976
    1C        C  601   3.196   4.436   2.040
    1C        C  602   2.987   4.388   2.157
    1C        C  603   3.121   4.438   2.159
    1C        C  604   2.927   4.357   2.282
    1C        C  605   2.988   4.401   2.402
    1C        C  606   2.826   4.270   2.530
    1C        C  607   2.927   4.369   2.525
    1C        C  608   2.777   4.217   2.651
    1C        C  609   2.825   4.271   2.772
    1C        C  610   2.692   4.107   2.894
    1C        C  611   2.776   4.221   2.894
    1C        C  612   2.659   4.047   3.018
    1C        C  613   2.697   4.108   3.140
    1C        C  614   2.599   3.923   3.264
    1C        C  615   2.664   4.049   3.264
    1C        C  616   2.573   3.862   3.389
    1C        C  617   2.599   3.927   3.512
    1C        C  618   2.532   3.727   3.637
    1C        C  619   2.568   3.863   3.634
    1C        C  620   2.517   3.659   3.760
    1C        C  621   2.532   3.731   3.881
    1C        C  622   2.512   3.524   4.010
    1C        C  623   2.523   3.665   4.006
    1C        C  624   2.516   3.454   4.133
    1C        C  625   2.519   3.526   4.254
    1C        C  626   2.533   3.317   4.380
    1C        C  627   2.513   3.457   4.377
    1C        C  628   2.551   3.249   4.502
    1C        C  629   2.531   3.319   4.623
    1C        C  630   2.587   3.112   4.744
    1C        C  631   2.541   3.247   4.744
    1C        C  632   2.608   3.045   4.867
    1C        C  633   2.555   3.109   4.983
    1C        C  634   2.780   4.304   2.055
    1C        C  635   2.893   4.386   2.049
    1C        C  636   2.747   4.231   2.170
    1C        C  637   2.812   4.274   2.288
    1C        C  638   2.682   4.108   2.410
    1C        C  639   2.771   4.218   2.411
    1C        C  640   2.643   4.047   2.531
    1C        C  641   2.691   4.105   2.650
    1C        C  642   2.596   3.917   2.776
    1C        C  643   2.655   4.045   2.773
    1C        C  644   2.568   3.852   2.898
    1C        C  645   2.598   3.920   3.019
    1C        C  646   2.532   3.722   3.148
    1C        C  647   2.570   3.858   3.143
    1C        C  648   2.522   3.652   3.271
    1C        C  649   2.539   3.725   3.391
    1C        C  650   2.506   3.517   3.517
    1C        C  651   2.521   3.658   3.514
    1C        C  652   2.509   3.448   3.640
    1C        C  653   2.508   3.518   3.763
    1C        C  654   2.536   3.314   3.888
    1C        C  655   2.508   3.452   3.888
    1C        C  656   2.553   3.246   4.011
    1C        C  657   2.535   3.314   4.133
    1C        C  658   2.602   3.117   4.255
    1C        C  659   2.554   3.249   4.257
    1C        C  660   2.634   3.054   4.378
    1C        C  661   2.600   3.116   4.500
    1C        C  662   2.706   2.934   4.626
    1C        C  663   2.627   3.051   4.623
    1C        C  664   2.744   2.872   4.748
    1C        C  665   2.690   2.927   4.867
    1C        C  666   2.741   2.868   4.983
    1C        C  667   2.676   4.022   2.055
    1C        C  668   2.685   4.104   2.169
    1C        C  669   2.596   3.909   2.293
    1C        C  670   2.648   4.041   2.290
    1C        C  671   2.564   3.846   2.415
    1C        C  672   2.586   3.918   2.535
    1C        C  673   2.522   3.714   2.659
    1C        C  674   2.564   3.849   2.657
    1C        C  675   2.507   3.644   2.781
    1C        C  676   2.529   3.716   2.900
    1C        C  677   2.501   3.512   3.030
    1C        C  678   2.521   3.652   3.026
    1C        C  679   2.507   3.440   3.151
    1C        C  680   2.511   3.512   3.273
    1C        C  681   2.526   3.304   3.396
    1C        C  682   2.506   3.444   3.397
    1C        C  683   2.549   3.240   3.520
    1C        C  684   2.531   3.309   3.642
    1C        C  685   2.595   3.110   3.767
    1C        C  686   2.547   3.243   3.766
    1C        C  687   2.629   3.048   3.889
    1C        C  688   2.603   3.114   4.011
    1C        C  689   2.709   2.931   4.135
    1C        C  690   2.633   3.051   4.134
    1C        C  691   2.753   2.877   4.258
    1C        C  692   2.710   2.935   4.379
    1C        C  693   2.751   2.882   4.503
    1C        C  694   2.628   3.891   2.057
    1C        C  695   2.526   3.703   2.174
    1C        C  696   2.578   3.834   2.175
    1C        C  697   2.510   3.637   2.298
    1C        C  698   2.523   3.711   2.417
    1C        C  699   2.491   3.501   2.541
    1C        C  700   2.509   3.641   2.539
    1C        C  701   2.493   3.430   2.663
    1C        C  702   2.497   3.503   2.784
    1C        C  703   2.530   3.300   2.907
    1C        C  704   2.499   3.438   2.909
    1C        C  705   2.542   3.231   3.029
    1C        C  706   2.529   3.300   3.152
    1C        C  707   2.586   3.099   3.278
    1C        C  708   2.540   3.232   3.275
    1C        C  709   2.620   3.039   3.401
    1C        C  710   2.594   3.106   3.523
    1C        C  711   2.707   2.928   3.646
    1C        C  712   2.628   3.046   3.646
    1C        C  713   2.750   2.872   3.768
    1C        C  714   2.706   2.929   3.890
    1C        C  715   2.752   2.876   4.013
    1C        C  716   2.441   3.500   2.065
    1C        C  717   2.486   3.633   2.060
    1C        C  718   2.463   3.419   2.181
    1C        C  719   2.489   3.497   2.298
    1C        C  720   2.511   3.288   2.422
    1C        C  721   2.488   3.427   2.420
    1C        C  722   2.533   3.219   2.544
    1C        C  723   2.517   3.290   2.665
    1C        C  724   2.595   3.094   2.788
    1C        C  725   2.545   3.226   2.787
    1C        C  726   2.622   3.033   2.912
    1C        C  727   2.587   3.097   3.033
    1C        C  728   2.696   2.918   3.157
    1C        C  729   2.616   3.034   3.156
    1C        C  730   2.744   2.868   3.280
    1C        C  731   2.704   2.925   3.402
    1C        C  732   2.752   2.873   3.524
    1C        C  733   2.495   3.199   2.065
    1C        C  734   2.494   3.279   2.180
    1C        C  735   2.576   3.082   2.302
    1C        C  736   2.525   3.214   2.302
    1C        C  737   2.608   3.017   2.424
    1C        C  738   2.582   3.087   2.544
    1C        C  739   2.694   2.907   2.667
    1C        C  740   2.617   3.026   2.666
    1C        C  741   2.736   2.853   2.791
    1C        C  742   2.694   2.911   2.913
    1C        C  743   2.740   2.860   3.036
    1C        C  744   2.551   3.072   2.065
    1C        C  745   2.688   2.902   2.183
    1C        C  746   2.610   3.019   2.180
    1C        C  747   2.729   2.841   2.304
    1C        C  748   2.681   2.896   2.424
    1C        C  749   2.733   2.846   2.546
    1C        C  750   2.737   2.839   2.067
    1C        C  751   3.673   2.319   1.981
    1C        O  752   3.649   2.196   1.998
    1C        O  753   3.713   2.357   1.852
    1C        C  754   4.626   3.055   1.976
    1C        O  755   4.609   3.049   1.851
    1C        O  756   4.757   3.025   2.016
    1C        C  757   4.432   4.223   1.949
    1C        O  758   4.520   4.309   1.976
    1C        O  759   4.424   4.183   1.815
    1C        C  760   3.589   4.649   1.931
    1C        O  761   3.527   4.756   1.954
    1C        O  762   3.542   4.604   1.807
    1C        C  763   2.851   4.513   1.986
    1C        O  764   2.910   4.532   1.876
    1C        O  765   2.818   4.625   2.064
    1C        C  766   2.330   3.476   1.971
    1C        O  767   2.355   3.476   1.847
    1C        O  768   2.199   3.506   2.009
    1C        C  769   4.678   3.588   5.068
    1C        O  770   4.658   3.587   5.192
    1C        O  771   4.812   3.597   5.027
    1C        C  772   4.281   4.445   5.021
    1C        O  773   4.279   4.417   5.144
    1C        O  774   4.315   4.580   5.009
    1C        C  775   4.143   2.526   5.074
    1C        O  776   4.187   2.409   5.056
    1C        O  777   4.124   2.545   5.212
    1C        C  778   2.898   4.529   5.063
    1C        O  779   2.839   4.638   5.041
    1C        O  780   2.919   4.498   5.197
    1C        C  781   2.480   3.046   5.095
    1C        O  782   2.364   2.999   5.083
    1C        O  783   2.515   3.059   5.228
    1C        C  784   2.418   3.983   5.056
    1C        O  785   2.311   4.047   5.039
    1C        O  786   2.438   3.977   5.195
    1C        C  787   2.947   2.395   2.046
    1C        O  788   2.886   2.405   1.937
    1C        O  789   2.929   2.272   2.109
    1C        C  790   3.194   2.411   5.098
    1C        O  791   3.132   2.305   5.126
    1C        O  792   3.241   2.473   5.215
    1C        H  793   4.253   3.037   5.037
    1C        H  794   4.217   2.787   5.073
    1C        H  795   4.503   3.126   5.056
    1C        H  796   4.501   3.375   5.062
    1C        H  797   4.551   3.817   5.044
    1C        H  798   4.369   3.943   5.046
    1C        H  799   4.320   4.186   5.048
    1C        H  800   4.035   4.538   5.021
    1C        H  801   3.809   4.563   5.044
    1C        H  802   3.590   4.654   5.027
    1C        H  803   3.387   4.528   5.050
    1C        H  804   3.163   4.454   5.051
    1C        H  805   3.892   2.477   5.060
    1C        H  806   3.673   2.423   5.058
    1C        H  807   3.002   2.567   5.067
    1C        H  808   3.446   2.487   5.079
    1C        H  809   2.909   2.780   5.064
    1C        H  810   2.691   2.881   5.077
    1C        H  811   2.504   3.292   5.070
    1C        H  812   2.526   3.497   5.073
    1C        H  813   2.479   3.730   5.057
    1C        H  814   2.617   4.152   5.054
    1C        H  815   2.798   4.268   5.044
    1C        H  816   2.726   2.881   1.969
    1C        H  817   2.799   2.658   1.987
    1C        H  818   3.215   2.494   1.985
    1C        H  819   3.422   2.392   1.989
    1C        H  820   3.834   2.550   1.978
    1C        H  821   4.085   2.563   1.988
    1C        H  822   4.275   2.693   1.990
    1C        H  823   4.383   2.911   1.965
    1C        H  824   4.583   3.308   1.970
    1C        H  825   4.482   3.519   1.963
    1C        H  826   4.533   3.752   1.956
    1C        H  827   3.812   4.547   1.964
    1C        H  828   3.992   4.419   1.949
    1C        H  829   4.177   4.287   1.949
    1C        H  830   4.511   3.979   1.970
    1C        H  831   2.627   3.832   1.968
    1C        H  832   2.692   4.066   1.959
    1C        H  833   2.712   4.304   1.972
    1C        H  834   3.370   4.507   1.942
    1C        H  835   3.142   4.428   1.948
    1C        H  836   2.517   3.004   1.990
    1C        H  837   2.468   3.242   1.970
    1C        H  838   2.498   3.681   1.965
    2V3OU   H29  839   2.801   3.546   5.648
    2V3OU   C27  840   2.774   3.501   5.747
    2V3OU   H27  841   2.720   3.565   5.821
    2V3OU   H28  842   2.724   3.402   5.731
    2V3OU   O11  843   2.899   3.473   5.811
    2V3OU   C15  844   2.918   3.389   5.919
    2V3OU   C13  845   3.046   3.372   5.976
    2V3OU   C14  846   3.071   3.269   6.067
    2V3OU   C16  847   2.968   3.191   6.118
    2V3OU    H6  848   2.989   3.107   6.186
    2V3OU   C12  849   3.210   3.228   6.098
    2V3OU    O2  850   3.241   3.124   6.161
    2V3OU   C10  851   3.322   3.307   6.048
    2V3OU    C8  852   3.456   3.270   6.062
    2V3OU   O10  853   3.489   3.150   6.117
    2V3OU   H26  854   3.405   3.112   6.147
    2V3OU    C6  855   3.566   3.348   6.014
    2V3OU    C5  856   3.536   3.465   5.946
    2V3OU    C4  857   3.704   3.293   6.003
    2V3OU    H4  858   3.725   3.226   6.092
    2V3OU    H5  859   3.706   3.230   5.910
    2V3OU    C2  860   3.817   3.396   6.001
    2V3OU    O6  861   3.809   3.477   6.119
    2V3OU   H21  862   3.761   3.555   6.087
    2V3OU    C3  863   3.783   3.491   5.886
    2V3OU    H2  864   3.864   3.567   5.880
    2V3OU    H3  865   3.778   3.433   5.790
    2V3OU   C25  866   3.950   3.326   5.971
    2V3OU    O7  867   3.997   3.296   5.862
    2V3OU   C26  868   4.033   3.291   6.093
    2V3OU   H22  869   4.073   3.379   6.150
    2V3OU   H23  870   4.117   3.224   6.063
    2V3OU    O8  871   3.961   3.211   6.184
    2V3OU   H24  872   3.916   3.267   6.250
    2V3OU    C1  873   3.649   3.558   5.913
    2V3OU    H1  874   3.622   3.619   5.821
    2V3OU    O3  875   3.657   3.651   6.021
    2V3OU   C19  876   3.623   3.790   6.013
    2V3OU    H9  877   3.524   3.793   5.957
    2V3OU    O4  878   3.715   3.847   5.923
    2V3OU   C20  879   3.847   3.871   5.972
    2V3OU   H10  880   3.892   3.768   5.989
    2V3OU   C24  881   3.610   3.857   6.149
    2V3OU   H16  882   3.539   3.798   6.213
    2V3OU   H17  883   3.568   3.959   6.129
    2V3OU   C23  884   3.751   3.877   6.205
    2V3OU   H15  885   3.794   3.774   6.227
    2V3OU    N1  886   3.737   3.959   6.324
    2V3OU   H19  887   3.806   3.925   6.388
    2V3OU   H20  888   3.648   3.941   6.367
    2V3OU   C21  889   3.850   3.946   6.105
    2V3OU   H11  890   3.954   3.924   6.143
    2V3OU    O5  891   3.823   4.085   6.112
    2V3OU   H18  892   3.777   4.094   6.197
    2V3OU   C22  893   3.914   3.942   5.856
    2V3OU   H12  894   3.864   4.040   5.834
    2V3OU   H13  895   3.912   3.876   5.765
    2V3OU   H14  896   4.021   3.960   5.883
    2V3OU   C11  897   3.154   3.469   5.955
    2V3OU    O1  898   3.133   3.581   5.903
    2V3OU    C9  899   3.294   3.426   5.975
    2V3OU    C7  900   3.399   3.503   5.927
    2V3OU    O9  901   3.382   3.622   5.859
    2V3OU   H25  902   3.286   3.635   5.854
    2V3OU   C17  903   2.814   3.311   5.973
    2V3OU    H7  904   2.713   3.350   5.959
    2V3OU   C18  905   2.839   3.217   6.072
    2V3OU    H8  906   2.757   3.147   6.095
    3SOL     OW  907   3.866   3.373   4.084
    3SOL    HW1  908   3.864   3.387   3.985
    3SOL    HW2  909   3.900   3.281   4.104
    4SOL     OW  910   6.813   5.815   0.847
    4SOL    HW1  911   6.804   5.906   0.805
    4SOL    HW2  912   6.909   5.790   0.850
    5SOL     OW  913   5.100   2.238   0.895
    5SOL    HW1  914   5.075   2.333   0.878
    5SOL    HW2  915   5.194   2.234   0.928
    6SOL     OW  916   4.355   1.448   1.817
    6SOL    HW1  917   4.404   1.530   1.847
    6SOL    HW2  918   4.263   1.474   1.788
    7SOL     OW  919   2.163   3.524   4.570
    7SOL    HW1  920   2.126   3.533   4.663
    7SOL    HW2  921   2.153   3.429   4.539
    8SOL     OW  922   1.122   2.144   5.060
    8SOL    HW1  923   1.045   2.082   5.045
    8SOL    HW2  924   1.206   2.090   5.073
    9SOL     OW  925   0.307   1.344   6.072
    9SOL    HW1  926   0.356   1.260   6.050
    9SOL    HW2  927   0.221   1.347   6.020
   10SOL     OW  928   5.252   4.910   1.863
   10SOL    HW1  929   5.225   4.871   1.951
   10SOL    HW2  930   5.350   4.929   1.864
   11SOL     OW  931   2.229   2.575   1.063
   11SOL    HW1  932   2.260   2.490   1.020
   11SOL    HW2  933   2.261   2.577   1.158
   12SOL     OW  934   4.390   5.263   2.416
   12SOL    HW1  935   4.464   5.199   2.394
   12SOL    HW2  936   4.349   5.296   2.331
   13SOL     OW  937   6.140   5.846   1.522
   13SOL    HW1  938   6.123   5.768   1.461
   13SOL    HW2  939   6.086   5.835   1.606
   14SOL     OW  940   4.631   6.940   6.420
   14SOL    HW1  941   4.695   6.930   6.344
   14SOL    HW2  942   4.682   6.947   6.506
   15SOL     OW  943   0.944   5.847   6.413
   15SOL    HW1  944   0.879   5.917   6.442
   15SOL    HW2  945   0.905   5.796   6.336
   16SOL     OW  946   2.089   5.105   5.158
   16SOL    HW1  947   2.069   5.199   5.132
   16SOL    HW2  948   2.123   5.055   5.078
   17SOL     OW  949   6.742   0.984   5.191
   17SOL    HW1  950   6.688   1.062   5.223
   17SOL    HW2  951   6.682   0.915   5.150
   18SOL     OW  952   3.309   0.988   5.855
   18SOL    HW1  953   3.231   1.032   5.812
   18SOL    HW2  954   3.287   0.893   5.877
   19SOL     OW  955   3.270   6.602   2.674
   19SOL    HW1  956   3.330   6.652   2.612
   19SOL    HW2  957   3.211   6.666   2.723
   20SOL     OW  958   6.441   1.532   5.786
   20SOL    HW1  959   6.409   1.464   5.852
   20SOL    HW2  960   6.429   1.497   5.693
   21SOL     OW  961   2.141   4.057   2.589
   21SOL    HW1  962   2.157   3.960   2.567
   21SOL    HW2  963   2.049   4.082   2.559
   22SOL     OW  964   0.908   1.011   0.042
   22SOL    HW1  965   0.947   1.090   0.089
   22SOL    HW2  966   0.856   0.956   0.108
   23SOL     OW  967   6.358   4.526   0.575
   23SOL    HW1  968   6.305   4.462   0.519
   23SOL    HW2  969   6.400   4.594   0.516
   24SOL     OW  970   5.165   1.610   0.285
   24SOL    HW1  971   5.191   1.612   0.382
   24SOL    HW2  972   5.246   1.605   0.228
   25SOL     OW  973   1.442   0.614   4.502
   25SOL    HW1  974   1.436   0.517   4.527
   25SOL    HW2  975   1.512   0.626   4.432
   26SOL     OW  976   1.987   1.709   6.091
   26SOL    HW1  977   2.038   1.754   6.165
   26SOL    HW2  978   2.021   1.616   6.079
   27SOL     OW  979   0.173   6.915   2.657
   27SOL    HW1  980   0.253   6.952   2.703
   27SOL    HW2  981   0.106   6.988   2.644
   28SOL     OW  982   2.286   0.210   5.857
   28SOL    HW1  983   2.302   0.267   5.938
   28SOL    HW2  984   2.349   0.132   5.859
   29SOL     OW  985   5.534   0.009   1.144
   29SOL    HW1  986   5.567   0.052   1.228
   29SOL    HW2  987   5.540   0.075   1.069
   30SOL     OW  988   4.833   0.125   5.221
   30SOL    HW1  989   4.903   0.174   5.273
   30SOL    HW2  990   4.851   0.027   5.225
   31SOL     OW  991   0.068   4.495   4.752
   31SOL    HW1  992   6.992   4.490   4.780
   31SOL    HW2  993   0.116   4.414   4.786
   32SOL     OW  994   3.356   0.597   0.808
   32SOL    HW1  995   3.434   0.563   0.755
   32SOL    HW2  996   3.380   0.686   0.848
   33SOL     OW  997   2.221   5.645   5.907
   33SOL    HW1  998   2.311   5.665   5.946
   33SOL    HW2  999   2.154   5.710   5.943
   34SOL     OW 1000   2.591   5.837   5.706
   34SOL    HW1 1001   2.515   5.842   5.770
   34SOL    HW2 1002   2.561   5.787   5.624
   35SOL     OW 1003   0.904   3.157   5.936
   35SOL    HW1 1004   0.977   3.197   5.881
   35SOL    HW2 1005   0.820   3.210   5.922
   36SOL     OW 1006   5.458   0.855   3.345
   36SOL    HW1 1007   5.437   0.934   3.402
   36SOL    HW2 1008   5.546   0.815   3.373
   37SOL     OW 1009   2.285   6.303   4.179
   37SOL    HW1 1010   2.339   6.278   4.260
   37SOL    HW2 1011   2.193   6.265   4.187
   38SOL     OW 1012   1.524   4.296   2.310
   38SOL    HW1 1013   1.498   4.354   2.386
   38SOL    HW2 1014   1.455   4.225   2.296
   39SOL     OW 1015   6.931   4.904   1.475
   39SOL    HW1 1016   6.941   4.889   1.377
   39SOL    HW2 1017   6.864   4.976   1.491
   40SOL     OW 1018   4.537   1.774   0.378
   40SOL    HW1 1019   4.490   1.691   0.409
   40SOL    HW2 1020   4.630   1.751   0.350
   41SOL     OW 1021   5.142   3.948   1.542
   41SOL    HW1 1022   5.187   3.987   1.622
   41SOL    HW2 1023   5.054   3.908   1.569
   42SOL     OW 1024   2.055   4.448   6.663
   42SOL    HW1 1025   2.138   4.479   6.616
   42SOL    HW2 1026   1.984   4.428   6.595
   43SOL     OW 1027   5.063   6.848   5.007
   43SOL    HW1 1028   5.009   6.783   4.953
   43SOL    HW2 1029   5.027   6.853   5.100
   44SOL     OW 1030   0.468   0.828   6.812
   44SOL    HW1 1031   0.464   0.923   6.781
   44SOL    HW2 1032   0.443   0.824   6.909
   45SOL     OW 1033   1.876   4.940   6.104
   45SOL    HW1 1034   1.863   4.841   6.098
   45SOL    HW2 1035   1.914   4.974   6.018
   46SOL     OW 1036   1.452   3.992   5.043
   46SOL    HW1 1037   1.494   3.959   4.958
   46SOL    HW2 1038   1.373   3.934   5.065
   47SOL     OW 1039   5.963   3.603   0.019
   47SOL    HW1 1040   6.006   3.635   0.103
   47SOL    HW2 1041   6.030   3.555   6.984
   48SOL     OW 1042   6.378   4.351   0.932
   48SOL    HW1 1043   6.400   4.255   0.948
   48SOL    HW2 1044   6.299   4.357   0.871
   49SOL     OW 1045   2.951   3.574   6.327
   49SOL    HW1 1046   2.917   3.627   6.405
   49SOL    HW2 1047   2.949   3.630   6.244
   50SOL     OW 1048   5.480   2.298   6.667
   50SOL    HW1 1049   5.404   2.257   6.616
   50SOL    HW2 1050   5.548   2.227   6.687
   51SOL     OW 1051   0.947   5.572   2.102
   51SOL    HW1 1052   0.858   5.536   2.131
   51SOL    HW2 1053   0.951   5.574   2.002
   52SOL     OW 1054   5.287   2.658   2.413
   52SOL    HW1 1055   5.309   2.681   2.318
   52SOL    HW2 1056   5.188   2.648   2.422
   53SOL     OW 1057   3.598   0.572   1.056
   53SOL    HW1 1058   3.655   0.640   1.011
   53SOL    HW2 1059   3.623   0.480   1.024
   54SOL     OW 1060   6.387   0.574   6.447
   54SOL    HW1 1061   6.372   0.481   6.412
   54SOL    HW2 1062   6.324   0.637   6.403
   55SOL     OW 1063   1.660   3.602   6.105
   55SOL    HW1 1064   1.569   3.595   6.146
   55SOL    HW2 1065   1.652   3.603   6.005
   56SOL     OW 1066   1.122   2.754   6.606
   56SOL    HW1 1067   1.150   2.661   6.628
   56SOL    HW2 1068   1.038   2.752   6.552
   57SOL     OW 1069   4.198   6.165   0.361
   57SOL    HW1 1070   4.262   6.220   0.307
   57SOL    HW2 1071   4.205   6.192   0.457
   58SOL     OW 1072   1.252   1.019   0.015
   58SOL    HW1 1073   1.227   0.940   6.979
   58SOL    HW2 1074   1.242   0.995   0.112
   59SOL     OW 1075   4.098   2.747   5.876
   59SOL    HW1 1076   4.025   2.773   5.813
   59SOL    HW2 1077   4.074   2.778   5.968
   60SOL     OW 1078   6.467   2.495   2.398
   60SOL    HW1 1079   6.496   2.501   2.493
   60SOL    HW2 1080   6.377   2.538   2.388
   61SOL     OW 1081   1.271   5.858   3.403
   61SOL    HW1 1082   1.358   5.902   3.426
   61SOL    HW2 1083   1.201   5.928   3.392
   62SOL     OW 1084   5.983   2.554   3.391
   62SOL    HW1 1085   5.954   2.521   3.301
   62SOL    HW2 1086   6.081   2.539   3.401
   63SOL     OW 1087   3.499   0.003   6.138
   63SOL    HW1 1088   3.428   6.958   6.112
   63SOL    HW2 1089   3.585   6.998   6.094
   64SOL     OW 1090   1.332   1.983   5.727
   64SOL    HW1 1091   1.414   2.038   5.708
   64SOL    HW2 1092   1.312   1.986   5.825
   65SOL     OW 1093   0.960   5.185   4.532
   65SOL    HW1 1094   1.057   5.208   4.527
   65SOL    HW2 1095   0.950   5.086   4.531
   66SOL     OW 1096   4.714   1.899   1.450
   66SOL    HW1 1097   4.743   1.949   1.532
   66SOL    HW2 1098   4.641   1.949   1.405
   67SOL     OW 1099   6.982   3.773   1.454
   67SOL    HW1 1100   6.954   3.868   1.464
   67SOL    HW2 1101   6.906   3.713   1.479
   68SOL     OW 1102   0.434   1.223   0.090
   68SOL    HW1 1103   0.357   1.161   0.078
   68SOL    HW2 1104   0.496   1.215   0.012
   69SOL     OW 1105   1.736   5.537   6.714
   69SOL    HW1 1106   1.705   5.509   6.805
   69SOL    HW2 1107   1.702   5.472   6.646
   70SOL     OW 1108   4.864   4.443   3.700
   70SOL    HW1 1109   4.784   4.385   3.682
   70SOL    HW2 1110   4.938   4.387   3.739
   71SOL     OW 1111   4.725   1.375   4.994
   71SOL    HW1 1112   4.731   1.286   5.038
   71SOL    HW2 1113   4.817   1.411   4.980
   72SOL     OW 1114   6.979   0.333   3.201
   72SOL    HW1 1115   7.002   0.420   3.245
   72SOL    HW2 1116   0.012   0.324   3.117
   73SOL     OW 1117   2.637   0.718   1.685
   73SOL    HW1 1118   2.579   0.642   1.713
   73SOL    HW2 1119   2.623   0.736   1.587
   74SOL     OW 1120   3.398   1.781   0.166
   74SOL    HW1 1121   3.483   1.766   0.216
   74SOL    HW2 1122   3.352   1.863   0.202
   75SOL     OW 1123   2.561   3.142   0.444
   75SOL    HW1 1124   2.630   3.149   0.372
   75SOL    HW2 1125   2.483   3.200   0.422
   76SOL     OW 1126   3.718   5.172   5.597
   76SOL    HW1 1127   3.764   5.110   5.534
   76SOL    HW2 1128   3.687   5.121   5.678
   77SOL     OW 1129   0.837   5.312   4.750
   77SOL    HW1 1130   0.909   5.350   4.807
   77SOL    HW2 1131   0.877   5.258   4.676
   78SOL     OW 1132   4.749   2.100   1.102
   78SOL    HW1 1133   4.720   2.112   1.007
   78SOL    HW2 1134   4.812   2.174   1.128
   79SOL     OW 1135   1.846   4.480   3.948
   79SOL    HW1 1136   1.812   4.401   3.897
   79SOL    HW2 1137   1.940   4.463   3.976
   80SOL     OW 1138   3.508   1.941   4.949
   80SOL    HW1 1139   3.603   1.971   4.955
   80SOL    HW2 1140   3.449   2.010   4.991
   81SOL     OW 1141   3.400   5.090   1.953
   81SOL    HW1 1142   3.487   5.050   1.981
   81SOL    HW2 1143   3.366   5.149   2.026
   82SOL     OW 1144   2.729   0.041   2.205
   82SOL    HW1 1145   2.724   0.083   2.114
   82SOL    HW2 1146   2.678   6.976   2.204
   83SOL     OW 1147   5.063   1.252   3.646
   83SOL    HW1 1148   5.109   1.203   3.572
   83SOL    HW2 1149   5.106   1.228   3.733
   84SOL     OW 1150   5.914   2.829   2.764
   84SOL    HW1 1151   5.929   2.777   2.680
   84SOL    HW2 1152   6.001   2.849   2.807
   85SOL     OW 1153   2.408   6.473   3.144
   85SOL    HW1 1154   2.400   6.376   3.164
   85SOL    HW2 1155   2.361   6.526   3.214
   86SOL     OW 1156   5.170   0.023   1.136
   86SOL    HW1 1157   5.242   0.017   1.067
   86SOL    HW2 1158   5.108   0.098   1.113
   87SOL     OW 1159   2.854   3.679   6.581
   87SOL    HW1 1160   2.900   3.720   6.660
   87SOL    HW2 1161   2.770   3.730   6.561
   88SOL     OW 1162   2.389   3.060   1.268
   88SOL    HW1 1163   2.456   3.089   1.337
   88SOL    HW2 1164   2.312   3.015   1.313
   89SOL     OW 1165   3.371   3.707   4.818
   89SOL    HW1 1166   3.328   3.652   4.889
   89SOL    HW2 1167   3.312   3.785   4.796
   90SOL     OW 1168   5.691   3.652   2.219
   90SOL    HW1 1169   5.733   3.571   2.259
   90SOL    HW2 1170   5.758   3.727   2.219
   91SOL     OW 1171   4.723   6.278   6.947
   91SOL    HW1 1172   4.757   6.185   6.930
   91SOL    HW2 1173   4.726   6.297   0.024
   92SOL     OW 1174   5.660   4.699   7.017
   92SOL    HW1 1175   5.716   4.645   6.955
   92SOL    HW2 1176   5.715   4.726   0.075
   93SOL     OW 1177   3.010   4.116   1.540
   93SOL    HW1 1178   2.974   4.123   1.447
   93SOL    HW2 1179   2.976   4.194   1.594
   94SOL     OW 1180   3.479   1.794   4.114
   94SOL    HW1 1181   3.528   1.843   4.043
   94SOL    HW2 1182   3.491   1.842   4.202
   95SOL     OW 1183   0.545   0.071   4.479
   95SOL    HW1 1184   0.628   0.125   4.494
   95SOL    HW2 1185   0.485   0.079   4.558
   96SOL     OW 1186   0.287   5.551   6.662
   96SOL    HW1 1187   0.265   5.563   6.759
   96SOL    HW2 1188   0.378   5.588   6.644
   97SOL     OW 1189   2.437   4.650   5.639
   97SOL    HW1 1190   2.370   4.653   5.565
   97SOL    HW2 1191   2.510   4.585   5.616
   98SOL     OW 1192   6.956   1.695   4.378
   98SOL    HW1 1193   6.978   1.663   4.286
   98SOL    HW2 1194   0.020   1.717   4.427
   99SOL     OW 1195   3.884   4.418   5.298
   99SOL    HW1 1196   3.969   4.367   5.309
   99SOL    HW2 1197   3.827   4.376   5.227
  100SOL     OW 1198   1.038   0.500   5.500
  100SOL    HW1 1199   1.013   0.403   5.505
  100SOL    HW2 1200   1.029   0.532   5.405
  101SOL     OW 1201   5.223   3.405   2.763
  101SOL    HW1 1202   5.288   3.363   2.826
  101SOL    HW2 1203   5.262   3.409   2.671
  102SOL     OW 1204   3.948   0.576   6.733
  102SOL    HW1 1205   3.984   0.598   6.823
  102SOL    HW2 1206   3.850   0.556   6.740
  103SOL     OW 1207   0.959   1.695   2.118
  103SOL    HW1 1208   1.054   1.724   2.121
  103SOL    HW2 1209   0.948   1.610   2.170
  104SOL     OW 1210   6.317   4.404   2.082
  104SOL    HW1 1211   6.324   4.307   2.061
  104SOL    HW2 1212   6.300   4.416   2.179
  105SOL     OW 1213   0.674   0.412   4.963
  105SOL    HW1 1214   0.733   0.379   5.036
  105SOL    HW2 1215   0.692   0.509   4.947
  106SOL     OW 1216   4.280   3.153   1.797
  106SOL    HW1 1217   4.340   3.203   1.734
  106SOL    HW2 1218   4.331   3.130   1.880
  107SOL     OW 1219   5.833   6.477   1.355
  107SOL    HW1 1220   5.878   6.455   1.268
  107SOL    HW2 1221   5.806   6.573   1.355
  108SOL     OW 1222   3.446   1.505   4.714
  108SOL    HW1 1223   3.529   1.455   4.739
  108SOL    HW2 1224   3.426   1.490   4.617
  109SOL     OW 1225   2.397   0.981   5.514
  109SOL    HW1 1226   2.358   0.962   5.424
  109SOL    HW2 1227   2.357   0.919   5.581
  110SOL     OW 1228   3.551   3.877   5.702
  110SOL    HW1 1229   3.606   3.810   5.651
  110SOL    HW2 1230   3.592   3.892   5.792
  111SOL     OW 1231   5.744   2.949   1.124
  111SOL    HW1 1232   5.666   3.005   1.153
  111SOL    HW2 1233   5.724   2.853   1.141
  112SOL     OW 1234   5.266   6.392   6.117
  112SOL    HW1 1235   5.343   6.431   6.066
  112SOL    HW2 1236   5.183   6.397   6.060
  113SOL     OW 1237   0.317   5.043   2.875
  113SOL    HW1 1238   0.330   5.006   2.967
  113SOL    HW2 1239   0.302   5.141   2.881
  114SOL     OW 1240   6.995   2.377   1.810
  114SOL    HW1 1241   6.984   2.382   1.710
  114SOL    HW2 1242   0.065   2.410   1.835
  115SOL     OW 1243   4.357   0.068   2.540
  115SOL    HW1 1244   4.430   0.101   2.600
  115SOL    HW2 1245   4.366   6.990   2.529
  116SOL     OW 1246   6.893   5.291   0.521
  116SOL    HW1 1247   6.809   5.322   0.565
  116SOL    HW2 1248   6.892   5.191   0.515
  117SOL     OW 1249   3.215   2.303   0.082
  117SOL    HW1 1250   3.179   2.293   7.010
  117SOL    HW2 1251   3.231   2.212   0.121
  118SOL     OW 1252   0.369   1.643   2.715
  118SOL    HW1 1253   0.384   1.735   2.677
  118SOL    HW2 1254   0.279   1.639   2.758
  119SOL     OW 1255   6.295   0.072   5.564
  119SOL    HW1 1256   6.237   0.023   5.498
  119SOL    HW2 1257   6.361   0.009   5.604
  120SOL     OW 1258   4.603   1.098   4.511
  120SOL    HW1 1259   4.692   1.067   4.479
  120SOL    HW2 1260   4.614   1.157   4.591
  121SOL     OW 1261   0.209   5.450   6.272
  121SOL    HW1 1262   0.140   5.476   6.340
  121SOL    HW2 1263   0.209   5.517   6.198
  122SOL     OW 1264   6.786   4.289   5.604
  122SOL    HW1 1265   6.709   4.287   5.668
  122SOL    HW2 1266   6.762   4.344   5.524
  123SOL     OW 1267   0.393   2.625   1.670
  123SOL    HW1 1268   0.351   2.701   1.720
  123SOL    HW2 1269   0.350   2.539   1.697
  124SOL     OW 1270   1.806   3.623   0.266
  124SOL    HW1 1271   1.739   3.687   0.304
  124SOL    HW2 1272   1.866   3.590   0.339
  125SOL     OW 1273   4.315   2.774   0.775
  125SOL    HW1 1274   4.217   2.764   0.794
  125SOL    HW2 1275   4.363   2.689   0.796
  126SOL     OW 1276   3.828   3.404   3.803
  126SOL    HW1 1277   3.808   3.462   3.724
  126SOL    HW2 1278   3.769   3.323   3.799
  127SOL     OW 1279   0.368   4.587   5.421
  127SOL    HW1 1280   0.374   4.647   5.501
  127SOL    HW2 1281   0.363   4.643   5.338
  128SOL     OW 1282   4.841   3.762   6.181
  128SOL    HW1 1283   4.755   3.795   6.220
  128SOL    HW2 1284   4.822   3.699   6.106
  129SOL     OW 1285   0.259   5.546   2.346
  129SOL    HW1 1286   0.343   5.600   2.337
  129SOL    HW2 1287   0.183   5.607   2.369
  130SOL     OW 1288   5.960   3.552   4.302
  130SOL    HW1 1289   5.941   3.479   4.369
  130SOL    HW2 1290   5.986   3.635   4.351
  131SOL     OW 1291   0.442   3.513   3.434
  131SOL    HW1 1292   0.403   3.422   3.443
  131SOL    HW2 1293   0.501   3.516   3.353
  132SOL     OW 1294   4.477   2.560   0.765
  132SOL    HW1 1295   4.571   2.586   0.787
  132SOL    HW2 1296   4.468   2.461   0.765
  133SOL     OW 1297   4.149   4.822   6.722
  133SOL    HW1 1298   4.052   4.810   6.746
  133SOL    HW2 1299   4.193   4.881   6.790
  134SOL     OW 1300   5.352   2.247   1.007
  134SOL    HW1 1301   5.356   2.183   1.083
  134SOL    HW2 1302   5.437   2.300   1.004
  135SOL     OW 1303   4.842   4.045   3.777
  135SOL    HW1 1304   4.789   4.114   3.727
  135SOL    HW2 1305   4.918   4.090   3.825
  136SOL     OW 1306   4.168   0.597   6.546
  136SOL    HW1 1307   4.144   0.567   6.454
  136SOL    HW2 1308   4.088   0.592   6.605
  137SOL     OW 1309   2.311   3.700   6.308
  137SOL    HW1 1310   2.342   3.794   6.293
  137SOL    HW2 1311   2.304   3.683   6.406
  138SOL     OW 1312   0.789   5.624   6.705
  138SOL    HW1 1313   0.741   5.541   6.733
  138SOL    HW2 1314   0.862   5.600   6.642
  139SOL     OW 1315   0.903   6.959   1.423
  139SOL    HW1 1316   0.999   6.968   1.448
  139SOL    HW2 1317   0.848   7.014   1.486
  140SOL     OW 1318   3.820   1.002   1.444
  140SOL    HW1 1319   3.761   0.988   1.365
  140SOL    HW2 1320   3.779   0.960   1.525
  141SOL     OW 1321   0.309   2.170   0.525
  141SOL    HW1 1322   0.330   2.252   0.578
  141SOL    HW2 1323   0.271   2.197   0.436
  142SOL     OW 1324   2.249   4.125   0.515
  142SOL    HW1 1325   2.204   4.184   0.448
  142SOL    HW2 1326   2.323   4.175   0.560
  143SOL     OW 1327   4.377   6.377   2.023
  143SOL    HW1 1328   4.316   6.401   2.099
  143SOL    HW2 1329   4.335   6.303   1.969
  144SOL     OW 1330   3.237   5.206   2.710
  144SOL    HW1 1331   3.176   5.266   2.760
  144SOL    HW2 1332   3.191   5.119   2.691
  145SOL     OW 1333   6.787   5.672   4.237
  145SOL    HW1 1334   6.808   5.636   4.146
  145SOL    HW2 1335   6.816   5.606   4.307
  146SOL     OW 1336   6.067   0.588   6.337
  146SOL    HW1 1337   6.137   0.646   6.296
  146SOL    HW2 1338   6.045   0.513   6.275
  147SOL     OW 1339   5.804   1.426   5.194
  147SOL    HW1 1340   5.794   1.468   5.284
  147SOL    HW2 1341   5.866   1.482   5.139
  148SOL     OW 1342   2.249   6.511   1.396
  148SOL    HW1 1343   2.175   6.568   1.362
  148SOL    HW2 1344   2.336   6.542   1.357
  149SOL     OW 1345   1.578   3.155   4.315
  149SOL    HW1 1346   1.567   3.151   4.414
  149SOL    HW2 1347   1.662   3.206   4.293
  150SOL     OW 1348   4.179   1.861   5.194
  150SOL    HW1 1349   4.262   1.809   5.217
  150SOL    HW2 1350   4.100   1.819   5.238
  151SOL     OW 1351   6.003   3.331   0.935
  151SOL    HW1 1352   5.980   3.335   1.032
  151SOL    HW2 1353   6.092   3.375   0.920
  152SOL     OW 1354   0.926   2.559   1.567
  152SOL    HW1 1355   0.862   2.485   1.586
  152SOL    HW2 1356   0.875   2.644   1.553
  153SOL     OW 1357   2.058   1.767   3.737
  153SOL    HW1 1358   2.020   1.682   3.772
  153SOL    HW2 1359   2.067   1.833   3.811
  154SOL     OW 1360   6.583   1.445   3.244
  154SOL    HW1 1361   6.642   1.369   3.272
  154SOL    HW2 1362   6.607   1.472   3.151
  155SOL     OW 1363   6.542   4.849   3.518
  155SOL    HW1 1364   6.592   4.846   3.432
  155SOL    HW2 1365   6.451   4.888   3.503
  156SOL     OW 1366   5.036   1.572   0.802
  156SOL    HW1 1367   5.043   1.647   0.868
  156SOL    HW2 1368   5.105   1.503   0.823
  157SOL     OW 1369   4.859   6.939   1.547
  157SOL    HW1 1370   4.831   6.843   1.547
  157SOL    HW2 1371   4.940   6.950   1.490
  158SOL     OW 1372   0.419   2.626   4.583
  158SOL    HW1 1373   0.440   2.639   4.680
  158SOL    HW2 1374   0.336   2.572   4.575
  159SOL     OW 1375   5.921   5.458   0.317
  159SOL    HW1 1376   5.979   5.436   0.396
  159SOL    HW2 1377   5.909   5.557   0.312
  160SOL     OW 1378   5.186   0.667   1.011
  160SOL    HW1 1379   5.237   0.583   1.030
  160SOL    HW2 1380   5.239   0.746   1.041
  161SOL     OW 1381   6.675   6.186   0.554
  161SOL    HW1 1382   6.723   6.160   0.638
  161SOL    HW2 1383   6.670   6.107   0.492
  162SOL     OW 1384   4.516   6.971   5.926
  162SOL    HW1 1385   4.455   0.022   5.891
  162SOL    HW2 1386   4.462   6.903   5.976
  163SOL     OW 1387   0.530   3.022   2.877
  163SOL    HW1 1388   0.461   3.085   2.912
  163SOL    HW2 1389   0.489   2.964   2.806
  164SOL     OW 1390   2.590   2.375   3.256
  164SOL    HW1 1391   2.672   2.355   3.202
  164SOL    HW2 1392   2.511   2.332   3.213
  165SOL     OW 1393   0.091   6.867   3.683
  165SOL    HW1 1394   0.140   6.889   3.768
  165SOL    HW2 1395   0.107   6.771   3.659
  166SOL     OW 1396   6.789   4.762   4.296
  166SOL    HW1 1397   6.787   4.736   4.199
  166SOL    HW2 1398   6.832   4.689   4.349
  167SOL     OW 1399   2.375   1.103   4.857
  167SOL    HW1 1400   2.347   1.047   4.779
  167SOL    HW2 1401   2.299   1.111   4.921
  168SOL     OW 1402   3.760   3.581   2.021
  168SOL    HW1 1403   3.703   3.499   2.023
  168SOL    HW2 1404   3.739   3.635   1.939
  169SOL     OW 1405   5.376   2.816   0.574
  169SOL    HW1 1406   5.474   2.826   0.557
  169SOL    HW2 1407   5.341   2.735   0.526
  170SOL     OW 1408   6.196   5.280   1.452
  170SOL    HW1 1409   6.237   5.330   1.375
  170SOL    HW2 1410   6.261   5.277   1.528
  171SOL     OW 1411   3.350   3.158   1.316
  171SOL    HW1 1412   3.324   3.064   1.340
  171SOL    HW2 1413   3.398   3.200   1.393
  172SOL     OW 1414   1.692   0.890   6.046
  172SOL    HW1 1415   1.595   0.915   6.050
  172SOL    HW2 1416   1.732   0.895   6.137
  173SOL     OW 1417   5.775   1.327   4.466
  173SOL    HW1 1418   5.710   1.252   4.473
  173SOL    HW2 1419   5.794   1.346   4.369
  174SOL     OW 1420   5.320   4.347   4.328
  174SOL    HW1 1421   5.380   4.269   4.342
  174SOL    HW2 1422   5.359   4.407   4.258
  175SOL     OW 1423   0.489   6.444   2.527
  175SOL    HW1 1424   0.421   6.405   2.464
  175SOL    HW2 1425   0.533   6.523   2.483
  176SOL     OW 1426   6.582   3.621   1.956
  176SOL    HW1 1427   6.541   3.540   1.913
  176SOL    HW2 1428   6.583   3.609   2.055
  177SOL     OW 1429   6.230   2.105   3.346
  177SOL    HW1 1430   6.247   2.074   3.439
  177SOL    HW2 1431   6.260   2.035   3.281
  178SOL     OW 1432   2.244   5.737   4.349
  178SOL    HW1 1433   2.247   5.654   4.404
  178SOL    HW2 1434   2.165   5.793   4.376
  179SOL     OW 1435   2.974   4.506   1.227
  179SOL    HW1 1436   3.017   4.425   1.268
  179SOL    HW2 1437   2.876   4.504   1.246
  180SOL     OW 1438   5.080   1.462   6.436
  180SOL    HW1 1439   5.167   1.461   6.386
  180SOL    HW2 1440   5.087   1.527   6.511
  181SOL     OW 1441   3.363   1.384   6.256
  181SOL    HW1 1442   3.310   1.446   6.198
  181SOL    HW2 1443   3.444   1.353   6.207
  182SOL     OW 1444   2.904   3.202   5.496
  182SOL    HW1 1445   2.981   3.243   5.447
  182SOL    HW2 1446   2.819   3.223   5.447
  183SOL     OW 1447   2.929   0.501   3.079
  183SOL    HW1 1448   2.966   0.590   3.105
  183SOL    HW2 1449   2.884   0.509   2.989
  184SOL     OW 1450   5.504   5.895   3.489
  184SOL    HW1 1451   5.586   5.847   3.520
  184SOL    HW2 1452   5.484   5.871   3.394
  185SOL     OW 1453   0.678   0.027   5.065
  185SOL    HW1 1454   0.771   0.013   5.033
  185SOL    HW2 1455   0.616   0.031   4.987
  186SOL     OW 1456   3.109   6.245   4.614
  186SOL    HW1 1457   3.195   6.193   4.618
  186SOL    HW2 1458   3.126   6.333   4.570
  187SOL     OW 1459   4.254   5.917   1.091
  187SOL    HW1 1460   4.189   5.961   1.154
  187SOL    HW2 1461   4.306   5.987   1.043
  188SOL     OW 1462   1.095   3.794   3.449
  188SOL    HW1 1463   1.127   3.776   3.355
  188SOL    HW2 1464   1.159   3.856   3.494
  189SOL     OW 1465   5.497   4.861   5.063
  189SOL    HW1 1466   5.413   4.809   5.047
  189SOL    HW2 1467   5.485   4.921   5.142
  190SOL     OW 1468   6.276   6.805   0.423
  190SOL    HW1 1469   6.232   6.742   0.487
  190SOL    HW2 1470   6.233   6.796   0.333
  191SOL     OW 1471   1.521   2.013   5.141
  191SOL    HW1 1472   1.524   2.095   5.085
  191SOL    HW2 1473   1.536   1.932   5.084
  192SOL     OW 1474   0.457   5.632   1.474
  192SOL    HW1 1475   0.437   5.559   1.539
  192SOL    HW2 1476   0.487   5.714   1.524
  193SOL     OW 1477   2.510   0.477   1.785
  193SOL    HW1 1478   2.467   0.387   1.798
  193SOL    HW2 1479   2.565   0.499   1.866
  194SOL     OW 1480   3.684   5.944   2.595
  194SOL    HW1 1481   3.633   5.860   2.578
  194SOL    HW2 1482   3.655   6.014   2.530
  195SOL     OW 1483   3.606   0.049   0.617
  195SOL    HW1 1484   3.524   0.070   0.670
  195SOL    HW2 1485   3.669   0.126   0.621
  196SOL     OW 1486   3.688   2.559   0.982
  196SOL    HW1 1487   3.740   2.572   1.067
  196SOL    HW2 1488   3.649   2.646   0.954
  197SOL     OW 1489   1.894   5.594   0.106
  197SOL    HW1 1490   1.936   5.612   0.017
  197SOL    HW2 1491   1.828   5.667   0.127
  198SOL     OW 1492   4.349   6.948   6.460
  198SOL    HW1 1493   4.322   6.869   6.515
  198SOL    HW2 1494   4.448   6.945   6.445
  199SOL     OW 1495   0.983   0.553   3.392
  199SOL    HW1 1496   0.935   0.640   3.381
  199SOL    HW2 1497   0.931   0.493   3.453
  200SOL     OW 1498   1.163   4.045   3.731
  200SOL    HW1 1499   1.073   4.086   3.714
  200SOL    HW2 1500   1.202   4.084   3.814
  201SOL     OW 1501   4.827   1.522   6.341
  201SOL    HW1 1502   4.739   1.492   6.379
  201SOL    HW2 1503   4.902   1.488   6.398
  202SOL     OW 1504   3.853   1.395   2.423
  202SOL    HW1 1505   3.794   1.417   2.501
  202SOL    HW2 1506   3.884   1.301   2.429
  203SOL     OW 1507   6.228   2.875   6.969
  203SOL    HW1 1508   6.283   2.905   0.026
  203SOL    HW2 1509   6.200   2.954   6.915
  204SOL     OW 1510   2.136   0.134   1.520
  204SOL    HW1 1511   2.232   0.116   1.543
  204SOL    HW2 1512   2.112   0.227   1.548
  205SOL     OW 1513   6.047   0.436   1.683
  205SOL    HW1 1514   6.053   0.521   1.631
  205SOL    HW2 1515   6.133   0.385   1.674
  206SOL     OW 1516   7.016   5.881   1.597
  206SOL    HW1 1517   0.021   5.874   1.501
  206SOL    HW2 1518   6.986   5.974   1.617
  207SOL     OW 1519   5.034   1.790   5.540
  207SOL    HW1 1520   5.065   1.863   5.602
  207SOL    HW2 1521   4.934   1.788   5.538
  208SOL     OW 1522   3.578   4.399   6.219
  208SOL    HW1 1523   3.551   4.303   6.231
  208SOL    HW2 1524   3.677   4.405   6.206
  209SOL     OW 1525   6.868   5.748   4.551
  209SOL    HW1 1526   6.938   5.709   4.611
  209SOL    HW2 1527   6.853   5.685   4.474
  210SOL     OW 1528   3.892   2.014   1.033
  210SOL    HW1 1529   3.935   2.018   1.123
  210SOL    HW2 1530   3.962   1.996   0.963
  211SOL     OW 1531   0.610   3.271   2.114
  211SOL    HW1 1532   0.581   3.182   2.150
  211SOL    HW2 1533   0.679   3.310   2.174
  212SOL     OW 1534   6.814   5.486   4.415
  212SOL    HW1 1535   6.768   5.459   4.499
  212SOL    HW2 1536   6.787   5.424   4.341
  213SOL     OW 1537   3.924   2.244   6.046
  213SOL    HW1 1538   3.927   2.328   5.992
  213SOL    HW2 1539   3.856   2.253   6.119
  214SOL     OW 1540   1.440   6.823   3.335
  214SOL    HW1 1541   1.531   6.781   3.333
  214SOL    HW2 1542   1.409   6.832   3.429
  215SOL     OW 1543   4.077   3.818   2.692
  215SOL    HW1 1544   3.987   3.861   2.681
  215SOL    HW2 1545   4.149   3.886   2.678
  216SOL     OW 1546   1.795   0.012   5.725
  216SOL    HW1 1547   1.804   6.942   5.767
  216SOL    HW2 1548   1.862   0.074   5.767
  217SOL     OW 1549   6.795   2.653   4.192
  217SOL    HW1 1550   6.792   2.732   4.130
  217SOL    HW2 1551   6.717   2.594   4.175
  218SOL     OW 1552   2.025   3.585   5.509
  218SOL    HW1 1553   2.000   3.641   5.589
  218SOL    HW2 1554   1.978   3.620   5.428
  219SOL     OW 1555   3.401   5.372   0.245
  219SOL    HW1 1556   3.320   5.431   0.245
  219SOL    HW2 1557   3.380   5.287   0.293
  220SOL     OW 1558   1.086   4.438   0.807
  220SOL    HW1 1559   1.030   4.357   0.827
  220SOL    HW2 1560   1.093   4.450   0.708
  221SOL     OW 1561   6.400   2.873   4.351
  221SOL    HW1 1562   6.354   2.879   4.262
  221SOL    HW2 1563   6.333   2.860   4.423
  222SOL     OW 1564   1.271   6.404   4.352
  222SOL    HW1 1565   1.366   6.429   4.335
  222SOL    HW2 1566   1.246   6.427   4.446
  223SOL     OW 1567   6.254   4.419   2.355
  223SOL    HW1 1568   6.283   4.339   2.408
  223SOL    HW2 1569   6.232   4.494   2.417
  224SOL     OW 1570   3.711   2.013   2.276
  224SOL    HW1 1571   3.681   2.071   2.200
  224SOL    HW2 1572   3.658   2.033   2.358
  225SOL     OW 1573   6.456   0.293   1.342
  225SOL    HW1 1574   6.540   0.240   1.331
  225SOL    HW2 1575   6.421   0.321   1.252
  226SOL     OW 1576   6.638   5.922   1.478
  226SOL    HW1 1577   6.684   5.925   1.390
  226SOL    HW2 1578   6.611   5.828   1.499
  227SOL     OW 1579   1.184   3.191   2.980
  227SOL    HW1 1580   1.151   3.100   3.006
  227SOL    HW2 1581   1.106   3.251   2.965
  228SOL     OW 1582   3.686   6.250   2.798
  228SOL    HW1 1583   3.664   6.179   2.865
  228SOL    HW2 1584   3.603   6.303   2.777
  229SOL     OW 1585   6.156   5.466   3.685
  229SOL    HW1 1586   6.125   5.455   3.779
  229SOL    HW2 1587   6.183   5.561   3.669
  230SOL     OW 1588   1.112   3.911   6.144
  230SOL    HW1 1589   1.164   3.863   6.073
  230SOL    HW2 1590   1.022   3.937   6.107
  231SOL     OW 1591   0.841   1.670   6.927
  231SOL    HW1 1592   0.853   1.588   6.983
  231SOL    HW2 1593   0.930   1.708   6.904
  232SOL     OW 1594   1.629   4.348   6.702
  232SOL    HW1 1595   1.544   4.332   6.653
  232SOL    HW2 1596   1.707   4.336   6.641
  233SOL     OW 1597   3.201   0.377   6.041
  233SOL    HW1 1598   3.119   0.375   6.098
  233SOL    HW2 1599   3.264   0.446   6.076
  234SOL     OW 1600   2.876   5.882   6.184
  234SOL    HW1 1601   2.881   5.973   6.143
  234SOL    HW2 1602   2.819   5.822   6.127
  235SOL     OW 1603   3.592   3.606   5.183
  235SOL    HW1 1604   3.614   3.703   5.186
  235SOL    HW2 1605   3.519   3.586   5.248
  236SOL     OW 1606   0.210   2.345   6.194
  236SOL    HW1 1607   0.231   2.271   6.258
  236SOL    HW2 1608   0.295   2.391   6.168
  237SOL     OW 1609   6.482   6.461   1.769
  237SOL    HW1 1610   6.465   6.552   1.732
  237SOL    HW2 1611   6.481   6.465   1.869
  238SOL     OW 1612   6.628   1.545   2.449
  238SOL    HW1 1613   6.721   1.582   2.441
  238SOL    HW2 1614   6.629   1.468   2.512
  239SOL     OW 1615   0.388   5.460   1.100
  239SOL    HW1 1616   0.480   5.424   1.081
  239SOL    HW2 1617   0.331   5.388   1.139
  240SOL     OW 1618   6.744   2.973   5.446
  240SOL    HW1 1619   6.738   2.949   5.543
  240SOL    HW2 1620   6.802   3.054   5.436
  241SOL     OW 1621   6.056   1.760   4.595
  241SOL    HW1 1622   6.086   1.690   4.530
  241SOL    HW2 1623   5.992   1.719   4.661
  242SOL     OW 1624   2.549   2.550   3.982
  242SOL    HW1 1625   2.463   2.499   3.990
  242SOL    HW2 1626   2.530   2.642   3.949
  243SOL     OW 1627   4.552   1.420   6.516
  243SOL    HW1 1628   4.549   1.486   6.590
  243SOL    HW2 1629   4.465   1.419   6.467
  244SOL     OW 1630   0.135   0.674   5.704
  244SOL    HW1 1631   0.123   0.772   5.686
  244SOL    HW2 1632   0.047   0.634   5.729
  245SOL     OW 1633   4.972   2.468   3.911
  245SOL    HW1 1634   4.899   2.443   3.974
  245SOL    HW2 1635   4.956   2.561   3.876
  246SOL     OW 1636   5.097   3.106   3.565
  246SOL    HW1 1637   5.185   3.151   3.552
  246SOL    HW2 1638   5.105   3.008   3.545
  247SOL     OW 1639   2.855   0.239   3.580
  247SOL    HW1 1640   2.812   0.263   3.493
  247SOL    HW2 1641   2.937   0.295   3.593
  248SOL     OW 1642   6.641   1.343   1.888
  248SOL    HW1 1643   6.670   1.294   1.807
  248SOL    HW2 1644   6.693   1.312   1.967
  249SOL     OW 1645   1.886   5.991   5.260
  249SOL    HW1 1646   1.982   5.980   5.235
  249SOL    HW2 1647   1.842   6.052   5.194
  250SOL     OW 1648   4.962   2.563   6.583
  250SOL    HW1 1649   4.875   2.516   6.597
  250SOL    HW2 1650   5.020   2.552   6.664
  251SOL     OW 1651   2.106   2.127   0.320
  251SOL    HW1 1652   2.113   2.106   0.417
  251SOL    HW2 1653   2.194   2.161   0.286
  252SOL     OW 1654   0.861   1.542   0.602
  252SOL    HW1 1655   0.949   1.580   0.573
  252SOL    HW2 1656   0.877   1.468   0.668
  253SOL     OW 1657   1.960   4.204   6.260
  253SOL    HW1 1658   1.863   4.213   6.238
  253SOL    HW2 1659   2.014   4.243   6.186
  254SOL     OW 1660   4.776   3.284   6.511
  254SOL    HW1 1661   4.853   3.347   6.520
  254SOL    HW2 1662   4.803   3.192   6.538
  255SOL     OW 1663   3.574   2.068   2.493
  255SOL    HW1 1664   3.488   2.112   2.467
  255SOL    HW2 1665   3.604   2.103   2.581
  256SOL     OW 1666   6.508   5.629   2.033
  256SOL    HW1 1667   6.530   5.665   1.942
  256SOL    HW2 1668   6.412   5.649   2.054
  257SOL     OW 1669   2.670   5.704   6.963
  257SOL    HW1 1670   2.663   5.714   6.863
  257SOL    HW2 1671   2.678   5.794   7.005
  258SOL     OW 1672   4.882   4.650   4.701
  258SOL    HW1 1673   4.977   4.680   4.698
  258SOL    HW2 1674   4.851   4.628   4.609
  259SOL     OW 1675   0.891   2.056   2.989
  259SOL    HW1 1676   0.942   2.056   3.074
  259SOL    HW2 1677   0.858   2.149   2.969
  260SOL     OW 1678   6.931   6.712   5.709
  260SOL    HW1 1679   6.841   6.674   5.687
  260SOL    HW2 1680   6.982   6.645   5.764
  261SOL     OW 1681   0.429   1.171   3.237
  261SOL    HW1 1682   0.513   1.172   3.184
  261SOL    HW2 1683   0.391   1.078   3.238
  262SOL     OW 1684   1.819   5.379   2.915
  262SOL    HW1 1685   1.761   5.365   2.996
  262SOL    HW2 1686   1.767   5.426   2.845
  263SOL     OW 1687   0.255   3.105   5.019
  263SOL    HW1 1688   0.287   3.183   4.964
  263SOL    HW2 1689   0.228   3.137   5.110
  264SOL     OW 1690   3.456   4.234   6.677
  264SOL    HW1 1691   3.421   4.148   6.640
  264SOL    HW2 1692   3.486   4.220   6.772
  265SOL     OW 1693   5.121   5.473   4.305
  265SOL    HW1 1694   5.121   5.373   4.309
  265SOL    HW2 1695   5.032   5.507   4.333
  266SOL     OW 1696   4.255   2.967   6.606
  266SOL    HW1 1697   4.321   2.941   6.676
  266SOL    HW2 1698   4.302   3.011   6.530
  267SOL     OW 1699   2.280   1.804   6.028
  267SOL    HW1 1700   2.353   1.872   6.043
  267SOL    HW2 1701   2.322   1.714   6.012
  268SOL     OW 1702   2.637   4.818   3.755
  268SOL    HW1 1703   2.594   4.733   3.786
  268SOL    HW2 1704   2.736   4.808   3.758
  269SOL     OW 1705   2.165   1.095   5.095
  269SOL    HW1 1706   2.137   1.025   5.030
  269SOL    HW2 1707   2.088   1.155   5.116
  270SOL     OW 1708   4.845   6.600   4.561
  270SOL    HW1 1709   4.906   6.538   4.513
  270SOL    HW2 1710   4.771   6.548   4.605
  271SOL     OW 1711   1.613   1.402   0.485
  271SOL    HW1 1712   1.698   1.430   0.440
  271SOL    HW2 1713   1.544   1.473   0.472
  272SOL     OW 1714   4.377   6.171   1.035
  272SOL    HW1 1715   4.473   6.196   1.024
  272SOL    HW2 1716   4.344   6.203   1.124
  273SOL     OW 1717   2.363   6.581   4.246
  273SOL    HW1 1718   2.452   6.580   4.200
  273SOL    HW2 1719   2.311   6.500   4.219
  274SOL     OW 1720   5.507   1.916   1.330
  274SOL    HW1 1721   5.473   1.833   1.374
  274SOL    HW2 1722   5.597   1.939   1.368
  275SOL     OW 1723   5.755   5.545   5.946
  275SOL    HW1 1724   5.788   5.590   6.029
  275SOL    HW2 1725   5.832   5.527   5.885
  276SOL     OW 1726   6.912   6.587   4.771
  276SOL    HW1 1727   6.956   6.506   4.733
  276SOL    HW2 1728   6.944   6.603   4.864
  277SOL     OW 1729   4.313   2.839   5.662
  277SOL    HW1 1730   4.288   2.909   5.728
  277SOL    HW2 1731   4.374   2.878   5.593
  278SOL     OW 1732   5.706   3.993   3.065
  278SOL    HW1 1733   5.695   3.899   3.097
  278SOL    HW2 1734   5.793   4.002   3.016
  279SOL     OW 1735   6.644   3.431   3.708
  279SOL    HW1 1736   6.556   3.384   3.720
  279SOL    HW2 1737   6.711   3.395   3.773
  280SOL     OW 1738   4.492   1.409   3.477
  280SOL    HW1 1739   4.468   1.487   3.534
  280SOL    HW2 1740   4.552   1.347   3.528
  281SOL     OW 1741   5.278   6.058   5.174
  281SOL    HW1 1742   5.361   6.051   5.229
  281SOL    HW2 1743   5.302   6.079   5.079
  282SOL     OW 1744   1.108   2.908   0.224
  282SOL    HW1 1745   1.196   2.860   0.220
  282SOL    HW2 1746   1.050   2.878   0.149
  283SOL     OW 1747   6.121   3.892   4.160
  283SOL    HW1 1748   6.205   3.943   4.144
  283SOL    HW2 1749   6.123   3.852   4.252
  284SOL     OW 1750   5.148   6.107   2.373
  284SOL    HW1 1751   5.069   6.156   2.337
  284SOL    HW2 1752   5.117   6.031   2.429
  285SOL     OW 1753   3.987   6.862   5.524
  285SOL    HW1 1754   4.048   6.910   5.586
  285SOL    HW2 1755   3.897   6.852   5.567
  286SOL     OW 1756   2.638   5.011   5.218
  286SOL    HW1 1757   2.702   4.937   5.241
  286SOL    HW2 1758   2.671   5.097   5.257
  287SOL     OW 1759   3.837   6.188   6.818
  287SOL    HW1 1760   3.902   6.112   6.825
  287SOL    HW2 1761   3.838   6.239   6.904
  288SOL     OW 1762   5.131   1.844   0.122
  288SOL    HW1 1763   5.101   1.769   0.181
  288SOL    HW2 1764   5.229   1.857   0.132
  289SOL     OW 1765   5.887   4.760   4.261
  289SOL    HW1 1766   5.908   4.769   4.358
  289SOL    HW2 1767   5.950   4.695   4.218
  290SOL     OW 1768   4.007   0.397   5.838
  290SOL    HW1 1769   4.074   0.383   5.911
  290SOL    HW2 1770   4.002   0.316   5.780
  291SOL     OW 1771   4.357   0.412   5.438
  291SOL    HW1 1772   4.391   0.420   5.532
  291SOL    HW2 1773   4.317   0.499   5.409
  292SOL     OW 1774   3.294   0.117   3.858
  292SOL    HW1 1775   3.374   0.133   3.916
  292SOL    HW2 1776   3.310   0.036   3.802
  293SOL     OW 1777   5.222   6.353   2.775
  293SOL    HW1 1778   5.145   6.342   2.838
  293SOL    HW2 1779   5.191   6.400   2.693
  294SOL     OW 1780   6.649   1.341   6.959
  294SOL    HW1 1781   6.607   1.400   6.890
  294SOL    HW2 1782   6.681   1.397   0.015
  295SOL     OW 1783   1.063   0.969   4.775
  295SOL    HW1 1784   1.115   0.928   4.700
  295SOL    HW2 1785   1.122   0.979   4.855
  296SOL     OW 1786   0.696   2.246   2.167
  296SOL    HW1 1787   0.631   2.183   2.209
  296SOL    HW2 1788   0.680   2.338   2.202
  297SOL     OW 1789   5.722   3.235   3.437
  297SOL    HW1 1790   5.809   3.284   3.443
  297SOL    HW2 1791   5.705   3.186   3.523
  298SOL     OW 1792   4.304   1.014   5.490
  298SOL    HW1 1793   4.276   1.089   5.551
  298SOL    HW2 1794   4.225   0.956   5.471
  299SOL     OW 1795   0.808   1.085   6.810
  299SOL    HW1 1796   0.850   1.156   6.753
  299SOL    HW2 1797   0.864   1.071   6.892
  300SOL     OW 1798   4.883   6.900   3.574
  300SOL    HW1 1799   4.792   6.875   3.541
  300SOL    HW2 1800   4.898   6.998   3.562
  301SOL     OW 1801   6.698   5.202   6.246
  301SOL    HW1 1802   6.732   5.166   6.333
  301SOL    HW2 1803   6.706   5.301   6.246
  302SOL     OW 1804   0.320   6.413   2.904
  302SOL    HW1 1805   0.333   6.338   2.839
  302SOL    HW2 1806   0.390   6.483   2.888
  303SOL     OW 1807   5.932   5.858   2.946
  303SOL    HW1 1808   5.859   5.833   2.883
  303SOL    HW2 1809   5.986   5.933   2.907
  304SOL     OW 1810   2.461   6.466   4.762
  304SOL    HW1 1811   2.483   6.496   4.669
  304SOL    HW2 1812   2.362   6.453   4.770
  305SOL     OW 1813   0.743   2.383   1.613
  305SOL    HW1 1814   0.680   2.350   1.683
  305SOL    HW2 1815   0.693   2.400   1.528
  306SOL     OW 1816   0.496   6.746   3.304
  306SOL    HW1 1817   0.454   6.674   3.248
  306SOL    HW2 1818   0.448   6.754   3.391
  307SOL     OW 1819   3.587   3.883   3.629
  307SOL    HW1 1820   3.647   3.961   3.647
  307SOL    HW2 1821   3.550   3.848   3.715
  308SOL     OW 1822   6.523   1.949   2.370
  308SOL    HW1 1823   6.479   1.996   2.293
  308SOL    HW2 1824   6.615   1.922   2.344
  309SOL     OW 1825   2.165   5.607   0.245
  309SOL    HW1 1826   2.118   5.650   0.169
  309SOL    HW2 1827   2.098   5.573   0.311
  310SOL     OW 1828   5.510   6.499   5.001
  310SOL    HW1 1829   5.567   6.507   4.919
  310SOL    HW2 1830   5.415   6.517   4.977
  311SOL     OW 1831   1.558   5.944   1.635
  311SOL    HW1 1832   1.650   5.952   1.672
  311SOL    HW2 1833   1.563   5.914   1.539
  312SOL     OW 1834   2.895   0.403   4.113
  312SOL    HW1 1835   2.982   0.443   4.085
  312SOL    HW2 1836   2.908   0.307   4.135
  313SOL     OW 1837   3.078   3.067   2.912
  313SOL    HW1 1838   3.043   3.024   2.828
  313SOL    HW2 1839   3.149   3.008   2.952
  314SOL     OW 1840   2.667   5.531   6.077
  314SOL    HW1 1841   2.731   5.571   6.011
  314SOL    HW2 1842   2.713   5.459   6.128
  315SOL     OW 1843   5.622   0.833   4.884
  315SOL    HW1 1844   5.576   0.900   4.942
  315SOL    HW2 1845   5.717   0.824   4.911
  316SOL     OW 1846   4.306   0.784   6.219
  316SOL    HW1 1847   4.322   0.814   6.125
  316SOL    HW2 1848   4.214   0.811   6.248
  317SOL     OW 1849   0.366   2.583   1.384
  317SOL    HW1 1850   0.370   2.585   1.484
  317SOL    HW2 1851   0.280   2.625   1.354
  318SOL     OW 1852   1.040   0.460   5.194
  318SOL    HW1 1853   0.954   0.410   5.197
  318SOL    HW2 1854   1.046   0.511   5.108
  319SOL     OW 1855   0.241   0.609   3.887
  319SOL    HW1 1856   0.164   0.645   3.939
  319SOL    HW2 1857   0.238   0.644   3.793
  320SOL     OW 1858   5.673   2.102   6.682
  320SOL    HW1 1859   5.644   2.006   6.682
  320SOL    HW2 1860   5.730   2.120   6.762
  321SOL     OW 1861   4.685   2.865   1.041
  321SOL    HW1 1862   4.604   2.894   1.093
  321SOL    HW2 1863   4.711   2.937   0.977
  322SOL     OW 1864   3.431   2.848   6.864
  322SOL    HW1 1865   3.407   2.943   6.846
  322SOL    HW2 1866   3.454   2.802   6.778
  323SOL     OW 1867   1.512   3.900   2.434
  323SOL    HW1 1868   1.479   3.831   2.499
  323SOL    HW2 1869   1.561   3.972   2.484
  324SOL     OW 1870   0.658   0.040   2.971
  324SOL    HW1 1871   0.608   0.037   3.058
  324SOL    HW2 1872   0.604   7.015   2.900
  325SOL     OW 1873   0.018   4.037   0.653
  325SOL    HW1 1874   0.010   3.959   0.590
  325SOL    HW2 1875   0.008   4.005   0.747
  326SOL     OW 1876   0.771   6.157   0.052
  326SOL    HW1 1877   0.796   6.068   0.090
  326SOL    HW2 1878   0.675   6.155   0.022
  327SOL     OW 1879   4.384   5.688   5.652
  327SOL    HW1 1880   4.308   5.637   5.611
  327SOL    HW2 1881   4.362   5.712   5.746
  328SOL     OW 1882   1.516   4.794   3.104
  328SOL    HW1 1883   1.485   4.800   3.199
  328SOL    HW2 1884   1.501   4.882   3.059
  329SOL     OW 1885   3.098   3.442   1.592
  329SOL    HW1 1886   3.043   3.384   1.532
  329SOL    HW2 1887   3.147   3.385   1.658
  330SOL     OW 1888   3.070   3.518   0.229
  330SOL    HW1 1889   3.146   3.577   0.203
  330SOL    HW2 1890   2.983   3.567   0.215
  331SOL     OW 1891   5.179   5.610   4.981
  331SOL    HW1 1892   5.115   5.668   4.930
  331SOL    HW2 1893   5.133   5.526   5.010
  332SOL     OW 1894   5.410   2.282   2.920
  332SOL    HW1 1895   5.367   2.372   2.927
  332SOL    HW2 1896   5.477   2.283   2.846
  333SOL     OW 1897   3.158   0.025   4.649
  333SOL    HW1 1898   3.204   0.073   4.574
  333SOL    HW2 1899   3.062   0.053   4.651
  334SOL     OW 1900   3.619   4.140   3.416
  334SOL    HW1 1901   3.640   4.164   3.321
  334SOL    HW2 1902   3.536   4.085   3.419
  335SOL     OW 1903   3.930   1.471   1.211
  335SOL    HW1 1904   3.845   1.519   1.233
  335SOL    HW2 1905   3.977   1.447   1.295
  336SOL     OW 1906   3.527   1.891   4.631
  336SOL    HW1 1907   3.588   1.906   4.709
  336SOL    HW2 1908   3.433   1.915   4.657
  337SOL     OW 1909   0.185   0.925   5.025
  337SOL    HW1 1910   0.123   0.974   5.086
  337SOL    HW2 1911   0.132   0.874   4.957
  338SOL     OW 1912   4.231   1.630   1.299
  338SOL    HW1 1913   4.222   1.702   1.368
  338SOL    HW2 1914   4.188   1.546   1.333
  339SOL     OW 1915   4.257   5.177   5.495
  339SOL    HW1 1916   4.184   5.122   5.455
  339SOL    HW2 1917   4.294   5.130   5.576
  340SOL     OW 1918   6.203   2.330   4.216
  340SOL    HW1 1919   6.112   2.290   4.221
  340SOL    HW2 1920   6.272   2.256   4.216
  341SOL     OW 1921   0.123   6.820   3.356
  341SOL    HW1 1922   0.027   6.808   3.329
  341SOL    HW2 1923   0.179   6.834   3.274
  342SOL     OW 1924   5.065   2.154   2.461
  342SOL    HW1 1925   5.023   2.242   2.438
  342SOL    HW2 1926   5.016   2.081   2.413
  343SOL     OW 1927   6.469   6.797   1.657
  343SOL    HW1 1928   6.518   6.834   1.736
  343SOL    HW2 1929   6.371   6.814   1.666
  344SOL     OW 1930   0.155   2.297   1.085
  344SOL    HW1 1931   0.159   2.361   1.009
  344SOL    HW2 1932   0.142   2.346   1.170
  345SOL     OW 1933   6.541   2.551   4.581
  345SOL    HW1 1934   6.475   2.525   4.511
  345SOL    HW2 1935   6.507   2.521   4.671
  346SOL     OW 1936   2.418   6.488   3.576
  346SOL    HW1 1937   2.395   6.527   3.487
  346SOL    HW2 1938   2.334   6.458   3.622
  347SOL     OW 1939   2.045   4.266   0.334
  347SOL    HW1 1940   2.002   4.290   0.421
  347SOL    HW2 1941   2.001   4.318   0.260
  348SOL     OW 1942   3.995   5.245   1.383
  348SOL    HW1 1943   4.038   5.285   1.464
  348SOL    HW2 1944   4.053   5.172   1.347
  349SOL     OW 1945   5.751   4.255   0.628
  349SOL    HW1 1946   5.716   4.224   0.540
  349SOL    HW2 1947   5.742   4.354   0.635
  350SOL     OW 1948   3.343   2.087   6.913
  350SOL    HW1 1949   3.261   2.118   6.863
  350SOL    HW2 1950   3.419   2.149   6.894
  351SOL     OW 1951   3.476   4.354   0.690
  351SOL    HW1 1952   3.484   4.299   0.607
  351SOL    HW2 1953   3.563   4.399   0.708
  352SOL     OW 1954   4.267   0.292   2.422
  352SOL    HW1 1955   4.283   0.355   2.498
  352SOL    HW2 1956   4.305   0.202   2.445
  353SOL     OW 1957   1.803   0.609   0.698
  353SOL    HW1 1958   1.876   0.553   0.660
  353SOL    HW2 1959   1.814   0.617   0.797
  354SOL     OW 1960   1.011   2.594   0.279
  354SOL    HW1 1961   0.960   2.578   0.194
  354SOL    HW2 1962   1.083   2.525   0.288
  355SOL     OW 1963   1.228   2.327   3.041
  355SOL    HW1 1964   1.177   2.409   3.013
  355SOL    HW2 1965   1.164   2.251   3.053
  356SOL     OW 1966   2.818   0.376   5.330
  356SOL    HW1 1967   2.783   0.341   5.417
  356SOL    HW2 1968   2.816   0.304   5.261
  357SOL     OW 1969   5.575   0.255   4.602
  357SOL    HW1 1970   5.480   0.287   4.609
  357SOL    HW2 1971   5.584   0.195   4.522
  358SOL     OW 1972   3.316   6.137   6.143
  358SOL    HW1 1973   3.296   6.050   6.189
  358SOL    HW2 1974   3.373   6.120   6.063
  359SOL     OW 1975   1.179   1.919   2.250
  359SOL    HW1 1976   1.107   1.988   2.245
  359SOL    HW2 1977   1.199   1.885   2.158
  360SOL     OW 1978   1.904   4.288   4.295
  360SOL    HW1 1979   1.878   4.216   4.360
  360SOL    HW2 1980   2.004   4.294   4.291
  361SOL     OW 1981   6.570   1.355   2.230
  361SOL    HW1 1982   6.578   1.431   2.294
  361SOL    HW2 1983   6.628   1.373   2.150
  362SOL     OW 1984   3.625   3.491   1.382
  362SOL    HW1 1985   3.642   3.395   1.362
  362SOL    HW2 1986   3.647   3.510   1.477
  363SOL     OW 1987   5.050   5.548   1.916
  363SOL    HW1 1988   5.119   5.482   1.886
  363SOL    HW2 1989   5.090   5.610   1.983
  364SOL     OW 1990   0.852   6.728   6.942
  364SOL    HW1 1991   0.908   6.675   7.006
  364SOL    HW2 1992   0.869   6.697   6.849
  365SOL     OW 1993   5.347   1.483   3.518
  365SOL    HW1 1994   5.390   1.395   3.536
  365SOL    HW2 1995   5.393   1.554   3.571
  366SOL     OW 1996   5.747   1.556   6.636
  366SOL    HW1 1997   5.742   1.621   6.712
  366SOL    HW2 1998   5.813   1.485   6.658
  367SOL     OW 1999   5.948   1.330   6.941
  367SOL    HW1 2000   5.892   1.251   6.914
  367SOL    HW2 2001   5.935   1.348   0.018
  368SOL     OW 2002   0.738   2.072   5.592
  368SOL    HW1 2003   0.825   2.024   5.575
  368SOL    HW2 2004   0.697   2.097   5.504
  369SOL     OW 2005   6.117   3.890   1.154
  369SOL    HW1 2006   6.135   3.798   1.190
  369SOL    HW2 2007   6.163   3.901   1.066
  370SOL     OW 2008   1.641   2.519   3.709
  370SOL    HW1 2009   1.611   2.437   3.757
  370SOL    HW2 2010   1.684   2.493   3.622
  371SOL     OW 2011   0.994   4.767   6.812
  371SOL    HW1 2012   1.069   4.734   6.869
  371SOL    HW2 2013   0.968   4.859   6.841
  372SOL     OW 2014   2.916   6.227   6.366
  372SOL    HW1 2015   2.846   6.228   6.437
  372SOL    HW2 2016   2.914   6.313   6.315
  373SOL     OW 2017   6.275   4.431   3.377
  373SOL    HW1 2018   6.187   4.425   3.424
  373SOL    HW2 2019   6.319   4.518   3.401
  374SOL     OW 2020   2.897   1.417   2.710
  374SOL    HW1 2021   2.819   1.356   2.717
  374SOL    HW2 2022   2.952   1.394   2.629
  375SOL     OW 2023   0.589   5.888   4.343
  375SOL    HW1 2024   0.498   5.913   4.311
  375SOL    HW2 2025   0.650   5.967   4.332
  376SOL     OW 2026   3.767   0.818   3.479
  376SOL    HW1 2027   3.837   0.884   3.506
  376SOL    HW2 2028   3.742   0.762   3.558
  377SOL     OW 2029   2.051   1.914   0.146
  377SOL    HW1 2030   2.055   1.997   0.203
  377SOL    HW2 2031   2.136   1.904   0.095
  378SOL     OW 2032   4.570   1.589   2.548
  378SOL    HW1 2033   4.484   1.639   2.536
  378SOL    HW2 2034   4.571   1.510   2.486
  379SOL     OW 2035   4.650   1.791   6.169
  379SOL    HW1 2036   4.604   1.857   6.111
  379SOL    HW2 2037   4.724   1.836   6.220
  380SOL     OW 2038   4.373   2.617   6.900
  380SOL    HW1 2039   4.311   2.671   6.842
  380SOL    HW2 2040   4.371   2.654   6.993
  381SOL     OW 2041   2.162   3.754   2.798
  381SOL    HW1 2042   2.151   3.684   2.869
  381SOL    HW2 2043   2.072   3.785   2.768
  382SOL     OW 2044   5.688   0.431   6.230
  382SOL    HW1 2045   5.735   0.494   6.292
  382SOL    HW2 2046   5.733   0.341   6.235
  383SOL     OW 2047   5.188   2.217   0.540
  383SOL    HW1 2048   5.210   2.273   0.620
  383SOL    HW2 2049   5.152   2.129   0.570
  384SOL     OW 2050   6.453   3.734   4.851
  384SOL    HW1 2051   6.490   3.751   4.760
  384SOL    HW2 2052   6.433   3.637   4.861
  385SOL     OW 2053   4.839   3.432   0.448
  385SOL    HW1 2054   4.822   3.336   0.471
  385SOL    HW2 2055   4.855   3.440   0.350
  386SOL     OW 2056   3.948   6.414   3.995
  386SOL    HW1 2057   3.956   6.483   4.067
  386SOL    HW2 2058   3.941   6.323   4.037
  387SOL     OW 2059   2.503   5.733   4.212
  387SOL    HW1 2060   2.517   5.802   4.142
  387SOL    HW2 2061   2.417   5.750   4.260
  388SOL     OW 2062   1.126   4.399   6.899
  388SOL    HW1 2063   1.033   4.415   6.931
  388SOL    HW2 2064   1.181   4.481   6.915
  389SOL     OW 2065   2.903   3.435   2.415
  389SOL    HW1 2066   2.930   3.489   2.494
  389SOL    HW2 2067   2.861   3.350   2.445
  390SOL     OW 2068   2.528   1.338   4.280
  390SOL    HW1 2069   2.449   1.367   4.334
  390SOL    HW2 2070   2.509   1.250   4.238
  391SOL     OW 2071   1.152   2.589   6.112
  391SOL    HW1 2072   1.219   2.519   6.135
  391SOL    HW2 2073   1.137   2.590   6.013
  392SOL     OW 2074   2.932   5.327   3.579
  392SOL    HW1 2075   2.931   5.360   3.673
  392SOL    HW2 2076   2.978   5.394   3.520
  393SOL     OW 2077   6.227   3.837   4.682
  393SOL    HW1 2078   6.211   3.936   4.683
  393SOL    HW2 2079   6.261   3.808   4.771
  394SOL     OW 2080   2.803   0.232   6.822
  394SOL    HW1 2081   2.795   0.319   6.773
  394SOL    HW2 2082   2.866   0.242   6.898
  395SOL     OW 2083   6.197   3.604   1.142
  395SOL    HW1 2084   6.184   3.549   1.059
  395SOL    HW2 2085   6.243   3.549   1.211
  396SOL     OW 2086   3.510   2.981   4.238
  396SOL    HW1 2087   3.509   2.972   4.337
  396SOL    HW2 2088   3.513   3.078   4.213
  397SOL     OW 2089   4.001   1.926   6.252
  397SOL    HW1 2090   4.043   2.001   6.201
  397SOL    HW2 2091   3.923   1.890   6.201
  398SOL     OW 2092   0.954   4.634   2.649
  398SOL    HW1 2093   0.952   4.731   2.670
  398SOL    HW2 2094   0.861   4.598   2.647
  399SOL     OW 2095   4.726   4.974   2.991
  399SOL    HW1 2096   4.654   5.023   3.040
  399SOL    HW2 2097   4.811   5.026   2.997
  400SOL     OW 2098   1.581   4.857   4.524
  400SOL    HW1 2099   1.645   4.841   4.599
  400SOL    HW2 2100   1.492   4.884   4.560
  401SOL     OW 2101   5.629   1.315   6.735
  401SOL    HW1 2102   5.702   1.254   6.765
  401SOL    HW2 2103   5.629   1.319   6.635
  402SOL     OW 2104   6.173   4.729   1.438
  402SOL    HW1 2105   6.223   4.708   1.354
  402SOL    HW2 2106   6.172   4.828   1.452
  403SOL     OW 2107   5.283   3.656   6.691
  403SOL    HW1 2108   5.291   3.755   6.693
  403SOL    HW2 2109   5.199   3.628   6.738
  404SOL     OW 2110   0.582   6.971   4.775
  404SOL    HW1 2111   0.583   6.906   4.699
  404SOL    HW2 2112   0.540   0.036   4.745
  405SOL     OW 2113   1.421   2.487   0.464
  405SOL    HW1 2114   1.424   2.581   0.498
  405SOL    HW2 2115   1.493   2.433   0.508
  406SOL     OW 2116   1.293   3.374   2.777
  406SOL    HW1 2117   1.283   3.313   2.856
  406SOL    HW2 2118   1.390   3.377   2.750
  407SOL     OW 2119   2.523   1.456   3.397
  407SOL    HW1 2120   2.592   1.421   3.460
  407SOL    HW2 2121   2.557   1.540   3.354
  408SOL     OW 2122   1.876   0.316   3.392
  408SOL    HW1 2123   1.785   0.356   3.391
  408SOL    HW2 2124   1.870   0.217   3.387
  409SOL     OW 2125   5.908   3.135   4.029
  409SOL    HW1 2126   5.995   3.169   4.065
  409SOL    HW2 2127   5.879   3.192   3.952
  410SOL     OW 2128   3.490   1.111   6.103
  410SOL    HW1 2129   3.588   1.127   6.096
  410SOL    HW2 2130   3.446   1.134   6.016
  411SOL     OW 2131   0.037   3.778   5.284
  411SOL    HW1 2132   6.976   3.722   5.294
  411SOL    HW2 2133   0.042   3.842   5.361
  412SOL     OW 2134   3.552   6.807   2.280
  412SOL    HW1 2135   3.528   6.874   2.211
  412SOL    HW2 2136   3.549   6.715   2.240
  413SOL     OW 2137   2.850   0.542   1.584
  413SOL    HW1 2138   2.840   0.521   1.486
  413SOL    HW2 2139   2.770   0.594   1.615
  414SOL     OW 2140   4.522   3.954   0.185
  414SOL    HW1 2141   4.491   3.995   0.270
  414SOL    HW2 2142   4.474   3.868   0.170
  415SOL     OW 2143   3.229   6.480   1.788
  415SOL    HW1 2144   3.230   6.552   1.857
  415SOL    HW2 2145   3.293   6.408   1.815
  416SOL     OW 2146   3.632   6.032   5.732
  416SOL    HW1 2147   3.723   6.070   5.748
  416SOL    HW2 2148   3.636   5.964   5.659
  417SOL     OW 2149   4.313   6.178   0.645
  417SOL    HW1 2150   4.274   6.254   0.696
  417SOL    HW2 2151   4.401   6.152   0.686
  418SOL     OW 2152   5.642   4.500   0.575
  418SOL    HW1 2153   5.551   4.527   0.607
  418SOL    HW2 2154   5.647   4.511   0.476
  419SOL     OW 2155   6.239   6.446   1.047
  419SOL    HW1 2156   6.208   6.514   0.981
  419SOL    HW2 2157   6.238   6.355   1.005
  420SOL     OW 2158   4.360   4.199   6.890
  420SOL    HW1 2159   4.361   4.111   6.841
  420SOL    HW2 2160   4.432   4.198   6.960
  421SOL     OW 2161   1.350   5.780   6.597
  421SOL    HW1 2162   1.272   5.797   6.657
  421SOL    HW2 2163   1.359   5.682   6.580
  422SOL     OW 2164   5.807   3.193   6.695
  422SOL    HW1 2165   5.785   3.106   6.651
  422SOL    HW2 2166   5.739   3.214   6.765
  423SOL     OW 2167   0.649   2.735   6.162
  423SOL    HW1 2168   0.652   2.640   6.193
  423SOL    HW2 2169   0.650   2.796   6.242
  424SOL     OW 2170   2.430   4.148   6.891
  424SOL    HW1 2171   2.371   4.229   6.888
  424SOL    HW2 2172   2.374   4.066   6.897
  425SOL     OW 2173   3.179   1.069   0.571
  425SOL    HW1 2174   3.129   0.987   0.597
  425SOL    HW2 2175   3.198   1.124   0.652
  426SOL     OW 2176   5.397   4.170   5.778
  426SOL    HW1 2177   5.309   4.168   5.824
  426SOL    HW2 2178   5.387   4.209   5.687
  427SOL     OW 2179   5.166   3.744   0.897
  427SOL    HW1 2180   5.088   3.713   0.952
  427SOL    HW2 2181   5.144   3.732   0.800
  428SOL     OW 2182   3.929   1.175   4.877
  428SOL    HW1 2183   3.861   1.165   4.804
  428SOL    HW2 2184   3.984   1.091   4.883
  429SOL     OW 2185   2.192   5.228   6.987
  429SOL    HW1 2186   2.107   5.183   6.961
  429SOL    HW2 2187   2.232   5.273   6.906
  430SOL     OW 2188   1.395   6.468   5.185
  430SOL    HW1 2189   1.325   6.406   5.220
  430SOL    HW2 2190   1.447   6.423   5.113
  431SOL     OW 2191   3.718   1.669   6.915
  431SOL    HW1 2192   3.810   1.667   6.876
  431SOL    HW2 2193   3.670   1.585   6.890
  432SOL     OW 2194   0.277   2.042   1.125
  432SOL    HW1 2195   0.341   2.024   1.050
  432SOL    HW2 2196   0.223   2.124   1.103
  433SOL     OW 2197   2.907   5.782   4.670
  433SOL    HW1 2198   2.843   5.852   4.704
  433SOL    HW2 2199   2.867   5.691   4.684
  434SOL     OW 2200   6.945   3.768   1.081
  434SOL    HW1 2201   0.017   3.758   1.116
  434SOL    HW2 2202   6.916   3.682   1.039
  435SOL     OW 2203   3.611   4.215   0.479
  435SOL    HW1 2204   3.680   4.176   0.540
  435SOL    HW2 2205   3.640   4.201   0.384
  436SOL     OW 2206   2.944   1.131   6.981
  436SOL    HW1 2207   2.850   1.124   6.948
  436SOL    HW2 2208   3.005   1.145   6.903
  437SOL     OW 2209   0.207   6.789   6.335
  437SOL    HW1 2210   0.111   6.812   6.352
  437SOL    HW2 2211   0.265   6.864   6.366
  438SOL     OW 2212   1.643   2.926   1.940
  438SOL    HW1 2213   1.580   2.982   1.995
  438SOL    HW2 2214   1.704   2.875   2.000
  439SOL     OW 2215   5.918   4.801   2.732
  439SOL    HW1 2216   5.856   4.876   2.711
  439SOL    HW2 2217   5.910   4.730   2.662
  440SOL     OW 2218   0.811   3.321   3.879
  440SOL    HW1 2219   0.852   3.254   3.942
  440SOL    HW2 2220   0.795   3.278   3.791
  441SOL     OW 2221   0.995   0.975   3.860
  441SOL    HW1 2222   1.017   1.051   3.798
  441SOL    HW2 2223   0.967   0.896   3.806
  442SOL     OW 2224   0.024   4.376   0.142
  442SOL    HW1 2225   6.967   4.417   0.191
  442SOL    HW2 2226   0.096   4.353   0.208
  443SOL     OW 2227   0.786   4.268   5.835
  443SOL    HW1 2228   0.704   4.216   5.853
  443SOL    HW2 2229   0.858   4.208   5.799
  444SOL     OW 2230   4.452   3.640   6.094
  444SOL    HW1 2231   4.428   3.600   6.005
  444SOL    HW2 2232   4.370   3.679   6.136
  445SOL     OW 2233   1.915   4.625   3.005
  445SOL    HW1 2234   1.961   4.713   3.015
  445SOL    HW2 2235   1.977   4.551   3.032
  446SOL     OW 2236   4.639   4.624   3.854
  446SOL    HW1 2237   4.679   4.543   3.813
  446SOL    HW2 2238   4.569   4.597   3.921
  447SOL     OW 2239   6.896   5.660   0.527
  447SOL    HW1 2240   6.987   5.628   0.552
  447SOL    HW2 2241   6.828   5.597   0.564
  448SOL     OW 2242   5.008   0.706   5.455
  448SOL    HW1 2243   5.045   0.614   5.467
  448SOL    HW2 2244   5.049   0.748   5.374
  449SOL     OW 2245   6.166   0.728   4.754
  449SOL    HW1 2246   6.165   0.635   4.791
  449SOL    HW2 2247   6.087   0.741   4.695
  450SOL     OW 2248   6.581   6.347   3.862
  450SOL    HW1 2249   6.561   6.258   3.902
  450SOL    HW2 2250   6.597   6.413   3.936
  451SOL     OW 2251   0.538   2.639   3.210
  451SOL    HW1 2252   0.590   2.720   3.182
  451SOL    HW2 2253   0.453   2.668   3.254
  452SOL     OW 2254   0.151   4.727   6.595
  452SOL    HW1 2255   0.180   4.753   6.502
  452SOL    HW2 2256   0.103   4.804   6.637
  453SOL     OW 2257   3.180   0.712   5.839
  453SOL    HW1 2258   3.115   0.695   5.914
  453SOL    HW2 2259   3.139   0.776   5.774
  454SOL     OW 2260   0.954   6.247   6.886
  454SOL    HW1 2261   0.880   6.226   6.949
  454SOL    HW2 2262   1.042   6.238   6.932
  455SOL     OW 2263   5.224   1.201   5.570
  455SOL    HW1 2264   5.310   1.249   5.554
  455SOL    HW2 2265   5.211   1.131   5.500
  456SOL     OW 2266   4.529   5.824   6.647
  456SOL    HW1 2267   4.447   5.859   6.601
  456SOL    HW2 2268   4.567   5.749   6.594
  457SOL     OW 2269   1.532   5.139   2.529
  457SOL    HW1 2270   1.611   5.197   2.549
  457SOL    HW2 2271   1.563   5.051   2.493
  458SOL     OW 2272   6.546   5.687   6.767
  458SOL    HW1 2273   6.570   5.593   6.740
  458SOL    HW2 2274   6.613   5.751   6.731
  459SOL     OW 2275   2.141   0.706   2.648
  459SOL    HW1 2276   2.097   0.787   2.686
  459SOL    HW2 2277   2.093   0.624   2.680
  460SOL     OW 2278   6.464   1.663   3.364
  460SOL    HW1 2279   6.434   1.727   3.292
  460SOL    HW2 2280   6.512   1.586   3.322
  461SOL     OW 2281   4.591   6.392   5.502
  461SOL    HW1 2282   4.679   6.384   5.549
  461SOL    HW2 2283   4.606   6.423   5.408
  462SOL     OW 2284   2.623   3.543   6.384
  462SOL    HW1 2285   2.622   3.608   6.308
  462SOL    HW2 2286   2.708   3.491   6.381
  463SOL     OW 2287   6.532   5.657   1.464
  463SOL    HW1 2288   6.596   5.598   1.513
  463SOL    HW2 2289   6.439   5.639   1.496
  464SOL     OW 2290   1.943   1.016   5.731
  464SOL    HW1 2291   2.000   1.006   5.812
  464SOL    HW2 2292   1.944   0.931   5.678
  465SOL     OW 2293   6.260   2.564   4.111
  465SOL    HW1 2294   6.240   2.474   4.151
  465SOL    HW2 2295   6.218   2.570   4.021
  466SOL     OW 2296   1.707   0.041   3.352
  466SOL    HW1 2297   1.640   0.056   3.425
  466SOL    HW2 2298   1.691   6.972   3.311
  467SOL     OW 2299   1.847   0.700   4.950
  467SOL    HW1 2300   1.788   0.763   5.000
  467SOL    HW2 2301   1.888   0.635   5.014
  468SOL     OW 2302   3.135   4.307   0.774
  468SOL    HW1 2303   3.061   4.294   0.707
  468SOL    HW2 2304   3.108   4.267   0.861
  469SOL     OW 2305   2.128   4.933   0.465
  469SOL    HW1 2306   2.047   4.875   0.457
  469SOL    HW2 2307   2.119   5.012   0.404
  470SOL     OW 2308   3.741   1.497   2.640
  470SOL    HW1 2309   3.651   1.498   2.685
  470SOL    HW2 2310   3.800   1.430   2.686
  471SOL     OW 2311   2.533   2.210   5.107
  471SOL    HW1 2312   2.467   2.168   5.046
  471SOL    HW2 2313   2.579   2.139   5.160
  472SOL     OW 2314   3.391   4.124   5.861
  472SOL    HW1 2315   3.392   4.101   5.763
  472SOL    HW2 2316   3.485   4.129   5.894
  473SOL     OW 2317   1.164   4.228   2.635
  473SOL    HW1 2318   1.216   4.193   2.713
  473SOL    HW2 2319   1.176   4.327   2.629
  474SOL     OW 2320   3.909   5.032   4.711
  474SOL    HW1 2321   3.985   5.089   4.740
  474SOL    HW2 2322   3.942   4.940   4.687
  475SOL     OW 2323   0.528   6.587   6.326
  475SOL    HW1 2324   0.533   6.685   6.347
  475SOL    HW2 2325   0.587   6.536   6.388
  476SOL     OW 2326   6.995   4.588   2.612
  476SOL    HW1 2327   6.965   4.493   2.602
  476SOL    HW2 2328   0.071   4.591   2.634
  477SOL     OW 2329   1.532   5.153   4.007
  477SOL    HW1 2330   1.628   5.126   4.000
  477SOL    HW2 2331   1.515   5.231   3.946
  478SOL     OW 2332   2.137   5.029   3.473
  478SOL    HW1 2333   2.173   4.984   3.555
  478SOL    HW2 2334   2.160   4.975   3.392
  479SOL     OW 2335   3.513   2.228   0.766
  479SOL    HW1 2336   3.556   2.314   0.737
  479SOL    HW2 2337   3.579   2.174   0.818
  480SOL     OW 2338   0.922   0.261   2.642
  480SOL    HW1 2339   1.001   0.218   2.685
  480SOL    HW2 2340   0.886   0.333   2.702
  481SOL     OW 2341   4.311   7.014   1.204
  481SOL    HW1 2342   4.368   0.076   1.208
  481SOL    HW2 2343   4.344   6.954   1.131
  482SOL     OW 2344   5.401   4.261   1.963
  482SOL    HW1 2345   5.384   4.332   1.895
  482SOL    HW2 2346   5.388   4.298   2.055
  483SOL     OW 2347   5.600   1.771   1.657
  483SOL    HW1 2348   5.512   1.745   1.618
  483SOL    HW2 2349   5.670   1.707   1.626
  484SOL     OW 2350   6.568   2.152   4.906
  484SOL    HW1 2351   6.496   2.151   4.975
  484SOL    HW2 2352   6.647   2.100   4.938
  485SOL     OW 2353   3.673   5.197   2.350
  485SOL    HW1 2354   3.635   5.272   2.296
  485SOL    HW2 2355   3.608   5.171   2.421
  486SOL     OW 2356   0.607   0.677   0.642
  486SOL    HW1 2357   0.685   0.655   0.583
  486SOL    HW2 2358   0.539   0.727   0.589
  487SOL     OW 2359   6.804   2.604   6.857
  487SOL    HW1 2360   6.874   2.563   6.916
  487SOL    HW2 2361   6.844   2.625   6.768
  488SOL     OW 2362   0.341   2.113   2.451
  488SOL    HW1 2363   0.401   2.190   2.470
  488SOL    HW2 2364   0.247   2.136   2.478
  489SOL     OW 2365   3.594   5.847   6.565
  489SOL    HW1 2366   3.510   5.793   6.576
  489SOL    HW2 2367   3.633   5.867   6.655
  490SOL     OW 2368   5.650   6.270   4.664
  490SOL    HW1 2369   5.669   6.189   4.609
  490SOL    HW2 2370   5.734   6.325   4.672
  491SOL     OW 2371   6.886   2.813   2.791
  491SOL    HW1 2372   6.949   2.878   2.832
  491SOL    HW2 2373   6.924   2.777   2.706
  492SOL     OW 2374   2.196   0.596   5.328
  492SOL    HW1 2375   2.270   0.529   5.319
  492SOL    HW2 2376   2.146   0.579   5.413
  493SOL     OW 2377   6.569   4.290   4.587
  493SOL    HW1 2378   6.612   4.254   4.670
  493SOL    HW2 2379   6.528   4.216   4.535
  494SOL     OW 2380   6.729   0.507   0.977
  494SOL    HW1 2381   6.661   0.575   0.948
  494SOL    HW2 2382   6.726   0.428   0.916
  495SOL     OW 2383   4.342   4.274   1.495
  495SOL    HW1 2384   4.419   4.291   1.433
  495SOL    HW2 2385   4.376   4.263   1.588
  496SOL     OW 2386   5.679   3.074   3.671
  496SOL    HW1 2387   5.705   3.151   3.730
  496SOL    HW2 2388   5.715   2.989   3.710
  497SOL     OW 2389   4.443   0.975   4.325
  497SOL    HW1 2390   4.510   1.006   4.393
  497SOL    HW2 2391   4.352   0.976   4.366
  498SOL     OW 2392   1.260   3.164   2.560
  498SOL    HW1 2393   1.258   3.241   2.623
  498SOL    HW2 2394   1.188   3.176   2.491
  499SOL     OW 2395   3.283   1.353   4.895
  499SOL    HW1 2396   3.204   1.311   4.849
  499SOL    HW2 2397   3.339   1.400   4.827
  500SOL     OW 2398   0.643   4.049   2.497
  500SOL    HW1 2399   0.549   4.064   2.527
  500SOL    HW2 2400   0.671   3.956   2.523
  501SOL     OW 2401   0.812   3.999   6.069
  501SOL    HW1 2402   0.759   3.935   6.125
  501SOL    HW2 2403   0.782   3.992   5.974
  502SOL     OW 2404   3.459   5.014   6.450
  502SOL    HW1 2405   3.529   4.983   6.513
  502SOL    HW2 2406   3.378   5.043   6.501
  503SOL     OW 2407   5.257   5.201   5.355
  503SOL    HW1 2408   5.317   5.234   5.428
  503SOL    HW2 2409   5.312   5.168   5.279
  504SOL     OW 2410   2.081   5.852   4.589
  504SOL    HW1 2411   1.985   5.852   4.561
  504SOL    HW2 2412   2.122   5.940   4.565
  505SOL     OW 2413   3.775   6.950   6.021
  505SOL    HW1 2414   3.832   6.868   6.012
  505SOL    HW2 2415   3.826   7.019   6.073
  506SOL     OW 2416   1.931   4.123   6.652
  506SOL    HW1 2417   1.960   4.067   6.574
  506SOL    HW2 2418   1.858   4.076   6.701
  507SOL     OW 2419   3.254   1.597   4.038
  507SOL    HW1 2420   3.189   1.660   3.994
  507SOL    HW2 2421   3.333   1.649   4.071
  508SOL     OW 2422   6.580   3.809   3.956
  508SOL    HW1 2423   6.485   3.776   3.952
  508SOL    HW2 2424   6.633   3.748   4.015
  509SOL     OW 2425   4.564   2.247   1.519
  509SOL    HW1 2426   4.525   2.228   1.609
  509SOL    HW2 2427   4.538   2.173   1.456
  510SOL     OW 2428   0.508   3.781   4.031
  510SOL    HW1 2429   0.493   3.798   3.933
  510SOL    HW2 2430   0.564   3.855   4.069
  511SOL     OW 2431   0.045   6.768   0.761
  511SOL    HW1 2432   6.971   6.773   0.791
  511SOL    HW2 2433   0.105   6.797   0.835
  512SOL     OW 2434   0.186   3.666   6.526
  512SOL    HW1 2435   0.226   3.579   6.495
  512SOL    HW2 2436   0.095   3.649   6.562
  513SOL     OW 2437   6.538   5.819   4.296
  513SOL    HW1 2438   6.538   5.918   4.279
  513SOL    HW2 2439   6.626   5.781   4.268
  514SOL     OW 2440   5.512   1.630   3.673
  514SOL    HW1 2441   5.509   1.619   3.772
  514SOL    HW2 2442   5.498   1.727   3.650
  515SOL     OW 2443   2.213   6.169   0.003
  515SOL    HW1 2444   2.278   6.112   6.973
  515SOL    HW2 2445   2.261   6.216   0.076
  516SOL     OW 2446   1.901   5.108   1.908
  516SOL    HW1 2447   1.939   5.015   1.908
  516SOL    HW2 2448   1.934   5.158   1.829
  517SOL     OW 2449   4.943   0.500   1.066
  517SOL    HW1 2450   5.006   0.577   1.062
  517SOL    HW2 2451   4.853   0.533   1.093
  518SOL     OW 2452   2.176   2.617   0.679
  518SOL    HW1 2453   2.193   2.652   0.586
  518SOL    HW2 2454   2.227   2.672   0.745
  519SOL     OW 2455   0.955   6.354   0.237
  519SOL    HW1 2456   1.034   6.320   0.186
  519SOL    HW2 2457   0.875   6.298   0.216
  520SOL     OW 2458   5.507   4.768   5.324
  520SOL    HW1 2459   5.432   4.749   5.260
  520SOL    HW2 2460   5.541   4.682   5.362
  521SOL     OW 2461   6.601   1.366   0.862
  521SOL    HW1 2462   6.560   1.449   0.900
  521SOL    HW2 2463   6.698   1.362   0.887
  522SOL     OW 2464   4.087   3.560   4.306
  522SOL    HW1 2465   4.041   3.608   4.231
  522SOL    HW2 2466   4.179   3.533   4.276
  523SOL     OW 2467   0.282   6.927   5.307
  523SOL    HW1 2468   0.214   6.986   5.262
  523SOL    HW2 2469   0.371   6.973   5.307
  524SOL     OW 2470   3.117   0.882   5.646
  524SOL    HW1 2471   3.167   0.914   5.565
  524SOL    HW2 2472   3.020   0.905   5.637
  525SOL     OW 2473   2.216   3.544   6.939
  525SOL    HW1 2474   2.199   3.479   6.865
  525SOL    HW2 2475   2.312   3.542   6.964
  526SOL     OW 2476   3.389   6.104   4.543
  526SOL    HW1 2477   3.391   6.176   4.475
  526SOL    HW2 2478   3.352   6.020   4.503
  527SOL     OW 2479   0.994   1.670   6.671
  527SOL    HW1 2480   0.955   1.674   6.579
  527SOL    HW2 2481   1.037   1.757   6.692
  528SOL     OW 2482   2.398   0.248   5.289
  528SOL    HW1 2483   2.474   0.204   5.337
  528SOL    HW2 2484   2.430   0.332   5.246
  529SOL     OW 2485   0.037   4.878   3.746
  529SOL    HW1 2486   0.127   4.872   3.703
  529SOL    HW2 2487   0.023   4.970   3.782
  530SOL     OW 2488   2.382   3.087   5.434
  530SOL    HW1 2489   2.413   3.017   5.499
  530SOL    HW2 2490   2.430   3.076   5.347
  531SOL     OW 2491   0.298   0.159   1.057
  531SOL    HW1 2492   0.245   0.105   0.992
  531SOL    HW2 2493   0.380   0.108   1.084
  532SOL     OW 2494   1.999   0.738   5.696
  532SOL    HW1 2495   1.923   0.736   5.760
  532SOL    HW2 2496   2.008   0.648   5.651
  533SOL     OW 2497   5.533   0.098   4.363
  533SOL    HW1 2498   5.450   0.049   4.392
  533SOL    HW2 2499   5.600   0.033   4.330
  534SOL     OW 2500   3.872   5.867   1.949
  534SOL    HW1 2501   3.933   5.808   2.003
  534SOL    HW2 2502   3.803   5.811   1.905
  535SOL     OW 2503   0.002   3.405   3.456
  535SOL    HW1 2504   0.045   3.315   3.452
  535SOL    HW2 2505   0.058   3.471   3.406
  536SOL     OW 2506   1.154   5.534   0.890
  536SOL    HW1 2507   1.147   5.511   0.793
  536SOL    HW2 2508   1.089   5.606   0.912
  537SOL     OW 2509   2.178   0.370   2.498
  537SOL    HW1 2510   2.150   0.429   2.573
  537SOL    HW2 2511   2.183   0.275   2.530
  538SOL     OW 2512   1.140   5.369   3.485
  538SOL    HW1 2513   1.160   5.283   3.532
  538SOL    HW2 2514   1.153   5.358   3.386
  539SOL     OW 2515   1.579   4.827   1.877
  539SOL    HW1 2516   1.519   4.836   1.797
  539SOL    HW2 2517   1.634   4.744   1.868
  540SOL     OW 2518   0.971   2.134   2.129
  540SOL    HW1 2519   0.917   2.052   2.148
  540SOL    HW2 2520   0.911   2.213   2.124
  541SOL     OW 2521   3.178   5.888   5.589
  541SOL    HW1 2522   3.117   5.892   5.510
  541SOL    HW2 2523   3.125   5.907   5.672
  542SOL     OW 2524   6.021   5.539   6.862
  542SOL    HW1 2525   6.023   5.637   6.883
  542SOL    HW2 2526   5.946   5.496   6.913
  543SOL     OW 2527   0.398   5.799   0.153
  543SOL    HW1 2528   0.319   5.856   0.133
  543SOL    HW2 2529   0.455   5.844   0.221
  544SOL     OW 2530   1.205   5.469   0.607
  544SOL    HW1 2531   1.178   5.391   0.550
  544SOL    HW2 2532   1.246   5.540   0.549
  545SOL     OW 2533   3.774   1.775   3.481
  545SOL    HW1 2534   3.750   1.719   3.401
  545SOL    HW2 2535   3.728   1.864   3.474
  546SOL     OW 2536   0.817   4.015   0.208
  546SOL    HW1 2537   0.870   3.931   0.193
  546SOL    HW2 2538   0.726   4.004   0.169
  547SOL     OW 2539   2.780   3.237   0.247
  547SOL    HW1 2540   2.880   3.245   0.252
  547SOL    HW2 2541   2.750   3.247   0.153
  548SOL     OW 2542   3.524   3.134   3.903
  548SOL    HW1 2543   3.441   3.080   3.910
  548SOL    HW2 2544   3.542   3.157   3.807
  549SOL     OW 2545   6.412   3.473   1.652
  549SOL    HW1 2546   6.486   3.512   1.597
  549SOL    HW2 2547   6.340   3.441   1.591
  550SOL     OW 2548   0.210   3.830   2.213
  550SOL    HW1 2549   0.184   3.743   2.170
  550SOL    HW2 2550   0.244   3.893   2.144
  551SOL     OW 2551   0.151   1.906   0.078
  551SOL    HW1 2552   0.053   1.893   0.094
  551SOL    HW2 2553   0.199   1.908   0.166
  552SOL     OW 2554   4.545   6.273   0.465
  552SOL    HW1 2555   4.562   6.313   0.555
  552SOL    HW2 2556   4.470   6.323   0.420
  553SOL     OW 2557   1.677   2.306   1.598
  553SOL    HW1 2558   1.664   2.207   1.593
  553SOL    HW2 2559   1.726   2.338   1.517
  554SOL     OW 2560   5.648   6.080   4.986
  554SOL    HW1 2561   5.604   6.146   5.047
  554SOL    HW2 2562   5.579   6.035   4.929
  555SOL     OW 2563   1.455   4.349   4.635
  555SOL    HW1 2564   1.493   4.410   4.565
  555SOL    HW2 2565   1.496   4.371   4.723
  556SOL     OW 2566   5.310   3.418   3.115
  556SOL    HW1 2567   5.374   3.449   3.186
  556SOL    HW2 2568   5.362   3.384   3.036
  557SOL     OW 2569   0.433   6.215   6.104
  557SOL    HW1 2570   0.419   6.150   6.030
  557SOL    HW2 2571   0.345   6.234   6.149
  558SOL     OW 2572   3.986   3.991   5.241
  558SOL    HW1 2573   4.016   4.086   5.244
  558SOL    HW2 2574   4.004   3.947   5.329
  559SOL     OW 2575   6.306   5.675   6.594
  559SOL    HW1 2576   6.335   5.700   6.502
  559SOL    HW2 2577   6.382   5.686   6.658
  560SOL     OW 2578   3.965   6.449   6.353
  560SOL    HW1 2579   3.893   6.518   6.356
  560SOL    HW2 2580   4.016   6.450   6.438
  561SOL     OW 2581   5.609   6.568   1.074
  561SOL    HW1 2582   5.541   6.623   1.122
  561SOL    HW2 2583   5.700   6.609   1.086
  562SOL     OW 2584   6.384   1.288   6.003
  562SOL    HW1 2585   6.311   1.244   6.055
  562SOL    HW2 2586   6.465   1.231   6.003
  563SOL     OW 2587   3.042   5.913   4.095
  563SOL    HW1 2588   2.990   5.876   4.171
  563SOL    HW2 2589   3.139   5.911   4.116
  564SOL     OW 2590   0.604   1.488   6.722
  564SOL    HW1 2591   0.699   1.514   6.740
  564SOL    HW2 2592   0.554   1.567   6.686
  565SOL     OW 2593   4.724   4.113   5.235
  565SOL    HW1 2594   4.722   4.141   5.139
  565SOL    HW2 2595   4.766   4.185   5.290
  566SOL     OW 2596   4.947   5.126   3.045
  566SOL    HW1 2597   5.018   5.062   3.074
  566SOL    HW2 2598   4.946   5.205   3.107
  567SOL     OW 2599   3.969   3.155   4.608
  567SOL    HW1 2600   4.054   3.101   4.618
  567SOL    HW2 2601   3.973   3.207   4.523
  568SOL     OW 2602   1.976   1.295   6.866
  568SOL    HW1 2603   2.001   1.391   6.869
  568SOL    HW2 2604   2.045   1.241   6.915
  569SOL     OW 2605   2.597   3.713   0.333
  569SOL    HW1 2606   2.608   3.621   0.372
  569SOL    HW2 2607   2.505   3.721   0.294
  570SOL     OW 2608   6.664   6.072   1.000
  570SOL    HW1 2609   6.654   5.973   1.013
  570SOL    HW2 2610   6.630   6.120   1.080
  571SOL     OW 2611   4.196   5.803   2.756
  571SOL    HW1 2612   4.100   5.777   2.756
  571SOL    HW2 2613   4.253   5.720   2.751
  572SOL     OW 2614   1.634   3.893   5.239
  572SOL    HW1 2615   1.581   3.928   5.162
  572SOL    HW2 2616   1.725   3.866   5.208
  573SOL     OW 2617   3.922   2.041   5.862
  573SOL    HW1 2618   3.918   2.110   5.934
  573SOL    HW2 2619   3.923   2.086   5.772
  574SOL     OW 2620   2.679   1.961   4.274
  574SOL    HW1 2621   2.764   1.910   4.267
  574SOL    HW2 2622   2.606   1.900   4.303
  575SOL     OW 2623   5.496   2.451   6.981
  575SOL    HW1 2624   5.567   2.521   6.969
  575SOL    HW2 2625   5.505   2.383   6.908
  576SOL     OW 2626   0.395   1.894   2.614
  576SOL    HW1 2627   0.360   1.934   2.529
  576SOL    HW2 2628   0.478   1.941   2.642
  577SOL     OW 2629   3.464   2.086   3.637
  577SOL    HW1 2630   3.458   1.991   3.608
  577SOL    HW2 2631   3.375   2.130   3.627
  578SOL     OW 2632   0.500   3.313   3.973
  578SOL    HW1 2633   0.582   3.289   4.024
  578SOL    HW2 2634   0.464   3.400   4.008
  579SOL     OW 2635   4.326   3.353   0.547
  579SOL    HW1 2636   4.385   3.275   0.525
  579SOL    HW2 2637   4.235   3.338   0.508
  580SOL     OW 2638   0.598   5.904   0.361
  580SOL    HW1 2639   0.664   5.974   0.388
  580SOL    HW2 2640   0.557   5.864   0.443
  581SOL     OW 2641   3.775   3.679   2.898
  581SOL    HW1 2642   3.865   3.663   2.858
  581SOL    HW2 2643   3.783   3.741   2.976
  582SOL     OW 2644   5.850   3.909   2.278
  582SOL    HW1 2645   5.756   3.941   2.264
  582SOL    HW2 2646   5.875   3.920   2.374
  583SOL     OW 2647   1.949   5.083   6.930
  583SOL    HW1 2648   2.003   5.091   6.847
  583SOL    HW2 2649   1.888   5.163   6.938
  584SOL     OW 2650   0.522   5.329   4.262
  584SOL    HW1 2651   0.615   5.303   4.237
  584SOL    HW2 2652   0.490   5.271   4.337
  585SOL     OW 2653   0.100   1.416   6.427
  585SOL    HW1 2654   0.086   1.342   6.492
  585SOL    HW2 2655   0.048   1.496   6.455
  586SOL     OW 2656   2.179   6.053   0.273
  586SOL    HW1 2657   2.255   6.103   0.230
  586SOL    HW2 2658   2.107   6.117   0.298
  587SOL     OW 2659   1.201   3.360   5.307
  587SOL    HW1 2660   1.214   3.301   5.227
  587SOL    HW2 2661   1.277   3.348   5.370
  588SOL     OW 2662   2.791   6.839   1.434
  588SOL    HW1 2663   2.831   6.868   1.347
  588SOL    HW2 2664   2.860   6.847   1.506
  589SOL     OW 2665   4.402   5.603   2.711
  589SOL    HW1 2666   4.411   5.535   2.784
  589SOL    HW2 2667   4.430   5.562   2.624
  590SOL     OW 2668   6.832   2.017   1.700
  590SOL    HW1 2669   6.896   2.082   1.659
  590SOL    HW2 2670   6.740   2.055   1.698
  591SOL     OW 2671   3.375   0.234   2.938
  591SOL    HW1 2672   3.399   0.137   2.940
  591SOL    HW2 2673   3.297   0.251   2.998
  592SOL     OW 2674   5.484   0.777   7.007
  592SOL    HW1 2675   5.398   0.793   6.959
  592SOL    HW2 2676   5.560   0.805   6.949
  593SOL     OW 2677   5.957   1.692   4.090
  593SOL    HW1 2678   6.014   1.658   4.015
  593SOL    HW2 2679   5.890   1.757   4.055
  594SOL     OW 2680   4.952   3.065   1.356
  594SOL    HW1 2681   4.939   3.164   1.358
  594SOL    HW2 2682   4.942   3.027   1.448
  595SOL     OW 2683   3.707   6.897   4.047
  595SOL    HW1 2684   3.724   6.820   3.985
  595SOL    HW2 2685   3.609   6.914   4.052
  596SOL     OW 2686   1.157   4.507   2.489
  596SOL    HW1 2687   1.121   4.592   2.527
  596SOL    HW2 2688   1.082   4.456   2.446
  597SOL     OW 2689   3.804   1.701   5.538
  597SOL    HW1 2690   3.722   1.660   5.498
  597SOL    HW2 2691   3.843   1.639   5.605
  598SOL     OW 2692   3.446   4.051   0.822
  598SOL    HW1 2693   3.442   3.966   0.875
  598SOL    HW2 2694   3.382   4.045   0.745
  599SOL     OW 2695   6.739   6.420   2.714
  599SOL    HW1 2696   6.816   6.456   2.661
  599SOL    HW2 2697   6.745   6.455   2.808
  600SOL     OW 2698   2.373   0.908   0.659
  600SOL    HW1 2699   2.383   0.858   0.573
  600SOL    HW2 2700   2.350   0.844   0.732
  601SOL     OW 2701   2.500   5.049   3.271
  601SOL    HW1 2702   2.574   5.017   3.212
  601SOL    HW2 2703   2.493   5.148   3.264
  602SOL     OW 2704   0.900   0.401   1.431
  602SOL    HW1 2705   0.984   0.353   1.407
  602SOL    HW2 2706   0.906   0.496   1.400
  603SOL     OW 2707   3.983   2.198   3.553
  603SOL    HW1 2708   4.055   2.165   3.614
  603SOL    HW2 2709   3.895   2.193   3.600
  604SOL     OW 2710   0.959   4.249   5.367
  604SOL    HW1 2711   0.952   4.316   5.441
  604SOL    HW2 2712   0.874   4.247   5.315
  605SOL     OW 2713   5.896   0.690   4.621
  605SOL    HW1 2714   5.821   0.756   4.622
  605SOL    HW2 2715   5.858   0.597   4.617
  606SOL     OW 2716   3.722   0.190   3.086
  606SOL    HW1 2717   3.699   0.278   3.128
  606SOL    HW2 2718   3.820   0.175   3.091
  607SOL     OW 2719   4.586   0.816   3.824
  607SOL    HW1 2720   4.526   0.776   3.894
  607SOL    HW2 2721   4.658   0.750   3.801
  608SOL     OW 2722   5.009   1.772   1.591
  608SOL    HW1 2723   4.989   1.684   1.548
  608SOL    HW2 2724   4.927   1.805   1.638
  609SOL     OW 2725   2.901   3.609   4.165
  609SOL    HW1 2726   2.894   3.528   4.223
  609SOL    HW2 2727   2.957   3.678   4.211
  610SOL     OW 2728   5.489   2.202   5.092
  610SOL    HW1 2729   5.460   2.121   5.144
  610SOL    HW2 2730   5.479   2.183   4.994
  611SOL     OW 2731   6.918   0.130   0.903
  611SOL    HW1 2732   6.836   0.146   0.959
  611SOL    HW2 2733   6.899   0.158   0.809
  612SOL     OW 2734   3.283   5.612   5.590
  612SOL    HW1 2735   3.238   5.532   5.548
  612SOL    HW2 2736   3.225   5.692   5.576
  613SOL     OW 2737   3.609   2.209   6.764
  613SOL    HW1 2738   3.565   2.295   6.738
  613SOL    HW2 2739   3.665   2.224   6.846
  614SOL     OW 2740   5.093   4.276   0.736
  614SOL    HW1 2741   5.036   4.198   0.761
  614SOL    HW2 2742   5.183   4.244   0.707
  615SOL     OW 2743   6.041   6.219   1.051
  615SOL    HW1 2744   5.995   6.299   1.014
  615SOL    HW2 2745   6.093   6.173   0.979
  616SOL     OW 2746   5.881   0.795   4.945
  616SOL    HW1 2747   5.921   0.832   5.028
  616SOL    HW2 2748   5.907   0.698   4.936
  617SOL     OW 2749   6.883   5.291   5.765
  617SOL    HW1 2750   6.884   5.365   5.832
  617SOL    HW2 2751   6.900   5.204   5.811
  618SOL     OW 2752   6.208   3.798   0.438
  618SOL    HW1 2753   6.294   3.809   0.389
  618SOL    HW2 2754   6.141   3.864   0.403
  619SOL     OW 2755   2.964   0.309   6.210
  619SOL    HW1 2756   2.881   0.345   6.253
  619SOL    HW2 2757   3.033   0.291   6.280
  620SOL     OW 2758   5.592   1.556   2.329
  620SOL    HW1 2759   5.510   1.577   2.274
  620SOL    HW2 2760   5.667   1.615   2.300
  621SOL     OW 2761   3.098   0.607   6.571
  621SOL    HW1 2762   3.097   0.668   6.650
  621SOL    HW2 2763   3.097   0.661   6.487
  622SOL     OW 2764   0.859   2.067   5.006
  622SOL    HW1 2765   0.825   1.986   4.958
  622SOL    HW2 2766   0.811   2.148   4.973
  623SOL     OW 2767   5.978   0.466   3.936
  623SOL    HW1 2768   6.036   0.512   4.003
  623SOL    HW2 2769   5.897   0.429   3.981
  624SOL     OW 2770   6.704   0.347   6.674
  624SOL    HW1 2771   6.792   0.382   6.706
  624SOL    HW2 2772   6.718   0.256   6.635
  625SOL     OW 2773   2.920   1.988   0.615
  625SOL    HW1 2774   2.932   1.918   0.686
  625SOL    HW2 2775   2.824   1.993   0.589
  626SOL     OW 2776   6.834   6.340   4.168
  626SOL    HW1 2777   6.797   6.248   4.162
  626SOL    HW2 2778   6.850   6.363   4.264
  627SOL     OW 2779   6.615   6.918   0.114
  627SOL    HW1 2780   6.618   6.976   0.196
  627SOL    HW2 2781   6.533   6.861   0.118
  628SOL     OW 2782   4.106   4.597   5.915
  628SOL    HW1 2783   4.199   4.607   5.880
  628SOL    HW2 2784   4.063   4.688   5.922
  629SOL     OW 2785   1.578   6.712   6.772
  629SOL    HW1 2786   1.485   6.750   6.765
  629SOL    HW2 2787   1.576   6.615   6.747
  630SOL     OW 2788   6.045   1.510   1.345
  630SOL    HW1 2789   6.035   1.484   1.441
  630SOL    HW2 2790   5.999   1.598   1.330
  631SOL     OW 2791   1.655   2.260   3.807
  631SOL    HW1 2792   1.628   2.166   3.785
  631SOL    HW2 2793   1.746   2.278   3.768
  632SOL     OW 2794   2.602   3.909   0.009
  632SOL    HW1 2795   2.513   3.886   6.990
  632SOL    HW2 2796   2.666   3.932   6.956
  633SOL     OW 2797   1.784   5.790   1.027
  633SOL    HW1 2798   1.694   5.818   0.994
  633SOL    HW2 2799   1.781   5.693   1.053
  634SOL     OW 2800   2.893   3.357   4.299
  634SOL    HW1 2801   2.819   3.290   4.295
  634SOL    HW2 2802   2.975   3.318   4.256
  635SOL     OW 2803   5.709   0.531   6.725
  635SOL    HW1 2804   5.796   0.529   6.675
  635SOL    HW2 2805   5.705   0.613   6.781
  636SOL     OW 2806   2.851   0.509   5.723
  636SOL    HW1 2807   2.901   0.510   5.637
  636SOL    HW2 2808   2.904   0.458   5.791
  637SOL     OW 2809   6.635   0.471   2.871
  637SOL    HW1 2810   6.547   0.447   2.911
  637SOL    HW2 2811   6.621   0.515   2.782
  638SOL     OW 2812   6.704   2.768   4.771
  638SOL    HW1 2813   6.762   2.827   4.715
  638SOL    HW2 2814   6.699   2.678   4.730
  639SOL     OW 2815   5.795   4.199   2.218
  639SOL    HW1 2816   5.878   4.171   2.267
  639SOL    HW2 2817   5.740   4.257   2.278
  640SOL     OW 2818   0.622   2.496   2.258
  640SOL    HW1 2819   0.700   2.536   2.211
  640SOL    HW2 2820   0.539   2.548   2.236
  641SOL     OW 2821   2.433   4.804   4.251
  641SOL    HW1 2822   2.366   4.867   4.209
  641SOL    HW2 2823   2.414   4.711   4.220
  642SOL     OW 2824   0.772   4.138   4.603
  642SOL    HW1 2825   0.810   4.180   4.521
  642SOL    HW2 2826   0.839   4.146   4.677
  643SOL     OW 2827   4.655   4.923   0.726
  643SOL    HW1 2828   4.603   4.911   0.641
  643SOL    HW2 2829   4.625   5.007   0.772
  644SOL     OW 2830   0.234   6.664   5.417
  644SOL    HW1 2831   0.272   6.677   5.508
  644SOL    HW2 2832   0.231   6.752   5.369
  645SOL     OW 2833   3.630   5.400   2.167
  645SOL    HW1 2834   3.574   5.388   2.084
  645SOL    HW2 2835   3.705   5.463   2.147
  646SOL     OW 2836   4.028   1.760   4.467
  646SOL    HW1 2837   4.095   1.691   4.438
  646SOL    HW2 2838   4.023   1.762   4.567
  647SOL     OW 2839   3.502   2.749   6.144
  647SOL    HW1 2840   3.492   2.823   6.078
  647SOL    HW2 2841   3.494   2.661   6.097
  648SOL     OW 2842   6.374   0.988   3.166
  648SOL    HW1 2843   6.380   1.087   3.178
  648SOL    HW2 2844   6.463   0.947   3.184
  649SOL     OW 2845   2.093   5.109   1.048
  649SOL    HW1 2846   2.099   5.010   1.048
  649SOL    HW2 2847   2.039   5.140   1.127
  650SOL     OW 2848   6.828   3.538   0.951
  650SOL    HW1 2849   6.848   3.488   0.867
  650SOL    HW2 2850   6.736   3.578   0.946
  651SOL     OW 2851   0.909   0.535   3.979
  651SOL    HW1 2852   0.844   0.589   4.031
  651SOL    HW2 2853   0.942   0.589   3.901
  652SOL     OW 2854   4.016   6.339   1.400
  652SOL    HW1 2855   3.980   6.432   1.397
  652SOL    HW2 2856   3.941   6.274   1.405
  653SOL     OW 2857   1.222   0.176   2.653
  653SOL    HW1 2858   1.208   0.275   2.660
  653SOL    HW2 2859   1.315   0.154   2.684
  654SOL     OW 2860   1.190   0.148   5.681
  654SOL    HW1 2861   1.248   0.092   5.622
  654SOL    HW2 2862   1.234   0.236   5.698
  655SOL     OW 2863   0.278   4.021   2.020
  655SOL    HW1 2864   0.365   4.000   1.976
  655SOL    HW2 2865   0.291   4.097   2.083
  656SOL     OW 2866   3.474   6.409   0.220
  656SOL    HW1 2867   3.468   6.500   0.179
  656SOL    HW2 2868   3.409   6.401   0.295
  657SOL     OW 2869   3.684   3.849   3.091
  657SOL    HW1 2870   3.592   3.847   3.130
  657SOL    HW2 2871   3.747   3.797   3.149
  658SOL     OW 2872   1.677   1.345   4.795
  658SOL    HW1 2873   1.595   1.363   4.741
  658SOL    HW2 2874   1.651   1.315   4.887
  659SOL     OW 2875   1.721   5.706   6.346
  659SOL    HW1 2876   1.791   5.778   6.350
  659SOL    HW2 2877   1.757   5.622   6.386
  660SOL     OW 2878   4.264   5.029   3.073
  660SOL    HW1 2879   4.215   5.017   2.987
  660SOL    HW2 2880   4.223   4.972   3.144
  661SOL     OW 2881   4.374   4.918   4.313
  661SOL    HW1 2882   4.432   4.863   4.374
  661SOL    HW2 2883   4.429   4.989   4.269
  662SOL     OW 2884   5.040   3.632   6.876
  662SOL    HW1 2885   5.096   3.657   6.955
  662SOL    HW2 2886   4.988   3.550   6.896
  663SOL     OW 2887   6.611   4.199   6.922
  663SOL    HW1 2888   6.677   4.246   6.980
  663SOL    HW2 2889   6.520   4.206   6.964
  664SOL     OW 2890   1.906   6.927   6.514
  664SOL    HW1 2891   1.853   6.989   6.457
  664SOL    HW2 2892   1.958   6.864   6.456
  665SOL     OW 2893   3.494   4.893   1.727
  665SOL    HW1 2894   3.501   4.825   1.800
  665SOL    HW2 2895   3.424   4.961   1.751
  666SOL     OW 2896   2.886   0.742   0.405
  666SOL    HW1 2897   2.923   0.817   0.351
  666SOL    HW2 2898   2.861   0.666   0.345
  667SOL     OW 2899   0.834   3.552   2.690
  667SOL    HW1 2900   0.783   3.574   2.606
  667SOL    HW2 2901   0.932   3.566   2.674
  668SOL     OW 2902   5.138   0.186   0.548
  668SOL    HW1 2903   5.218   0.172   0.490
  668SOL    HW2 2904   5.148   0.133   0.632
  669SOL     OW 2905   1.923   6.044   2.510
  669SOL    HW1 2906   2.016   6.071   2.486
  669SOL    HW2 2907   1.913   6.045   2.610
  670SOL     OW 2908   3.262   3.280   3.144
  670SOL    HW1 2909   3.208   3.343   3.199
  670SOL    HW2 2910   3.245   3.186   3.174
  671SOL     OW 2911   1.427   0.054   6.518
  671SOL    HW1 2912   1.463   0.136   6.562
  671SOL    HW2 2913   1.403   0.074   6.424
  672SOL     OW 2914   1.612   1.618   3.135
  672SOL    HW1 2915   1.542   1.680   3.171
  672SOL    HW2 2916   1.690   1.616   3.197
  673SOL     OW 2917   4.936   0.017   0.535
  673SOL    HW1 2918   4.896   0.011   0.444
  673SOL    HW2 2919   5.020   0.071   0.532
  674SOL     OW 2920   6.887   1.473   3.959
  674SOL    HW1 2921   6.945   1.528   3.898
  674SOL    HW2 2922   6.860   1.389   3.913
  675SOL     OW 2923   5.648   0.642   4.422
  675SOL    HW1 2924   5.698   0.686   4.348
  675SOL    HW2 2925   5.627   0.709   4.493
  676SOL     OW 2926   2.157   4.669   4.087
  676SOL    HW1 2927   2.146   4.626   4.177
  676SOL    HW2 2928   2.166   4.768   4.098
  677SOL     OW 2929   5.233   6.684   1.082
  677SOL    HW1 2930   5.173   6.701   1.159
  677SOL    HW2 2931   5.182   6.696   0.997
  678SOL     OW 2932   2.359   1.274   6.271
  678SOL    HW1 2933   2.412   1.281   6.355
  678SOL    HW2 2934   2.315   1.362   6.252
  679SOL     OW 2935   6.177   6.950   2.420
  679SOL    HW1 2936   6.085   6.989   2.410
  679SOL    HW2 2937   6.170   6.860   2.464
  680SOL     OW 2938   5.690   4.260   5.244
  680SOL    HW1 2939   5.736   4.347   5.261
  680SOL    HW2 2940   5.664   4.254   5.147
  681SOL     OW 2941   1.209   6.945   1.971
  681SOL    HW1 2942   1.299   6.913   1.942
  681SOL    HW2 2943   1.146   6.944   1.893
  682SOL     OW 2944   0.823   6.471   6.455
  682SOL    HW1 2945   0.838   6.407   6.531
  682SOL    HW2 2946   0.819   6.421   6.369
  683SOL     OW 2947   5.686   2.134   0.252
  683SOL    HW1 2948   5.640   2.106   0.336
  683SOL    HW2 2949   5.657   2.226   0.227
  684SOL     OW 2950   0.202   6.349   6.234
  684SOL    HW1 2951   0.130   6.413   6.208
  684SOL    HW2 2952   0.250   6.382   6.315
  685SOL     OW 2953   5.762   1.248   6.008
  685SOL    HW1 2954   5.700   1.317   6.044
  685SOL    HW2 2955   5.852   1.288   5.990
  686SOL     OW 2956   5.010   4.804   3.224
  686SOL    HW1 2957   5.047   4.835   3.136
  686SOL    HW2 2958   4.910   4.797   3.217
  687SOL     OW 2959   6.071   2.320   5.510
  687SOL    HW1 2960   6.075   2.408   5.557
  687SOL    HW2 2961   6.015   2.329   5.428
  688SOL     OW 2962   0.336   3.391   4.630
  688SOL    HW1 2963   0.372   3.397   4.537
  688SOL    HW2 2964   0.237   3.382   4.628
  689SOL     OW 2965   6.233   4.174   5.106
  689SOL    HW1 2966   6.203   4.172   5.011
  689SOL    HW2 2967   6.185   4.247   5.155
  690SOL     OW 2968   0.356   2.956   3.755
  690SOL    HW1 2969   0.290   2.997   3.818
  690SOL    HW2 2970   0.445   2.948   3.800
  691SOL     OW 2971   0.050   3.089   6.713
  691SOL    HW1 2972   0.002   3.151   6.650
  691SOL    HW2 2973   0.040   3.123   6.807
  692SOL     OW 2974   2.060   0.112   3.126
  692SOL    HW1 2975   2.141   0.105   3.183
  692SOL    HW2 2976   2.087   0.106   3.029
  693SOL     OW 2977   6.655   0.992   2.540
  693SOL    HW1 2978   6.729   1.012   2.475
  693SOL    HW2 2979   6.667   1.049   2.621
  694SOL     OW 2980   1.572   0.387   2.273
  694SOL    HW1 2981   1.575   0.301   2.325
  694SOL    HW2 2982   1.496   0.384   2.208
  695SOL     OW 2983   4.430   5.526   6.319
  695SOL    HW1 2984   4.398   5.438   6.285
  695SOL    HW2 2985   4.380   5.600   6.273
  696SOL     OW 2986   4.674   5.707   2.741
  696SOL    HW1 2987   4.579   5.678   2.731
  696SOL    HW2 2988   4.730   5.663   2.670
  697SOL     OW 2989   1.275   3.779   3.842
  697SOL    HW1 2990   1.195   3.793   3.783
  697SOL    HW2 2991   1.307   3.867   3.876
  698SOL     OW 2992   4.340   6.715   3.638
  698SOL    HW1 2993   4.408   6.644   3.621
  698SOL    HW2 2994   4.265   6.706   3.573
  699SOL     OW 2995   1.464   4.503   6.898
  699SOL    HW1 2996   1.511   4.421   6.863
  699SOL    HW2 2997   1.475   4.508   6.997
  700SOL     OW 2998   2.251   1.448   3.923
  700SOL    HW1 2999   2.313   1.414   3.852
  700SOL    HW2 3000   2.183   1.509   3.882
  701SOL     OW 3001   0.895   4.533   5.849
  701SOL    HW1 3002   0.898   4.575   5.939
  701SOL    HW2 3003   0.827   4.460   5.848
  702SOL     OW 3004   5.568   5.534   4.519
  702SOL    HW1 3005   5.610   5.444   4.525
  702SOL    HW2 3006   5.503   5.545   4.595
  703SOL     OW 3007   4.646   4.161   0.080
  703SOL    HW1 3008   4.595   4.076   0.091
  703SOL    HW2 3009   4.710   4.152   0.004
  704SOL     OW 3010   2.737   0.513   1.319
  704SOL    HW1 3011   2.766   0.423   1.289
  704SOL    HW2 3012   2.653   0.539   1.271
  705SOL     OW 3013   6.893   2.001   3.587
  705SOL    HW1 3014   6.845   1.923   3.545
  705SOL    HW2 3015   6.854   2.086   3.553
  706SOL     OW 3016   5.044   1.961   3.839
  706SOL    HW1 3017   5.033   1.959   3.739
  706SOL    HW2 3018   4.963   2.002   3.880
  707SOL     OW 3019   5.224   1.913   1.606
  707SOL    HW1 3020   5.152   1.856   1.645
  707SOL    HW2 3021   5.184   1.997   1.570
  708SOL     OW 3022   4.133   0.556   1.788
  708SOL    HW1 3023   4.048   0.507   1.770
  708SOL    HW2 3024   4.128   0.601   1.877
  709SOL     OW 3025   0.892   5.022   6.922
  709SOL    HW1 3026   0.805   4.986   6.955
  709SOL    HW2 3027   0.898   5.120   6.943
  710SOL     OW 3028   3.372   3.579   2.385
  710SOL    HW1 3029   3.451   3.552   2.330
  710SOL    HW2 3030   3.356   3.513   2.457
  711SOL     OW 3031   1.071   0.255   4.624
  711SOL    HW1 3032   1.099   0.168   4.665
  711SOL    HW2 3033   0.971   0.260   4.619
  712SOL     OW 3034   1.282   3.845   1.681
  712SOL    HW1 3035   1.337   3.900   1.744
  712SOL    HW2 3036   1.332   3.830   1.596
  713SOL     OW 3037   4.127   3.356   3.155
  713SOL    HW1 3038   4.088   3.266   3.170
  713SOL    HW2 3039   4.219   3.347   3.116
  714SOL     OW 3040   4.920   5.161   5.607
  714SOL    HW1 3041   4.871   5.150   5.694
  714SOL    HW2 3042   4.912   5.256   5.576
  715SOL     OW 3043   4.828   1.049   6.784
  715SOL    HW1 3044   4.915   1.088   6.816
  715SOL    HW2 3045   4.785   1.111   6.719
  716SOL     OW 3046   6.675   5.219   1.972
  716SOL    HW1 3047   6.671   5.168   2.058
  716SOL    HW2 3048   6.701   5.314   1.990
  717SOL     OW 3049   5.934   2.702   0.321
  717SOL    HW1 3050   5.875   2.782   0.311
  717SOL    HW2 3051   6.027   2.731   0.346
  718SOL     OW 3052   3.227   3.621   6.235
  718SOL    HW1 3053   3.312   3.585   6.273
  718SOL    HW2 3054   3.154   3.612   6.303
  719SOL     OW 3055   5.266   4.844   0.092
  719SOL    HW1 3056   5.274   4.866   7.015
  719SOL    HW2 3057   5.323   4.907   0.145
  720SOL     OW 3058   2.327   0.021   6.632
  720SOL    HW1 3059   2.323   0.091   6.703
  720SOL    HW2 3060   2.413   6.990   6.641
  721SOL     OW 3061   1.072   6.176   5.750
  721SOL    HW1 3062   1.028   6.265   5.741
  721SOL    HW2 3063   1.069   6.147   5.846
  722SOL     OW 3064   4.888   6.993   6.247
  722SOL    HW1 3065   4.871   0.054   6.302
  722SOL    HW2 3066   4.853   7.007   6.155
  723SOL     OW 3067   1.828   3.179   2.193
  723SOL    HW1 3068   1.835   3.209   2.288
  723SOL    HW2 3069   1.755   3.229   2.147
  724SOL     OW 3070   6.702   0.747   4.753
  724SOL    HW1 3071   6.792   0.778   4.722
  724SOL    HW2 3072   6.635   0.821   4.742
  725SOL     OW 3073   2.369   4.822   0.813
  725SOL    HW1 3074   2.324   4.733   0.813
  725SOL    HW2 3075   2.394   4.848   0.720
  726SOL     OW 3076   4.608   0.206   6.070
  726SOL    HW1 3077   4.607   0.164   6.162
  726SOL    HW2 3078   4.517   0.196   6.029
  727SOL     OW 3079   2.545   4.578   3.915
  727SOL    HW1 3080   2.560   4.520   3.995
  727SOL    HW2 3081   2.522   4.520   3.836
  728SOL     OW 3082   7.010   2.976   4.966
  728SOL    HW1 3083   0.048   3.012   5.038
  728SOL    HW2 3084   6.925   2.940   5.006
  729SOL     OW 3085   2.736   0.429   0.463
  729SOL    HW1 3086   2.682   0.350   0.435
  729SOL    HW2 3087   2.771   0.415   0.555
  730SOL     OW 3088   6.172   0.272   5.392
  730SOL    HW1 3089   6.085   0.270   5.441
  730SOL    HW2 3090   6.240   0.220   5.444
  731SOL     OW 3091   6.381   3.204   3.329
  731SOL    HW1 3092   6.307   3.217   3.395
  731SOL    HW2 3093   6.439   3.286   3.327
  732SOL     OW 3094   6.579   2.624   2.191
  732SOL    HW1 3095   6.535   2.556   2.249
  732SOL    HW2 3096   6.665   2.654   2.232
  733SOL     OW 3097   4.416   4.688   3.716
  733SOL    HW1 3098   4.507   4.648   3.706
  733SOL    HW2 3099   4.421   4.765   3.780
  734SOL     OW 3100   6.847   4.737   0.772
  734SOL    HW1 3101   6.794   4.739   0.687
  734SOL    HW2 3102   6.801   4.792   0.842
  735SOL     OW 3103   1.436   4.543   6.371
  735SOL    HW1 3104   1.509   4.596   6.327
  735SOL    HW2 3105   1.442   4.555   6.470
  736SOL     OW 3106   6.084   1.130   3.184
  736SOL    HW1 3107   6.106   1.057   3.119
  736SOL    HW2 3108   6.168   1.162   3.228
  737SOL     OW 3109   5.657   3.507   0.380
  737SOL    HW1 3110   5.741   3.540   0.422
  737SOL    HW2 3111   5.671   3.497   0.281
  738SOL     OW 3112   0.619   4.072   3.386
  738SOL    HW1 3113   0.707   4.039   3.421
  738SOL    HW2 3114   0.591   4.015   3.308
  739SOL     OW 3115   4.888   5.584   6.855
  739SOL    HW1 3116   4.862   5.639   6.775
  739SOL    HW2 3117   4.836   5.499   6.855
  740SOL     OW 3118   5.385   6.963   0.846
  740SOL    HW1 3119   5.413   6.979   0.941
  740SOL    HW2 3120   5.465   6.934   0.793
  741SOL     OW 3121   2.885   0.860   3.750
  741SOL    HW1 3122   2.798   0.906   3.766
  741SOL    HW2 3123   2.948   0.881   3.826
  742SOL     OW 3124   1.526   0.826   3.137
  742SOL    HW1 3125   1.606   0.840   3.195
  742SOL    HW2 3126   1.546   0.756   3.069
  743SOL     OW 3127   2.135   3.779   4.075
  743SOL    HW1 3128   2.180   3.710   4.132
  743SOL    HW2 3129   2.080   3.733   4.005
  744SOL     OW 3130   0.434   6.447   1.279
  744SOL    HW1 3131   0.459   6.386   1.353
  744SOL    HW2 3132   0.485   6.424   1.196
  745SOL     OW 3133   1.511   6.495   3.109
  745SOL    HW1 3134   1.548   6.404   3.129
  745SOL    HW2 3135   1.572   6.565   3.146
  746SOL     OW 3136   2.736   0.662   4.719
  746SOL    HW1 3137   2.826   0.660   4.762
  746SOL    HW2 3138   2.685   0.742   4.753
  747SOL     OW 3139   5.613   4.502   2.291
  747SOL    HW1 3140   5.526   4.455   2.307
  747SOL    HW2 3141   5.659   4.517   2.378
  748SOL     OW 3142   4.111   2.951   1.774
  748SOL    HW1 3143   4.161   3.036   1.793
  748SOL    HW2 3144   4.174   2.882   1.740
  749SOL     OW 3145   0.070   1.462   5.598
  749SOL    HW1 3146   6.995   1.488   5.580
  749SOL    HW2 3147   0.112   1.430   5.513
  750SOL     OW 3148   2.424   4.621   0.352
  750SOL    HW1 3149   2.374   4.676   0.285
  750SOL    HW2 3150   2.500   4.575   0.306
  751SOL     OW 3151   5.036   1.166   0.570
  751SOL    HW1 3152   4.980   1.221   0.507
  751SOL    HW2 3153   5.113   1.126   0.520
  752SOL     OW 3154   5.216   1.184   1.794
  752SOL    HW1 3155   5.254   1.178   1.702
  752SOL    HW2 3156   5.117   1.195   1.788
  753SOL     OW 3157   2.333   2.294   3.162
  753SOL    HW1 3158   2.312   2.213   3.106
  753SOL    HW2 3159   2.340   2.374   3.103
  754SOL     OW 3160   5.185   5.529   6.969
  754SOL    HW1 3161   5.257   5.539   6.900
  754SOL    HW2 3162   5.096   5.548   6.928
  755SOL     OW 3163   0.344   6.339   2.335
  755SOL    HW1 3164   0.259   6.300   2.300
  755SOL    HW2 3165   0.410   6.348   2.261
  756SOL     OW 3166   4.096   0.580   3.241
  756SOL    HW1 3167   4.109   0.486   3.208
  756SOL    HW2 3168   4.076   0.578   3.339
  757SOL     OW 3169   0.152   0.562   4.548
  757SOL    HW1 3170   0.077   0.626   4.526
  757SOL    HW2 3171   0.126   0.470   4.519
  758SOL     OW 3172   4.411   2.470   1.439
  758SOL    HW1 3173   4.446   2.524   1.362
  758SOL    HW2 3174   4.475   2.396   1.459
  759SOL     OW 3175   1.627   1.116   0.190
  759SOL    HW1 3176   1.629   1.016   0.188
  759SOL    HW2 3177   1.563   1.150   0.121
  760SOL     OW 3178   4.638   1.335   5.973
  760SOL    HW1 3179   4.708   1.342   5.902
  760SOL    HW2 3180   4.622   1.424   6.014
  761SOL     OW 3181   6.269   2.798   6.635
  761SOL    HW1 3182   6.185   2.834   6.675
  761SOL    HW2 3183   6.260   2.699   6.622
  762SOL     OW 3184   2.110   5.403   3.681
  762SOL    HW1 3185   2.066   5.486   3.648
  762SOL    HW2 3186   2.046   5.352   3.739
  763SOL     OW 3187   5.733   5.170   6.122
  763SOL    HW1 3188   5.719   5.216   6.210
  763SOL    HW2 3189   5.829   5.178   6.095
  764SOL     OW 3190   4.287   1.084   2.359
  764SOL    HW1 3191   4.339   1.001   2.339
  764SOL    HW2 3192   4.243   1.116   2.275
  765SOL     OW 3193   0.377   0.149   3.421
  765SOL    HW1 3194   0.290   0.195   3.404
  765SOL    HW2 3195   0.389   0.133   3.519
  766SOL     OW 3196   0.398   6.512   7.000
  766SOL    HW1 3197   0.373   6.427   0.026
  766SOL    HW2 3198   0.417   6.582   0.048
  767SOL     OW 3199   5.945   6.932   2.010
  767SOL    HW1 3200   5.991   0.000   2.018
  767SOL    HW2 3201   5.847   6.947   1.998
  768SOL     OW 3202   3.187   6.602   3.291
  768SOL    HW1 3203   3.109   6.665   3.290
  768SOL    HW2 3204   3.249   6.625   3.216
  769SOL     OW 3205   3.922   0.965   5.772
  769SOL    HW1 3206   3.927   0.935   5.867
  769SOL    HW2 3207   3.833   1.008   5.755
  770SOL     OW 3208   3.599   4.980   3.937
  770SOL    HW1 3209   3.615   5.071   3.898
  770SOL    HW2 3210   3.518   4.982   3.994
  771SOL     OW 3211   0.516   5.860   3.291
  771SOL    HW1 3212   0.428   5.876   3.335
  771SOL    HW2 3213   0.559   5.779   3.331
  772SOL     OW 3214   6.843   4.478   5.147
  772SOL    HW1 3215   6.787   4.537   5.089
  772SOL    HW2 3216   6.935   4.470   5.107
  773SOL     OW 3217   0.111   4.136   2.543
  773SOL    HW1 3218   0.154   4.210   2.490
  773SOL    HW2 3219   0.098   4.057   2.484
  774SOL     OW 3220   1.531   0.805   1.891
  774SOL    HW1 3221   1.477   0.778   1.971
  774SOL    HW2 3222   1.626   0.776   1.904
  775SOL     OW 3223   1.168   2.305   4.464
  775SOL    HW1 3224   1.246   2.338   4.412
  775SOL    HW2 3225   1.200   2.247   4.539
  776SOL     OW 3226   2.317   0.669   6.243
  776SOL    HW1 3227   2.260   0.588   6.231
  776SOL    HW2 3228   2.269   0.735   6.300
  777SOL     OW 3229   4.643   0.828   0.890
  777SOL    HW1 3230   4.684   0.912   0.925
  777SOL    HW2 3231   4.549   0.845   0.864
  778SOL     OW 3232   4.384   6.647   4.058
  778SOL    HW1 3233   4.338   6.656   4.146
  778SOL    HW2 3234   4.356   6.561   4.014
  779SOL     OW 3235   1.027   1.141   2.233
  779SOL    HW1 3236   0.951   1.204   2.222
  779SOL    HW2 3237   1.035   1.115   2.330
  780SOL     OW 3238   5.070   3.644   5.116
  780SOL    HW1 3239   5.140   3.577   5.092
  780SOL    HW2 3240   4.987   3.625   5.065
  781SOL     OW 3241   0.967   1.514   5.843
  781SOL    HW1 3242   1.048   1.539   5.896
  781SOL    HW2 3243   0.955   1.415   5.845
  782SOL     OW 3244   0.125   3.374   0.736
  782SOL    HW1 3245   0.216   3.415   0.746
  782SOL    HW2 3246   0.070   3.395   0.816
  783SOL     OW 3247   3.000   4.008   0.316
  783SOL    HW1 3248   3.053   3.997   0.233
  783SOL    HW2 3249   2.903   4.017   0.293
  784SOL     OW 3250   5.496   0.397   4.267
  784SOL    HW1 3251   5.490   0.298   4.276
  784SOL    HW2 3252   5.504   0.439   4.358
  785SOL     OW 3253   6.709   2.257   3.568
  785SOL    HW1 3254   6.656   2.265   3.484
  785SOL    HW2 3255   6.780   2.327   3.570
  786SOL     OW 3256   6.587   0.103   6.959
  786SOL    HW1 3257   6.598   0.027   0.002
  786SOL    HW2 3258   6.612   0.188   7.004
  787SOL     OW 3259   3.750   1.089   6.353
  787SOL    HW1 3260   3.659   1.093   6.396
  787SOL    HW2 3261   3.742   1.116   6.257
  788SOL     OW 3262   1.264   4.302   3.928
  788SOL    HW1 3263   1.311   4.359   3.862
  788SOL    HW2 3264   1.330   4.250   3.982
  789SOL     OW 3265   5.688   3.848   1.080
  789SOL    HW1 3266   5.657   3.941   1.100
  789SOL    HW2 3267   5.776   3.831   1.124
  790SOL     OW 3268   3.093   1.055   3.960
  790SOL    HW1 3269   3.091   1.065   3.860
  790SOL    HW2 3270   3.142   1.134   3.999
  791SOL     OW 3271   4.352   1.834   4.179
  791SOL    HW1 3272   4.386   1.767   4.245
  791SOL    HW2 3273   4.343   1.923   4.223
  792SOL     OW 3274   5.960   0.376   3.558
  792SOL    HW1 3275   6.053   0.353   3.527
  792SOL    HW2 3276   5.964   0.454   3.621
  793SOL     OW 3277   6.458   0.130   6.537
  793SOL    HW1 3278   6.387   0.149   6.604
  793SOL    HW2 3279   6.507   0.046   6.563
  794SOL     OW 3280   2.260   5.402   5.081
  794SOL    HW1 3281   2.344   5.375   5.128
  794SOL    HW2 3282   2.211   5.470   5.135
  795SOL     OW 3283   4.718   4.839   6.100
  795SOL    HW1 3284   4.805   4.887   6.105
  795SOL    HW2 3285   4.734   4.743   6.076
  796SOL     OW 3286   0.905   2.289   5.671
  796SOL    HW1 3287   0.891   2.383   5.640
  796SOL    HW2 3288   0.838   2.229   5.627
  797SOL     OW 3289   5.798   2.964   4.700
  797SOL    HW1 3290   5.798   2.865   4.716
  797SOL    HW2 3291   5.856   2.986   4.621
  798SOL     OW 3292   6.266   0.766   6.000
  798SOL    HW1 3293   6.358   0.801   5.981
  798SOL    HW2 3294   6.237   0.704   5.926
  799SOL     OW 3295   6.723   3.301   3.081
  799SOL    HW1 3296   6.648   3.251   3.038
  799SOL    HW2 3297   6.699   3.324   3.176
  800SOL     OW 3298   6.632   1.696   2.050
  800SOL    HW1 3299   6.684   1.620   2.012
  800SOL    HW2 3300   6.604   1.757   1.976
  801SOL     OW 3301   0.276   2.744   3.622
  801SOL    HW1 3302   0.302   2.661   3.671
  801SOL    HW2 3303   0.307   2.825   3.672
  802SOL     OW 3304   6.070   0.826   0.562
  802SOL    HW1 3305   5.980   0.820   0.605
  802SOL    HW2 3306   6.141   0.824   0.633
  803SOL     OW 3307   1.082   6.806   5.541
  803SOL    HW1 3308   1.094   6.789   5.639
  803SOL    HW2 3309   1.127   6.892   5.516
  804SOL     OW 3310   6.723   0.607   0.612
  804SOL    HW1 3311   6.690   0.631   0.521
  804SOL    HW2 3312   6.779   0.524   0.607
  805SOL     OW 3313   1.862   3.421   6.256
  805SOL    HW1 3314   1.922   3.495   6.285
  805SOL    HW2 3315   1.780   3.459   6.213
  806SOL     OW 3316   5.653   0.757   0.852
  806SOL    HW1 3317   5.559   0.745   0.818
  806SOL    HW2 3318   5.650   0.803   0.941
  807SOL     OW 3319   1.425   0.380   3.229
  807SOL    HW1 3320   1.406   0.285   3.205
  807SOL    HW2 3321   1.415   0.438   3.148
  808SOL     OW 3322   5.587   3.434   4.786
  808SOL    HW1 3323   5.616   3.491   4.709
  808SOL    HW2 3324   5.490   3.449   4.803
  809SOL     OW 3325   0.327   4.619   5.979
  809SOL    HW1 3326   0.290   4.570   6.058
  809SOL    HW2 3327   0.279   4.706   5.968
  810SOL     OW 3328   6.083   4.686   6.708
  810SOL    HW1 3329   6.078   4.779   6.672
  810SOL    HW2 3330   6.166   4.676   6.762
  811SOL     OW 3331   4.931   5.019   4.032
  811SOL    HW1 3332   4.981   5.045   3.949
  811SOL    HW2 3333   4.845   5.070   4.037
  812SOL     OW 3334   0.461   0.188   2.460
  812SOL    HW1 3335   0.449   0.287   2.464
  812SOL    HW2 3336   0.543   0.162   2.511
  813SOL     OW 3337   6.112   5.619   2.511
  813SOL    HW1 3338   6.045   5.579   2.448
  813SOL    HW2 3339   6.189   5.655   2.458
  814SOL     OW 3340   5.052   5.941   1.171
  814SOL    HW1 3341   5.124   5.930   1.103
  814SOL    HW2 3342   5.089   5.924   1.262
  815SOL     OW 3343   0.819   2.018   0.597
  815SOL    HW1 3344   0.912   1.982   0.601
  815SOL    HW2 3345   0.805   2.067   0.510
  816SOL     OW 3346   6.360   0.724   1.173
  816SOL    HW1 3347   6.432   0.770   1.123
  816SOL    HW2 3348   6.276   0.779   1.169
  817SOL     OW 3349   1.879   2.103   2.806
  817SOL    HW1 3350   1.844   2.038   2.738
  817SOL    HW2 3351   1.831   2.191   2.796
  818SOL     OW 3352   6.577   1.913   1.021
  818SOL    HW1 3353   6.573   2.012   1.012
  818SOL    HW2 3354   6.526   1.885   1.103
  819SOL     OW 3355   0.382   4.007   3.580
  819SOL    HW1 3356   0.443   4.067   3.527
  819SOL    HW2 3357   0.289   4.043   3.578
  820SOL     OW 3358   0.955   3.364   4.471
  820SOL    HW1 3359   0.991   3.404   4.387
  820SOL    HW2 3360   1.021   3.377   4.546
  821SOL     OW 3361   1.177   3.443   0.242
  821SOL    HW1 3362   1.223   3.496   0.171
  821SOL    HW2 3363   1.245   3.391   0.294
  822SOL     OW 3364   1.467   3.558   4.526
  822SOL    HW1 3365   1.513   3.470   4.537
  822SOL    HW2 3366   1.369   3.546   4.536
  823SOL     OW 3367   3.099   3.483   1.077
  823SOL    HW1 3368   3.186   3.527   1.100
  823SOL    HW2 3369   3.089   3.398   1.129
  824SOL     OW 3370   6.303   2.268   5.812
  824SOL    HW1 3371   6.302   2.247   5.715
  824SOL    HW2 3372   6.296   2.367   5.826
  825SOL     OW 3373   1.777   4.105   2.174
  825SOL    HW1 3374   1.773   4.084   2.076
  825SOL    HW2 3375   1.689   4.081   2.216
  826SOL     OW 3376   0.498   3.902   5.965
  826SOL    HW1 3377   0.529   3.869   5.875
  826SOL    HW2 3378   0.503   4.001   5.968
  827SOL     OW 3379   4.249   5.882   0.355
  827SOL    HW1 3380   4.211   5.975   0.354
  827SOL    HW2 3381   4.340   5.884   0.396
  828SOL     OW 3382   6.199   6.541   6.865
  828SOL    HW1 3383   6.133   6.616   6.872
  828SOL    HW2 3384   6.246   6.546   6.777
  829SOL     OW 3385   3.510   2.949   4.508
  829SOL    HW1 3386   3.531   3.017   4.579
  829SOL    HW2 3387   3.519   2.857   4.547
  830SOL     OW 3388   4.582   3.939   5.397
  830SOL    HW1 3389   4.608   4.007   5.329
  830SOL    HW2 3390   4.601   3.975   5.489
  831SOL     OW 3391   6.448   0.874   5.097
  831SOL    HW1 3392   6.361   0.873   5.046
  831SOL    HW2 3393   6.498   0.790   5.078
  832SOL     OW 3394   2.845   1.250   5.790
  832SOL    HW1 3395   2.753   1.283   5.811
  832SOL    HW2 3396   2.865   1.267   5.693
  833SOL     OW 3397   0.765   0.016   6.064
  833SOL    HW1 3398   0.823   0.041   6.141
  833SOL    HW2 3399   0.681   6.994   6.098
  834SOL     OW 3400   3.115   4.291   5.524
  834SOL    HW1 3401   3.140   4.208   5.574
  834SOL    HW2 3402   3.105   4.269   5.427
  835SOL     OW 3403   4.092   0.465   2.800
  835SOL    HW1 3404   4.099   0.384   2.859
  835SOL    HW2 3405   4.170   0.467   2.737
  836SOL     OW 3406   2.385   0.779   0.408
  836SOL    HW1 3407   2.401   0.681   0.419
  836SOL    HW2 3408   2.472   0.827   0.408
  837SOL     OW 3409   4.323   0.436   5.896
  837SOL    HW1 3410   4.290   0.369   5.964
  837SOL    HW2 3411   4.329   0.526   5.939
  838SOL     OW 3412   2.206   4.574   2.691
  838SOL    HW1 3413   2.286   4.520   2.663
  838SOL    HW2 3414   2.148   4.518   2.749
  839SOL     OW 3415   3.196   1.397   1.894
  839SOL    HW1 3416   3.283   1.437   1.863
  839SOL    HW2 3417   3.206   1.297   1.899
  840SOL     OW 3418   1.215   1.532   6.465
  840SOL    HW1 3419   1.137   1.592   6.444
  840SOL    HW2 3420   1.288   1.549   6.400
  841SOL     OW 3421   0.493   3.692   0.055
  841SOL    HW1 3422   0.583   3.675   0.094
  841SOL    HW2 3423   0.471   3.619   7.010
  842SOL     OW 3424   3.623   5.224   3.760
  842SOL    HW1 3425   3.708   5.273   3.774
  842SOL    HW2 3426   3.566   5.274   3.695
  843SOL     OW 3427   6.544   2.641   1.912
  843SOL    HW1 3428   6.545   2.733   1.873
  843SOL    HW2 3429   6.564   2.646   2.010
  844SOL     OW 3430   5.085   5.542   0.596
  844SOL    HW1 3431   5.126   5.452   0.578
  844SOL    HW2 3432   4.993   5.529   0.633
  845SOL     OW 3433   0.818   4.761   4.617
  845SOL    HW1 3434   0.841   4.824   4.543
  845SOL    HW2 3435   0.746   4.698   4.585
  846SOL     OW 3436   5.767   2.134   6.957
  846SOL    HW1 3437   5.715   2.144   0.021
  846SOL    HW2 3438   5.812   2.221   6.935
  847SOL     OW 3439   5.205   3.425   1.890
  847SOL    HW1 3440   5.106   3.427   1.904
  847SOL    HW2 3441   5.243   3.515   1.910
  848SOL     OW 3442   6.877   0.075   5.873
  848SOL    HW1 3443   6.821   7.014   5.886
  848SOL    HW2 3444   6.974   0.049   5.868
  849SOL     OW 3445   0.388   5.316   4.019
  849SOL    HW1 3446   0.433   5.277   4.098
  849SOL    HW2 3447   0.410   5.414   4.012
  850SOL     OW 3448   3.632   0.966   2.676
  850SOL    HW1 3449   3.681   0.946   2.591
  850SOL    HW2 3450   3.618   0.881   2.728
  851SOL     OW 3451   0.660   0.527   6.102
  851SOL    HW1 3452   0.673   0.448   6.042
  851SOL    HW2 3453   0.664   0.498   6.197
  852SOL     OW 3454   2.317   4.263   6.187
  852SOL    HW1 3455   2.402   4.218   6.161
  852SOL    HW2 3456   2.331   4.314   6.272
  853SOL     OW 3457   1.573   3.582   1.375
  853SOL    HW1 3458   1.573   3.489   1.340
  853SOL    HW2 3459   1.561   3.581   1.474
  854SOL     OW 3460   5.187   5.217   1.973
  854SOL    HW1 3461   5.269   5.266   1.942
  854SOL    HW2 3462   5.207   5.171   2.060
  855SOL     OW 3463   5.828   0.263   1.631
  855SOL    HW1 3464   5.904   0.323   1.655
  855SOL    HW2 3465   5.845   0.171   1.668
  856SOL     OW 3466   1.598   6.816   4.914
  856SOL    HW1 3467   1.683   6.850   4.954
  856SOL    HW2 3468   1.620   6.747   4.844
  857SOL     OW 3469   6.533   3.605   2.240
  857SOL    HW1 3470   6.473   3.683   2.255
  857SOL    HW2 3471   6.626   3.628   2.271
  858SOL     OW 3472   3.181   4.048   1.231
  858SOL    HW1 3473   3.186   3.993   1.147
  858SOL    HW2 3474   3.189   3.989   1.311
  859SOL     OW 3475   6.714   4.971   0.266
  859SOL    HW1 3476   6.617   4.958   0.282
  859SOL    HW2 3477   6.761   4.990   0.352
  860SOL     OW 3478   1.724   4.963   1.511
  860SOL    HW1 3479   1.822   4.979   1.504
  860SOL    HW2 3480   1.685   4.954   1.419
  861SOL     OW 3481   3.471   5.472   5.767
  861SOL    HW1 3482   3.391   5.461   5.709
  861SOL    HW2 3483   3.551   5.491   5.710
  862SOL     OW 3484   4.615   4.442   4.284
  862SOL    HW1 3485   4.605   4.384   4.365
  862SOL    HW2 3486   4.704   4.424   4.241
  863SOL     OW 3487   5.979   1.044   1.056
  863SOL    HW1 3488   5.901   1.067   0.998
  863SOL    HW2 3489   6.008   1.126   1.106
  864SOL     OW 3490   5.985   4.407   2.677
  864SOL    HW1 3491   5.887   4.386   2.677
  864SOL    HW2 3492   6.012   4.436   2.585
  865SOL     OW 3493   1.452   0.278   4.493
  865SOL    HW1 3494   1.551   0.276   4.478
  865SOL    HW2 3495   1.407   0.224   4.422
  866SOL     OW 3496   3.539   1.335   1.519
  866SOL    HW1 3497   3.481   1.293   1.450
  866SOL    HW2 3498   3.506   1.310   1.610
  867SOL     OW 3499   1.468   2.550   6.108
  867SOL    HW1 3500   1.460   2.621   6.177
  867SOL    HW2 3501   1.551   2.564   6.054
  868SOL     OW 3502   5.365   2.802   3.472
  868SOL    HW1 3503   5.366   2.875   3.541
  868SOL    HW2 3504   5.389   2.841   3.383
  869SOL     OW 3505   6.116   4.133   2.617
  869SOL    HW1 3506   6.109   4.206   2.685
  869SOL    HW2 3507   6.209   4.131   2.579
  870SOL     OW 3508   6.979   2.876   1.184
  870SOL    HW1 3509   6.893   2.827   1.197
  870SOL    HW2 3510   6.963   2.974   1.189
  871SOL     OW 3511   5.606   3.722   0.852
  871SOL    HW1 3512   5.614   3.790   0.925
  871SOL    HW2 3513   5.697   3.694   0.823
  872SOL     OW 3514   5.358   2.548   2.911
  872SOL    HW1 3515   5.434   2.561   2.975
  872SOL    HW2 3516   5.279   2.600   2.942
  873SOL     OW 3517   4.755   6.443   5.925
  873SOL    HW1 3518   4.745   6.513   5.854
  873SOL    HW2 3519   4.724   6.355   5.888
  874SOL     OW 3520   6.994   3.465   6.329
  874SOL    HW1 3521   6.916   3.520   6.360
  874SOL    HW2 3522   0.023   3.432   6.409
  875SOL     OW 3523   6.148   4.756   6.294
  875SOL    HW1 3524   6.110   4.664   6.283
  875SOL    HW2 3525   6.115   4.815   6.221
  876SOL     OW 3526   0.926   3.001   1.446
  876SOL    HW1 3527   0.881   2.925   1.493
  876SOL    HW2 3528   1.001   3.035   1.503
  877SOL     OW 3529   5.709   6.053   0.602
  877SOL    HW1 3530   5.670   6.056   0.694
  877SOL    HW2 3531   5.669   6.124   0.546
  878SOL     OW 3532   3.128   3.071   0.100
  878SOL    HW1 3533   3.126   3.128   0.182
  878SOL    HW2 3534   3.112   2.975   0.125
  879SOL     OW 3535   4.382   2.050   2.688
  879SOL    HW1 3536   4.421   1.968   2.647
  879SOL    HW2 3537   4.337   2.027   2.774
  880SOL     OW 3538   4.226   4.945   0.683
  880SOL    HW1 3539   4.222   5.034   0.727
  880SOL    HW2 3540   4.217   4.957   0.584
  881SOL     OW 3541   4.144   5.196   4.760
  881SOL    HW1 3542   4.235   5.217   4.795
  881SOL    HW2 3543   4.152   5.163   4.666
  882SOL     OW 3544   1.121   1.543   4.411
  882SOL    HW1 3545   1.067   1.611   4.460
  882SOL    HW2 3546   1.116   1.560   4.313
  883SOL     OW 3547   2.776   4.685   0.069
  883SOL    HW1 3548   2.842   4.618   0.036
  883SOL    HW2 3549   2.825   4.767   0.100
  884SOL     OW 3550   4.466   3.807   1.415
  884SOL    HW1 3551   4.557   3.768   1.423
  884SOL    HW2 3552   4.472   3.907   1.423
  885SOL     OW 3553   5.046   5.854   6.643
  885SOL    HW1 3554   4.963   5.909   6.646
  885SOL    HW2 3555   5.053   5.807   6.555
  886SOL     OW 3556   4.650   1.151   6.272
  886SOL    HW1 3557   4.731   1.195   6.235
  886SOL    HW2 3558   4.572   1.170   6.213
  887SOL     OW 3559   5.292   0.254   6.599
  887SOL    HW1 3560   5.265   0.162   6.630
  887SOL    HW2 3561   5.372   0.247   6.539
  888SOL     OW 3562   6.445   6.554   3.736
  888SOL    HW1 3563   6.480   6.467   3.772
  888SOL    HW2 3564   6.345   6.556   3.747
  889SOL     OW 3565   1.047   6.672   4.564
  889SOL    HW1 3566   1.103   6.743   4.522
  889SOL    HW2 3567   1.082   6.650   4.654
  890SOL     OW 3568   2.311   5.092   2.496
  890SOL    HW1 3569   2.319   5.005   2.544
  890SOL    HW2 3570   2.219   5.129   2.509
  891SOL     OW 3571   5.586   3.645   6.082
  891SOL    HW1 3572   5.612   3.731   6.126
  891SOL    HW2 3573   5.612   3.649   5.985
  892SOL     OW 3574   2.591   5.579   1.673
  892SOL    HW1 3575   2.667   5.518   1.649
  892SOL    HW2 3576   2.509   5.524   1.688
  893SOL     OW 3577   1.917   6.802   0.783
  893SOL    HW1 3578   1.917   6.844   0.693
  893SOL    HW2 3579   2.001   6.827   0.832
  894SOL     OW 3580   1.483   5.230   3.574
  894SOL    HW1 3581   1.442   5.244   3.664
  894SOL    HW2 3582   1.490   5.132   3.556
  895SOL     OW 3583   1.793   0.241   4.880
  895SOL    HW1 3584   1.715   0.291   4.917
  895SOL    HW2 3585   1.876   0.296   4.889
  896SOL     OW 3586   5.625   0.284   3.822
  896SOL    HW1 3587   5.641   0.248   3.914
  896SOL    HW2 3588   5.582   0.213   3.766
  897SOL     OW 3589   5.324   2.425   6.043
  897SOL    HW1 3590   5.307   2.428   6.141
  897SOL    HW2 3591   5.351   2.332   6.016
  898SOL     OW 3592   6.046   6.259   4.055
  898SOL    HW1 3593   6.121   6.195   4.040
  898SOL    HW2 3594   6.083   6.352   4.064
  899SOL     OW 3595   0.951   4.603   6.618
  899SOL    HW1 3596   0.950   4.662   6.537
  899SOL    HW2 3597   0.974   4.657   6.699
  900SOL     OW 3598   0.598   5.366   3.502
  900SOL    HW1 3599   0.580   5.283   3.448
  900SOL    HW2 3600   0.635   5.437   3.442
  901SOL     OW 3601   5.677   2.114   3.284
  901SOL    HW1 3602   5.720   2.201   3.308
  901SOL    HW2 3603   5.639   2.120   3.192
  902SOL     OW 3604   0.765   6.124   0.474
  902SOL    HW1 3605   0.860   6.107   0.499
  902SOL    HW2 3606   0.747   6.222   0.475
  903SOL     OW 3607   0.395   4.998   6.899
  903SOL    HW1 3608   0.346   4.914   6.873
  903SOL    HW2 3609   0.336   5.054   6.957
  904SOL     OW 3610   1.454   1.392   3.415
  904SOL    HW1 3611   1.545   1.357   3.393
  904SOL    HW2 3612   1.424   1.454   3.343
  905SOL     OW 3613   6.416   1.807   5.709
  905SOL    HW1 3614   6.471   1.723   5.711
  905SOL    HW2 3615   6.394   1.835   5.802
  906SOL     OW 3616   6.274   3.938   5.227
  906SOL    HW1 3617   6.185   3.894   5.243
  906SOL    HW2 3618   6.259   4.033   5.197
  907SOL     OW 3619   0.482   3.444   1.577
  907SOL    HW1 3620   0.415   3.410   1.642
  907SOL    HW2 3621   0.452   3.533   1.541
  908SOL     OW 3622   1.876   1.129   3.085
  908SOL    HW1 3623   1.822   1.114   3.002
  908SOL    HW2 3624   1.926   1.045   3.108
  909SOL     OW 3625   4.368   0.472   1.126
  909SOL    HW1 3626   4.347   0.563   1.162
  909SOL    HW2 3627   4.349   0.470   1.028
  910SOL     OW 3628   2.007   1.978   1.904
  910SOL    HW1 3629   1.995   1.964   1.806
  910SOL    HW2 3630   1.967   1.901   1.954
  911SOL     OW 3631   0.353   4.479   0.974
  911SOL    HW1 3632   0.272   4.538   0.965
  911SOL    HW2 3633   0.422   4.506   0.907
  912SOL     OW 3634   1.243   0.403   6.301
  912SOL    HW1 3635   1.166   0.420   6.239
  912SOL    HW2 3636   1.229   0.454   6.386
  913SOL     OW 3637   2.326   1.494   1.906
  913SOL    HW1 3638   2.259   1.420   1.910
  913SOL    HW2 3639   2.280   1.581   1.925
  914SOL     OW 3640   2.608   6.228   2.926
  914SOL    HW1 3641   2.589   6.133   2.903
  914SOL    HW2 3642   2.531   6.285   2.900
  915SOL     OW 3643   1.274   2.520   6.641
  915SOL    HW1 3644   1.293   2.422   6.646
  915SOL    HW2 3645   1.358   2.570   6.623
  916SOL     OW 3646   1.118   3.557   2.656
  916SOL    HW1 3647   1.190   3.499   2.694
  916SOL    HW2 3648   1.121   3.552   2.557
  917SOL     OW 3649   3.467   2.417   6.678
  917SOL    HW1 3650   3.446   2.465   6.763
  917SOL    HW2 3651   3.383   2.403   6.626
  918SOL     OW 3652   1.371   0.836   5.418
  918SOL    HW1 3653   1.453   0.854   5.473
  918SOL    HW2 3654   1.394   0.775   5.342
  919SOL     OW 3655   2.463   0.295   1.236
  919SOL    HW1 3656   2.404   0.269   1.160
  919SOL    HW2 3657   2.408   0.339   1.307
  920SOL     OW 3658   2.196   0.777   3.829
  920SOL    HW1 3659   2.096   0.779   3.821
  920SOL    HW2 3660   2.233   0.711   3.764
  921SOL     OW 3661   4.672   4.562   6.475
  921SOL    HW1 3662   4.739   4.632   6.451
  921SOL    HW2 3663   4.599   4.603   6.530
  922SOL     OW 3664   2.026   3.985   6.432
  922SOL    HW1 3665   2.004   4.041   6.352
  922SOL    HW2 3666   1.983   3.896   6.423
  923SOL     OW 3667   4.388   1.369   6.881
  923SOL    HW1 3668   4.295   1.406   6.873
  923SOL    HW2 3669   4.410   1.357   6.978
  924SOL     OW 3670   6.354   4.224   3.067
  924SOL    HW1 3671   6.300   4.185   2.992
  924SOL    HW2 3672   6.430   4.278   3.030
  925SOL     OW 3673   6.630   2.040   2.969
  925SOL    HW1 3674   6.678   2.127   2.972
  925SOL    HW2 3675   6.644   1.998   2.879
  926SOL     OW 3676   5.633   6.286   1.148
  926SOL    HW1 3677   5.613   6.380   1.121
  926SOL    HW2 3678   5.548   6.241   1.177
  927SOL     OW 3679   4.915   5.221   5.054
  927SOL    HW1 3680   4.860   5.190   4.976
  927SOL    HW2 3681   4.903   5.157   5.130
  928SOL     OW 3682   0.509   1.545   1.173
  928SOL    HW1 3683   0.514   1.487   1.092
  928SOL    HW2 3684   0.563   1.504   1.247
  929SOL     OW 3685   0.572   2.291   2.490
  929SOL    HW1 3686   0.648   2.227   2.483
  929SOL    HW2 3687   0.589   2.370   2.431
  930SOL     OW 3688   5.470   5.663   2.819
  930SOL    HW1 3689   5.376   5.698   2.817
  930SOL    HW2 3690   5.475   5.575   2.772
  931SOL     OW 3691   1.869   3.218   2.451
  931SOL    HW1 3692   1.873   3.128   2.494
  931SOL    HW2 3693   1.792   3.269   2.489
  932SOL     OW 3694   4.455   6.483   0.982
  932SOL    HW1 3695   4.504   6.497   1.068
  932SOL    HW2 3696   4.393   6.405   0.992
  933SOL     OW 3697   1.519   5.673   3.983
  933SOL    HW1 3698   1.453   5.695   4.054
  933SOL    HW2 3699   1.610   5.701   4.013
  934SOL     OW 3700   3.314   0.649   5.530
  934SOL    HW1 3701   3.330   0.649   5.432
  934SOL    HW2 3702   3.217   0.632   5.548
  935SOL     OW 3703   2.236   2.758   6.116
  935SOL    HW1 3704   2.139   2.773   6.134
  935SOL    HW2 3705   2.258   2.661   6.131
  936SOL     OW 3706   0.149   2.017   1.836
  936SOL    HW1 3707   0.101   2.073   1.768
  936SOL    HW2 3708   0.094   1.936   1.857
  937SOL     OW 3709   5.375   2.207   3.750
  937SOL    HW1 3710   5.384   2.181   3.654
  937SOL    HW2 3711   5.289   2.256   3.764
  938SOL     OW 3712   6.868   1.731   6.942
  938SOL    HW1 3713   6.967   1.722   6.956
  938SOL    HW2 3714   6.836   1.816   6.985
  939SOL     OW 3715   6.545   0.639   5.887
  939SOL    HW1 3716   6.531   0.597   5.798
  939SOL    HW2 3717   6.546   0.568   5.958
  940SOL     OW 3718   0.583   0.749   4.187
  940SOL    HW1 3719   0.680   0.737   4.204
  940SOL    HW2 3720   0.531   0.728   4.270
  941SOL     OW 3721   5.330   3.106   5.248
  941SOL    HW1 3722   5.318   3.008   5.228
  941SOL    HW2 3723   5.379   3.149   5.172
  942SOL     OW 3724   5.033   0.271   5.351
  942SOL    HW1 3725   5.029   0.355   5.297
  942SOL    HW2 3726   5.121   0.266   5.399
  943SOL     OW 3727   6.011   2.033   0.301
  943SOL    HW1 3728   5.924   2.066   0.337
  943SOL    HW2 3729   5.995   1.972   0.223
  944SOL     OW 3730   5.300   3.797   4.793
  944SOL    HW1 3731   5.253   3.848   4.865
  944SOL    HW2 3732   5.398   3.817   4.796
  945SOL     OW 3733   5.461   3.723   5.247
  945SOL    HW1 3734   5.418   3.752   5.333
  945SOL    HW2 3735   5.441   3.790   5.176
  946SOL     OW 3736   5.788   3.074   6.124
  946SOL    HW1 3737   5.705   3.089   6.176
  946SOL    HW2 3738   5.766   3.028   6.038
  947SOL     OW 3739   0.928   2.521   5.283
  947SOL    HW1 3740   1.022   2.553   5.290
  947SOL    HW2 3741   0.925   2.422   5.293
  948SOL     OW 3742   4.198   2.044   0.653
  948SOL    HW1 3743   4.204   2.012   0.558
  948SOL    HW2 3744   4.144   1.980   0.707
  949SOL     OW 3745   5.770   5.778   6.729
  949SOL    HW1 3746   5.789   5.711   6.657
  949SOL    HW2 3747   5.856   5.805   6.773
  950SOL     OW 3748   4.052   5.156   0.284
  950SOL    HW1 3749   4.076   5.103   0.366
  950SOL    HW2 3750   4.006   5.240   0.311
  951SOL     OW 3751   0.754   2.459   3.644
  951SOL    HW1 3752   0.690   2.408   3.703
  951SOL    HW2 3753   0.731   2.441   3.548
  952SOL     OW 3754   5.337   0.900   1.797
  952SOL    HW1 3755   5.361   0.992   1.827
  952SOL    HW2 3756   5.296   0.904   1.706
  953SOL     OW 3757   3.562   6.384   5.984
  953SOL    HW1 3758   3.579   6.454   5.915
  953SOL    HW2 3759   3.568   6.425   6.075
  954SOL     OW 3760   0.500   6.724   1.300
  954SOL    HW1 3761   0.545   6.736   1.211
  954SOL    HW2 3762   0.462   6.632   1.307
  955SOL     OW 3763   6.761   6.677   2.502
  955SOL    HW1 3764   6.844   6.622   2.502
  955SOL    HW2 3765   6.782   6.769   2.536
  956SOL     OW 3766   0.973   2.803   7.013
  956SOL    HW1 3767   0.992   2.824   6.918
  956SOL    HW2 3768   0.992   2.706   0.010
  957SOL     OW 3769   2.408   6.495   5.164
  957SOL    HW1 3770   2.433   6.564   5.096
  957SOL    HW2 3771   2.460   6.510   5.248
  958SOL     OW 3772   4.960   2.370   0.491
  958SOL    HW1 3773   5.047   2.322   0.501
  958SOL    HW2 3774   4.908   2.362   0.576
  959SOL     OW 3775   1.904   4.019   1.933
  959SOL    HW1 3776   2.002   4.039   1.942
  959SOL    HW2 3777   1.887   3.979   1.843
  960SOL     OW 3778   1.300   5.562   5.675
  960SOL    HW1 3779   1.236   5.595   5.606
  960SOL    HW2 3780   1.273   5.471   5.706
  961SOL     OW 3781   3.358   6.960   0.862
  961SOL    HW1 3782   3.284   0.003   0.841
  961SOL    HW2 3783   3.321   6.883   0.914
  962SOL     OW 3784   1.734   6.363   4.026
  962SOL    HW1 3785   1.693   6.310   4.101
  962SOL    HW2 3786   1.681   6.446   4.012
  963SOL     OW 3787   6.108   0.363   2.517
  963SOL    HW1 3788   6.144   0.455   2.530
  963SOL    HW2 3789   6.160   0.317   2.445
  964SOL     OW 3790   5.259   3.411   1.039
  964SOL    HW1 3791   5.256   3.359   0.953
  964SOL    HW2 3792   5.330   3.480   1.034
  965SOL     OW 3793   1.600   2.331   0.591
  965SOL    HW1 3794   1.649   2.254   0.550
  965SOL    HW2 3795   1.553   2.300   0.674
  966SOL     OW 3796   6.954   2.328   1.517
  966SOL    HW1 3797   6.922   2.238   1.486
  966SOL    HW2 3798   6.879   2.394   1.509
  967SOL     OW 3799   1.025   5.895   2.552
  967SOL    HW1 3800   1.068   5.805   2.546
  967SOL    HW2 3801   1.087   5.964   2.514
  968SOL     OW 3802   6.414   4.365   1.783
  968SOL    HW1 3803   6.460   4.276   1.786
  968SOL    HW2 3804   6.388   4.392   1.876
  969SOL     OW 3805   4.061   5.996   6.582
  969SOL    HW1 3806   4.061   6.078   6.524
  969SOL    HW2 3807   4.104   6.017   6.669
  970SOL     OW 3808   4.469   2.359   5.370
  970SOL    HW1 3809   4.491   2.322   5.460
  970SOL    HW2 3810   4.496   2.455   5.366
  971SOL     OW 3811   0.636   2.789   1.321
  971SOL    HW1 3812   0.610   2.883   1.301
  971SOL    HW2 3813   0.554   2.734   1.335
  972SOL     OW 3814   6.326   6.144   1.204
  972SOL    HW1 3815   6.378   6.208   1.260
  972SOL    HW2 3816   6.300   6.064   1.259
  973SOL     OW 3817   5.778   3.949   5.455
  973SOL    HW1 3818   5.739   3.948   5.547
  973SOL    HW2 3819   5.722   4.008   5.396
  974SOL     OW 3820   3.227   1.371   4.183
  974SOL    HW1 3821   3.232   1.395   4.279
  974SOL    HW2 3822   3.235   1.454   4.127
  975SOL     OW 3823   3.599   6.596   5.505
  975SOL    HW1 3824   3.572   6.505   5.536
  975SOL    HW2 3825   3.517   6.651   5.489
  976SOL     OW 3826   6.968   6.377   3.915
  976SOL    HW1 3827   6.909   6.383   3.996
  976SOL    HW2 3828   6.917   6.333   3.841
  977SOL     OW 3829   1.412   2.460   2.612
  977SOL    HW1 3830   1.436   2.366   2.588
  977SOL    HW2 3831   1.420   2.472   2.711
  978SOL     OW 3832   5.904   3.347   4.501
  978SOL    HW1 3833   5.819   3.303   4.530
  978SOL    HW2 3834   5.978   3.280   4.499
  979SOL     OW 3835   5.681   1.834   3.313
  979SOL    HW1 3836   5.679   1.934   3.312
  979SOL    HW2 3837   5.770   1.802   3.345
  980SOL     OW 3838   6.687   1.114   4.796
  980SOL    HW1 3839   6.603   1.164   4.819
  980SOL    HW2 3840   6.675   1.067   4.709
  981SOL     OW 3841   6.845   3.251   5.425
  981SOL    HW1 3842   6.834   3.337   5.475
  981SOL    HW2 3843   6.818   3.265   5.329
  982SOL     OW 3844   1.590   2.891   1.225
  982SOL    HW1 3845   1.635   2.872   1.313
  982SOL    HW2 3846   1.491   2.877   1.235
  983SOL     OW 3847   5.986   1.585   2.844
  983SOL    HW1 3848   6.026   1.550   2.929
  983SOL    HW2 3849   6.058   1.630   2.790
  984SOL     OW 3850   4.883   1.591   4.518
  984SOL    HW1 3851   4.862   1.517   4.455
  984SOL    HW2 3852   4.890   1.555   4.611
  985SOL     OW 3853   3.155   5.122   0.912
  985SOL    HW1 3854   3.122   5.030   0.930
  985SOL    HW2 3855   3.182   5.166   0.998
  986SOL     OW 3856   3.917   5.204   6.487
  986SOL    HW1 3857   3.967   5.160   6.413
  986SOL    HW2 3858   3.982   5.252   6.547
  987SOL     OW 3859   3.322   6.669   2.044
  987SOL    HW1 3860   3.388   6.612   2.093
  987SOL    HW2 3861   3.368   6.749   2.007
  988SOL     OW 3862   3.508   4.145   2.167
  988SOL    HW1 3863   3.511   4.152   2.267
  988SOL    HW2 3864   3.571   4.073   2.137
  989SOL     OW 3865   0.880   0.026   4.885
  989SOL    HW1 3866   0.928   0.110   4.910
  989SOL    HW2 3867   0.792   0.049   4.845
  990SOL     OW 3868   4.879   6.129   3.642
  990SOL    HW1 3869   4.923   6.139   3.732
  990SOL    HW2 3870   4.918   6.194   3.578
  991SOL     OW 3871   6.597   1.251   5.235
  991SOL    HW1 3872   6.556   1.341   5.220
  991SOL    HW2 3873   6.618   1.239   5.332
  992SOL     OW 3874   6.997   3.151   1.155
  992SOL    HW1 3875   0.072   3.124   1.159
  992SOL    HW2 3876   6.990   3.250   1.171
  993SOL     OW 3877   3.292   5.379   3.882
  993SOL    HW1 3878   3.265   5.288   3.912
  993SOL    HW2 3879   3.340   5.372   3.795
  994SOL     OW 3880   3.256   4.069   2.255
  994SOL    HW1 3881   3.301   4.130   2.191
  994SOL    HW2 3882   3.295   3.977   2.248
  995SOL     OW 3883   0.401   0.959   4.874
  995SOL    HW1 3884   0.317   0.946   4.926
  995SOL    HW2 3885   0.378   0.974   4.778
  996SOL     OW 3886   1.127   3.649   1.827
  996SOL    HW1 3887   1.049   3.680   1.882
  996SOL    HW2 3888   1.176   3.729   1.792
  997SOL     OW 3889   0.118   1.010   1.321
  997SOL    HW1 3890   0.124   1.102   1.280
  997SOL    HW2 3891   0.038   0.963   1.284
  998SOL     OW 3892   4.652   0.197   3.261
  998SOL    HW1 3893   4.604   0.109   3.262
  998SOL    HW2 3894   4.592   0.267   3.221
  999SOL     OW 3895   6.931   5.607   1.556
  999SOL    HW1 3896   6.946   5.702   1.586
  999SOL    HW2 3897   6.948   5.601   1.458
 1000SOL     OW 3898   4.023   2.121   4.165
 1000SOL    HW1 3899   4.103   2.129   4.224
 1000SOL    HW2 3900   4.027   2.192   4.095
 1001SOL     OW 3901   4.363   0.121   5.786
 1001SOL    HW1 3902   4.287   0.128   5.722
 1001SOL    HW2 3903   4.423   0.201   5.777
 1002SOL     OW 3904   6.698   1.603   0.370
 1002SOL    HW1 3905   6.674   1.559   0.456
 1002SOL    HW2 3906   6.780   1.660   0.383
 1003SOL     OW 3907   4.420   4.851   2.622
 1003SOL    HW1 3908   4.490   4.853   2.550
 1003SOL    HW2 3909   4.462   4.823   2.708
 1004SOL     OW 3910   5.897   5.669   0.772
 1004SOL    HW1 3911   5.837   5.697   0.697
 1004SOL    HW2 3912   5.926   5.750   0.824
 1005SOL     OW 3913   6.442   6.052   3.680
 1005SOL    HW1 3914   6.389   6.003   3.611
 1005SOL    HW2 3915   6.445   6.149   3.657
 1006SOL     OW 3916   2.416   4.334   0.977
 1006SOL    HW1 3917   2.380   4.241   0.982
 1006SOL    HW2 3918   2.515   4.333   0.995
 1007SOL     OW 3919   0.948   0.216   3.722
 1007SOL    HW1 3920   1.045   0.221   3.695
 1007SOL    HW2 3921   0.901   0.299   3.690
 1008SOL     OW 3922   2.398   2.570   3.624
 1008SOL    HW1 3923   2.484   2.527   3.596
 1008SOL    HW2 3924   2.333   2.499   3.651
 1009SOL     OW 3925   1.380   5.538   4.912
 1009SOL    HW1 3926   1.416   5.450   4.944
 1009SOL    HW2 3927   1.336   5.585   4.989
 1010SOL     OW 3928   4.922   1.485   6.808
 1010SOL    HW1 3929   5.002   1.430   6.782
 1010SOL    HW2 3930   4.951   1.578   6.828
 1011SOL     OW 3931   3.623   5.788   3.560
 1011SOL    HW1 3932   3.627   5.783   3.460
 1011SOL    HW2 3933   3.701   5.739   3.599
 1012SOL     OW 3934   4.765   5.804   0.063
 1012SOL    HW1 3935   4.681   5.805   0.008
 1012SOL    HW2 3936   4.785   5.711   0.092
 1013SOL     OW 3937   0.300   1.525   1.369
 1013SOL    HW1 3938   0.201   1.528   1.357
 1013SOL    HW2 3939   0.345   1.535   1.280
 1014SOL     OW 3940   5.350   0.554   6.349
 1014SOL    HW1 3941   5.396   0.474   6.386
 1014SOL    HW2 3942   5.252   0.535   6.343
 1015SOL     OW 3943   3.088   6.040   4.390
 1015SOL    HW1 3944   3.182   6.006   4.388
 1015SOL    HW2 3945   3.087   6.136   4.418
 1016SOL     OW 3946   4.614   2.649   1.379
 1016SOL    HW1 3947   4.636   2.747   1.376
 1016SOL    HW2 3948   4.576   2.621   1.291
 1017SOL     OW 3949   4.746   2.035   6.783
 1017SOL    HW1 3950   4.745   1.936   6.772
 1017SOL    HW2 3951   4.666   2.075   6.738
 1018SOL     OW 3952   1.607   3.282   2.074
 1018SOL    HW1 3953   1.583   3.290   1.977
 1018SOL    HW2 3954   1.572   3.195   2.109
 1019SOL     OW 3955   6.400   0.536   0.339
 1019SOL    HW1 3956   6.341   0.554   0.418
 1019SOL    HW2 3957   6.359   0.577   0.257
 1020SOL     OW 3958   2.712   1.850   1.187
 1020SOL    HW1 3959   2.794   1.891   1.228
 1020SOL    HW2 3960   2.656   1.810   1.260
 1021SOL     OW 3961   6.251   1.778   1.074
 1021SOL    HW1 3962   6.327   1.786   1.137
 1021SOL    HW2 3963   6.276   1.817   0.985
 1022SOL     OW 3964   4.210   2.708   6.715
 1022SOL    HW1 3965   4.130   2.651   6.734
 1022SOL    HW2 3966   4.182   2.786   6.659
 1023SOL     OW 3967   5.376   1.257   4.117
 1023SOL    HW1 3968   5.393   1.170   4.163
 1023SOL    HW2 3969   5.341   1.323   4.183
 1024SOL     OW 3970   6.088   1.600   3.877
 1024SOL    HW1 3971   6.047   1.533   3.815
 1024SOL    HW2 3972   6.186   1.608   3.858
 1025SOL     OW 3973   3.023   4.237   1.008
 1025SOL    HW1 3974   3.050   4.266   1.100
 1025SOL    HW2 3975   2.976   4.149   1.013
 1026SOL     OW 3976   1.182   2.981   6.433
 1026SOL    HW1 3977   1.186   2.906   6.499
 1026SOL    HW2 3978   1.250   3.050   6.459
 1027SOL     OW 3979   2.567   5.467   2.048
 1027SOL    HW1 3980   2.586   5.376   2.084
 1027SOL    HW2 3981   2.557   5.532   2.123
 1028SOL     OW 3982   1.552   5.886   0.913
 1028SOL    HW1 3983   1.459   5.892   0.875
 1028SOL    HW2 3984   1.601   5.972   0.895
 1029SOL     OW 3985   3.245   0.174   5.398
 1029SOL    HW1 3986   3.305   0.209   5.469
 1029SOL    HW2 3987   3.216   0.249   5.338
 1030SOL     OW 3988   3.513   4.131   4.930
 1030SOL    HW1 3989   3.426   4.104   4.970
 1030SOL    HW2 3990   3.504   4.135   4.830
 1031SOL     OW 3991   2.476   5.658   1.405
 1031SOL    HW1 3992   2.509   5.644   1.499
 1031SOL    HW2 3993   2.521   5.592   1.344
 1032SOL     OW 3994   2.074   0.935   4.194
 1032SOL    HW1 3995   1.984   0.980   4.200
 1032SOL    HW2 3996   2.132   0.986   4.130
 1033SOL     OW 3997   2.145   6.067   3.006
 1033SOL    HW1 3998   2.142   6.089   2.908
 1033SOL    HW2 3999   2.216   5.998   3.022
 1034SOL     OW 4000   1.496   6.233   2.875
 1034SOL    HW1 4001   1.480   6.175   2.955
 1034SOL    HW2 4002   1.442   6.317   2.884
 1035SOL     OW 4003   2.914   1.116   4.292
 1035SOL    HW1 4004   2.860   1.033   4.303
 1035SOL    HW2 4005   3.007   1.100   4.323
 1036SOL     OW 4006   4.585   0.660   6.922
 1036SOL    HW1 4007   4.495   0.698   6.899
 1036SOL    HW2 4008   4.636   0.725   6.978
 1037SOL     OW 4009   3.029   1.821   6.378
 1037SOL    HW1 4010   3.108   1.846   6.434
 1037SOL    HW2 4011   2.980   1.746   6.423
 1038SOL     OW 4012   2.752   1.188   4.726
 1038SOL    HW1 4013   2.664   1.235   4.734
 1038SOL    HW2 4014   2.807   1.232   4.655
 1039SOL     OW 4015   4.266   1.259   3.457
 1039SOL    HW1 4016   4.340   1.324   3.440
 1039SOL    HW2 4017   4.273   1.182   3.394
 1040SOL     OW 4018   6.319   3.582   3.673
 1040SOL    HW1 4019   6.344   3.630   3.757
 1040SOL    HW2 4020   6.388   3.599   3.603
 1041SOL     OW 4021   0.934   6.995   4.579
 1041SOL    HW1 4022   0.915   6.981   4.676
 1041SOL    HW2 4023   1.033   7.000   4.565
 1042SOL     OW 4024   5.287   3.977   1.003
 1042SOL    HW1 4025   5.277   3.885   0.965
 1042SOL    HW2 4026   5.252   3.978   1.097
 1043SOL     OW 4027   3.488   1.111   6.437
 1043SOL    HW1 4028   3.450   1.068   6.518
 1043SOL    HW2 4029   3.419   1.114   6.365
 1044SOL     OW 4030   3.744   4.087   1.726
 1044SOL    HW1 4031   3.793   4.050   1.804
 1044SOL    HW2 4032   3.659   4.037   1.712
 1045SOL     OW 4033   3.677   1.389   3.434
 1045SOL    HW1 4034   3.762   1.439   3.449
 1045SOL    HW2 4035   3.647   1.348   3.521
 1046SOL     OW 4036   3.790   1.126   2.146
 1046SOL    HW1 4037   3.821   1.099   2.055
 1046SOL    HW2 4038   3.764   1.223   2.145
 1047SOL     OW 4039   0.391   5.234   2.070
 1047SOL    HW1 4040   0.350   5.199   1.985
 1047SOL    HW2 4041   0.491   5.233   2.061
 1048SOL     OW 4042   6.438   4.445   5.130
 1048SOL    HW1 4043   6.475   4.353   5.124
 1048SOL    HW2 4044   6.404   4.461   5.223
 1049SOL     OW 4045   0.913   3.181   5.249
 1049SOL    HW1 4046   0.888   3.084   5.252
 1049SOL    HW2 4047   0.992   3.193   5.190
 1050SOL     OW 4048   3.438   0.631   6.739
 1050SOL    HW1 4049   3.363   0.695   6.726
 1050SOL    HW2 4050   3.407   0.555   6.797
 1051SOL     OW 4051   5.008   5.197   2.287
 1051SOL    HW1 4052   4.928   5.247   2.255
 1051SOL    HW2 4053   4.979   5.117   2.340
 1052SOL     OW 4054   3.191   6.866   4.284
 1052SOL    HW1 4055   3.115   6.806   4.258
 1052SOL    HW2 4056   3.271   6.811   4.307
 1053SOL     OW 4057   4.184   4.908   3.361
 1053SOL    HW1 4058   4.195   4.859   3.448
 1053SOL    HW2 4059   4.088   4.906   3.333
 1054SOL     OW 4060   3.632   6.429   3.909
 1054SOL    HW1 4061   3.548   6.376   3.899
 1054SOL    HW2 4062   3.708   6.379   3.869
 1055SOL     OW 4063   4.598   5.461   4.457
 1055SOL    HW1 4064   4.503   5.471   4.485
 1055SOL    HW2 4065   4.610   5.494   4.363
 1056SOL     OW 4066   1.434   5.812   5.427
 1056SOL    HW1 4067   1.391   5.796   5.516
 1056SOL    HW2 4068   1.490   5.733   5.403
 1057SOL     OW 4069   3.561   4.298   1.203
 1057SOL    HW1 4070   3.575   4.218   1.262
 1057SOL    HW2 4071   3.500   4.273   1.128
 1058SOL     OW 4072   3.773   0.383   1.313
 1058SOL    HW1 4073   3.739   0.472   1.281
 1058SOL    HW2 4074   3.696   0.327   1.344
 1059SOL     OW 4075   3.279   1.421   1.183
 1059SOL    HW1 4076   3.343   1.441   1.109
 1059SOL    HW2 4077   3.269   1.322   1.193
 1060SOL     OW 4078   2.394   2.070   4.870
 1060SOL    HW1 4079   2.333   2.083   4.792
 1060SOL    HW2 4080   2.488   2.095   4.844
 1061SOL     OW 4081   3.139   6.010   1.414
 1061SOL    HW1 4082   3.077   6.015   1.335
 1061SOL    HW2 4083   3.212   5.945   1.394
 1062SOL     OW 4084   4.869   4.351   5.324
 1062SOL    HW1 4085   4.852   4.438   5.370
 1062SOL    HW2 4086   4.968   4.339   5.311
 1063SOL     OW 4087   2.037   2.855   5.756
 1063SOL    HW1 4088   2.098   2.778   5.736
 1063SOL    HW2 4089   2.089   2.940   5.751
 1064SOL     OW 4090   0.132   4.009   1.635
 1064SOL    HW1 4091   0.063   4.074   1.601
 1064SOL    HW2 4092   0.155   3.944   1.562
 1065SOL     OW 4093   5.221   5.528   5.254
 1065SOL    HW1 4094   5.204   5.576   5.168
 1065SOL    HW2 4095   5.226   5.430   5.237
 1066SOL     OW 4096   3.861   0.435   3.699
 1066SOL    HW1 4097   3.957   0.411   3.715
 1066SOL    HW2 4098   3.807   0.406   3.777
 1067SOL     OW 4099   1.814   3.285   1.413
 1067SOL    HW1 4100   1.735   3.286   1.352
 1067SOL    HW2 4101   1.784   3.286   1.508
 1068SOL     OW 4102   0.554   4.051   1.098
 1068SOL    HW1 4103   0.490   4.079   1.170
 1068SOL    HW2 4104   0.626   3.994   1.137
 1069SOL     OW 4105   3.667   3.918   1.160
 1069SOL    HW1 4106   3.666   3.984   1.235
 1069SOL    HW2 4107   3.744   3.855   1.172
 1070SOL     OW 4108   2.276   0.216   0.326
 1070SOL    HW1 4109   2.266   0.207   0.425
 1070SOL    HW2 4110   2.225   0.295   0.294
 1071SOL     OW 4111   4.468   6.258   3.839
 1071SOL    HW1 4112   4.445   6.164   3.862
 1071SOL    HW2 4113   4.508   6.261   3.747
 1072SOL     OW 4114   3.678   5.815   3.300
 1072SOL    HW1 4115   3.609   5.840   3.231
 1072SOL    HW2 4116   3.761   5.785   3.253
 1073SOL     OW 4117   2.869   5.183   2.742
 1073SOL    HW1 4118   2.901   5.150   2.831
 1073SOL    HW2 4119   2.856   5.282   2.746
 1074SOL     OW 4120   1.572   5.552   2.308
 1074SOL    HW1 4121   1.519   5.470   2.330
 1074SOL    HW2 4122   1.667   5.526   2.290
 1075SOL     OW 4123   0.530   3.992   2.907
 1075SOL    HW1 4124   0.552   3.911   2.962
 1075SOL    HW2 4125   0.553   3.974   2.811
 1076SOL     OW 4126   0.312   4.339   3.289
 1076SOL    HW1 4127   0.285   4.261   3.232
 1076SOL    HW2 4128   0.229   4.384   3.324
 1077SOL     OW 4129   5.022   1.155   1.123
 1077SOL    HW1 4130   4.961   1.077   1.131
 1077SOL    HW2 4131   4.971   1.234   1.088
 1078SOL     OW 4132   0.985   3.171   1.690
 1078SOL    HW1 4133   1.002   3.090   1.747
 1078SOL    HW2 4134   0.950   3.245   1.747
 1079SOL     OW 4135   2.526   5.424   2.515
 1079SOL    HW1 4136   2.556   5.340   2.470
 1079SOL    HW2 4137   2.427   5.419   2.531
 1080SOL     OW 4138   1.370   5.731   4.205
 1080SOL    HW1 4139   1.431   5.684   4.268
 1080SOL    HW2 4140   1.338   5.816   4.247
 1081SOL     OW 4141   1.231   1.500   0.410
 1081SOL    HW1 4142   1.212   1.403   0.427
 1081SOL    HW2 4143   1.191   1.555   0.483
 1082SOL     OW 4144   1.925   0.047   0.179
 1082SOL    HW1 4145   1.841   0.102   0.179
 1082SOL    HW2 4146   1.951   0.027   0.085
 1083SOL     OW 4147   3.767   2.554   1.511
 1083SOL    HW1 4148   3.760   2.462   1.550
 1083SOL    HW2 4149   3.709   2.616   1.564
 1084SOL     OW 4150   6.531   3.457   0.096
 1084SOL    HW1 4151   6.448   3.512   0.087
 1084SOL    HW2 4152   6.533   3.388   0.023
 1085SOL     OW 4153   2.141   4.561   3.219
 1085SOL    HW1 4154   2.093   4.623   3.279
 1085SOL    HW2 4155   2.198   4.613   3.155
 1086SOL     OW 4156   4.198   5.210   1.889
 1086SOL    HW1 4157   4.114   5.255   1.919
 1086SOL    HW2 4158   4.265   5.279   1.861
 1087SOL     OW 4159   3.584   3.341   5.399
 1087SOL    HW1 4160   3.486   3.325   5.406
 1087SOL    HW2 4161   3.601   3.413   5.331
 1088SOL     OW 4162   5.839   4.559   3.510
 1088SOL    HW1 4163   5.772   4.602   3.449
 1088SOL    HW2 4164   5.797   4.480   3.555
 1089SOL     OW 4165   6.040   0.335   3.187
 1089SOL    HW1 4166   5.964   0.271   3.201
 1089SOL    HW2 4167   6.073   0.326   3.093
 1090SOL     OW 4168   1.292   1.921   5.258
 1090SOL    HW1 4169   1.261   1.905   5.352
 1090SOL    HW2 4170   1.367   1.987   5.259
 1091SOL     OW 4171   0.933   2.404   5.048
 1091SOL    HW1 4172   1.014   2.351   5.073
 1091SOL    HW2 4173   0.904   2.460   5.125
 1092SOL     OW 4174   2.166   4.696   1.297
 1092SOL    HW1 4175   2.131   4.771   1.242
 1092SOL    HW2 4176   2.216   4.632   1.239
 1093SOL     OW 4177   0.577   1.823   2.285
 1093SOL    HW1 4178   0.558   1.916   2.252
 1093SOL    HW2 4179   0.556   1.758   2.212
 1094SOL     OW 4180   0.726   6.065   2.356
 1094SOL    HW1 4181   0.766   5.973   2.357
 1094SOL    HW2 4182   0.790   6.129   2.315
 1095SOL     OW 4183   5.584   3.372   6.086
 1095SOL    HW1 4184   5.680   3.355   6.062
 1095SOL    HW2 4185   5.575   3.465   6.122
 1096SOL     OW 4186   3.709   4.331   1.518
 1096SOL    HW1 4187   3.660   4.307   1.602
 1096SOL    HW2 4188   3.803   4.295   1.523
 1097SOL     OW 4189   1.917   4.634   5.398
 1097SOL    HW1 4190   1.827   4.595   5.415
 1097SOL    HW2 4191   1.949   4.681   5.481
 1098SOL     OW 4192   4.289   1.013   3.037
 1098SOL    HW1 4193   4.361   1.028   2.969
 1098SOL    HW2 4194   4.221   0.950   3.000
 1099SOL     OW 4195   4.033   1.596   2.460
 1099SOL    HW1 4196   4.071   1.581   2.551
 1099SOL    HW2 4197   3.976   1.518   2.434
 1100SOL     OW 4198   0.410   0.509   0.732
 1100SOL    HW1 4199   0.482   0.575   0.708
 1100SOL    HW2 4200   0.320   0.552   0.719
 1101SOL     OW 4201   6.125   2.533   0.966
 1101SOL    HW1 4202   6.027   2.513   0.974
 1101SOL    HW2 4203   6.166   2.472   0.898
 1102SOL     OW 4204   0.096   4.200   4.106
 1102SOL    HW1 4205   0.154   4.200   4.024
 1102SOL    HW2 4206   0.022   4.134   4.094
 1103SOL     OW 4207   0.551   3.118   1.247
 1103SOL    HW1 4208   0.581   3.099   1.153
 1103SOL    HW2 4209   0.627   3.156   1.299
 1104SOL     OW 4210   2.976   5.238   5.867
 1104SOL    HW1 4211   3.026   5.188   5.796
 1104SOL    HW2 4212   2.939   5.174   5.933
 1105SOL     OW 4213   4.175   5.403   0.315
 1105SOL    HW1 4214   4.185   5.491   0.360
 1105SOL    HW2 4215   4.217   5.332   0.373
 1106SOL     OW 4216   1.527   1.066   5.759
 1106SOL    HW1 4217   1.604   1.096   5.817
 1106SOL    HW2 4218   1.449   1.044   5.817
 1107SOL     OW 4219   1.036   6.957   1.744
 1107SOL    HW1 4220   0.972   0.008   1.769
 1107SOL    HW2 4221   0.986   6.879   1.707
 1108SOL     OW 4222   1.721   1.351   6.282
 1108SOL    HW1 4223   1.649   1.346   6.213
 1108SOL    HW2 4224   1.681   1.344   6.373
 1109SOL     OW 4225   4.592   1.247   3.691
 1109SOL    HW1 4226   4.607   1.153   3.660
 1109SOL    HW2 4227   4.667   1.275   3.750
 1110SOL     OW 4228   3.512   2.803   2.097
 1110SOL    HW1 4229   3.459   2.802   2.013
 1110SOL    HW2 4230   3.515   2.711   2.136
 1111SOL     OW 4231   5.641   0.073   6.841
 1111SOL    HW1 4232   5.565   0.130   6.872
 1111SOL    HW2 4233   5.699   0.125   6.779
 1112SOL     OW 4234   0.324   1.231   2.832
 1112SOL    HW1 4235   0.400   1.293   2.850
 1112SOL    HW2 4236   0.321   1.160   2.902
 1113SOL     OW 4237   6.128   3.670   1.858
 1113SOL    HW1 4238   6.077   3.684   1.943
 1113SOL    HW2 4239   6.108   3.579   1.821
 1114SOL     OW 4240   6.145   1.485   5.509
 1114SOL    HW1 4241   6.077   1.531   5.453
 1114SOL    HW2 4242   6.170   1.543   5.587
 1115SOL     OW 4243   2.859   3.703   0.206
 1115SOL    HW1 4244   2.769   3.666   0.231
 1115SOL    HW2 4245   2.851   3.801   0.190
 1116SOL     OW 4246   4.090   5.786   5.679
 1116SOL    HW1 4247   4.108   5.854   5.751
 1116SOL    HW2 4248   4.155   5.797   5.605
 1117SOL     OW 4249   2.600   3.215   0.754
 1117SOL    HW1 4250   2.585   3.297   0.809
 1117SOL    HW2 4251   2.596   3.238   0.657
 1118SOL     OW 4252   1.774   3.268   2.994
 1118SOL    HW1 4253   1.851   3.225   2.946
 1118SOL    HW2 4254   1.739   3.343   2.939
 1119SOL     OW 4255   2.963   3.491   2.679
 1119SOL    HW1 4256   2.971   3.428   2.756
 1119SOL    HW2 4257   2.969   3.585   2.713
 1120SOL     OW 4258   4.760   0.349   4.325
 1120SOL    HW1 4259   4.780   0.252   4.315
 1120SOL    HW2 4260   4.676   0.372   4.275
 1121SOL     OW 4261   5.362   3.108   2.413
 1121SOL    HW1 4262   5.342   3.151   2.325
 1121SOL    HW2 4263   5.296   3.035   2.430
 1122SOL     OW 4264   4.598   4.956   6.969
 1122SOL    HW1 4265   4.683   5.008   6.960
 1122SOL    HW2 4266   4.609   4.867   6.926
 1123SOL     OW 4267   3.869   0.680   2.169
 1123SOL    HW1 4268   3.933   0.679   2.092
 1123SOL    HW2 4269   3.891   0.756   2.230
 1124SOL     OW 4270   0.562   4.710   4.515
 1124SOL    HW1 4271   0.574   4.757   4.427
 1124SOL    HW2 4272   0.477   4.741   4.558
 1125SOL     OW 4273   3.772   3.410   4.807
 1125SOL    HW1 4274   3.850   3.422   4.746
 1125SOL    HW2 4275   3.715   3.493   4.804
 1126SOL     OW 4276   5.626   0.191   2.514
 1126SOL    HW1 4277   5.530   0.203   2.488
 1126SOL    HW2 4278   5.631   0.137   2.597
 1127SOL     OW 4279   1.481   5.132   6.369
 1127SOL    HW1 4280   1.492   5.037   6.398
 1127SOL    HW2 4281   1.548   5.189   6.416
 1128SOL     OW 4282   2.754   1.618   4.524
 1128SOL    HW1 4283   2.780   1.588   4.432
 1128SOL    HW2 4284   2.816   1.691   4.554
 1129SOL     OW 4285   5.282   0.164   6.949
 1129SOL    HW1 4286   5.207   0.230   6.935
 1129SOL    HW2 4287   5.284   0.099   6.873
 1130SOL     OW 4288   0.408   4.761   5.633
 1130SOL    HW1 4289   0.339   4.787   5.700
 1130SOL    HW2 4290   0.422   4.837   5.569
 1131SOL     OW 4291   0.621   5.068   5.679
 1131SOL    HW1 4292   0.574   5.156   5.683
 1131SOL    HW2 4293   0.622   5.027   5.770
 1132SOL     OW 4294   5.063   0.514   5.210
 1132SOL    HW1 4295   5.054   0.476   5.118
 1132SOL    HW2 4296   5.016   0.602   5.216
 1133SOL     OW 4297   0.680   2.259   0.725
 1133SOL    HW1 4298   0.673   2.207   0.639
 1133SOL    HW2 4299   0.764   2.313   0.724
 1134SOL     OW 4300   6.584   2.769   5.863
 1134SOL    HW1 4301   6.609   2.694   5.801
 1134SOL    HW2 4302   6.510   2.823   5.824
 1135SOL     OW 4303   5.427   1.884   3.107
 1135SOL    HW1 4304   5.386   1.825   3.038
 1135SOL    HW2 4305   5.522   1.903   3.082
 1136SOL     OW 4306   3.893   5.264   4.507
 1136SOL    HW1 4307   3.955   5.186   4.503
 1136SOL    HW2 4308   3.804   5.235   4.542
 1137SOL     OW 4309   1.764   1.146   5.958
 1137SOL    HW1 4310   1.749   1.065   6.014
 1137SOL    HW2 4311   1.853   1.139   5.913
 1138SOL     OW 4312   0.520   4.394   5.624
 1138SOL    HW1 4313   0.555   4.474   5.672
 1138SOL    HW2 4314   0.556   4.392   5.531
 1139SOL     OW 4315   1.144   6.217   1.105
 1139SOL    HW1 4316   1.098   6.266   1.031
 1139SOL    HW2 4317   1.169   6.125   1.074
 1140SOL     OW 4318   3.883   1.575   3.720
 1140SOL    HW1 4319   3.877   1.574   3.621
 1140SOL    HW2 4320   3.961   1.519   3.749
 1141SOL     OW 4321   6.399   6.147   6.061
 1141SOL    HW1 4322   6.409   6.098   6.148
 1141SOL    HW2 4323   6.302   6.159   6.041
 1142SOL     OW 4324   5.810   0.798   4.228
 1142SOL    HW1 4325   5.838   0.890   4.201
 1142SOL    HW2 4326   5.815   0.736   4.150
 1143SOL     OW 4327   4.013   2.178   2.412
 1143SOL    HW1 4328   3.980   2.085   2.429
 1143SOL    HW2 4329   4.000   2.201   2.316
 1144SOL     OW 4330   1.579   6.528   5.610
 1144SOL    HW1 4331   1.588   6.613   5.558
 1144SOL    HW2 4332   1.569   6.451   5.546
 1145SOL     OW 4333   1.550   5.002   4.979
 1145SOL    HW1 4334   1.454   5.010   4.953
 1145SOL    HW2 4335   1.557   4.952   5.065
 1146SOL     OW 4336   5.983   2.102   0.716
 1146SOL    HW1 4337   5.971   2.146   0.627
 1146SOL    HW2 4338   5.986   2.003   0.705
 1147SOL     OW 4339   5.835   2.633   1.859
 1147SOL    HW1 4340   5.891   2.689   1.798
 1147SOL    HW2 4341   5.744   2.622   1.820
 1148SOL     OW 4342   4.532   0.559   0.202
 1148SOL    HW1 4343   4.583   0.630   0.249
 1148SOL    HW2 4344   4.512   0.588   0.108
 1149SOL     OW 4345   6.695   2.981   2.660
 1149SOL    HW1 4346   6.607   2.984   2.706
 1149SOL    HW2 4347   6.761   2.930   2.715
 1150SOL     OW 4348   1.123   4.758   5.547
 1150SOL    HW1 4349   1.166   4.668   5.533
 1150SOL    HW2 4350   1.151   4.820   5.474
 1151SOL     OW 4351   4.537   5.774   6.939
 1151SOL    HW1 4352   4.540   5.817   6.849
 1151SOL    HW2 4353   4.472   5.698   6.938
 1152SOL     OW 4354   0.620   0.829   4.951
 1152SOL    HW1 4355   0.540   0.881   4.920
 1152SOL    HW2 4356   0.641   0.853   5.046
 1153SOL     OW 4357   2.256   5.081   1.985
 1153SOL    HW1 4358   2.179   5.026   1.951
 1153SOL    HW2 4359   2.325   5.090   1.913
 1154SOL     OW 4360   2.098   4.293   1.776
 1154SOL    HW1 4361   2.005   4.255   1.776
 1154SOL    HW2 4362   2.151   4.251   1.849
 1155SOL     OW 4363   3.336   5.638   2.051
 1155SOL    HW1 4364   3.339   5.609   1.955
 1155SOL    HW2 4365   3.243   5.626   2.086
 1156SOL     OW 4366   1.598   1.046   4.253
 1156SOL    HW1 4367   1.625   0.994   4.334
 1156SOL    HW2 4368   1.678   1.087   4.211
 1157SOL     OW 4369   0.646   3.060   4.235
 1157SOL    HW1 4370   0.745   3.067   4.242
 1157SOL    HW2 4371   0.605   3.076   4.325
 1158SOL     OW 4372   4.637   5.413   6.058
 1158SOL    HW1 4373   4.626   5.507   6.026
 1158SOL    HW2 4374   4.734   5.391   6.066
 1159SOL     OW 4375   5.157   5.481   3.369
 1159SOL    HW1 4376   5.220   5.558   3.367
 1159SOL    HW2 4377   5.205   5.399   3.401
 1160SOL     OW 4378   2.225   2.746   0.435
 1160SOL    HW1 4379   2.300   2.807   0.459
 1160SOL    HW2 4380   2.198   2.762   0.340
 1161SOL     OW 4381   4.316   0.143   4.591
 1161SOL    HW1 4382   4.358   0.233   4.605
 1161SOL    HW2 4383   4.365   0.094   4.519
 1162SOL     OW 4384   3.911   4.527   1.673
 1162SOL    HW1 4385   3.964   4.598   1.719
 1162SOL    HW2 4386   3.970   4.480   1.607
 1163SOL     OW 4387   4.614   1.999   2.431
 1163SOL    HW1 4388   4.604   2.097   2.413
 1163SOL    HW2 4389   4.640   1.984   2.526
 1164SOL     OW 4390   5.423   3.638   3.853
 1164SOL    HW1 4391   5.452   3.732   3.837
 1164SOL    HW2 4392   5.331   3.624   3.816
 1165SOL     OW 4393   1.376   4.688   2.225
 1165SOL    HW1 4394   1.370   4.617   2.296
 1165SOL    HW2 4395   1.449   4.665   2.161
 1166SOL     OW 4396   3.999   3.009   6.538
 1166SOL    HW1 4397   4.086   2.979   6.576
 1166SOL    HW2 4398   4.004   3.107   6.516
 1167SOL     OW 4399   4.719   1.896   4.480
 1167SOL    HW1 4400   4.755   1.809   4.515
 1167SOL    HW2 4401   4.621   1.902   4.500
 1168SOL     OW 4402   6.150   6.620   3.695
 1168SOL    HW1 4403   6.134   6.631   3.597
 1168SOL    HW2 4404   6.081   6.559   3.733
 1169SOL     OW 4405   0.700   3.983   1.636
 1169SOL    HW1 4406   0.756   4.066   1.634
 1169SOL    HW2 4407   0.757   3.905   1.662
 1170SOL     OW 4408   2.616   0.900   0.806
 1170SOL    HW1 4409   2.690   0.967   0.809
 1170SOL    HW2 4410   2.530   0.947   0.785
 1171SOL     OW 4411   2.423   0.190   0.652
 1171SOL    HW1 4412   2.454   0.284   0.670
 1171SOL    HW2 4413   2.502   0.130   0.641
 1172SOL     OW 4414   2.883   3.542   4.583
 1172SOL    HW1 4415   2.828   3.533   4.500
 1172SOL    HW2 4416   2.939   3.461   4.595
 1173SOL     OW 4417   5.263   0.524   6.049
 1173SOL    HW1 4418   5.215   0.596   6.101
 1173SOL    HW2 4419   5.360   0.525   6.072
 1174SOL     OW 4420   3.455   6.738   0.714
 1174SOL    HW1 4421   3.447   6.818   0.773
 1174SOL    HW2 4422   3.377   6.735   0.652
 1175SOL     OW 4423   6.890   5.592   4.950
 1175SOL    HW1 4424   6.875   5.495   4.930
 1175SOL    HW2 4425   6.803   5.635   4.973
 1176SOL     OW 4426   6.555   3.633   1.172
 1176SOL    HW1 4427   6.492   3.696   1.217
 1176SOL    HW2 4428   6.561   3.656   1.075
 1177SOL     OW 4429   6.272   3.550   0.197
 1177SOL    HW1 4430   6.187   3.593   0.227
 1177SOL    HW2 4431   6.283   3.461   0.242
 1178SOL     OW 4432   5.339   4.092   1.703
 1178SOL    HW1 4433   5.264   4.061   1.762
 1178SOL    HW2 4434   5.417   4.119   1.759
 1179SOL     OW 4435   2.485   5.856   6.241
 1179SOL    HW1 4436   2.404   5.903   6.276
 1179SOL    HW2 4437   2.546   5.922   6.198
 1180SOL     OW 4438   2.602   1.507   4.020
 1180SOL    HW1 4439   2.607   1.447   4.100
 1180SOL    HW2 4440   2.517   1.560   4.024
 1181SOL     OW 4441   2.159   4.384   2.976
 1181SOL    HW1 4442   2.192   4.315   2.911
 1181SOL    HW2 4443   2.201   4.369   3.065
 1182SOL     OW 4444   1.230   4.257   3.096
 1182SOL    HW1 4445   1.239   4.196   3.175
 1182SOL    HW2 4446   1.260   4.349   3.122
 1183SOL     OW 4447   4.384   5.832   0.627
 1183SOL    HW1 4448   4.341   5.752   0.667
 1183SOL    HW2 4449   4.424   5.889   0.699
 1184SOL     OW 4450   3.041   2.788   5.509
 1184SOL    HW1 4451   3.058   2.703   5.458
 1184SOL    HW2 4452   2.952   2.783   5.553
 1185SOL     OW 4453   2.592   1.831   0.130
 1185SOL    HW1 4454   2.621   1.749   0.179
 1185SOL    HW2 4455   2.493   1.834   0.123
 1186SOL     OW 4456   4.383   0.793   5.052
 1186SOL    HW1 4457   4.366   0.722   4.984
 1186SOL    HW2 4458   4.296   0.827   5.088
 1187SOL     OW 4459   0.597   0.882   5.447
 1187SOL    HW1 4460   0.696   0.887   5.463
 1187SOL    HW2 4461   0.576   0.917   5.356
 1188SOL     OW 4462   1.605   6.759   5.463
 1188SOL    HW1 4463   1.527   6.750   5.400
 1188SOL    HW2 4464   1.613   6.854   5.493
 1189SOL     OW 4465   6.821   1.133   1.298
 1189SOL    HW1 4466   6.778   1.110   1.385
 1189SOL    HW2 4467   6.851   1.050   1.252
 1190SOL     OW 4468   4.165   4.698   3.181
 1190SOL    HW1 4469   4.193   4.754   3.259
 1190SOL    HW2 4470   4.069   4.671   3.192
 1191SOL     OW 4471   3.072   4.845   0.592
 1191SOL    HW1 4472   3.096   4.748   0.595
 1191SOL    HW2 4473   3.155   4.901   0.598
 1192SOL     OW 4474   4.626   5.182   2.264
 1192SOL    HW1 4475   4.631   5.199   2.165
 1192SOL    HW2 4476   4.684   5.247   2.312
 1193SOL     OW 4477   4.061   0.037   3.768
 1193SOL    HW1 4478   3.978   0.073   3.810
 1193SOL    HW2 4479   4.065   6.958   3.780
 1194SOL     OW 4480   6.598   0.499   1.455
 1194SOL    HW1 4481   6.622   0.466   1.364
 1194SOL    HW2 4482   6.502   0.528   1.456
 1195SOL     OW 4483   3.728   6.994   6.831
 1195SOL    HW1 4484   3.689   0.034   6.900
 1195SOL    HW2 4485   3.708   0.009   6.740
 1196SOL     OW 4486   0.471   5.500   2.957
 1196SOL    HW1 4487   0.437   5.442   3.031
 1196SOL    HW2 4488   0.424   5.588   2.960
 1197SOL     OW 4489   3.368   5.424   6.555
 1197SOL    HW1 4490   3.353   5.351   6.622
 1197SOL    HW2 4491   3.396   5.385   6.468
 1198SOL     OW 4492   3.284   1.867   2.563
 1198SOL    HW1 4493   3.228   1.855   2.645
 1198SOL    HW2 4494   3.377   1.893   2.589
 1199SOL     OW 4495   3.064   3.944   3.328
 1199SOL    HW1 4496   3.004   3.945   3.408
 1199SOL    HW2 4497   3.136   3.875   3.341
 1200SOL     OW 4498   3.776   3.350   0.649
 1200SOL    HW1 4499   3.833   3.432   0.655
 1200SOL    HW2 4500   3.686   3.374   0.614
 1201SOL     OW 4501   1.229   0.806   4.550
 1201SOL    HW1 4502   1.307   0.747   4.528
 1201SOL    HW2 4503   1.158   0.794   4.482
 1202SOL     OW 4504   5.723   0.252   5.091
 1202SOL    HW1 4505   5.688   0.231   5.000
 1202SOL    HW2 4506   5.807   0.307   5.082
 1203SOL     OW 4507   6.191   6.805   1.931
 1203SOL    HW1 4508   6.210   6.805   1.833
 1203SOL    HW2 4509   6.114   6.864   1.951
 1204SOL     OW 4510   2.688   6.441   6.903
 1204SOL    HW1 4511   2.620   6.371   6.879
 1204SOL    HW2 4512   2.775   6.397   6.923
 1205SOL     OW 4513   0.918   1.901   5.247
 1205SOL    HW1 4514   0.944   1.940   5.159
 1205SOL    HW2 4515   0.820   1.914   5.261
 1206SOL     OW 4516   0.381   1.755   4.338
 1206SOL    HW1 4517   0.345   1.811   4.263
 1206SOL    HW2 4518   0.474   1.785   4.360
 1207SOL     OW 4519   6.079   6.010   6.677
 1207SOL    HW1 4520   6.061   5.960   6.592
 1207SOL    HW2 4521   6.070   6.108   6.660
 1208SOL     OW 4522   3.706   4.114   3.700
 1208SOL    HW1 4523   3.662   4.148   3.617
 1208SOL    HW2 4524   3.650   4.137   3.780
 1209SOL     OW 4525   6.698   3.969   5.115
 1209SOL    HW1 4526   6.718   3.873   5.094
 1209SOL    HW2 4527   6.757   4.000   5.190
 1210SOL     OW 4528   2.910   6.671   2.559
 1210SOL    HW1 4529   2.948   6.699   2.647
 1210SOL    HW2 4530   2.816   6.705   2.551
 1211SOL     OW 4531   1.584   3.133   3.476
 1211SOL    HW1 4532   1.485   3.121   3.484
 1211SOL    HW2 4533   1.610   3.131   3.379
 1212SOL     OW 4534   2.158   4.171   4.689
 1212SOL    HW1 4535   2.071   4.208   4.658
 1212SOL    HW2 4536   2.176   4.202   4.782
 1213SOL     OW 4537   5.924   2.792   5.309
 1213SOL    HW1 4538   5.877   2.862   5.363
 1213SOL    HW2 4539   5.864   2.713   5.298
 1214SOL     OW 4540   1.647   2.809   2.590
 1214SOL    HW1 4541   1.611   2.887   2.642
 1214SOL    HW2 4542   1.570   2.759   2.548
 1215SOL     OW 4543   0.009   5.312   1.930
 1215SOL    HW1 4544   6.954   5.311   1.995
 1215SOL    HW2 4545   0.083   5.369   1.965
 1216SOL     OW 4546   3.260   0.350   1.789
 1216SOL    HW1 4547   3.194   0.424   1.804
 1216SOL    HW2 4548   3.218   0.263   1.816
 1217SOL     OW 4549   1.699   1.442   2.598
 1217SOL    HW1 4550   1.681   1.372   2.528
 1217SOL    HW2 4551   1.725   1.397   2.683
 1218SOL     OW 4552   0.603   3.649   3.624
 1218SOL    HW1 4553   0.684   3.655   3.565
 1218SOL    HW2 4554   0.546   3.573   3.594
 1219SOL     OW 4555   2.321   6.083   3.634
 1219SOL    HW1 4556   2.311   6.111   3.730
 1219SOL    HW2 4557   2.418   6.082   3.610
 1220SOL     OW 4558   5.987   4.305   2.944
 1220SOL    HW1 4559   5.954   4.375   3.007
 1220SOL    HW2 4560   6.009   4.347   2.855
 1221SOL     OW 4561   4.929   3.731   6.637
 1221SOL    HW1 4562   4.959   3.662   6.571
 1221SOL    HW2 4563   4.974   3.715   6.725
 1222SOL     OW 4564   4.979   5.567   1.485
 1222SOL    HW1 4565   5.076   5.555   1.462
 1222SOL    HW2 4566   4.927   5.583   1.401
 1223SOL     OW 4567   5.817   4.926   4.840
 1223SOL    HW1 4568   5.854   4.839   4.809
 1223SOL    HW2 4569   5.891   4.993   4.847
 1224SOL     OW 4570   4.568   5.458   2.042
 1224SOL    HW1 4571   4.594   5.547   2.080
 1224SOL    HW2 4572   4.650   5.409   2.014
 1225SOL     OW 4573   4.314   1.020   0.110
 1225SOL    HW1 4574   4.216   1.034   0.095
 1225SOL    HW2 4575   4.361   1.107   0.107
 1226SOL     OW 4576   5.319   4.916   0.743
 1226SOL    HW1 4577   5.358   4.841   0.797
 1226SOL    HW2 4578   5.232   4.944   0.784
 1227SOL     OW 4579   4.930   4.743   6.851
 1227SOL    HW1 4580   4.935   4.716   6.948
 1227SOL    HW2 4581   5.022   4.743   6.812
 1228SOL     OW 4582   3.990   3.830   4.237
 1228SOL    HW1 4583   4.081   3.800   4.207
 1228SOL    HW2 4584   3.932   3.845   4.157
 1229SOL     OW 4585   2.245   5.650   2.477
 1229SOL    HW1 4586   2.249   5.557   2.514
 1229SOL    HW2 4587   2.261   5.647   2.378
 1230SOL     OW 4588   5.787   4.782   1.959
 1230SOL    HW1 4589   5.725   4.715   1.919
 1230SOL    HW2 4590   5.797   4.860   1.896
 1231SOL     OW 4591   2.387   1.752   6.354
 1231SOL    HW1 4592   2.329   1.787   6.428
 1231SOL    HW2 4593   2.446   1.826   6.321
 1232SOL     OW 4594   3.318   0.954   4.840
 1232SOL    HW1 4595   3.381   0.964   4.763
 1232SOL    HW2 4596   3.332   0.865   4.884
 1233SOL     OW 4597   0.421   5.660   5.058
 1233SOL    HW1 4598   0.463   5.739   5.103
 1233SOL    HW2 4599   0.482   5.626   4.987
 1234SOL     OW 4600   6.466   3.886   6.715
 1234SOL    HW1 4601   6.559   3.921   6.720
 1234SOL    HW2 4602   6.415   3.933   6.643
 1235SOL     OW 4603   6.345   4.865   1.030
 1235SOL    HW1 4604   6.303   4.783   1.069
 1235SOL    HW2 4605   6.366   4.930   1.103
 1236SOL     OW 4606   1.582   1.359   2.167
 1236SOL    HW1 4607   1.517   1.375   2.241
 1236SOL    HW2 4608   1.597   1.261   2.156
 1237SOL     OW 4609   1.023   6.935   5.084
 1237SOL    HW1 4610   1.117   6.967   5.080
 1237SOL    HW2 4611   0.971   6.969   5.006
 1238SOL     OW 4612   0.610   0.866   4.620
 1238SOL    HW1 4613   0.667   0.862   4.701
 1238SOL    HW2 4614   0.657   0.919   4.549
 1239SOL     OW 4615   5.032   4.812   3.656
 1239SOL    HW1 4616   5.118   4.764   3.641
 1239SOL    HW2 4617   4.958   4.763   3.609
 1240SOL     OW 4618   0.977   3.559   2.108
 1240SOL    HW1 4619   0.934   3.487   2.164
 1240SOL    HW2 4620   0.947   3.649   2.140
 1241SOL     OW 4621   3.968   5.536   5.767
 1241SOL    HW1 4622   3.982   5.455   5.709
 1241SOL    HW2 4623   4.016   5.614   5.727
 1242SOL     OW 4624   2.350   4.562   1.138
 1242SOL    HW1 4625   2.390   4.632   1.079
 1242SOL    HW2 4626   2.377   4.471   1.106
 1243SOL     OW 4627   1.025   3.737   3.710
 1243SOL    HW1 4628   0.963   3.662   3.734
 1243SOL    HW2 4629   1.026   3.748   3.610
 1244SOL     OW 4630   6.492   6.929   5.831
 1244SOL    HW1 4631   6.591   6.912   5.834
 1244SOL    HW2 4632   6.473   7.017   5.875
 1245SOL     OW 4633   4.550   6.381   0.702
 1245SOL    HW1 4634   4.535   6.407   0.797
 1245SOL    HW2 4635   4.615   6.444   0.660
 1246SOL     OW 4636   4.980   1.230   0.814
 1246SOL    HW1 4637   4.880   1.222   0.825
 1246SOL    HW2 4638   5.005   1.210   0.720
 1247SOL     OW 4639   6.805   0.366   3.564
 1247SOL    HW1 4640   6.837   0.297   3.629
 1247SOL    HW2 4641   6.756   0.321   3.490
 1248SOL     OW 4642   0.548   6.774   4.586
 1248SOL    HW1 4643   0.618   6.719   4.539
 1248SOL    HW2 4644   0.462   6.723   4.588
 1249SOL     OW 4645   6.092   5.570   6.478
 1249SOL    HW1 4646   6.048   5.492   6.523
 1249SOL    HW2 4647   6.163   5.607   6.539
 1250SOL     OW 4648   0.480   3.089   5.203
 1250SOL    HW1 4649   0.558   3.089   5.141
 1250SOL    HW2 4650   0.436   3.180   5.201
 1251SOL     OW 4651   2.867   0.621   2.622
 1251SOL    HW1 4652   2.854   0.670   2.536
 1251SOL    HW2 4653   2.802   0.656   2.690
 1252SOL     OW 4654   2.094   5.510   6.408
 1252SOL    HW1 4655   2.147   5.452   6.471
 1252SOL    HW2 4656   2.038   5.452   6.350
 1253SOL     OW 4657   3.483   6.853   6.875
 1253SOL    HW1 4658   3.574   6.867   6.836
 1253SOL    HW2 4659   3.414   6.887   6.812
 1254SOL     OW 4660   5.739   0.716   3.009
 1254SOL    HW1 4661   5.791   0.766   3.078
 1254SOL    HW2 4662   5.664   0.773   2.976
 1255SOL     OW 4663   5.644   1.234   5.748
 1255SOL    HW1 4664   5.684   1.217   5.838
 1255SOL    HW2 4665   5.615   1.147   5.707
 1256SOL     OW 4666   0.078   5.682   4.699
 1256SOL    HW1 4667   0.153   5.740   4.732
 1256SOL    HW2 4668   0.113   5.619   4.630
 1257SOL     OW 4669   0.068   6.447   3.008
 1257SOL    HW1 4670   0.058   6.544   3.031
 1257SOL    HW2 4671   0.161   6.430   2.975
 1258SOL     OW 4672   4.510   5.871   6.219
 1258SOL    HW1 4673   4.594   5.823   6.244
 1258SOL    HW2 4674   4.438   5.804   6.201
 1259SOL     OW 4675   5.626   0.668   5.722
 1259SOL    HW1 4676   5.650   0.666   5.626
 1259SOL    HW2 4677   5.604   0.576   5.754
 1260SOL     OW 4678   2.877   1.418   1.381
 1260SOL    HW1 4679   2.925   1.500   1.415
 1260SOL    HW2 4680   2.818   1.444   1.304
 1261SOL     OW 4681   6.781   4.922   4.895
 1261SOL    HW1 4682   6.780   4.984   4.973
 1261SOL    HW2 4683   6.703   4.860   4.900
 1262SOL     OW 4684   4.108   4.966   1.396
 1262SOL    HW1 4685   4.027   4.909   1.388
 1262SOL    HW2 4686   4.108   5.013   1.484
 1263SOL     OW 4687   6.216   2.281   0.785
 1263SOL    HW1 4688   6.297   2.251   0.835
 1263SOL    HW2 4689   6.144   2.213   0.794
 1264SOL     OW 4690   6.585   2.466   4.147
 1264SOL    HW1 4691   6.500   2.483   4.197
 1264SOL    HW2 4692   6.590   2.369   4.122
 1265SOL     OW 4693   6.734   6.005   4.685
 1265SOL    HW1 4694   6.818   6.047   4.719
 1265SOL    HW2 4695   6.714   6.040   4.593
 1266SOL     OW 4696   2.474   0.859   4.395
 1266SOL    HW1 4697   2.383   0.886   4.428
 1266SOL    HW2 4698   2.487   0.761   4.409
 1267SOL     OW 4699   6.540   4.732   2.879
 1267SOL    HW1 4700   6.446   4.717   2.849
 1267SOL    HW2 4701   6.541   4.793   2.958
 1268SOL     OW 4702   5.728   3.461   0.118
 1268SOL    HW1 4703   5.766   3.370   0.133
 1268SOL    HW2 4704   5.795   3.518   0.071
 1269SOL     OW 4705   6.798   4.996   6.072
 1269SOL    HW1 4706   6.891   4.997   6.108
 1269SOL    HW2 4707   6.743   5.062   6.123
 1270SOL     OW 4708   1.643   2.379   5.188
 1270SOL    HW1 4709   1.733   2.345   5.215
 1270SOL    HW2 4710   1.652   2.473   5.154
 1271SOL     OW 4711   4.784   2.474   2.997
 1271SOL    HW1 4712   4.737   2.407   3.055
 1271SOL    HW2 4713   4.741   2.563   3.009
 1272SOL     OW 4714   6.689   6.331   1.671
 1272SOL    HW1 4715   6.672   6.307   1.576
 1272SOL    HW2 4716   6.608   6.375   1.709
 1273SOL     OW 4717   2.461   6.361   6.778
 1273SOL    HW1 4718   2.426   6.431   6.840
 1273SOL    HW2 4719   2.389   6.334   6.714
 1274SOL     OW 4720   6.046   2.811   1.153
 1274SOL    HW1 4721   6.011   2.898   1.120
 1274SOL    HW2 4722   6.005   2.737   1.100
 1275SOL     OW 4723   4.037   1.892   3.901
 1275SOL    HW1 4724   4.060   1.811   3.955
 1275SOL    HW2 4725   3.961   1.940   3.944
 1276SOL     OW 4726   6.209   0.325   3.400
 1276SOL    HW1 4727   6.139   0.345   3.331
 1276SOL    HW2 4728   6.278   0.264   3.360
 1277SOL     OW 4729   0.188   1.263   5.405
 1277SOL    HW1 4730   0.193   1.173   5.448
 1277SOL    HW2 4731   0.280   1.302   5.401
 1278SOL     OW 4732   3.044   2.031   5.335
 1278SOL    HW1 4733   3.070   2.096   5.406
 1278SOL    HW2 4734   3.110   1.956   5.333
 1279SOL     OW 4735   3.029   5.039   0.337
 1279SOL    HW1 4736   2.965   5.113   0.357
 1279SOL    HW2 4737   3.030   4.974   0.413
 1280SOL     OW 4738   1.906   6.325   2.985
 1280SOL    HW1 4739   1.857   6.243   3.015
 1280SOL    HW2 4740   2.005   6.308   2.989
 1281SOL     OW 4741   0.752   6.499   4.031
 1281SOL    HW1 4742   0.749   6.429   3.960
 1281SOL    HW2 4743   0.802   6.578   3.997
 1282SOL     OW 4744   1.084   0.421   2.479
 1282SOL    HW1 4745   1.018   0.366   2.530
 1282SOL    HW2 4746   1.132   0.364   2.413
 1283SOL     OW 4747   5.210   4.755   5.455
 1283SOL    HW1 4748   5.229   4.731   5.360
 1283SOL    HW2 4749   5.176   4.848   5.459
 1284SOL     OW 4750   2.432   2.078   2.764
 1284SOL    HW1 4751   2.482   2.150   2.811
 1284SOL    HW2 4752   2.365   2.118   2.702
 1285SOL     OW 4753   5.440   2.667   5.702
 1285SOL    HW1 4754   5.361   2.632   5.652
 1285SOL    HW2 4755   5.477   2.746   5.653
 1286SOL     OW 4756   6.124   5.640   1.760
 1286SOL    HW1 4757   6.106   5.544   1.781
 1286SOL    HW2 4758   6.038   5.686   1.736
 1287SOL     OW 4759   6.045   5.115   6.247
 1287SOL    HW1 4760   6.038   5.024   6.204
 1287SOL    HW2 4761   6.139   5.131   6.275
 1288SOL     OW 4762   6.591   2.537   2.636
 1288SOL    HW1 4763   6.558   2.571   2.725
 1288SOL    HW2 4764   6.662   2.598   2.602
 1289SOL     OW 4765   6.502   5.839   2.656
 1289SOL    HW1 4766   6.476   5.800   2.744
 1289SOL    HW2 4767   6.492   5.938   2.659
 1290SOL     OW 4768   0.719   6.715   1.462
 1290SOL    HW1 4769   0.784   6.790   1.448
 1290SOL    HW2 4770   0.636   6.733   1.409
 1291SOL     OW 4771   2.143   0.162   0.625
 1291SOL    HW1 4772   2.093   0.221   0.687
 1291SOL    HW2 4773   2.241   0.180   0.632
 1292SOL     OW 4774   1.022   6.034   6.699
 1292SOL    HW1 4775   1.017   6.102   6.772
 1292SOL    HW2 4776   0.935   6.033   6.649
 1293SOL     OW 4777   0.026   2.590   5.823
 1293SOL    HW1 4778   0.024   2.511   5.884
 1293SOL    HW2 4779   0.091   2.658   5.857
 1294SOL     OW 4780   6.910   1.507   2.957
 1294SOL    HW1 4781   6.947   1.595   2.988
 1294SOL    HW2 4782   6.926   1.497   2.859
 1295SOL     OW 4783   6.042   3.381   2.152
 1295SOL    HW1 4784   6.086   3.336   2.229
 1295SOL    HW2 4785   6.080   3.347   2.066
 1296SOL     OW 4786   3.426   2.983   6.516
 1296SOL    HW1 4787   3.493   2.977   6.590
 1296SOL    HW2 4788   3.378   3.071   6.521
 1297SOL     OW 4789   6.848   1.328   6.591
 1297SOL    HW1 4790   6.804   1.251   6.545
 1297SOL    HW2 4791   6.847   1.408   6.531
 1298SOL     OW 4792   6.030   3.119   3.481
 1298SOL    HW1 4793   6.062   3.149   3.572
 1298SOL    HW2 4794   6.018   3.199   3.423
 1299SOL     OW 4795   1.244   3.879   4.303
 1299SOL    HW1 4796   1.281   3.967   4.275
 1299SOL    HW2 4797   1.167   3.855   4.244
 1300SOL     OW 4798   2.589   3.192   1.415
 1300SOL    HW1 4799   2.635   3.262   1.360
 1300SOL    HW2 4800   2.657   3.134   1.460
 1301SOL     OW 4801   0.656   0.290   3.407
 1301SOL    HW1 4802   0.600   0.210   3.426
 1301SOL    HW2 4803   0.647   0.315   3.310
 1302SOL     OW 4804   2.366   5.775   5.158
 1302SOL    HW1 4805   2.414   5.754   5.072
 1302SOL    HW2 4806   2.318   5.694   5.190
 1303SOL     OW 4807   3.703   0.871   1.676
 1303SOL    HW1 4808   3.747   0.877   1.765
 1303SOL    HW2 4809   3.607   0.899   1.684
 1304SOL     OW 4810   3.244   0.776   6.347
 1304SOL    HW1 4811   3.241   0.852   6.282
 1304SOL    HW2 4812   3.311   0.708   6.317
 1305SOL     OW 4813   5.456   6.827   4.828
 1305SOL    HW1 4814   5.413   6.911   4.860
 1305SOL    HW2 4815   5.421   6.804   4.737
 1306SOL     OW 4816   0.812   4.495   3.862
 1306SOL    HW1 4817   0.853   4.488   3.771
 1306SOL    HW2 4818   0.849   4.424   3.922
 1307SOL     OW 4819   2.017   1.662   4.043
 1307SOL    HW1 4820   1.923   1.680   4.013
 1307SOL    HW2 4821   2.018   1.585   4.106
 1308SOL     OW 4822   4.854   5.439   2.800
 1308SOL    HW1 4823   4.904   5.517   2.761
 1308SOL    HW2 4824   4.794   5.399   2.731
 1309SOL     OW 4825   5.987   2.471   4.535
 1309SOL    HW1 4826   5.899   2.491   4.492
 1309SOL    HW2 4827   5.976   2.393   4.597
 1310SOL     OW 4828   5.037   3.613   5.434
 1310SOL    HW1 4829   5.071   3.554   5.507
 1310SOL    HW2 4830   5.046   3.709   5.462
 1311SOL     OW 4831   5.085   6.143   5.360
 1311SOL    HW1 4832   5.140   6.134   5.443
 1311SOL    HW2 4833   5.138   6.113   5.281
 1312SOL     OW 4834   0.260   6.555   1.470
 1312SOL    HW1 4835   0.177   6.565   1.416
 1312SOL    HW2 4836   0.329   6.506   1.415
 1313SOL     OW 4837   3.444   4.845   5.135
 1313SOL    HW1 4838   3.482   4.760   5.172
 1313SOL    HW2 4839   3.363   4.871   5.187
 1314SOL     OW 4840   6.037   1.432   4.748
 1314SOL    HW1 4841   6.072   1.413   4.657
 1314SOL    HW2 4842   6.023   1.347   4.798
 1315SOL     OW 4843   2.002   0.832   3.016
 1315SOL    HW1 4844   1.942   0.752   3.023
 1315SOL    HW2 4845   2.001   0.866   2.922
 1316SOL     OW 4846   3.044   6.371   2.110
 1316SOL    HW1 4847   3.126   6.316   2.128
 1316SOL    HW2 4848   3.031   6.436   2.184
 1317SOL     OW 4849   0.139   5.369   3.690
 1317SOL    HW1 4850   0.114   5.327   3.777
 1317SOL    HW2 4851   0.238   5.383   3.686
 1318SOL     OW 4852   0.179   6.416   0.968
 1318SOL    HW1 4853   0.182   6.440   0.871
 1318SOL    HW2 4854   0.194   6.499   1.022
 1319SOL     OW 4855   6.558   1.024   0.581
 1319SOL    HW1 4856   6.486   1.087   0.552
 1319SOL    HW2 4857   6.526   0.972   0.661
 1320SOL     OW 4858   5.433   5.572   6.154
 1320SOL    HW1 4859   5.494   5.647   6.127
 1320SOL    HW2 4860   5.351   5.574   6.097
 1321SOL     OW 4861   3.655   2.465   6.501
 1321SOL    HW1 4862   3.583   2.450   6.569
 1321SOL    HW2 4863   3.731   2.403   6.519
 1322SOL     OW 4864   6.047   1.231   4.933
 1322SOL    HW1 4865   6.125   1.189   4.979
 1322SOL    HW2 4866   5.962   1.191   4.969
 1323SOL     OW 4867   5.986   1.139   4.514
 1323SOL    HW1 4868   5.941   1.224   4.486
 1323SOL    HW2 4869   5.943   1.105   4.598
 1324SOL     OW 4870   1.029   3.902   0.601
 1324SOL    HW1 4871   0.974   3.819   0.593
 1324SOL    HW2 4872   0.977   3.981   0.568
 1325SOL     OW 4873   3.348   5.524   2.925
 1325SOL    HW1 4874   3.326   5.616   2.957
 1325SOL    HW2 4875   3.270   5.464   2.941
 1326SOL     OW 4876   5.093   4.010   4.098
 1326SOL    HW1 4877   5.034   3.939   4.135
 1326SOL    HW2 4878   5.059   4.100   4.125
 1327SOL     OW 4879   3.163   5.640   3.145
 1327SOL    HW1 4880   3.212   5.606   3.225
 1327SOL    HW2 4881   3.092   5.576   3.119
 1328SOL     OW 4882   1.858   2.240   6.595
 1328SOL    HW1 4883   1.924   2.166   6.609
 1328SOL    HW2 4884   1.825   2.271   6.684
 1329SOL     OW 4885   1.132   0.415   1.764
 1329SOL    HW1 4886   1.225   0.395   1.794
 1329SOL    HW2 4887   1.080   0.330   1.757
 1330SOL     OW 4888   5.860   6.676   1.099
 1330SOL    HW1 4889   5.834   6.771   1.081
 1330SOL    HW2 4890   5.955   6.672   1.129
 1331SOL     OW 4891   6.371   0.296   2.692
 1331SOL    HW1 4892   6.418   0.317   2.606
 1331SOL    HW2 4893   6.347   0.382   2.738
 1332SOL     OW 4894   4.645   1.624   1.423
 1332SOL    HW1 4895   4.558   1.616   1.470
 1332SOL    HW2 4896   4.687   1.713   1.444
 1333SOL     OW 4897   3.687   4.218   5.160
 1333SOL    HW1 4898   3.630   4.206   5.078
 1333SOL    HW2 4899   3.715   4.128   5.194
 1334SOL     OW 4900   0.919   4.132   3.728
 1334SOL    HW1 4901   0.822   4.120   3.751
 1334SOL    HW2 4902   0.930   4.216   3.675
 1335SOL     OW 4903   2.353   4.794   2.371
 1335SOL    HW1 4904   2.295   4.759   2.297
 1335SOL    HW2 4905   2.428   4.847   2.332
 1336SOL     OW 4906   0.797   0.289   5.177
 1336SOL    HW1 4907   0.757   0.327   5.260
 1336SOL    HW2 4908   0.771   0.193   5.168
 1337SOL     OW 4909   2.802   0.784   6.206
 1337SOL    HW1 4910   2.764   0.815   6.294
 1337SOL    HW2 4911   2.793   0.858   6.139
 1338SOL     OW 4912   3.614   5.891   0.547
 1338SOL    HW1 4913   3.596   5.837   0.464
 1338SOL    HW2 4914   3.609   5.988   0.526
 1339SOL     OW 4915   0.034   4.845   4.844
 1339SOL    HW1 4916   6.962   4.870   4.871
 1339SOL    HW2 4917   0.032   4.803   4.753
 1340SOL     OW 4918   2.233   1.505   6.265
 1340SOL    HW1 4919   2.134   1.510   6.278
 1340SOL    HW2 4920   2.276   1.590   6.296
 1341SOL     OW 4921   4.749   1.527   3.393
 1341SOL    HW1 4922   4.708   1.612   3.425
 1341SOL    HW2 4923   4.843   1.519   3.427
 1342SOL     OW 4924   0.560   6.047   1.251
 1342SOL    HW1 4925   0.462   6.066   1.243
 1342SOL    HW2 4926   0.575   5.948   1.244
 1343SOL     OW 4927   3.928   4.897   3.263
 1343SOL    HW1 4928   3.832   4.879   3.286
 1343SOL    HW2 4929   3.932   4.963   3.188
 1344SOL     OW 4930   6.055   1.392   2.558
 1344SOL    HW1 4931   6.037   1.397   2.460
 1344SOL    HW2 4932   5.980   1.344   2.603
 1345SOL     OW 4933   1.061   6.818   3.706
 1345SOL    HW1 4934   1.146   6.850   3.748
 1345SOL    HW2 4935   1.074   6.809   3.607
 1346SOL     OW 4936   0.122   0.786   4.184
 1346SOL    HW1 4937   0.149   0.864   4.128
 1346SOL    HW2 4938   0.200   0.725   4.197
 1347SOL     OW 4939   5.923   0.574   2.850
 1347SOL    HW1 4940   5.871   0.609   2.928
 1347SOL    HW2 4941   5.884   0.611   2.765
 1348SOL     OW 4942   4.357   5.600   4.372
 1348SOL    HW1 4943   4.269   5.621   4.414
 1348SOL    HW2 4944   4.379   5.671   4.304
 1349SOL     OW 4945   4.485   2.511   0.213
 1349SOL    HW1 4946   4.435   2.463   0.285
 1349SOL    HW2 4947   4.445   2.601   0.198
 1350SOL     OW 4948   3.359   6.976   5.634
 1350SOL    HW1 4949   3.295   6.960   5.709
 1350SOL    HW2 4950   3.387   0.051   5.634
 1351SOL     OW 4951   0.706   1.069   4.390
 1351SOL    HW1 4952   0.615   1.109   4.381
 1351SOL    HW2 4953   0.757   1.083   4.305
 1352SOL     OW 4954   0.260   6.916   3.912
 1352SOL    HW1 4955   0.232   6.891   4.005
 1352SOL    HW2 4956   0.353   6.881   3.895
 1353SOL     OW 4957   1.772   3.920   3.585
 1353SOL    HW1 4958   1.759   3.827   3.619
 1353SOL    HW2 4959   1.743   3.924   3.489
 1354SOL     OW 4960   0.218   0.385   1.185
 1354SOL    HW1 4961   0.237   0.300   1.135
 1354SOL    HW2 4962   0.285   0.395   1.259
 1355SOL     OW 4963   4.676   3.198   0.130
 1355SOL    HW1 4964   4.728   3.277   0.161
 1355SOL    HW2 4965   4.730   3.146   0.063
 1356SOL     OW 4966   3.155   4.084   1.919
 1356SOL    HW1 4967   3.116   4.003   1.874
 1356SOL    HW2 4968   3.094   4.162   1.906
 1357SOL     OW 4969   2.828   2.631   6.052
 1357SOL    HW1 4970   2.920   2.623   6.090
 1357SOL    HW2 4971   2.790   2.720   6.074
 1358SOL     OW 4972   2.684   2.973   5.809
 1358SOL    HW1 4973   2.597   2.965   5.760
 1358SOL    HW2 4974   2.669   2.961   5.907
 1359SOL     OW 4975   0.017   1.141   0.243
 1359SOL    HW1 4976   6.971   1.067   0.233
 1359SOL    HW2 4977   7.001   1.212   0.302
 1360SOL     OW 4978   3.078   3.485   3.697
 1360SOL    HW1 4979   3.019   3.480   3.777
 1360SOL    HW2 4980   3.072   3.400   3.645
 1361SOL     OW 4981   1.129   5.958   1.008
 1361SOL    HW1 4982   1.050   5.988   0.955
 1361SOL    HW2 4983   1.183   5.894   0.953
 1362SOL     OW 4984   3.079   2.870   6.231
 1362SOL    HW1 4985   3.032   2.782   6.222
 1362SOL    HW2 4986   3.175   2.854   6.254
 1363SOL     OW 4987   6.455   6.864   2.084
 1363SOL    HW1 4988   6.540   6.860   2.031
 1363SOL    HW2 4989   6.377   6.853   2.023
 1364SOL     OW 4990   0.620   3.535   0.850
 1364SOL    HW1 4991   0.675   3.462   0.891
 1364SOL    HW2 4992   0.658   3.624   0.877
 1365SOL     OW 4993   0.517   4.072   5.306
 1365SOL    HW1 4994   0.531   3.973   5.316
 1365SOL    HW2 4995   0.445   4.102   5.369
 1366SOL     OW 4996   5.324   0.333   1.346
 1366SOL    HW1 4997   5.229   0.309   1.367
 1366SOL    HW2 4998   5.334   0.346   1.248
 1367SOL     OW 4999   0.779   6.579   4.532
 1367SOL    HW1 5000   0.877   6.599   4.527
 1367SOL    HW2 5001   0.759   6.534   4.620
 1368SOL     OW 5002   1.218   6.329   5.354
 1368SOL    HW1 5003   1.248   6.278   5.435
 1368SOL    HW2 5004   1.150   6.397   5.380
 1369SOL     OW 5005   2.727   6.462   3.564
 1369SOL    HW1 5006   2.634   6.427   3.554
 1369SOL    HW2 5007   2.779   6.402   3.624
 1370SOL     OW 5008   6.890   2.129   2.147
 1370SOL    HW1 5009   6.883   2.049   2.087
 1370SOL    HW2 5010   6.827   2.119   2.224
 1371SOL     OW 5011   6.092   2.091   5.842
 1371SOL    HW1 5012   6.025   2.105   5.915
 1371SOL    HW2 5013   6.169   2.153   5.856
 1372SOL     OW 5014   6.446   3.190   0.710
 1372SOL    HW1 5015   6.376   3.119   0.719
 1372SOL    HW2 5016   6.533   3.147   0.685
 1373SOL     OW 5017   5.353   2.145   1.280
 1373SOL    HW1 5018   5.399   2.059   1.301
 1373SOL    HW2 5019   5.367   2.209   1.356
 1374SOL     OW 5020   4.057   3.792   0.852
 1374SOL    HW1 5021   4.026   3.739   0.931
 1374SOL    HW2 5022   4.025   3.886   0.861
 1375SOL     OW 5023   5.672   5.264   3.612
 1375SOL    HW1 5024   5.772   5.255   3.606
 1375SOL    HW2 5025   5.649   5.356   3.643
 1376SOL     OW 5026   2.873   4.832   6.050
 1376SOL    HW1 5027   2.941   4.759   6.043
 1376SOL    HW2 5028   2.801   4.817   5.983
 1377SOL     OW 5029   1.967   1.392   2.816
 1377SOL    HW1 5030   1.891   1.327   2.805
 1377SOL    HW2 5031   1.931   1.484   2.823
 1378SOL     OW 5032   4.935   2.662   4.272
 1378SOL    HW1 5033   4.956   2.568   4.299
 1378SOL    HW2 5034   4.836   2.672   4.262
 1379SOL     OW 5035   4.780   5.918   1.160
 1379SOL    HW1 5036   4.875   5.930   1.188
 1379SOL    HW2 5037   4.752   5.823   1.176
 1380SOL     OW 5038   6.986   5.991   2.318
 1380SOL    HW1 5039   6.901   6.010   2.269
 1380SOL    HW2 5040   0.043   6.032   2.269
 1381SOL     OW 5041   6.684   2.545   5.711
 1381SOL    HW1 5042   6.767   2.562   5.657
 1381SOL    HW2 5043   6.647   2.455   5.688
 1382SOL     OW 5044   4.824   2.560   6.988
 1382SOL    HW1 5045   4.814   2.656   7.014
 1382SOL    HW2 5046   4.808   2.502   0.048
 1383SOL     OW 5047   0.225   1.245   1.502
 1383SOL    HW1 5048   0.247   1.326   1.446
 1383SOL    HW2 5049   0.154   1.191   1.457
 1384SOL     OW 5050   6.176   1.659   1.964
 1384SOL    HW1 5051   6.146   1.565   1.982
 1384SOL    HW2 5052   6.251   1.682   2.026
 1385SOL     OW 5053   0.866   5.656   0.991
 1385SOL    HW1 5054   0.881   5.574   1.045
 1385SOL    HW2 5055   0.870   5.736   1.050
 1386SOL     OW 5056   1.774   5.714   4.071
 1386SOL    HW1 5057   1.781   5.617   4.094
 1386SOL    HW2 5058   1.865   5.755   4.074
 1387SOL     OW 5059   2.566   6.080   1.968
 1387SOL    HW1 5060   2.559   5.986   1.936
 1387SOL    HW2 5061   2.623   6.084   2.050
 1388SOL     OW 5062   6.770   0.725   1.833
 1388SOL    HW1 5063   6.699   0.733   1.903
 1388SOL    HW2 5064   6.851   0.776   1.862
 1389SOL     OW 5065   6.220   0.892   2.708
 1389SOL    HW1 5066   6.185   0.803   2.680
 1389SOL    HW2 5067   6.155   0.935   2.770
 1390SOL     OW 5068   1.593   1.955   5.966
 1390SOL    HW1 5069   1.580   1.862   6.001
 1390SOL    HW2 5070   1.670   1.956   5.903
 1391SOL     OW 5071   0.459   3.058   3.526
 1391SOL    HW1 5072   0.442   3.021   3.617
 1391SOL    HW2 5073   0.539   3.013   3.486
 1392SOL     OW 5074   4.747   4.782   5.267
 1392SOL    HW1 5075   4.675   4.820   5.326
 1392SOL    HW2 5076   4.745   4.682   5.272
 1393SOL     OW 5077   3.272   6.473   6.122
 1393SOL    HW1 5078   3.322   6.397   6.081
 1393SOL    HW2 5079   3.330   6.518   6.190
 1394SOL     OW 5080   1.654   6.106   6.292
 1394SOL    HW1 5081   1.597   6.040   6.341
 1394SOL    HW2 5082   1.651   6.085   6.194
 1395SOL     OW 5083   3.468   4.134   5.545
 1395SOL    HW1 5084   3.479   4.193   5.465
 1395SOL    HW2 5085   3.537   4.062   5.543
 1396SOL     OW 5086   5.560   5.500   3.772
 1396SOL    HW1 5087   5.645   5.516   3.823
 1396SOL    HW2 5088   5.513   5.587   3.758
 1397SOL     OW 5089   4.331   6.022   5.275
 1397SOL    HW1 5090   4.279   6.094   5.322
 1397SOL    HW2 5091   4.302   6.017   5.180
 1398SOL     OW 5092   2.063   1.496   4.257
 1398SOL    HW1 5093   2.043   1.401   4.232
 1398SOL    HW2 5094   2.058   1.506   4.356
 1399SOL     OW 5095   3.116   6.624   1.437
 1399SOL    HW1 5096   3.086   6.546   1.492
 1399SOL    HW2 5097   3.059   6.704   1.459
 1400SOL     OW 5098   1.071   6.644   2.136
 1400SOL    HW1 5099   1.058   6.639   2.235
 1400SOL    HW2 5100   1.167   6.663   2.116
 1401SOL     OW 5101   6.841   1.388   4.872
 1401SOL    HW1 5102   6.900   1.307   4.873
 1401SOL    HW2 5103   6.765   1.373   4.808
 1402SOL     OW 5104   6.799   3.175   0.484
 1402SOL    HW1 5105   6.896   3.175   0.457
 1402SOL    HW2 5106   6.745   3.128   0.413
 1403SOL     OW 5107   2.652   1.130   2.410
 1403SOL    HW1 5108   2.558   1.133   2.444
 1403SOL    HW2 5109   2.676   1.035   2.388
 1404SOL     OW 5110   5.448   0.779   0.393
 1404SOL    HW1 5111   5.387   0.718   0.443
 1404SOL    HW2 5112   5.509   0.725   0.335
 1405SOL     OW 5113   2.441   3.703   1.123
 1405SOL    HW1 5114   2.527   3.705   1.175
 1405SOL    HW2 5115   2.383   3.629   1.157
 1406SOL     OW 5116   1.237   4.403   1.056
 1406SOL    HW1 5117   1.248   4.462   1.136
 1406SOL    HW2 5118   1.213   4.459   0.977
 1407SOL     OW 5119   6.301   2.311   2.648
 1407SOL    HW1 5120   6.335   2.282   2.738
 1407SOL    HW2 5121   6.311   2.410   2.639
 1408SOL     OW 5122   6.621   0.597   6.962
 1408SOL    HW1 5123   6.578   0.600   6.872
 1408SOL    HW2 5124   6.611   0.686   7.007
 1409SOL     OW 5125   0.481   1.182   4.405
 1409SOL    HW1 5126   0.409   1.239   4.364
 1409SOL    HW2 5127   0.445   1.138   4.487
 1410SOL     OW 5128   0.555   2.655   6.853
 1410SOL    HW1 5129   0.602   2.572   6.822
 1410SOL    HW2 5130   0.609   2.697   6.926
 1411SOL     OW 5131   2.082   6.700   1.391
 1411SOL    HW1 5132   2.053   6.753   1.470
 1411SOL    HW2 5133   2.128   6.760   1.325
 1412SOL     OW 5134   1.168   3.146   6.857
 1412SOL    HW1 5135   1.104   3.070   6.848
 1412SOL    HW2 5136   1.252   3.125   6.806
 1413SOL     OW 5137   2.514   0.554   4.098
 1413SOL    HW1 5138   2.493   0.459   4.078
 1413SOL    HW2 5139   2.566   0.594   4.022
 1414SOL     OW 5140   1.843   1.737   1.916
 1414SOL    HW1 5141   1.744   1.749   1.929
 1414SOL    HW2 5142   1.877   1.671   1.983
 1415SOL     OW 5143   4.287   6.069   5.967
 1415SOL    HW1 5144   4.317   5.976   5.946
 1415SOL    HW2 5145   4.363   6.120   6.008
 1416SOL     OW 5146   4.438   5.345   1.823
 1416SOL    HW1 5147   4.486   5.402   1.890
 1416SOL    HW2 5148   4.504   5.287   1.775
 1417SOL     OW 5149   3.343   1.790   5.597
 1417SOL    HW1 5150   3.311   1.878   5.632
 1417SOL    HW2 5151   3.340   1.723   5.671
 1418SOL     OW 5152   3.773   4.068   2.422
 1418SOL    HW1 5153   3.689   4.092   2.470
 1418SOL    HW2 5154   3.783   4.126   2.341
 1419SOL     OW 5155   4.378   6.712   4.878
 1419SOL    HW1 5156   4.351   6.619   4.903
 1419SOL    HW2 5157   4.346   6.775   4.948
 1420SOL     OW 5158   0.826   5.830   2.359
 1420SOL    HW1 5159   0.801   5.733   2.362
 1420SOL    HW2 5160   0.909   5.844   2.412
 1421SOL     OW 5161   3.440   1.235   2.459
 1421SOL    HW1 5162   3.451   1.322   2.411
 1421SOL    HW2 5163   3.450   1.159   2.395
 1422SOL     OW 5164   2.966   5.946   0.128
 1422SOL    HW1 5165   2.932   5.923   0.037
 1422SOL    HW2 5166   2.899   5.918   0.197
 1423SOL     OW 5167   4.788   6.898   2.839
 1423SOL    HW1 5168   4.877   6.894   2.884
 1423SOL    HW2 5169   4.796   6.950   2.754
 1424SOL     OW 5170   6.495   5.105   4.762
 1424SOL    HW1 5171   6.425   5.111   4.690
 1424SOL    HW2 5172   6.585   5.123   4.723
 1425SOL     OW 5173   2.738   6.770   4.121
 1425SOL    HW1 5174   2.663   6.822   4.163
 1425SOL    HW2 5175   2.788   6.830   4.057
 1426SOL     OW 5176   1.113   1.565   5.548
 1426SOL    HW1 5177   1.044   1.541   5.615
 1426SOL    HW2 5178   1.184   1.493   5.546
 1427SOL     OW 5179   6.066   0.719   4.409
 1427SOL    HW1 5180   5.992   0.714   4.476
 1427SOL    HW2 5181   6.035   0.773   4.330
 1428SOL     OW 5182   5.499   1.595   6.439
 1428SOL    HW1 5183   5.586   1.576   6.484
 1428SOL    HW2 5184   5.455   1.673   6.483
 1429SOL     OW 5185   6.918   0.786   0.700
 1429SOL    HW1 5186   6.943   0.747   0.789
 1429SOL    HW2 5187   6.827   0.753   0.674
 1430SOL     OW 5188   1.981   5.052   3.741
 1430SOL    HW1 5189   2.074   5.023   3.764
 1430SOL    HW2 5190   1.980   5.090   3.648
 1431SOL     OW 5191   1.627   0.820   0.795
 1431SOL    HW1 5192   1.676   0.735   0.780
 1431SOL    HW2 5193   1.615   0.835   0.893
 1432SOL     OW 5194   1.936   1.306   2.197
 1432SOL    HW1 5195   1.989   1.390   2.186
 1432SOL    HW2 5196   1.910   1.294   2.293
 1433SOL     OW 5197   4.434   1.181   4.114
 1433SOL    HW1 5198   4.459   1.109   4.179
 1433SOL    HW2 5199   4.423   1.141   4.023
 1434SOL     OW 5200   1.573   0.617   5.682
 1434SOL    HW1 5201   1.605   0.704   5.645
 1434SOL    HW2 5202   1.473   0.620   5.692
 1435SOL     OW 5203   6.423   1.693   2.851
 1435SOL    HW1 5204   6.492   1.642   2.901
 1435SOL    HW2 5205   6.341   1.636   2.839
 1436SOL     OW 5206   4.282   3.649   1.039
 1436SOL    HW1 5207   4.203   3.623   1.095
 1436SOL    HW2 5208   4.277   3.747   1.018
 1437SOL     OW 5209   3.595   0.990   2.256
 1437SOL    HW1 5210   3.635   0.929   2.323
 1437SOL    HW2 5211   3.665   1.052   2.221
 1438SOL     OW 5212   2.595   0.039   0.923
 1438SOL    HW1 5213   2.536   0.037   1.004
 1438SOL    HW2 5214   2.617   6.966   0.896
 1439SOL     OW 5215   0.405   5.760   2.999
 1439SOL    HW1 5216   0.477   5.826   2.978
 1439SOL    HW2 5217   0.334   5.765   2.929
 1440SOL     OW 5218   2.915   3.635   1.781
 1440SOL    HW1 5219   2.988   3.570   1.759
 1440SOL    HW2 5220   2.838   3.587   1.821
 1441SOL     OW 5221   5.944   6.438   0.936
 1441SOL    HW1 5222   5.858   6.405   0.898
 1441SOL    HW2 5223   5.939   6.537   0.949
 1442SOL     OW 5224   5.914   5.431   0.932
 1442SOL    HW1 5225   5.935   5.348   0.881
 1442SOL    HW2 5226   5.928   5.511   0.873
 1443SOL     OW 5227   0.482   2.702   2.840
 1443SOL    HW1 5228   0.485   2.768   2.765
 1443SOL    HW2 5229   0.396   2.715   2.891
 1444SOL     OW 5230   5.827   5.321   6.862
 1444SOL    HW1 5231   5.805   5.313   6.960
 1444SOL    HW2 5232   5.904   5.261   6.840
 1445SOL     OW 5233   1.272   3.251   2.194
 1445SOL    HW1 5234   1.285   3.346   2.165
 1445SOL    HW2 5235   1.361   3.211   2.217
 1446SOL     OW 5236   0.108   0.418   6.919
 1446SOL    HW1 5237   0.130   0.351   6.989
 1446SOL    HW2 5238   0.064   0.372   6.841
 1447SOL     OW 5239   6.147   5.384   4.781
 1447SOL    HW1 5240   6.140   5.315   4.710
 1447SOL    HW2 5241   6.131   5.475   4.741
 1448SOL     OW 5242   1.055   3.074   5.647
 1448SOL    HW1 5243   1.113   3.077   5.728
 1448SOL    HW2 5244   1.024   3.167   5.625
 1449SOL     OW 5245   2.002   3.613   3.910
 1449SOL    HW1 5246   1.993   3.529   3.962
 1449SOL    HW2 5247   1.996   3.593   3.812
 1450SOL     OW 5248   2.182   2.924   4.344
 1450SOL    HW1 5249   2.118   2.910   4.268
 1450SOL    HW2 5250   2.145   2.883   4.427
 1451SOL     OW 5251   2.257   0.575   1.942
 1451SOL    HW1 5252   2.334   0.520   1.907
 1451SOL    HW2 5253   2.225   0.536   2.028
 1452SOL     OW 5254   5.097   3.146   5.967
 1452SOL    HW1 5255   5.008   3.111   5.937
 1452SOL    HW2 5256   5.085   3.195   6.053
 1453SOL     OW 5257   0.025   5.105   5.311
 1453SOL    HW1 5258   0.037   5.085   5.408
 1453SOL    HW2 5259   0.053   5.199   5.292
 1454SOL     OW 5260   3.792   2.024   3.930
 1454SOL    HW1 5261   3.774   1.927   3.918
 1454SOL    HW2 5262   3.800   2.045   4.027
 1455SOL     OW 5263   0.782   5.843   1.619
 1455SOL    HW1 5264   0.881   5.855   1.619
 1455SOL    HW2 5265   0.758   5.761   1.671
 1456SOL     OW 5266   6.057   5.101   4.911
 1456SOL    HW1 5267   6.098   5.010   4.907
 1456SOL    HW2 5268   6.112   5.165   4.857
 1457SOL     OW 5269   1.060   4.336   6.293
 1457SOL    HW1 5270   0.985   4.398   6.314
 1457SOL    HW2 5271   1.126   4.382   6.234
 1458SOL     OW 5272   4.935   5.404   5.413
 1458SOL    HW1 5273   4.909   5.496   5.442
 1458SOL    HW2 5274   5.035   5.397   5.411
 1459SOL     OW 5275   4.981   6.375   4.953
 1459SOL    HW1 5276   4.977   6.342   4.858
 1459SOL    HW2 5277   4.910   6.329   5.007
 1460SOL     OW 5278   1.286   6.220   5.587
 1460SOL    HW1 5279   1.210   6.211   5.651
 1460SOL    HW2 5280   1.360   6.160   5.616
 1461SOL     OW 5281   6.854   3.142   3.437
 1461SOL    HW1 5282   6.953   3.133   3.443
 1461SOL    HW2 5283   6.824   3.215   3.499
 1462SOL     OW 5284   0.779   0.518   1.709
 1462SOL    HW1 5285   0.739   0.596   1.661
 1462SOL    HW2 5286   0.812   0.451   1.642
 1463SOL     OW 5287   1.898   5.359   0.240
 1463SOL    HW1 5288   1.907   5.356   0.340
 1463SOL    HW2 5289   1.894   5.455   0.211
 1464SOL     OW 5290   0.956   4.405   3.632
 1464SOL    HW1 5291   1.054   4.400   3.611
 1464SOL    HW2 5292   0.904   4.407   3.547
 1465SOL     OW 5293   1.016   2.398   3.633
 1465SOL    HW1 5294   0.920   2.426   3.638
 1465SOL    HW2 5295   1.039   2.345   3.715
 1466SOL     OW 5296   4.893   2.256   1.799
 1466SOL    HW1 5297   4.890   2.354   1.780
 1466SOL    HW2 5298   4.941   2.240   1.885
 1467SOL     OW 5299   1.239   1.330   4.534
 1467SOL    HW1 5300   1.190   1.403   4.486
 1467SOL    HW2 5301   1.182   1.248   4.539
 1468SOL     OW 5302   2.388   5.730   2.847
 1468SOL    HW1 5303   2.312   5.665   2.856
 1468SOL    HW2 5304   2.401   5.753   2.751
 1469SOL     OW 5305   6.417   4.108   3.322
 1469SOL    HW1 5306   6.370   4.083   3.407
 1469SOL    HW2 5307   6.352   4.145   3.256
 1470SOL     OW 5308   6.346   1.902   0.852
 1470SOL    HW1 5309   6.445   1.895   0.860
 1470SOL    HW2 5310   6.323   1.949   0.766
 1471SOL     OW 5311   5.374   6.610   1.884
 1471SOL    HW1 5312   5.417   6.560   1.809
 1471SOL    HW2 5313   5.321   6.548   1.941
 1472SOL     OW 5314   1.810   6.720   6.099
 1472SOL    HW1 5315   1.712   6.727   6.120
 1472SOL    HW2 5316   1.852   6.649   6.156
 1473SOL     OW 5317   2.040   5.838   4.103
 1473SOL    HW1 5318   2.118   5.799   4.153
 1473SOL    HW2 5319   2.074   5.890   4.025
 1474SOL     OW 5320   3.366   4.916   1.496
 1474SOL    HW1 5321   3.412   4.893   1.582
 1474SOL    HW2 5322   3.267   4.902   1.507
 1475SOL     OW 5323   5.100   0.134   0.175
 1475SOL    HW1 5324   5.134   0.183   0.094
 1475SOL    HW2 5325   5.119   0.189   0.257
 1476SOL     OW 5326   4.982   0.443   1.457
 1476SOL    HW1 5327   4.965   0.484   1.546
 1476SOL    HW2 5328   5.027   0.509   1.398
 1477SOL     OW 5329   3.699   4.798   1.604
 1477SOL    HW1 5330   3.715   4.833   1.511
 1477SOL    HW2 5331   3.624   4.847   1.646
 1478SOL     OW 5332   5.219   5.493   6.342
 1478SOL    HW1 5333   5.283   5.417   6.355
 1478SOL    HW2 5334   5.246   5.546   6.261
 1479SOL     OW 5335   3.943   3.657   1.082
 1479SOL    HW1 5336   3.926   3.607   1.167
 1479SOL    HW2 5337   3.953   3.755   1.102
 1480SOL     OW 5338   3.139   0.568   5.029
 1480SOL    HW1 5339   3.132   0.469   5.019
 1480SOL    HW2 5340   3.047   0.607   5.038
 1481SOL     OW 5341   5.239   2.692   6.238
 1481SOL    HW1 5342   5.225   2.676   6.140
 1481SOL    HW2 5343   5.289   2.778   6.251
 1482SOL     OW 5344   4.782   1.361   0.620
 1482SOL    HW1 5345   4.859   1.411   0.661
 1482SOL    HW2 5346   4.815   1.306   0.544
 1483SOL     OW 5347   5.479   1.619   5.840
 1483SOL    HW1 5348   5.383   1.594   5.853
 1483SOL    HW2 5349   5.523   1.628   5.929
 1484SOL     OW 5350   3.305   5.842   4.975
 1484SOL    HW1 5351   3.383   5.780   4.964
 1484SOL    HW2 5352   3.317   5.921   4.915
 1485SOL     OW 5353   5.192   2.207   3.104
 1485SOL    HW1 5354   5.271   2.230   3.048
 1485SOL    HW2 5355   5.135   2.288   3.117
 1486SOL     OW 5356   4.848   6.967   3.909
 1486SOL    HW1 5357   4.854   0.040   3.875
 1486SOL    HW2 5358   4.812   6.907   3.837
 1487SOL     OW 5359   6.759   0.411   1.243
 1487SOL    HW1 5360   6.732   0.453   1.156
 1487SOL    HW2 5361   6.854   0.434   1.263
 1488SOL     OW 5362   6.307   1.381   2.676
 1488SOL    HW1 5363   6.212   1.365   2.653
 1488SOL    HW2 5364   6.346   1.448   2.613
 1489SOL     OW 5365   3.703   4.170   0.235
 1489SOL    HW1 5366   3.783   4.220   0.204
 1489SOL    HW2 5367   3.663   4.119   0.160
 1490SOL     OW 5368   6.742   2.123   2.373
 1490SOL    HW1 5369   6.745   2.168   2.462
 1490SOL    HW2 5370   6.655   2.142   2.328
 1491SOL     OW 5371   6.559   2.606   3.381
 1491SOL    HW1 5372   6.521   2.576   3.469
 1491SOL    HW2 5373   6.505   2.683   3.347
 1492SOL     OW 5374   5.808   1.239   3.282
 1492SOL    HW1 5375   5.893   1.205   3.242
 1492SOL    HW2 5376   5.748   1.272   3.209
 1493SOL     OW 5377   4.367   2.601   5.803
 1493SOL    HW1 5378   4.295   2.532   5.809
 1493SOL    HW2 5379   4.328   2.687   5.770
 1494SOL     OW 5380   6.483   4.264   5.363
 1494SOL    HW1 5381   6.477   4.182   5.420
 1494SOL    HW2 5382   6.429   4.337   5.404
 1495SOL     OW 5383   6.549   3.846   4.625
 1495SOL    HW1 5384   6.499   3.925   4.663
 1495SOL    HW2 5385   6.615   3.878   4.557
 1496SOL     OW 5386   6.443   5.226   6.183
 1496SOL    HW1 5387   6.461   5.228   6.085
 1496SOL    HW2 5388   6.530   5.218   6.233
 1497SOL     OW 5389   5.710   2.870   2.938
 1497SOL    HW1 5390   5.794   2.878   2.884
 1497SOL    HW2 5391   5.729   2.815   3.020
 1498SOL     OW 5392   3.268   4.215   0.544
 1498SOL    HW1 5393   3.272   4.266   0.629
 1498SOL    HW2 5394   3.207   4.137   0.555
 1499SOL     OW 5395   0.944   4.213   5.055
 1499SOL    HW1 5396   1.027   4.208   5.111
 1499SOL    HW2 5397   0.866   4.235   5.114
 1500SOL     OW 5398   1.232   5.583   1.664
 1500SOL    HW1 5399   1.252   5.593   1.566
 1500SOL    HW2 5400   1.272   5.659   1.715
 1501SOL     OW 5401   5.836   2.453   0.291
 1501SOL    HW1 5402   5.847   2.552   0.304
 1501SOL    HW2 5403   5.748   2.434   0.249
 1502SOL     OW 5404   6.483   0.310   6.345
 1502SOL    HW1 5405   6.583   0.307   6.338
 1502SOL    HW2 5406   6.453   0.253   6.421
 1503SOL     OW 5407   6.896   4.786   2.085
 1503SOL    HW1 5408   6.992   4.771   2.107
 1503SOL    HW2 5409   6.888   4.860   2.018
 1504SOL     OW 5410   0.847   0.361   2.279
 1504SOL    HW1 5411   0.811   0.269   2.297
 1504SOL    HW2 5412   0.926   0.354   2.218
 1505SOL     OW 5413   4.768   6.265   5.085
 1505SOL    HW1 5414   4.672   6.293   5.090
 1505SOL    HW2 5415   4.775   6.167   5.102
 1506SOL     OW 5416   0.749   1.667   1.158
 1506SOL    HW1 5417   0.675   1.628   1.103
 1506SOL    HW2 5418   0.804   1.728   1.101
 1507SOL     OW 5419   1.299   2.950   4.496
 1507SOL    HW1 5420   1.243   2.955   4.413
 1507SOL    HW2 5421   1.346   2.862   4.499
 1508SOL     OW 5422   1.273   0.556   0.900
 1508SOL    HW1 5423   1.322   0.627   0.849
 1508SOL    HW2 5424   1.175   0.563   0.881
 1509SOL     OW 5425   5.073   0.440   4.165
 1509SOL    HW1 5426   5.050   0.524   4.115
 1509SOL    HW2 5427   4.997   0.416   4.226
 1510SOL     OW 5428   3.767   5.517   4.355
 1510SOL    HW1 5429   3.693   5.455   4.381
 1510SOL    HW2 5430   3.784   5.581   4.429
 1511SOL     OW 5431   3.487   3.530   4.436
 1511SOL    HW1 5432   3.411   3.524   4.373
 1511SOL    HW2 5433   3.571   3.499   4.391
 1512SOL     OW 5434   6.156   6.110   0.849
 1512SOL    HW1 5435   6.224   6.164   0.801
 1512SOL    HW2 5436   6.199   6.028   0.887
 1513SOL     OW 5437   3.114   6.866   6.218
 1513SOL    HW1 5438   3.154   6.952   6.249
 1513SOL    HW2 5439   3.042   6.885   6.151
 1514SOL     OW 5440   3.089   2.438   5.654
 1514SOL    HW1 5441   3.149   2.514   5.679
 1514SOL    HW2 5442   3.048   2.455   5.565
 1515SOL     OW 5443   5.433   1.963   2.070
 1515SOL    HW1 5444   5.368   1.974   1.996
 1515SOL    HW2 5445   5.499   2.039   2.069
 1516SOL     OW 5446   6.225   0.017   5.043
 1516SOL    HW1 5447   6.171   6.983   4.980
 1516SOL    HW2 5448   6.314   0.037   5.003
 1517SOL     OW 5449   4.036   6.335   3.525
 1517SOL    HW1 5450   4.125   6.289   3.521
 1517SOL    HW2 5451   4.013   6.371   3.435
 1518SOL     OW 5452   0.699   2.847   6.996
 1518SOL    HW1 5453   0.669   2.908   0.049
 1518SOL    HW2 5454   0.796   2.828   7.006
 1519SOL     OW 5455   0.009   4.533   6.496
 1519SOL    HW1 5456   0.029   4.541   6.398
 1519SOL    HW2 5457   0.069   4.594   6.548
 1520SOL     OW 5458   0.410   5.966   2.597
 1520SOL    HW1 5459   0.425   5.990   2.501
 1520SOL    HW2 5460   0.414   5.866   2.608
 1521SOL     OW 5461   1.951   5.449   5.943
 1521SOL    HW1 5462   2.034   5.417   5.989
 1521SOL    HW2 5463   1.974   5.483   5.852
 1522SOL     OW 5464   4.747   5.968   4.068
 1522SOL    HW1 5465   4.698   5.917   3.997
 1522SOL    HW2 5466   4.760   5.909   4.148
 1523SOL     OW 5467   3.986   6.367   0.256
 1523SOL    HW1 5468   3.903   6.422   0.257
 1523SOL    HW2 5469   4.052   6.408   0.193
 1524SOL     OW 5470   2.180   1.798   2.838
 1524SOL    HW1 5471   2.271   1.763   2.860
 1524SOL    HW2 5472   2.116   1.722   2.829
 1525SOL     OW 5473   5.507   2.828   6.544
 1525SOL    HW1 5474   5.562   2.854   6.464
 1525SOL    HW2 5475   5.501   2.728   6.549
 1526SOL     OW 5476   1.027   1.261   0.196
 1526SOL    HW1 5477   0.973   1.256   0.280
 1526SOL    HW2 5478   1.123   1.245   0.217
 1527SOL     OW 5479   3.941   1.093   3.578
 1527SOL    HW1 5480   3.950   1.073   3.480
 1527SOL    HW2 5481   3.991   1.177   3.600
 1528SOL     OW 5482   4.222   3.813   1.305
 1528SOL    HW1 5483   4.139   3.803   1.361
 1528SOL    HW2 5484   4.302   3.811   1.364
 1529SOL     OW 5485   4.815   1.074   5.614
 1529SOL    HW1 5486   4.867   1.103   5.694
 1529SOL    HW2 5487   4.719   1.063   5.640
 1530SOL     OW 5488   3.478   6.234   1.296
 1530SOL    HW1 5489   3.539   6.302   1.255
 1530SOL    HW2 5490   3.494   6.146   1.252
 1531SOL     OW 5491   3.921   6.645   3.645
 1531SOL    HW1 5492   3.985   6.568   3.650
 1531SOL    HW2 5493   3.947   6.713   3.713
 1532SOL     OW 5494   2.846   5.581   6.563
 1532SOL    HW1 5495   2.755   5.553   6.532
 1532SOL    HW2 5496   2.857   5.556   6.659
 1533SOL     OW 5497   5.952   5.024   1.564
 1533SOL    HW1 5498   6.048   4.998   1.568
 1533SOL    HW2 5499   5.926   5.042   1.468
 1534SOL     OW 5500   3.504   5.711   6.178
 1534SOL    HW1 5501   3.545   5.780   6.118
 1534SOL    HW2 5502   3.457   5.756   6.253
 1535SOL     OW 5503   5.836   6.057   4.412
 1535SOL    HW1 5504   5.862   6.109   4.494
 1535SOL    HW2 5505   5.823   6.120   4.336
 1536SOL     OW 5506   4.567   3.698   6.384
 1536SOL    HW1 5507   4.591   3.771   6.320
 1536SOL    HW2 5508   4.583   3.609   6.340
 1537SOL     OW 5509   3.371   5.216   3.379
 1537SOL    HW1 5510   3.467   5.234   3.356
 1537SOL    HW2 5511   3.354   5.118   3.376
 1538SOL     OW 5512   3.242   1.834   6.889
 1538SOL    HW1 5513   3.310   1.767   6.918
 1538SOL    HW2 5514   3.280   1.926   6.899
 1539SOL     OW 5515   5.839   3.549   0.553
 1539SOL    HW1 5516   5.850   3.601   0.638
 1539SOL    HW2 5517   5.904   3.473   0.552
 1540SOL     OW 5518   3.530   6.864   4.777
 1540SOL    HW1 5519   3.481   6.782   4.746
 1540SOL    HW2 5520   3.580   6.844   4.861
 1541SOL     OW 5521   3.575   3.310   4.991
 1541SOL    HW1 5522   3.569   3.392   5.049
 1541SOL    HW2 5523   3.643   3.326   4.918
 1542SOL     OW 5524   6.882   0.401   2.788
 1542SOL    HW1 5525   6.953   0.352   2.838
 1542SOL    HW2 5526   6.803   0.415   2.848
 1543SOL     OW 5527   2.542   4.705   6.953
 1543SOL    HW1 5528   2.625   4.691   7.007
 1543SOL    HW2 5529   2.565   4.751   6.867
 1544SOL     OW 5530   3.782   3.577   4.537
 1544SOL    HW1 5531   3.816   3.515   4.466
 1544SOL    HW2 5532   3.694   3.544   4.571
 1545SOL     OW 5533   6.110   6.422   2.567
 1545SOL    HW1 5534   6.165   6.398   2.487
 1545SOL    HW2 5535   6.014   6.403   2.548
 1546SOL     OW 5536   5.516   6.699   5.785
 1546SOL    HW1 5537   5.558   6.703   5.695
 1546SOL    HW2 5538   5.503   6.603   5.812
 1547SOL     OW 5539   1.881   3.427   6.802
 1547SOL    HW1 5540   1.793   3.397   6.840
 1547SOL    HW2 5541   1.904   3.517   6.840
 1548SOL     OW 5542   6.417   2.543   6.534
 1548SOL    HW1 5543   6.384   2.527   6.441
 1548SOL    HW2 5544   6.500   2.488   6.550
 1549SOL     OW 5545   4.640   0.457   5.060
 1549SOL    HW1 5546   4.628   0.363   5.093
 1549SOL    HW2 5547   4.692   0.455   4.974
 1550SOL     OW 5548   3.562   2.870   3.381
 1550SOL    HW1 5549   3.560   2.840   3.286
 1550SOL    HW2 5550   3.606   2.800   3.437
 1551SOL     OW 5551   6.458   4.609   6.146
 1551SOL    HW1 5552   6.428   4.603   6.242
 1551SOL    HW2 5553   6.470   4.705   6.121
 1552SOL     OW 5554   1.454   3.967   1.841
 1552SOL    HW1 5555   1.520   3.938   1.911
 1552SOL    HW2 5556   1.412   4.053   1.868
 1553SOL     OW 5557   1.181   1.603   5.965
 1553SOL    HW1 5558   1.191   1.700   5.943
 1553SOL    HW2 5559   1.260   1.552   5.929
 1554SOL     OW 5560   3.000   1.209   3.694
 1554SOL    HW1 5561   3.068   1.283   3.691
 1554SOL    HW2 5562   2.910   1.247   3.714
 1555SOL     OW 5563   6.686   3.865   6.413
 1555SOL    HW1 5564   6.713   3.876   6.317
 1555SOL    HW2 5565   6.590   3.887   6.424
 1556SOL     OW 5566   2.443   1.066   5.961
 1556SOL    HW1 5567   2.503   0.988   5.944
 1556SOL    HW2 5568   2.406   1.100   5.874
 1557SOL     OW 5569   0.370   2.806   6.377
 1557SOL    HW1 5570   0.312   2.857   6.441
 1557SOL    HW2 5571   0.417   2.870   6.316
 1558SOL     OW 5572   6.851   6.887   5.015
 1558SOL    HW1 5573   6.814   6.794   5.007
 1558SOL    HW2 5574   6.945   6.888   4.982
 1559SOL     OW 5575   1.235   1.852   6.318
 1559SOL    HW1 5576   1.211   1.945   6.290
 1559SOL    HW2 5577   1.318   1.855   6.374
 1560SOL     OW 5578   0.028   0.849   6.804
 1560SOL    HW1 5579   0.050   0.946   6.807
 1560SOL    HW2 5580   0.109   0.796   6.780
 1561SOL     OW 5581   5.708   5.807   2.754
 1561SOL    HW1 5582   5.631   5.754   2.792
 1561SOL    HW2 5583   5.682   5.903   2.749
 1562SOL     OW 5584   5.448   1.110   3.479
 1562SOL    HW1 5585   5.495   1.198   3.485
 1562SOL    HW2 5586   5.355   1.123   3.446
 1563SOL     OW 5587   4.082   0.332   5.186
 1563SOL    HW1 5588   4.072   0.255   5.249
 1563SOL    HW2 5589   4.178   0.360   5.182
 1564SOL     OW 5590   1.693   1.962   2.645
 1564SOL    HW1 5591   1.616   1.964   2.581
 1564SOL    HW2 5592   1.756   1.888   2.618
 1565SOL     OW 5593   5.254   4.045   2.126
 1565SOL    HW1 5594   5.310   4.096   2.062
 1565SOL    HW2 5595   5.308   4.020   2.206
 1566SOL     OW 5596   5.927   4.343   3.338
 1566SOL    HW1 5597   6.003   4.361   3.275
 1566SOL    HW2 5598   5.909   4.426   3.391
 1567SOL     OW 5599   6.752   5.704   5.681
 1567SOL    HW1 5600   6.826   5.744   5.735
 1567SOL    HW2 5601   6.771   5.608   5.663
 1568SOL     OW 5602   0.424   6.673   0.882
 1568SOL    HW1 5603   0.409   6.738   0.808
 1568SOL    HW2 5604   0.429   6.580   0.844
 1569SOL     OW 5605   3.762   5.940   4.908
 1569SOL    HW1 5606   3.709   6.023   4.925
 1569SOL    HW2 5607   3.750   5.877   4.985
 1570SOL     OW 5608   3.922   2.070   1.645
 1570SOL    HW1 5609   3.887   2.038   1.733
 1570SOL    HW2 5610   3.975   1.998   1.602
 1571SOL     OW 5611   6.458   4.463   1.510
 1571SOL    HW1 5612   6.440   4.435   1.604
 1571SOL    HW2 5613   6.375   4.503   1.471
 1572SOL     OW 5614   1.668   6.250   2.143
 1572SOL    HW1 5615   1.678   6.349   2.146
 1572SOL    HW2 5616   1.710   6.215   2.059
 1573SOL     OW 5617   4.014   0.307   1.187
 1573SOL    HW1 5618   3.921   0.298   1.222
 1573SOL    HW2 5619   4.062   0.220   1.195
 1574SOL     OW 5620   6.160   2.634   1.871
 1574SOL    HW1 5621   6.209   2.573   1.933
 1574SOL    HW2 5622   6.198   2.726   1.877
 1575SOL     OW 5623   2.360   2.957   0.558
 1575SOL    HW1 5624   2.284   2.998   0.608
 1575SOL    HW2 5625   2.426   3.028   0.533
 1576SOL     OW 5626   6.725   6.089   4.048
 1576SOL    HW1 5627   6.751   6.096   3.952
 1576SOL    HW2 5628   6.792   6.032   4.097
 1577SOL     OW 5629   2.095   0.407   0.119
 1577SOL    HW1 5630   2.051   0.339   0.060
 1577SOL    HW2 5631   2.194   0.400   0.110
 1578SOL     OW 5632   5.419   5.141   5.140
 1578SOL    HW1 5633   5.391   5.152   5.045
 1578SOL    HW2 5634   5.510   5.182   5.152
 1579SOL     OW 5635   0.744   0.345   3.875
 1579SOL    HW1 5636   0.820   0.403   3.907
 1579SOL    HW2 5637   0.780   0.258   3.842
 1580SOL     OW 5638   3.087   3.997   5.557
 1580SOL    HW1 5639   3.062   3.963   5.466
 1580SOL    HW2 5640   3.150   3.932   5.600
 1581SOL     OW 5641   6.921   3.698   4.487
 1581SOL    HW1 5642   6.890   3.721   4.579
 1581SOL    HW2 5643   6.861   3.628   4.448
 1582SOL     OW 5644   6.124   5.305   4.212
 1582SOL    HW1 5645   6.174   5.365   4.274
 1582SOL    HW2 5646   6.026   5.326   4.217
 1583SOL     OW 5647   1.780   2.636   2.917
 1583SOL    HW1 5648   1.782   2.536   2.919
 1583SOL    HW2 5649   1.815   2.668   2.829
 1584SOL     OW 5650   2.641   0.010   6.735
 1584SOL    HW1 5651   2.710   6.968   6.699
 1584SOL    HW2 5652   2.681   0.100   6.747
 1585SOL     OW 5653   5.369   2.017   5.657
 1585SOL    HW1 5654   5.426   2.045   5.735
 1585SOL    HW2 5655   5.423   2.021   5.573
 1586SOL     OW 5656   3.869   3.976   2.689
 1586SOL    HW1 5657   3.853   4.042   2.615
 1586SOL    HW2 5658   3.805   3.995   2.763
 1587SOL     OW 5659   2.447   6.041   6.852
 1587SOL    HW1 5660   2.544   6.035   6.875
 1587SOL    HW2 5661   2.433   6.113   6.785
 1588SOL     OW 5662   5.798   3.734   1.839
 1588SOL    HW1 5663   5.859   3.745   1.917
 1588SOL    HW2 5664   5.825   3.798   1.767
 1589SOL     OW 5665   5.321   3.978   3.950
 1589SOL    HW1 5666   5.282   3.970   3.858
 1589SOL    HW2 5667   5.246   3.984   4.017
 1590SOL     OW 5668   2.180   0.598   5.945
 1590SOL    HW1 5669   2.123   0.638   6.015
 1590SOL    HW2 5670   2.162   0.642   5.857
 1591SOL     OW 5671   0.745   4.690   1.654
 1591SOL    HW1 5672   0.806   4.631   1.707
 1591SOL    HW2 5673   0.778   4.696   1.560
 1592SOL     OW 5674   3.298   3.419   2.574
 1592SOL    HW1 5675   3.212   3.469   2.589
 1592SOL    HW2 5676   3.304   3.344   2.641
 1593SOL     OW 5677   0.880   5.361   5.607
 1593SOL    HW1 5678   0.845   5.272   5.579
 1593SOL    HW2 5679   0.919   5.408   5.528
 1594SOL     OW 5680   6.437   5.398   3.254
 1594SOL    HW1 5681   6.467   5.416   3.348
 1594SOL    HW2 5682   6.342   5.426   3.244
 1595SOL     OW 5683   6.932   4.379   5.826
 1595SOL    HW1 5684   6.975   4.457   5.780
 1595SOL    HW2 5685   6.863   4.339   5.765
 1596SOL     OW 5686   2.788   5.245   6.773
 1596SOL    HW1 5687   2.861   5.312   6.757
 1596SOL    HW2 5688   2.825   5.153   6.757
 1597SOL     OW 5689   2.708   0.210   1.327
 1597SOL    HW1 5690   2.635   0.270   1.292
 1597SOL    HW2 5691   2.678   0.169   1.413
 1598SOL     OW 5692   0.425   5.367   1.581
 1598SOL    HW1 5693   0.464   5.323   1.501
 1598SOL    HW2 5694   0.325   5.363   1.577
 1599SOL     OW 5695   3.546   4.941   6.937
 1599SOL    HW1 5696   3.557   4.842   6.951
 1599SOL    HW2 5697   3.476   4.975   7.000
 1600SOL     OW 5698   4.039   1.148   4.487
 1600SOL    HW1 5699   4.120   1.162   4.430
 1600SOL    HW2 5700   3.982   1.230   4.483
 1601SOL     OW 5701   0.710   5.255   4.063
 1601SOL    HW1 5702   0.762   5.245   4.148
 1601SOL    HW2 5703   0.771   5.240   3.985
 1602SOL     OW 5704   0.960   4.718   3.823
 1602SOL    HW1 5705   0.885   4.659   3.851
 1602SOL    HW2 5706   1.041   4.697   3.877
 1603SOL     OW 5707   6.677   6.866   1.204
 1603SOL    HW1 5708   6.694   6.837   1.298
 1603SOL    HW2 5709   6.607   6.808   1.163
 1604SOL     OW 5710   0.468   5.306   5.671
 1604SOL    HW1 5711   0.371   5.317   5.692
 1604SOL    HW2 5712   0.491   5.358   5.589
 1605SOL     OW 5713   5.166   6.385   3.196
 1605SOL    HW1 5714   5.103   6.352   3.126
 1605SOL    HW2 5715   5.225   6.457   3.157
 1606SOL     OW 5716   4.958   6.716   6.221
 1606SOL    HW1 5717   4.940   6.812   6.246
 1606SOL    HW2 5718   4.970   6.709   6.122
 1607SOL     OW 5719   3.865   2.297   1.000
 1607SOL    HW1 5720   3.850   2.213   1.052
 1607SOL    HW2 5721   3.792   2.307   0.932
 1608SOL     OW 5722   2.775   0.218   1.036
 1608SOL    HW1 5723   2.734   0.143   0.984
 1608SOL    HW2 5724   2.771   0.196   1.134
 1609SOL     OW 5725   4.771   1.716   5.482
 1609SOL    HW1 5726   4.735   1.798   5.437
 1609SOL    HW2 5727   4.704   1.681   5.548
 1610SOL     OW 5728   5.997   5.584   4.446
 1610SOL    HW1 5729   5.939   5.652   4.492
 1610SOL    HW2 5730   5.945   5.537   4.376
 1611SOL     OW 5731   2.659   3.390   1.254
 1611SOL    HW1 5732   2.592   3.427   1.319
 1611SOL    HW2 5733   2.703   3.466   1.205
 1612SOL     OW 5734   3.661   1.037   4.022
 1612SOL    HW1 5735   3.597   1.099   3.978
 1612SOL    HW2 5736   3.676   0.957   3.963
 1613SOL     OW 5737   1.686   6.079   0.787
 1613SOL    HW1 5738   1.609   6.090   0.725
 1613SOL    HW2 5739   1.757   6.025   0.743
 1614SOL     OW 5740   6.944   2.475   0.015
 1614SOL    HW1 5741   6.976   2.506   0.104
 1614SOL    HW2 5742   6.979   2.383   7.019
 1615SOL     OW 5743   6.553   4.864   6.403
 1615SOL    HW1 5744   6.493   4.897   6.475
 1615SOL    HW2 5745   6.608   4.788   6.437
 1616SOL     OW 5746   2.700   1.883   5.440
 1616SOL    HW1 5747   2.609   1.878   5.401
 1616SOL    HW2 5748   2.765   1.833   5.382
 1617SOL     OW 5749   4.377   0.717   3.987
 1617SOL    HW1 5750   4.295   0.774   3.989
 1617SOL    HW2 5751   4.391   0.675   4.077
 1618SOL     OW 5752   5.578   2.553   0.749
 1618SOL    HW1 5753   5.510   2.618   0.785
 1618SOL    HW2 5754   5.539   2.504   0.672
 1619SOL     OW 5755   1.620   3.348   4.567
 1619SOL    HW1 5756   1.709   3.387   4.590
 1619SOL    HW2 5757   1.617   3.252   4.596
 1620SOL     OW 5758   3.729   5.309   1.268
 1620SOL    HW1 5759   3.656   5.259   1.221
 1620SOL    HW2 5760   3.753   5.261   1.352
 1621SOL     OW 5761   1.599   1.105   1.838
 1621SOL    HW1 5762   1.579   1.007   1.833
 1621SOL    HW2 5763   1.524   1.157   1.797
 1622SOL     OW 5764   2.110   1.932   3.985
 1622SOL    HW1 5765   2.016   1.968   3.990
 1622SOL    HW2 5766   2.115   1.847   4.036
 1623SOL     OW 5767   2.961   2.173   4.898
 1623SOL    HW1 5768   2.921   2.208   4.813
 1623SOL    HW2 5769   3.016   2.246   4.941
 1624SOL     OW 5770   2.387   0.471   0.170
 1624SOL    HW1 5771   2.379   0.499   0.266
 1624SOL    HW2 5772   2.467   0.412   0.160
 1625SOL     OW 5773   6.993   5.574   2.105
 1625SOL    HW1 5774   0.040   5.501   2.113
 1625SOL    HW2 5775   7.020   5.652   2.161
 1626SOL     OW 5776   2.105   2.284   6.146
 1626SOL    HW1 5777   2.155   2.246   6.068
 1626SOL    HW2 5778   2.010   2.299   6.120
 1627SOL     OW 5779   5.202   3.240   4.093
 1627SOL    HW1 5780   5.261   3.307   4.047
 1627SOL    HW2 5781   5.248   3.207   4.176
 1628SOL     OW 5782   2.911   2.912   0.327
 1628SOL    HW1 5783   2.852   2.893   0.405
 1628SOL    HW2 5784   2.897   3.007   0.298
 1629SOL     OW 5785   4.673   2.463   3.727
 1629SOL    HW1 5786   4.670   2.391   3.658
 1629SOL    HW2 5787   4.743   2.530   3.703
 1630SOL     OW 5788   6.764   5.066   4.380
 1630SOL    HW1 5789   6.721   4.983   4.344
 1630SOL    HW2 5790   6.797   5.049   4.473
 1631SOL     OW 5791   0.727   6.675   5.685
 1631SOL    HW1 5792   0.762   6.584   5.663
 1631SOL    HW2 5793   0.677   6.671   5.772
 1632SOL     OW 5794   6.140   0.508   1.930
 1632SOL    HW1 5795   6.086   0.482   1.851
 1632SOL    HW2 5796   6.103   0.464   2.012
 1633SOL     OW 5797   5.422   3.002   3.646
 1633SOL    HW1 5798   5.518   3.028   3.632
 1633SOL    HW2 5799   5.371   3.082   3.678
 1634SOL     OW 5800   3.629   0.664   6.537
 1634SOL    HW1 5801   3.547   0.648   6.593
 1634SOL    HW2 5802   3.677   0.744   6.571
 1635SOL     OW 5803   0.605   5.505   3.997
 1635SOL    HW1 5804   0.633   5.415   4.031
 1635SOL    HW2 5805   0.680   5.545   3.944
 1636SOL     OW 5806   1.997   5.866   1.262
 1636SOL    HW1 5807   2.065   5.800   1.295
 1636SOL    HW2 5808   1.944   5.825   1.188
 1637SOL     OW 5809   0.204   3.082   2.575
 1637SOL    HW1 5810   0.146   3.054   2.652
 1637SOL    HW2 5811   0.164   3.050   2.489
 1638SOL     OW 5812   1.744   2.924   5.100
 1638SOL    HW1 5813   1.836   2.962   5.091
 1638SOL    HW2 5814   1.709   2.945   5.191
 1639SOL     OW 5815   4.967   4.648   2.589
 1639SOL    HW1 5816   4.921   4.723   2.636
 1639SOL    HW2 5817   4.915   4.623   2.507
 1640SOL     OW 5818   6.178   0.292   1.465
 1640SOL    HW1 5819   6.264   0.340   1.447
 1640SOL    HW2 5820   6.194   0.193   1.464
 1641SOL     OW 5821   6.380   2.697   5.199
 1641SOL    HW1 5822   6.314   2.702   5.274
 1641SOL    HW2 5823   6.357   2.619   5.140
 1642SOL     OW 5824   0.688   2.182   1.884
 1642SOL    HW1 5825   0.775   2.169   1.836
 1642SOL    HW2 5826   0.707   2.212   1.978
 1643SOL     OW 5827   4.279   0.674   5.342
 1643SOL    HW1 5828   4.375   0.702   5.352
 1643SOL    HW2 5829   4.228   0.748   5.298
 1644SOL     OW 5830   3.168   0.846   1.189
 1644SOL    HW1 5831   3.095   0.812   1.128
 1644SOL    HW2 5832   3.251   0.793   1.173
 1645SOL     OW 5833   2.030   6.758   6.354
 1645SOL    HW1 5834   2.001   6.669   6.320
 1645SOL    HW2 5835   2.102   6.795   6.296
 1646SOL     OW 5836   1.142   3.721   1.013
 1646SOL    HW1 5837   1.173   3.681   0.926
 1646SOL    HW2 5838   1.221   3.749   1.067
 1647SOL     OW 5839   6.147   2.804   3.721
 1647SOL    HW1 5840   6.247   2.806   3.716
 1647SOL    HW2 5841   6.108   2.823   3.631
 1648SOL     OW 5842   4.173   6.676   2.414
 1648SOL    HW1 5843   4.194   6.680   2.316
 1648SOL    HW2 5844   4.085   6.632   2.427
 1649SOL     OW 5845   3.371   0.687   2.991
 1649SOL    HW1 5846   3.388   0.785   3.003
 1649SOL    HW2 5847   3.277   0.672   2.962
 1650SOL     OW 5848   2.773   6.343   3.820
 1650SOL    HW1 5849   2.702   6.413   3.817
 1650SOL    HW2 5850   2.744   6.269   3.882
 1651SOL     OW 5851   1.431   6.923   0.930
 1651SOL    HW1 5852   1.408   6.911   1.027
 1651SOL    HW2 5853   1.528   6.906   0.917
 1652SOL     OW 5854   2.763   2.980   1.490
 1652SOL    HW1 5855   2.862   2.979   1.477
 1652SOL    HW2 5856   2.730   2.887   1.500
 1653SOL     OW 5857   1.102   5.122   0.737
 1653SOL    HW1 5858   1.095   5.180   0.819
 1653SOL    HW2 5859   1.024   5.138   0.678
 1654SOL     OW 5860   6.919   2.850   3.171
 1654SOL    HW1 5861   6.837   2.818   3.218
 1654SOL    HW2 5862   6.995   2.789   3.192
 1655SOL     OW 5863   4.629   4.883   5.743
 1655SOL    HW1 5864   4.593   4.906   5.833
 1655SOL    HW2 5865   4.697   4.810   5.752
 1656SOL     OW 5866   0.796   4.407   3.415
 1656SOL    HW1 5867   0.704   4.372   3.433
 1656SOL    HW2 5868   0.841   4.350   3.347
 1657SOL     OW 5869   1.217   0.350   5.929
 1657SOL    HW1 5870   1.163   0.396   5.858
 1657SOL    HW2 5871   1.207   0.251   5.921
 1658SOL     OW 5872   6.325   6.226   2.992
 1658SOL    HW1 5873   6.282   6.306   2.950
 1658SOL    HW2 5874   6.282   6.142   2.959
 1659SOL     OW 5875   4.193   2.192   5.667
 1659SOL    HW1 5876   4.107   2.166   5.622
 1659SOL    HW2 5877   4.172   2.246   5.749
 1660SOL     OW 5878   1.698   5.645   3.039
 1660SOL    HW1 5879   1.715   5.664   2.942
 1660SOL    HW2 5880   1.601   5.625   3.053
 1661SOL     OW 5881   2.702   0.136   2.452
 1661SOL    HW1 5882   2.717   0.089   2.365
 1661SOL    HW2 5883   2.700   0.235   2.437
 1662SOL     OW 5884   0.821   0.426   3.600
 1662SOL    HW1 5885   0.768   0.488   3.657
 1662SOL    HW2 5886   0.759   0.369   3.546
 1663SOL     OW 5887   3.051   0.028   3.425
 1663SOL    HW1 5888   3.028   0.023   3.522
 1663SOL    HW2 5889   3.059   6.956   3.388
 1664SOL     OW 5890   2.115   5.924   4.831
 1664SOL    HW1 5891   2.205   5.967   4.839
 1664SOL    HW2 5892   2.101   5.892   4.738
 1665SOL     OW 5893   0.440   6.592   5.147
 1665SOL    HW1 5894   0.367   6.613   5.212
 1665SOL    HW2 5895   0.508   6.665   5.149
 1666SOL     OW 5896   6.068   2.883   6.130
 1666SOL    HW1 5897   6.001   2.809   6.124
 1666SOL    HW2 5898   6.094   2.897   6.225
 1667SOL     OW 5899   6.686   0.605   6.510
 1667SOL    HW1 5900   6.673   0.522   6.564
 1667SOL    HW2 5901   6.764   0.593   6.449
 1668SOL     OW 5902   3.537   1.028   5.066
 1668SOL    HW1 5903   3.532   0.995   5.161
 1668SOL    HW2 5904   3.556   1.126   5.066
 1669SOL     OW 5905   6.025   6.938   6.574
 1669SOL    HW1 5906   5.983   6.960   6.485
 1669SOL    HW2 5907   6.052   0.002   6.619
 1670SOL     OW 5908   5.593   4.411   5.679
 1670SOL    HW1 5909   5.584   4.491   5.738
 1670SOL    HW2 5910   5.629   4.334   5.732
 1671SOL     OW 5911   5.370   4.025   0.094
 1671SOL    HW1 5912   5.280   4.036   0.138
 1671SOL    HW2 5913   5.408   4.114   0.072
 1672SOL     OW 5914   1.894   5.511   2.527
 1672SOL    HW1 5915   1.880   5.499   2.429
 1672SOL    HW2 5916   1.973   5.571   2.543
 1673SOL     OW 5917   6.707   2.002   4.169
 1673SOL    HW1 5918   6.690   1.977   4.265
 1673SOL    HW2 5919   6.750   1.925   4.122
 1674SOL     OW 5920   0.935   4.789   6.392
 1674SOL    HW1 5921   0.844   4.783   6.352
 1674SOL    HW2 5922   1.003   4.798   6.319
 1675SOL     OW 5923   4.743   2.422   6.662
 1675SOL    HW1 5924   4.662   2.482   6.655
 1675SOL    HW2 5925   4.724   2.350   6.728
 1676SOL     OW 5926   1.839   0.779   3.260
 1676SOL    HW1 5927   1.878   0.726   3.335
 1676SOL    HW2 5928   1.827   0.720   3.180
 1677SOL     OW 5929   6.231   1.190   5.615
 1677SOL    HW1 5930   6.212   1.093   5.627
 1677SOL    HW2 5931   6.160   1.243   5.662
 1678SOL     OW 5932   5.712   6.776   1.378
 1678SOL    HW1 5933   5.651   6.770   1.299
 1678SOL    HW2 5934   5.658   6.789   1.461
 1679SOL     OW 5935   7.013   4.109   0.314
 1679SOL    HW1 5936   0.025   4.084   0.223
 1679SOL    HW2 5937   0.045   4.187   0.348
 1680SOL     OW 5938   0.997   1.923   4.672
 1680SOL    HW1 5939   1.046   1.856   4.728
 1680SOL    HW2 5940   1.023   2.015   4.699
 1681SOL     OW 5941   5.940   5.441   1.470
 1681SOL    HW1 5942   5.956   5.521   1.413
 1681SOL    HW2 5943   6.017   5.378   1.461
 1682SOL     OW 5944   6.580   3.423   5.358
 1682SOL    HW1 5945   6.589   3.339   5.411
 1682SOL    HW2 5946   6.532   3.491   5.413
 1683SOL     OW 5947   5.518   5.676   0.424
 1683SOL    HW1 5948   5.519   5.609   0.350
 1683SOL    HW2 5949   5.463   5.640   0.500
 1684SOL     OW 5950   0.659   5.806   4.578
 1684SOL    HW1 5951   0.680   5.708   4.578
 1684SOL    HW2 5952   0.645   5.837   4.484
 1685SOL     OW 5953   1.281   1.989   0.106
 1685SOL    HW1 5954   1.250   2.067   0.052
 1685SOL    HW2 5955   1.376   1.967   0.083
 1686SOL     OW 5956   1.685   6.249   6.798
 1686SOL    HW1 5957   1.588   6.249   6.823
 1686SOL    HW2 5958   1.713   6.155   6.776
 1687SOL     OW 5959   1.484   0.305   1.656
 1687SOL    HW1 5960   1.410   0.321   1.721
 1687SOL    HW2 5961   1.451   0.248   1.580
 1688SOL     OW 5962   0.782   1.376   3.288
 1688SOL    HW1 5963   0.831   1.318   3.353
 1688SOL    HW2 5964   0.846   1.437   3.242
 1689SOL     OW 5965   2.722   1.647   2.120
 1689SOL    HW1 5966   2.671   1.642   2.035
 1689SOL    HW2 5967   2.814   1.680   2.103
 1690SOL     OW 5968   0.752   2.243   0.989
 1690SOL    HW1 5969   0.717   2.195   0.909
 1690SOL    HW2 5970   0.827   2.191   1.029
 1691SOL     OW 5971   4.703   5.316   2.598
 1691SOL    HW1 5972   4.673   5.239   2.654
 1691SOL    HW2 5973   4.623   5.366   2.563
 1692SOL     OW 5974   1.495   1.122   3.913
 1692SOL    HW1 5975   1.571   1.069   3.875
 1692SOL    HW2 5976   1.435   1.061   3.965
 1693SOL     OW 5977   2.621   2.402   3.552
 1693SOL    HW1 5978   2.571   2.321   3.582
 1693SOL    HW2 5979   2.674   2.379   3.470
 1694SOL     OW 5980   4.613   6.228   5.864
 1694SOL    HW1 5981   4.575   6.191   5.949
 1694SOL    HW2 5982   4.567   6.186   5.786
 1695SOL     OW 5983   2.602   2.171   5.855
 1695SOL    HW1 5984   2.664   2.202   5.927
 1695SOL    HW2 5985   2.645   2.185   5.765
 1696SOL     OW 5986   3.593   5.530   0.763
 1696SOL    HW1 5987   3.615   5.624   0.791
 1696SOL    HW2 5988   3.579   5.528   0.664
 1697SOL     OW 5989   1.175   1.280   1.946
 1697SOL    HW1 5990   1.085   1.245   1.918
 1697SOL    HW2 5991   1.200   1.241   2.034
 1698SOL     OW 5992   5.096   1.989   0.776
 1698SOL    HW1 5993   5.063   2.077   0.811
 1698SOL    HW2 5994   5.195   1.985   0.784
 1699SOL     OW 5995   2.362   3.657   0.874
 1699SOL    HW1 5996   2.303   3.730   0.838
 1699SOL    HW2 5997   2.391   3.680   0.967
 1700SOL     OW 5998   6.429   3.186   4.591
 1700SOL    HW1 5999   6.503   3.120   4.603
 1700SOL    HW2 6000   6.356   3.167   4.657
 1701SOL     OW 6001   5.667   3.617   4.605
 1701SOL    HW1 6002   5.726   3.664   4.539
 1701SOL    HW2 6003   5.572   3.626   4.576
 1702SOL     OW 6004   4.731   2.601   0.905
 1702SOL    HW1 6005   4.824   2.578   0.933
 1702SOL    HW2 6006   4.700   2.683   0.954
 1703SOL     OW 6007   2.025   3.956   0.367
 1703SOL    HW1 6008   2.029   4.051   0.336
 1703SOL    HW2 6009   1.961   3.948   0.443
 1704SOL     OW 6010   1.087   1.022   1.674
 1704SOL    HW1 6011   1.173   0.979   1.648
 1704SOL    HW2 6012   1.071   1.009   1.771
 1705SOL     OW 6013   3.614   3.270   1.774
 1705SOL    HW1 6014   3.598   3.359   1.731
 1705SOL    HW2 6015   3.704   3.235   1.746
 1706SOL     OW 6016   3.239   0.827   6.762
 1706SOL    HW1 6017   3.276   0.897   6.823
 1706SOL    HW2 6018   3.202   0.871   6.680
 1707SOL     OW 6019   6.123   1.447   3.075
 1707SOL    HW1 6020   6.184   1.377   3.037
 1707SOL    HW2 6021   6.161   1.482   3.160
 1708SOL     OW 6022   0.208   4.631   2.349
 1708SOL    HW1 6023   0.161   4.681   2.422
 1708SOL    HW2 6024   0.204   4.684   2.265
 1709SOL     OW 6025   3.581   6.054   3.519
 1709SOL    HW1 6026   3.589   5.959   3.549
 1709SOL    HW2 6027   3.661   6.105   3.552
 1710SOL     OW 6028   6.650   5.875   3.716
 1710SOL    HW1 6029   6.580   5.941   3.689
 1710SOL    HW2 6030   6.671   5.815   3.639
 1711SOL     OW 6031   1.692   4.579   5.634
 1711SOL    HW1 6032   1.617   4.638   5.602
 1711SOL    HW2 6033   1.687   4.569   5.733
 1712SOL     OW 6034   1.490   5.045   1.026
 1712SOL    HW1 6035   1.394   5.074   1.025
 1712SOL    HW2 6036   1.546   5.116   0.983
 1713SOL     OW 6037   1.813   3.243   0.633
 1713SOL    HW1 6038   1.775   3.213   0.545
 1713SOL    HW2 6039   1.799   3.341   0.644
 1714SOL     OW 6040   3.903   1.501   0.547
 1714SOL    HW1 6041   3.885   1.424   0.485
 1714SOL    HW2 6042   3.916   1.466   0.640
 1715SOL     OW 6043   0.197   3.379   3.686
 1715SOL    HW1 6044   0.152   3.368   3.597
 1715SOL    HW2 6045   0.295   3.364   3.676
 1716SOL     OW 6046   0.626   6.857   0.178
 1716SOL    HW1 6047   0.671   6.855   0.267
 1716SOL    HW2 6048   0.695   6.849   0.106
 1717SOL     OW 6049   3.565   0.420   0.054
 1717SOL    HW1 6050   3.551   0.493   0.121
 1717SOL    HW2 6051   3.484   0.412   7.017
 1718SOL     OW 6052   1.050   4.846   5.021
 1718SOL    HW1 6053   0.953   4.842   5.046
 1718SOL    HW2 6054   1.105   4.816   5.100
 1719SOL     OW 6055   2.256   3.334   1.453
 1719SOL    HW1 6056   2.277   3.286   1.538
 1719SOL    HW2 6057   2.207   3.272   1.391
 1720SOL     OW 6058   6.743   1.651   1.414
 1720SOL    HW1 6059   6.784   1.647   1.505
 1720SOL    HW2 6060   6.788   1.722   1.360
 1721SOL     OW 6061   1.784   6.285   3.729
 1721SOL    HW1 6062   1.761   6.283   3.826
 1721SOL    HW2 6063   1.751   6.202   3.685
 1722SOL     OW 6064   5.649   6.693   1.860
 1722SOL    HW1 6065   5.553   6.681   1.884
 1722SOL    HW2 6066   5.678   6.786   1.883
 1723SOL     OW 6067   6.459   1.113   2.157
 1723SOL    HW1 6068   6.496   1.204   2.177
 1723SOL    HW2 6069   6.369   1.123   2.115
 1724SOL     OW 6070   4.931   0.577   0.280
 1724SOL    HW1 6071   4.982   0.651   0.325
 1724SOL    HW2 6072   4.862   0.542   0.344
 1725SOL     OW 6073   4.326   4.817   1.373
 1725SOL    HW1 6074   4.408   4.872   1.355
 1725SOL    HW2 6075   4.247   4.877   1.385
 1726SOL     OW 6076   0.391   4.851   4.725
 1726SOL    HW1 6077   0.317   4.916   4.745
 1726SOL    HW2 6078   0.382   4.771   4.785
 1727SOL     OW 6079   3.376   3.599   5.358
 1727SOL    HW1 6080   3.398   3.566   5.450
 1727SOL    HW2 6081   3.278   3.589   5.341
 1728SOL     OW 6082   4.641   4.315   3.292
 1728SOL    HW1 6083   4.637   4.333   3.193
 1728SOL    HW2 6084   4.577   4.375   3.339
 1729SOL     OW 6085   1.658   3.533   2.923
 1729SOL    HW1 6086   1.572   3.579   2.944
 1729SOL    HW2 6087   1.679   3.542   2.826
 1730SOL     OW 6088   5.719   2.381   5.096
 1730SOL    HW1 6089   5.642   2.324   5.123
 1730SOL    HW2 6090   5.737   2.369   4.999
 1731SOL     OW 6091   1.577   5.114   0.331
 1731SOL    HW1 6092   1.659   5.058   0.315
 1731SOL    HW2 6093   1.522   5.073   0.403
 1732SOL     OW 6094   0.304   4.591   0.282
 1732SOL    HW1 6095   0.320   4.653   0.205
 1732SOL    HW2 6096   0.344   4.630   0.365
 1733SOL     OW 6097   1.458   3.953   0.577
 1733SOL    HW1 6098   1.506   4.034   0.610
 1733SOL    HW2 6099   1.387   3.980   0.512
 1734SOL     OW 6100   5.080   3.205   0.670
 1734SOL    HW1 6101   5.010   3.277   0.667
 1734SOL    HW2 6102   5.088   3.170   0.763
 1735SOL     OW 6103   5.619   5.696   1.659
 1735SOL    HW1 6104   5.677   5.616   1.648
 1735SOL    HW2 6105   5.562   5.685   1.741
 1736SOL     OW 6106   3.247   3.951   0.643
 1736SOL    HW1 6107   3.178   3.896   0.690
 1736SOL    HW2 6108   3.291   3.896   0.573
 1737SOL     OW 6109   1.513   6.418   3.771
 1737SOL    HW1 6110   1.424   6.451   3.739
 1737SOL    HW2 6111   1.527   6.324   3.738
 1738SOL     OW 6112   1.350   2.627   1.960
 1738SOL    HW1 6113   1.281   2.576   1.908
 1738SOL    HW2 6114   1.411   2.674   1.897
 1739SOL     OW 6115   3.991   1.707   5.307
 1739SOL    HW1 6116   3.964   1.712   5.403
 1739SOL    HW2 6117   3.985   1.612   5.276
 1740SOL     OW 6118   1.064   1.190   6.070
 1740SOL    HW1 6119   1.057   1.231   5.979
 1740SOL    HW2 6120   1.110   1.253   6.132
 1741SOL     OW 6121   1.861   0.375   2.732
 1741SOL    HW1 6122   1.788   0.382   2.799
 1741SOL    HW2 6123   1.949   0.376   2.779
 1742SOL     OW 6124   5.765   0.451   4.571
 1742SOL    HW1 6125   5.727   0.522   4.511
 1742SOL    HW2 6126   5.708   0.369   4.566
 1743SOL     OW 6127   4.717   1.100   0.915
 1743SOL    HW1 6128   4.695   1.095   0.818
 1743SOL    HW2 6129   4.696   1.191   0.950
 1744SOL     OW 6130   2.909   0.841   1.609
 1744SOL    HW1 6131   2.877   0.747   1.622
 1744SOL    HW2 6132   2.926   0.857   1.512
 1745SOL     OW 6133   6.964   2.452   4.169
 1745SOL    HW1 6134   6.921   2.542   4.174
 1745SOL    HW2 6135   0.042   2.461   4.183
 1746SOL     OW 6136   3.393   0.234   5.653
 1746SOL    HW1 6137   3.317   0.298   5.663
 1746SOL    HW2 6138   3.434   0.218   5.743
 1747SOL     OW 6139   3.996   0.570   1.067
 1747SOL    HW1 6140   4.014   0.477   1.099
 1747SOL    HW2 6141   3.930   0.614   1.128
 1748SOL     OW 6142   5.815   2.060   1.881
 1748SOL    HW1 6143   5.812   2.156   1.907
 1748SOL    HW2 6144   5.728   2.034   1.838
 1749SOL     OW 6145   4.364   6.805   6.095
 1749SOL    HW1 6146   4.360   6.756   6.008
 1749SOL    HW2 6147   4.409   6.749   6.164
 1750SOL     OW 6148   5.100   0.570   3.785
 1750SOL    HW1 6149   5.195   0.540   3.788
 1750SOL    HW2 6150   5.061   0.551   3.695
 1751SOL     OW 6151   1.901   5.597   3.554
 1751SOL    HW1 6152   1.890   5.691   3.585
 1751SOL    HW2 6153   1.871   5.590   3.459
 1752SOL     OW 6154   6.211   2.501   0.310
 1752SOL    HW1 6155   6.196   2.424   0.248
 1752SOL    HW2 6156   6.173   2.480   0.400
 1753SOL     OW 6157   2.363   0.448   2.332
 1753SOL    HW1 6158   2.286   0.433   2.394
 1753SOL    HW2 6159   2.411   0.361   2.317
 1754SOL     OW 6160   3.849   2.953   0.724
 1754SOL    HW1 6161   3.872   2.855   0.718
 1754SOL    HW2 6162   3.859   2.983   0.819
 1755SOL     OW 6163   5.385   3.836   0.587
 1755SOL    HW1 6164   5.452   3.860   0.516
 1755SOL    HW2 6165   5.415   3.752   0.633
 1756SOL     OW 6166   6.282   5.739   4.315
 1756SOL    HW1 6167   6.263   5.780   4.404
 1756SOL    HW2 6168   6.378   5.755   4.291
 1757SOL     OW 6169   3.058   6.386   4.181
 1757SOL    HW1 6170   2.978   6.445   4.175
 1757SOL    HW2 6171   3.099   6.376   4.091
 1758SOL     OW 6172   2.437   1.026   3.540
 1758SOL    HW1 6173   2.494   1.080   3.477
 1758SOL    HW2 6174   2.469   0.932   3.542
 1759SOL     OW 6175   0.200   5.624   6.070
 1759SOL    HW1 6176   0.294   5.628   6.035
 1759SOL    HW2 6177   0.157   5.714   6.060
 1760SOL     OW 6178   5.513   0.678   2.630
 1760SOL    HW1 6179   5.468   0.588   2.636
 1760SOL    HW2 6180   5.596   0.678   2.686
 1761SOL     OW 6181   6.521   2.663   1.336
 1761SOL    HW1 6182   6.538   2.614   1.250
 1761SOL    HW2 6183   6.423   2.681   1.344
 1762SOL     OW 6184   6.052   2.006   6.266
 1762SOL    HW1 6185   6.008   1.943   6.330
 1762SOL    HW2 6186   6.063   2.095   6.310
 1763SOL     OW 6187   2.146   3.891   3.715
 1763SOL    HW1 6188   2.199   3.851   3.790
 1763SOL    HW2 6189   2.067   3.833   3.695
 1764SOL     OW 6190   6.518   2.919   3.949
 1764SOL    HW1 6191   6.444   2.905   4.016
 1764SOL    HW2 6192   6.595   2.963   3.994
 1765SOL     OW 6193   3.071   2.604   6.157
 1765SOL    HW1 6194   3.070   2.535   6.229
 1765SOL    HW2 6195   3.156   2.595   6.104
 1766SOL     OW 6196   5.314   3.445   5.097
 1766SOL    HW1 6197   5.302   3.457   5.196
 1766SOL    HW2 6198   5.395   3.389   5.079
 1767SOL     OW 6199   5.641   3.432   1.998
 1767SOL    HW1 6200   5.704   3.356   2.011
 1767SOL    HW2 6201   5.684   3.517   2.030
 1768SOL     OW 6202   5.690   6.518   4.303
 1768SOL    HW1 6203   5.781   6.559   4.309
 1768SOL    HW2 6204   5.629   6.562   4.369
 1769SOL     OW 6205   5.336   1.449   2.930
 1769SOL    HW1 6206   5.414   1.388   2.914
 1769SOL    HW2 6207   5.367   1.544   2.924
 1770SOL     OW 6208   2.685   5.440   5.071
 1770SOL    HW1 6209   2.726   5.366   5.017
 1770SOL    HW2 6210   2.741   5.522   5.064
 1771SOL     OW 6211   4.807   5.821   6.316
 1771SOL    HW1 6212   4.882   5.755   6.324
 1771SOL    HW2 6213   4.817   5.891   6.387
 1772SOL     OW 6214   3.076   6.793   2.777
 1772SOL    HW1 6215   3.017   6.866   2.743
 1772SOL    HW2 6216   3.092   6.807   2.875
 1773SOL     OW 6217   0.499   5.307   7.012
 1773SOL    HW1 6218   0.433   5.232   7.014
 1773SOL    HW2 6219   0.451   5.394   0.006
 1774SOL     OW 6220   3.736   5.344   1.739
 1774SOL    HW1 6221   3.824   5.392   1.742
 1774SOL    HW2 6222   3.740   5.264   1.798
 1775SOL     OW 6223   0.797   4.568   2.011
 1775SOL    HW1 6224   0.855   4.623   2.071
 1775SOL    HW2 6225   0.845   4.551   1.925
 1776SOL     OW 6226   2.502   5.681   4.944
 1776SOL    HW1 6227   2.570   5.618   4.983
 1776SOL    HW2 6228   2.549   5.757   4.900
 1777SOL     OW 6229   3.877   6.125   0.639
 1777SOL    HW1 6230   3.950   6.065   0.607
 1777SOL    HW2 6231   3.802   6.125   0.572
 1778SOL     OW 6232   5.463   3.592   5.645
 1778SOL    HW1 6233   5.529   3.631   5.709
 1778SOL    HW2 6234   5.430   3.662   5.583
 1779SOL     OW 6235   2.806   6.430   5.135
 1779SOL    HW1 6236   2.859   6.442   5.219
 1779SOL    HW2 6237   2.743   6.353   5.147
 1780SOL     OW 6238   3.269   3.195   6.531
 1780SOL    HW1 6239   3.173   3.177   6.511
 1780SOL    HW2 6240   3.275   3.268   6.598
 1781SOL     OW 6241   3.605   5.520   3.349
 1781SOL    HW1 6242   3.515   5.548   3.316
 1781SOL    HW2 6243   3.675   5.580   3.311
 1782SOL     OW 6244   3.770   1.736   3.932
 1782SOL    HW1 6245   3.807   1.692   4.014
 1782SOL    HW2 6246   3.807   1.690   3.851
 1783SOL     OW 6247   1.729   5.355   0.626
 1783SOL    HW1 6248   1.789   5.425   0.589
 1783SOL    HW2 6249   1.640   5.359   0.581
 1784SOL     OW 6250   3.589   6.549   5.142
 1784SOL    HW1 6251   3.538   6.631   5.168
 1784SOL    HW2 6252   3.687   6.571   5.137
 1785SOL     OW 6253   6.523   4.090   2.707
 1785SOL    HW1 6254   6.581   4.113   2.786
 1785SOL    HW2 6255   6.474   4.005   2.725
 1786SOL     OW 6256   3.259   2.491   1.320
 1786SOL    HW1 6257   3.207   2.555   1.263
 1786SOL    HW2 6258   3.259   2.401   1.277
 1787SOL     OW 6259   3.934   0.663   5.835
 1787SOL    HW1 6260   4.005   0.720   5.795
 1787SOL    HW2 6261   3.962   0.567   5.829
 1788SOL     OW 6262   1.883   4.947   5.219
 1788SOL    HW1 6263   1.910   4.864   5.171
 1788SOL    HW2 6264   1.948   5.021   5.198
 1789SOL     OW 6265   6.378   1.538   0.186
 1789SOL    HW1 6266   6.463   1.563   0.232
 1789SOL    HW2 6267   6.388   1.447   0.144
 1790SOL     OW 6268   3.925   6.766   3.411
 1790SOL    HW1 6269   3.837   6.786   3.368
 1790SOL    HW2 6270   3.910   6.711   3.494
 1791SOL     OW 6271   0.051   6.698   2.751
 1791SOL    HW1 6272   0.083   6.788   2.721
 1791SOL    HW2 6273   0.101   6.671   2.833
 1792SOL     OW 6274   1.147   2.954   4.733
 1792SOL    HW1 6275   1.191   2.944   4.644
 1792SOL    HW2 6276   1.193   3.026   4.785
 1793SOL     OW 6277   0.292   0.351   3.835
 1793SOL    HW1 6278   0.378   0.306   3.811
 1793SOL    HW2 6279   0.307   0.450   3.842
 1794SOL     OW 6280   4.311   5.454   5.997
 1794SOL    HW1 6281   4.219   5.416   6.005
 1794SOL    HW2 6282   4.367   5.393   5.941
 1795SOL     OW 6283   0.952   2.914   0.691
 1795SOL    HW1 6284   1.038   2.962   0.711
 1795SOL    HW2 6285   0.971   2.819   0.669
 1796SOL     OW 6286   3.577   0.844   6.155
 1796SOL    HW1 6287   3.541   0.932   6.124
 1796SOL    HW2 6288   3.614   0.794   6.077
 1797SOL     OW 6289   1.133   0.096   1.053
 1797SOL    HW1 6290   1.035   0.109   1.064
 1797SOL    HW2 6291   1.156   7.020   1.065
 1798SOL     OW 6292   5.014   2.411   3.176
 1798SOL    HW1 6293   4.949   2.482   3.150
 1798SOL    HW2 6294   5.062   2.439   3.259
 1799SOL     OW 6295   1.503   1.759   6.739
 1799SOL    HW1 6296   1.590   1.741   6.785
 1799SOL    HW2 6297   1.430   1.709   6.785
 1800SOL     OW 6298   4.121   5.086   1.620
 1800SOL    HW1 6299   4.202   5.098   1.677
 1800SOL    HW2 6300   4.041   5.070   1.677
 1801SOL     OW 6301   6.476   6.722   1.097
 1801SOL    HW1 6302   6.401   6.765   1.148
 1801SOL    HW2 6303   6.457   6.730   0.999
 1802SOL     OW 6304   5.373   5.790   4.058
 1802SOL    HW1 6305   5.315   5.803   3.978
 1802SOL    HW2 6306   5.374   5.874   4.112
 1803SOL     OW 6307   6.920   5.577   1.284
 1803SOL    HW1 6308   6.928   5.477   1.291
 1803SOL    HW2 6309   6.984   5.610   1.214
 1804SOL     OW 6310   3.010   3.343   4.889
 1804SOL    HW1 6311   3.004   3.270   4.957
 1804SOL    HW2 6312   2.986   3.307   4.799
 1805SOL     OW 6313   4.748   3.172   6.852
 1805SOL    HW1 6314   4.672   3.205   6.796
 1805SOL    HW2 6315   4.763   3.075   6.834
 1806SOL     OW 6316   0.325   6.570   1.719
 1806SOL    HW1 6317   0.288   6.580   1.627
 1806SOL    HW2 6318   0.361   6.477   1.731
 1807SOL     OW 6319   5.943   1.161   5.204
 1807SOL    HW1 6320   6.012   1.175   5.275
 1807SOL    HW2 6321   5.903   1.250   5.179
 1808SOL     OW 6322   1.809   5.005   4.091
 1808SOL    HW1 6323   1.840   5.076   4.155
 1808SOL    HW2 6324   1.813   4.916   4.137
 1809SOL     OW 6325   3.998   1.130   6.480
 1809SOL    HW1 6326   3.907   1.110   6.444
 1809SOL    HW2 6327   4.063   1.137   6.404
 1810SOL     OW 6328   2.963   6.226   3.002
 1810SOL    HW1 6329   2.978   6.187   3.092
 1810SOL    HW2 6330   2.868   6.211   2.973
 1811SOL     OW 6331   6.245   4.980   3.708
 1811SOL    HW1 6332   6.153   4.971   3.744
 1811SOL    HW2 6333   6.312   4.966   3.782
 1812SOL     OW 6334   4.106   5.166   6.278
 1812SOL    HW1 6335   4.193   5.172   6.326
 1812SOL    HW2 6336   4.103   5.233   6.204
 1813SOL     OW 6337   6.267   4.840   5.960
 1813SOL    HW1 6338   6.342   4.853   6.024
 1813SOL    HW2 6339   6.285   4.758   5.905
 1814SOL     OW 6340   4.539   6.582   2.113
 1814SOL    HW1 6341   4.576   6.614   2.200
 1814SOL    HW2 6342   4.507   6.488   2.123
 1815SOL     OW 6343   0.410   0.453   3.491
 1815SOL    HW1 6344   0.430   0.363   3.453
 1815SOL    HW2 6345   0.484   0.516   3.467
 1816SOL     OW 6346   0.711   4.293   0.350
 1816SOL    HW1 6347   0.759   4.229   0.291
 1816SOL    HW2 6348   0.613   4.274   0.349
 1817SOL     OW 6349   2.185   5.973   2.033
 1817SOL    HW1 6350   2.086   5.988   2.041
 1817SOL    HW2 6351   2.212   5.982   1.937
 1818SOL     OW 6352   2.219   1.176   3.195
 1818SOL    HW1 6353   2.140   1.223   3.156
 1818SOL    HW2 6354   2.302   1.230   3.177
 1819SOL     OW 6355   1.656   4.811   2.166
 1819SOL    HW1 6356   1.631   4.811   2.070
 1819SOL    HW2 6357   1.668   4.717   2.198
 1820SOL     OW 6358   4.551   0.214   2.693
 1820SOL    HW1 6359   4.607   0.131   2.695
 1820SOL    HW2 6360   4.601   0.289   2.734
 1821SOL     OW 6361   3.081   2.091   2.885
 1821SOL    HW1 6362   3.165   2.128   2.845
 1821SOL    HW2 6363   3.024   2.052   2.813
 1822SOL     OW 6364   3.258   3.254   1.777
 1822SOL    HW1 6365   3.258   3.251   1.877
 1822SOL    HW2 6366   3.259   3.160   1.741
 1823SOL     OW 6367   3.658   6.595   2.724
 1823SOL    HW1 6368   3.684   6.556   2.635
 1823SOL    HW2 6369   3.576   6.549   2.758
 1824SOL     OW 6370   5.069   2.582   1.314
 1824SOL    HW1 6371   5.055   2.498   1.261
 1824SOL    HW2 6372   4.992   2.644   1.300
 1825SOL     OW 6373   1.019   0.762   1.834
 1825SOL    HW1 6374   1.049   0.788   1.743
 1825SOL    HW2 6375   1.011   0.663   1.841
 1826SOL     OW 6376   3.718   6.487   6.760
 1826SOL    HW1 6377   3.749   6.405   6.711
 1826SOL    HW2 6378   3.744   6.479   6.856
 1827SOL     OW 6379   6.522   6.170   1.481
 1827SOL    HW1 6380   6.541   6.075   1.503
 1827SOL    HW2 6381   6.447   6.203   1.539
 1828SOL     OW 6382   1.417   2.258   6.615
 1828SOL    HW1 6383   1.440   2.286   6.522
 1828SOL    HW2 6384   1.499   2.263   6.672
 1829SOL     OW 6385   5.651   5.333   2.006
 1829SOL    HW1 6386   5.696   5.421   2.013
 1829SOL    HW2 6387   5.570   5.341   1.948
 1830SOL     OW 6388   4.953   6.440   3.961
 1830SOL    HW1 6389   4.905   6.471   3.879
 1830SOL    HW2 6390   5.009   6.360   3.939
 1831SOL     OW 6391   5.017   6.870   2.994
 1831SOL    HW1 6392   5.032   6.960   2.954
 1831SOL    HW2 6393   5.065   6.864   3.082
 1832SOL     OW 6394   4.656   2.825   0.633
 1832SOL    HW1 6395   4.698   2.916   0.632
 1832SOL    HW2 6396   4.585   2.822   0.704
 1833SOL     OW 6397   5.492   1.698   5.559
 1833SOL    HW1 6398   5.442   1.783   5.547
 1833SOL    HW2 6399   5.481   1.665   5.653
 1834SOL     OW 6400   2.943   3.259   0.568
 1834SOL    HW1 6401   2.896   3.170   0.574
 1834SOL    HW2 6402   2.887   3.329   0.612
 1835SOL     OW 6403   1.643   4.864   0.062
 1835SOL    HW1 6404   1.707   4.908   0.124
 1835SOL    HW2 6405   1.552   4.906   0.072
 1836SOL     OW 6406   0.483   6.394   0.754
 1836SOL    HW1 6407   0.460   6.296   0.756
 1836SOL    HW2 6408   0.574   6.408   0.793
 1837SOL     OW 6409   0.981   2.472   4.765
 1837SOL    HW1 6410   0.948   2.444   4.855
 1837SOL    HW2 6411   1.021   2.564   4.772
 1838SOL     OW 6412   6.626   2.221   4.098
 1838SOL    HW1 6413   6.612   2.213   3.999
 1838SOL    HW2 6414   6.656   2.133   4.135
 1839SOL     OW 6415   0.349   1.935   5.812
 1839SOL    HW1 6416   0.320   1.888   5.729
 1839SOL    HW2 6417   0.308   1.890   5.891
 1840SOL     OW 6418   1.765   5.314   1.086
 1840SOL    HW1 6419   1.703   5.313   1.008
 1840SOL    HW2 6420   1.790   5.220   1.110
 1841SOL     OW 6421   1.262   2.805   3.401
 1841SOL    HW1 6422   1.222   2.852   3.479
 1841SOL    HW2 6423   1.201   2.731   3.372
 1842SOL     OW 6424   0.704   4.640   0.075
 1842SOL    HW1 6425   0.701   4.559   0.016
 1842SOL    HW2 6426   0.712   4.611   0.170
 1843SOL     OW 6427   2.854   2.056   4.507
 1843SOL    HW1 6428   2.827   1.960   4.518
 1843SOL    HW2 6429   2.837   2.084   4.412
 1844SOL     OW 6430   4.862   3.163   3.755
 1844SOL    HW1 6431   4.941   3.143   3.697
 1844SOL    HW2 6432   4.842   3.260   3.751
 1845SOL     OW 6433   4.054   0.769   6.944
 1845SOL    HW1 6434   3.984   0.765   7.016
 1845SOL    HW2 6435   4.040   0.851   6.889
 1846SOL     OW 6436   3.418   1.221   5.801
 1846SOL    HW1 6437   3.360   1.144   5.825
 1846SOL    HW2 6438   3.369   1.306   5.817
 1847SOL     OW 6439   0.461   0.120   0.696
 1847SOL    HW1 6440   0.496   0.193   0.638
 1847SOL    HW2 6441   0.366   0.138   0.719
 1848SOL     OW 6442   2.589   6.826   2.228
 1848SOL    HW1 6443   2.595   6.810   2.129
 1848SOL    HW2 6444   2.515   6.770   2.266
 1849SOL     OW 6445   2.710   1.744   6.635
 1849SOL    HW1 6446   2.745   1.716   6.724
 1849SOL    HW2 6447   2.705   1.844   6.630
 1850SOL     OW 6448   5.835   2.324   2.321
 1850SOL    HW1 6449   5.909   2.328   2.388
 1850SOL    HW2 6450   5.748   2.343   2.366
 1851SOL     OW 6451   6.772   2.330   2.640
 1851SOL    HW1 6452   6.687   2.382   2.633
 1851SOL    HW2 6453   6.778   2.289   2.731
 1852SOL     OW 6454   4.959   2.935   0.351
 1852SOL    HW1 6455   5.040   2.935   0.409
 1852SOL    HW2 6456   4.923   2.842   0.344
 1853SOL     OW 6457   1.383   4.644   0.828
 1853SOL    HW1 6458   1.318   4.699   0.775
 1853SOL    HW2 6459   1.415   4.567   0.773
 1854SOL     OW 6460   2.478   5.493   4.571
 1854SOL    HW1 6461   2.403   5.463   4.630
 1854SOL    HW2 6462   2.495   5.591   4.586
 1855SOL     OW 6463   4.947   4.950   1.660
 1855SOL    HW1 6464   4.943   4.863   1.611
 1855SOL    HW2 6465   5.037   4.991   1.648
 1856SOL     OW 6466   4.867   2.166   5.442
 1856SOL    HW1 6467   4.824   2.241   5.493
 1856SOL    HW2 6468   4.966   2.172   5.452
 1857SOL     OW 6469   4.629   0.952   3.153
 1857SOL    HW1 6470   4.553   0.893   3.126
 1857SOL    HW2 6471   4.647   1.018   3.079
 1858SOL     OW 6472   4.896   3.662   3.439
 1858SOL    HW1 6473   4.900   3.564   3.456
 1858SOL    HW2 6474   4.869   3.710   3.523
 1859SOL     OW 6475   5.004   1.522   3.123
 1859SOL    HW1 6476   4.989   1.534   3.025
 1859SOL    HW2 6477   5.000   1.610   3.169
 1860SOL     OW 6478   5.208   1.385   4.513
 1860SOL    HW1 6479   5.290   1.330   4.494
 1860SOL    HW2 6480   5.193   1.389   4.611
 1861SOL     OW 6481   5.747   6.595   2.824
 1861SOL    HW1 6482   5.799   6.678   2.802
 1861SOL    HW2 6483   5.699   6.563   2.743
 1862SOL     OW 6484   2.194   1.558   0.137
 1862SOL    HW1 6485   2.151   1.581   0.224
 1862SOL    HW2 6486   2.127   1.567   0.063
 1863SOL     OW 6487   3.044   3.043   1.462
 1863SOL    HW1 6488   3.123   2.999   1.420
 1863SOL    HW2 6489   3.027   3.131   1.418
 1864SOL     OW 6490   1.512   6.574   4.015
 1864SOL    HW1 6491   1.447   6.544   4.085
 1864SOL    HW2 6492   1.515   6.507   3.941
 1865SOL     OW 6493   4.465   2.384   6.361
 1865SOL    HW1 6494   4.422   2.462   6.314
 1865SOL    HW2 6495   4.401   2.308   6.363
 1866SOL     OW 6496   4.428   5.367   2.854
 1866SOL    HW1 6497   4.495   5.306   2.897
 1866SOL    HW2 6498   4.367   5.313   2.796
 1867SOL     OW 6499   0.854   4.092   6.649
 1867SOL    HW1 6500   0.853   4.021   6.720
 1867SOL    HW2 6501   0.848   4.182   6.692
 1868SOL     OW 6502   6.120   4.058   5.496
 1868SOL    HW1 6503   6.022   4.038   5.494
 1868SOL    HW2 6504   6.170   3.972   5.502
 1869SOL     OW 6505   6.177   1.200   5.326
 1869SOL    HW1 6506   6.244   1.131   5.299
 1869SOL    HW2 6507   6.159   1.192   5.424
 1870SOL     OW 6508   1.857   5.575   4.361
 1870SOL    HW1 6509   1.940   5.553   4.412
 1870SOL    HW2 6510   1.855   5.522   4.276
 1871SOL     OW 6511   1.503   0.127   1.064
 1871SOL    HW1 6512   1.474   0.054   1.003
 1871SOL    HW2 6513   1.487   0.216   1.019
 1872SOL     OW 6514   2.295   4.582   6.956
 1872SOL    HW1 6515   2.373   4.644   6.960
 1872SOL    HW2 6516   2.272   4.550   0.028
 1873SOL     OW 6517   4.707   1.410   6.952
 1873SOL    HW1 6518   4.630   1.374   6.899
 1873SOL    HW2 6519   4.785   1.425   6.892
 1874SOL     OW 6520   1.206   2.215   2.616
 1874SOL    HW1 6521   1.201   2.309   2.650
 1874SOL    HW2 6522   1.231   2.216   2.519
 1875SOL     OW 6523   0.437   6.762   0.413
 1875SOL    HW1 6524   0.410   6.829   0.344
 1875SOL    HW2 6525   0.507   6.701   0.376
 1876SOL     OW 6526   2.581   0.168   4.244
 1876SOL    HW1 6527   2.547   0.224   4.168
 1876SOL    HW2 6528   2.677   0.189   4.260
 1877SOL     OW 6529   0.782   0.034   3.457
 1877SOL    HW1 6530   0.832   0.120   3.467
 1877SOL    HW2 6531   0.788   7.003   3.542
 1878SOL     OW 6532   6.575   2.304   5.569
 1878SOL    HW1 6533   6.481   2.271   5.576
 1878SOL    HW2 6534   6.600   2.313   5.473
 1879SOL     OW 6535   1.425   4.214   5.179
 1879SOL    HW1 6536   1.332   4.197   5.212
 1879SOL    HW2 6537   1.459   4.132   5.132
 1880SOL     OW 6538   6.186   0.605   5.799
 1880SOL    HW1 6539   6.232   0.585   5.712
 1880SOL    HW2 6540   6.090   0.626   5.781
 1881SOL     OW 6541   6.953   2.290   0.314
 1881SOL    HW1 6542   6.983   2.337   0.397
 1881SOL    HW2 6543   6.860   2.256   0.328
 1882SOL     OW 6544   0.674   4.804   6.248
 1882SOL    HW1 6545   0.656   4.764   6.158
 1882SOL    HW2 6546   0.590   4.804   6.302
 1883SOL     OW 6547   0.024   1.860   4.025
 1883SOL    HW1 6548   6.989   1.908   3.958
 1883SOL    HW2 6549   0.059   1.925   4.093
 1884SOL     OW 6550   0.437   2.626   1.085
 1884SOL    HW1 6551   0.432   2.726   1.074
 1884SOL    HW2 6552   0.424   2.603   1.181
 1885SOL     OW 6553   1.967   2.008   4.630
 1885SOL    HW1 6554   1.987   1.928   4.574
 1885SOL    HW2 6555   1.909   1.980   4.707
 1886SOL     OW 6556   1.361   6.519   3.349
 1886SOL    HW1 6557   1.340   6.597   3.289
 1886SOL    HW2 6558   1.456   6.491   3.335
 1887SOL     OW 6559   1.952   5.916   6.587
 1887SOL    HW1 6560   1.939   5.936   6.489
 1887SOL    HW2 6561   1.995   5.827   6.597
 1888SOL     OW 6562   2.885   1.068   1.759
 1888SOL    HW1 6563   2.905   1.132   1.684
 1888SOL    HW2 6564   2.876   0.976   1.722
 1889SOL     OW 6565   0.332   3.246   3.391
 1889SOL    HW1 6566   0.387   3.186   3.449
 1889SOL    HW2 6567   0.359   3.233   3.295
 1890SOL     OW 6568   0.234   5.861   3.424
 1890SOL    HW1 6569   0.180   5.844   3.506
 1890SOL    HW2 6570   0.176   5.906   3.355
 1891SOL     OW 6571   3.322   3.241   2.771
 1891SOL    HW1 6572   3.324   3.264   2.869
 1891SOL    HW2 6573   3.302   3.144   2.760
 1892SOL     OW 6574   0.590   0.837   2.589
 1892SOL    HW1 6575   0.686   0.831   2.619
 1892SOL    HW2 6576   0.585   0.818   2.491
 1893SOL     OW 6577   3.617   2.896   3.735
 1893SOL    HW1 6578   3.524   2.912   3.701
 1893SOL    HW2 6579   3.614   2.883   3.834
 1894SOL     OW 6580   2.887   3.546   3.900
 1894SOL    HW1 6581   2.890   3.537   4.000
 1894SOL    HW2 6582   2.792   3.560   3.871
 1895SOL     OW 6583   2.232   5.757   6.539
 1895SOL    HW1 6584   2.193   5.669   6.512
 1895SOL    HW2 6585   2.245   5.758   6.638
 1896SOL     OW 6586   5.379   2.594   0.956
 1896SOL    HW1 6587   5.309   2.663   0.972
 1896SOL    HW2 6588   5.385   2.533   1.035
 1897SOL     OW 6589   1.960   4.765   4.444
 1897SOL    HW1 6590   1.957   4.823   4.525
 1897SOL    HW2 6591   2.053   4.763   4.407
 1898SOL     OW 6592   1.322   6.186   3.444
 1898SOL    HW1 6593   1.229   6.194   3.478
 1898SOL    HW2 6594   1.385   6.175   3.520
 1899SOL     OW 6595   0.149   0.410   2.322
 1899SOL    HW1 6596   0.115   0.318   2.302
 1899SOL    HW2 6597   0.077   0.477   2.304
 1900SOL     OW 6598   2.505   6.856   0.099
 1900SOL    HW1 6599   2.463   6.825   0.014
 1900SOL    HW2 6600   2.442   6.919   0.145
 1901SOL     OW 6601   2.800   3.524   1.468
 1901SOL    HW1 6602   2.717   3.515   1.523
 1901SOL    HW2 6603   2.870   3.572   1.521
 1902SOL     OW 6604   1.148   6.858   4.263
 1902SOL    HW1 6605   1.086   6.790   4.301
 1902SOL    HW2 6606   1.098   6.944   4.249
 1903SOL     OW 6607   0.689   2.676   4.547
 1903SOL    HW1 6608   0.700   2.767   4.587
 1903SOL    HW2 6609   0.594   2.647   4.555
 1904SOL     OW 6610   5.403   5.593   2.261
 1904SOL    HW1 6611   5.432   5.684   2.290
 1904SOL    HW2 6612   5.307   5.596   2.233
 1905SOL     OW 6613   6.886   0.709   4.183
 1905SOL    HW1 6614   6.884   0.679   4.088
 1905SOL    HW2 6615   6.974   0.751   4.203
 1906SOL     OW 6616   1.620   0.000   5.514
 1906SOL    HW1 6617   1.683   7.017   5.592
 1906SOL    HW2 6618   1.621   0.092   5.475
 1907SOL     OW 6619   5.935   2.673   0.050
 1907SOL    HW1 6620   5.957   2.638   0.141
 1907SOL    HW2 6621   6.015   2.668   7.012
 1908SOL     OW 6622   3.335   1.126   1.191
 1908SOL    HW1 6623   3.285   1.055   1.140
 1908SOL    HW2 6624   3.430   1.098   1.204
 1909SOL     OW 6625   6.597   4.587   4.912
 1909SOL    HW1 6626   6.565   4.682   4.914
 1909SOL    HW2 6627   6.558   4.537   4.989
 1910SOL     OW 6628   6.841   6.374   5.841
 1910SOL    HW1 6629   6.878   6.383   5.749
 1910SOL    HW2 6630   6.751   6.418   5.846
 1911SOL     OW 6631   0.021   5.098   3.950
 1911SOL    HW1 6632   0.023   5.042   4.033
 1911SOL    HW2 6633   0.072   5.183   3.966
 1912SOL     OW 6634   2.669   5.214   1.878
 1912SOL    HW1 6635   2.658   5.238   1.974
 1912SOL    HW2 6636   2.754   5.163   1.866
 1913SOL     OW 6637   3.046   4.394   6.130
 1913SOL    HW1 6638   2.985   4.325   6.091
 1913SOL    HW2 6639   3.134   4.391   6.083
 1914SOL     OW 6640   2.171   4.905   6.163
 1914SOL    HW1 6641   2.194   4.872   6.254
 1914SOL    HW2 6642   2.072   4.911   6.154
 1915SOL     OW 6643   4.192   2.440   5.520
 1915SOL    HW1 6644   4.184   2.539   5.522
 1915SOL    HW2 6645   4.180   2.403   5.613
 1916SOL     OW 6646   4.414   0.706   2.041
 1916SOL    HW1 6647   4.463   0.621   2.057
 1916SOL    HW2 6648   4.478   0.783   2.042
 1917SOL     OW 6649   2.282   4.006   1.532
 1917SOL    HW1 6650   2.246   4.094   1.500
 1917SOL    HW2 6651   2.223   3.970   1.604
 1918SOL     OW 6652   5.461   2.874   3.917
 1918SOL    HW1 6653   5.421   2.917   3.836
 1918SOL    HW2 6654   5.387   2.844   3.978
 1919SOL     OW 6655   0.254   2.486   0.914
 1919SOL    HW1 6656   0.316   2.526   0.981
 1919SOL    HW2 6657   0.307   2.444   0.840
 1920SOL     OW 6658   5.029   2.659   0.668
 1920SOL    HW1 6659   5.058   2.754   0.675
 1920SOL    HW2 6660   4.971   2.635   0.746
 1921SOL     OW 6661   1.740   2.617   6.864
 1921SOL    HW1 6662   1.782   2.667   6.939
 1921SOL    HW2 6663   1.775   2.651   6.776
 1922SOL     OW 6664   3.513   3.234   2.268
 1922SOL    HW1 6665   3.504   3.137   2.292
 1922SOL    HW2 6666   3.557   3.282   2.344
 1923SOL     OW 6667   3.987   0.550   5.041
 1923SOL    HW1 6668   4.038   0.574   4.958
 1923SOL    HW2 6669   4.033   0.474   5.087
 1924SOL     OW 6670   4.252   0.662   0.221
 1924SOL    HW1 6671   4.350   0.647   0.232
 1924SOL    HW2 6672   4.236   0.709   0.134
 1925SOL     OW 6673   1.593   4.215   0.643
 1925SOL    HW1 6674   1.513   4.222   0.702
 1925SOL    HW2 6675   1.676   4.232   0.697
 1926SOL     OW 6676   3.448   0.300   2.327
 1926SOL    HW1 6677   3.432   0.207   2.362
 1926SOL    HW2 6678   3.489   0.295   2.236
 1927SOL     OW 6679   2.267   5.338   1.568
 1927SOL    HW1 6680   2.314   5.325   1.481
 1927SOL    HW2 6681   2.334   5.354   1.640
 1928SOL     OW 6682   5.096   4.420   3.436
 1928SOL    HW1 6683   5.077   4.326   3.464
 1928SOL    HW2 6684   5.014   4.460   3.397
 1929SOL     OW 6685   3.594   6.960   3.176
 1929SOL    HW1 6686   3.513   7.007   3.211
 1929SOL    HW2 6687   3.667   0.006   3.159
 1930SOL     OW 6688   4.311   3.011   7.010
 1930SOL    HW1 6689   4.304   2.937   0.056
 1930SOL    HW2 6690   4.380   2.987   6.941
 1931SOL     OW 6691   0.090   1.792   4.763
 1931SOL    HW1 6692   0.133   1.745   4.686
 1931SOL    HW2 6693   0.035   1.727   4.815
 1932SOL     OW 6694   4.216   2.218   1.794
 1932SOL    HW1 6695   4.288   2.273   1.837
 1932SOL    HW2 6696   4.128   2.239   1.838
 1933SOL     OW 6697   1.208   1.043   1.269
 1933SOL    HW1 6698   1.293   1.043   1.322
 1933SOL    HW2 6699   1.192   1.134   1.232
 1934SOL     OW 6700   0.243   0.636   0.025
 1934SOL    HW1 6701   0.187   0.572   6.993
 1934SOL    HW2 6702   0.187   0.681   0.094
 1935SOL     OW 6703   6.489   5.018   4.265
 1935SOL    HW1 6704   6.507   5.116   4.255
 1935SOL    HW2 6705   6.433   4.986   4.189
 1936SOL     OW 6706   4.822   2.747   5.696
 1936SOL    HW1 6707   4.759   2.678   5.660
 1936SOL    HW2 6708   4.797   2.837   5.659
 1937SOL     OW 6709   5.851   5.037   6.507
 1937SOL    HW1 6710   5.933   5.011   6.456
 1937SOL    HW2 6711   5.794   4.955   6.521
 1938SOL     OW 6712   6.994   3.180   6.229
 1938SOL    HW1 6713   0.053   3.172   6.289
 1938SOL    HW2 6714   6.957   3.273   6.234
 1939SOL     OW 6715   1.105   0.604   4.972
 1939SOL    HW1 6716   1.203   0.618   4.987
 1939SOL    HW2 6717   1.086   0.603   4.874
 1940SOL     OW 6718   6.794   5.005   0.521
 1940SOL    HW1 6719   6.812   4.907   0.524
 1940SOL    HW2 6720   6.707   5.024   0.568
 1941SOL     OW 6721   5.555   1.838   4.554
 1941SOL    HW1 6722   5.593   1.905   4.490
 1941SOL    HW2 6723   5.594   1.748   4.534
 1942SOL     OW 6724   6.326   3.899   2.716
 1942SOL    HW1 6725   6.262   3.884   2.641
 1942SOL    HW2 6726   6.275   3.913   2.801
 1943SOL     OW 6727   0.991   2.014   2.645
 1943SOL    HW1 6728   1.071   2.067   2.616
 1943SOL    HW2 6729   1.014   1.962   2.727
 1944SOL     OW 6730   6.968   2.209   3.358
 1944SOL    HW1 6731   6.900   2.283   3.363
 1944SOL    HW2 6732   0.009   2.217   3.437
 1945SOL     OW 6733   4.729   1.525   1.747
 1945SOL    HW1 6734   4.758   1.466   1.822
 1945SOL    HW2 6735   4.676   1.472   1.681
 1946SOL     OW 6736   6.251   4.986   0.810
 1946SOL    HW1 6737   6.293   5.076   0.820
 1946SOL    HW2 6738   6.237   4.945   0.900
 1947SOL     OW 6739   6.519   4.567   3.558
 1947SOL    HW1 6740   6.606   4.534   3.521
 1947SOL    HW2 6741   6.515   4.666   3.550
 1948SOL     OW 6742   5.039   3.526   3.154
 1948SOL    HW1 6743   5.028   3.614   3.200
 1948SOL    HW2 6744   5.133   3.495   3.165
 1949SOL     OW 6745   3.369   5.108   0.034
 1949SOL    HW1 6746   3.269   5.114   0.021
 1949SOL    HW2 6747   3.397   5.171   0.106
 1950SOL     OW 6748   3.225   3.821   3.076
 1950SOL    HW1 6749   3.185   3.910   3.097
 1950SOL    HW2 6750   3.179   3.750   3.129
 1951SOL     OW 6751   6.272   4.737   5.069
 1951SOL    HW1 6752   6.357   4.716   5.118
 1951SOL    HW2 6753   6.200   4.760   5.134
 1952SOL     OW 6754   6.111   5.352   0.519
 1952SOL    HW1 6755   6.108   5.450   0.538
 1952SOL    HW2 6756   6.084   5.301   0.601
 1953SOL     OW 6757   0.609   1.248   6.901
 1953SOL    HW1 6758   0.604   1.328   6.841
 1953SOL    HW2 6759   0.698   1.204   6.889
 1954SOL     OW 6760   4.311   6.965   2.201
 1954SOL    HW1 6761   4.351   7.011   2.280
 1954SOL    HW2 6762   4.367   6.981   2.120
 1955SOL     OW 6763   0.127   2.039   3.522
 1955SOL    HW1 6764   0.033   2.020   3.550
 1955SOL    HW2 6765   0.186   1.962   3.546
 1956SOL     OW 6766   5.766   0.199   2.130
 1956SOL    HW1 6767   5.701   0.270   2.153
 1956SOL    HW2 6768   5.717   0.115   2.105
 1957SOL     OW 6769   5.805   2.246   4.757
 1957SOL    HW1 6770   5.885   2.197   4.724
 1957SOL    HW2 6771   5.728   2.182   4.767
 1958SOL     OW 6772   4.351   1.977   0.406
 1958SOL    HW1 6773   4.397   1.897   0.370
 1958SOL    HW2 6774   4.299   2.022   0.333
 1959SOL     OW 6775   0.802   1.390   5.346
 1959SOL    HW1 6776   0.710   1.352   5.338
 1959SOL    HW2 6777   0.798   1.489   5.335
 1960SOL     OW 6778   5.641   4.198   4.099
 1960SOL    HW1 6779   5.724   4.194   4.043
 1960SOL    HW2 6780   5.653   4.265   4.172
 1961SOL     OW 6781   0.423   3.554   4.164
 1961SOL    HW1 6782   0.478   3.618   4.110
 1961SOL    HW2 6783   0.327   3.565   4.141
 1962SOL     OW 6784   0.899   0.633   3.044
 1962SOL    HW1 6785   0.965   0.692   2.998
 1962SOL    HW2 6786   0.831   0.690   3.091
 1963SOL     OW 6787   0.407   2.775   0.772
 1963SOL    HW1 6788   0.383   2.756   0.867
 1963SOL    HW2 6789   0.485   2.718   0.745
 1964SOL     OW 6790   5.930   3.655   1.097
 1964SOL    HW1 6791   5.869   3.581   1.126
 1964SOL    HW2 6792   6.018   3.645   1.142
 1965SOL     OW 6793   6.761   4.003   3.865
 1965SOL    HW1 6794   6.714   4.089   3.842
 1965SOL    HW2 6795   6.694   3.936   3.897
 1966SOL     OW 6796   1.379   4.945   0.120
 1966SOL    HW1 6797   1.365   4.966   0.217
 1966SOL    HW2 6798   1.298   4.972   0.068
 1967SOL     OW 6799   6.164   3.126   3.724
 1967SOL    HW1 6800   6.132   3.150   3.815
 1967SOL    HW2 6801   6.156   3.027   3.710
 1968SOL     OW 6802   2.571   1.521   4.922
 1968SOL    HW1 6803   2.656   1.538   4.972
 1968SOL    HW2 6804   2.514   1.603   4.926
 1969SOL     OW 6805   2.063   6.177   0.601
 1969SOL    HW1 6806   2.042   6.208   0.508
 1969SOL    HW2 6807   2.161   6.186   0.618
 1970SOL     OW 6808   5.582   5.270   4.736
 1970SOL    HW1 6809   5.553   5.351   4.787
 1970SOL    HW2 6810   5.537   5.189   4.773
 1971SOL     OW 6811   1.770   5.220   5.008
 1971SOL    HW1 6812   1.706   5.145   5.026
 1971SOL    HW2 6813   1.823   5.239   5.091
 1972SOL     OW 6814   5.967   2.697   2.519
 1972SOL    HW1 6815   6.013   2.779   2.484
 1972SOL    HW2 6816   5.956   2.632   2.444
 1973SOL     OW 6817   2.335   2.824   0.785
 1973SOL    HW1 6818   2.346   2.848   0.688
 1973SOL    HW2 6819   2.420   2.786   0.820
 1974SOL     OW 6820   2.346   6.050   4.878
 1974SOL    HW1 6821   2.393   6.032   4.964
 1974SOL    HW2 6822   2.412   6.047   4.803
 1975SOL     OW 6823   1.947   2.591   3.388
 1975SOL    HW1 6824   1.928   2.681   3.350
 1975SOL    HW2 6825   2.015   2.543   3.332
 1976SOL     OW 6826   0.581   0.211   5.828
 1976SOL    HW1 6827   0.618   0.119   5.842
 1976SOL    HW2 6828   0.505   0.226   5.892
 1977SOL     OW 6829   2.002   4.802   5.599
 1977SOL    HW1 6830   1.984   4.758   5.687
 1977SOL    HW2 6831   1.958   4.892   5.598
 1978SOL     OW 6832   3.029   0.094   1.608
 1978SOL    HW1 6833   2.944   0.132   1.643
 1978SOL    HW2 6834   3.099   0.097   1.679
 1979SOL     OW 6835   6.500   4.872   6.138
 1979SOL    HW1 6836   6.533   4.859   6.232
 1979SOL    HW2 6837   6.577   4.892   6.078
 1980SOL     OW 6838   3.606   1.344   0.936
 1980SOL    HW1 6839   3.533   1.396   0.892
 1980SOL    HW2 6840   3.619   1.378   1.029
 1981SOL     OW 6841   3.489   2.115   3.038
 1981SOL    HW1 6842   3.544   2.033   3.053
 1981SOL    HW2 6843   3.442   2.139   3.123
 1982SOL     OW 6844   0.911   2.902   5.142
 1982SOL    HW1 6845   0.870   2.887   5.052
 1982SOL    HW2 6846   0.875   2.836   5.207
 1983SOL     OW 6847   0.297   0.518   2.130
 1983SOL    HW1 6848   0.391   0.512   2.164
 1983SOL    HW2 6849   0.237   0.463   2.188
 1984SOL     OW 6850   4.616   2.811   5.892
 1984SOL    HW1 6851   4.689   2.784   5.829
 1984SOL    HW2 6852   4.604   2.910   5.889
 1985SOL     OW 6853   6.373   3.153   2.638
 1985SOL    HW1 6854   6.331   3.135   2.549
 1985SOL    HW2 6855   6.448   3.218   2.627
 1986SOL     OW 6856   3.877   2.969   2.210
 1986SOL    HW1 6857   3.891   2.877   2.172
 1986SOL    HW2 6858   3.902   3.038   2.142
 1987SOL     OW 6859   2.760   1.548   0.702
 1987SOL    HW1 6860   2.849   1.567   0.744
 1987SOL    HW2 6861   2.744   1.449   0.702
 1988SOL     OW 6862   0.240   2.408   1.727
 1988SOL    HW1 6863   0.231   2.373   1.634
 1988SOL    HW2 6864   0.284   2.339   1.784
 1989SOL     OW 6865   3.041   4.840   4.468
 1989SOL    HW1 6866   2.944   4.819   4.482
 1989SOL    HW2 6867   3.060   4.845   4.370
 1990SOL     OW 6868   4.168   0.766   0.446
 1990SOL    HW1 6869   4.193   0.728   0.357
 1990SOL    HW2 6870   4.116   0.698   0.497
 1991SOL     OW 6871   2.769   5.063   0.919
 1991SOL    HW1 6872   2.777   5.016   0.832
 1991SOL    HW2 6873   2.806   5.156   0.911
 1992SOL     OW 6874   0.503   6.373   2.124
 1992SOL    HW1 6875   0.580   6.415   2.173
 1992SOL    HW2 6876   0.520   6.376   2.026
 1993SOL     OW 6877   2.166   2.512   2.898
 1993SOL    HW1 6878   2.156   2.412   2.899
 1993SOL    HW2 6879   2.131   2.548   2.812
 1994SOL     OW 6880   3.290   2.893   1.352
 1994SOL    HW1 6881   3.385   2.863   1.347
 1994SOL    HW2 6882   3.233   2.831   1.298
 1995SOL     OW 6883   5.398   2.161   4.568
 1995SOL    HW1 6884   5.341   2.097   4.517
 1995SOL    HW2 6885   5.470   2.197   4.509
 1996SOL     OW 6886   4.143   1.194   1.232
 1996SOL    HW1 6887   4.073   1.136   1.190
 1996SOL    HW2 6888   4.221   1.138   1.258
 1997SOL     OW 6889   3.854   0.549   4.120
 1997SOL    HW1 6890   3.769   0.588   4.155
 1997SOL    HW2 6891   3.893   0.487   4.188
 1998SOL     OW 6892   2.019   3.510   1.531
 1998SOL    HW1 6893   1.952   3.445   1.496
 1998SOL    HW2 6894   2.031   3.495   1.630
 1999SOL     OW 6895   1.088   0.139   0.741
 1999SOL    HW1 6896   1.003   0.093   0.765
 1999SOL    HW2 6897   1.138   0.161   0.825
 2000SOL     OW 6898   4.096   4.335   5.836
 2000SOL    HW1 6899   4.044   4.328   5.751
 2000SOL    HW2 6900   4.095   4.429   5.869
 2001SOL     OW 6901   2.179   1.644   0.936
 2001SOL    HW1 6902   2.105   1.710   0.955
 2001SOL    HW2 6903   2.253   1.658   1.002
 2002SOL     OW 6904   0.063   5.354   0.328
 2002SOL    HW1 6905   0.099   5.444   0.352
 2002SOL    HW2 6906   7.004   5.334   0.385
 2003SOL     OW 6907   6.194   4.749   2.783
 2003SOL    HW1 6908   6.193   4.654   2.814
 2003SOL    HW2 6909   6.100   4.782   2.777
 2004SOL     OW 6910   3.908   6.930   3.054
 2004SOL    HW1 6911   3.958   6.942   3.140
 2004SOL    HW2 6912   3.973   6.910   2.980
 2005SOL     OW 6913   1.416   6.216   6.821
 2005SOL    HW1 6914   1.418   6.170   6.732
 2005SOL    HW2 6915   1.366   6.302   6.813
 2006SOL     OW 6916   5.659   6.010   2.100
 2006SOL    HW1 6917   5.565   5.989   2.075
 2006SOL    HW2 6918   5.721   5.975   2.030
 2007SOL     OW 6919   5.222   4.546   6.835
 2007SOL    HW1 6920   5.309   4.553   6.885
 2007SOL    HW2 6921   5.239   4.502   6.746
 2008SOL     OW 6922   1.993   3.109   3.550
 2008SOL    HW1 6923   1.942   3.024   3.552
 2008SOL    HW2 6924   2.030   3.124   3.458
 2009SOL     OW 6925   6.406   0.177   2.927
 2009SOL    HW1 6926   6.388   0.205   2.833
 2009SOL    HW2 6927   6.393   0.078   2.936
 2010SOL     OW 6928   0.314   2.330   1.474
 2010SOL    HW1 6929   0.298   2.404   1.410
 2010SOL    HW2 6930   0.362   2.255   1.428
 2011SOL     OW 6931   1.390   0.058   5.298
 2011SOL    HW1 6932   1.344   0.021   5.379
 2011SOL    HW2 6933   1.337   0.134   5.262
 2012SOL     OW 6934   1.247   3.124   1.919
 2012SOL    HW1 6935   1.338   3.087   1.937
 2012SOL    HW2 6936   1.241   3.217   1.954
 2013SOL     OW 6937   0.693   3.293   1.839
 2013SOL    HW1 6938   0.667   3.282   1.935
 2013SOL    HW2 6939   0.788   3.325   1.834
 2014SOL     OW 6940   4.041   0.756   4.688
 2014SOL    HW1 6941   4.116   0.765   4.622
 2014SOL    HW2 6942   4.013   0.661   4.694
 2015SOL     OW 6943   4.129   0.276   1.750
 2015SOL    HW1 6944   4.054   0.254   1.688
 2015SOL    HW2 6945   4.148   0.375   1.746
 2016SOL     OW 6946   1.796   0.594   4.698
 2016SOL    HW1 6947   1.879   0.551   4.664
 2016SOL    HW2 6948   1.816   0.642   4.783
 2017SOL     OW 6949   4.073   6.446   3.761
 2017SOL    HW1 6950   4.011   6.412   3.832
 2017SOL    HW2 6951   4.070   6.383   3.683
 2018SOL     OW 6952   1.061   0.706   4.357
 2018SOL    HW1 6953   1.117   0.720   4.275
 2018SOL    HW2 6954   1.061   0.610   4.381
 2019SOL     OW 6955   5.420   5.284   6.302
 2019SOL    HW1 6956   5.387   5.230   6.225
 2019SOL    HW2 6957   5.518   5.268   6.314
 2020SOL     OW 6958   2.015   6.469   0.382
 2020SOL    HW1 6959   2.006   6.558   0.338
 2020SOL    HW2 6960   2.112   6.444   0.387
 2021SOL     OW 6961   6.895   6.105   4.407
 2021SOL    HW1 6962   6.969   6.079   4.469
 2021SOL    HW2 6963   6.873   6.027   4.349
 2022SOL     OW 6964   2.175   3.788   4.528
 2022SOL    HW1 6965   2.213   3.695   4.529
 2022SOL    HW2 6966   2.146   3.813   4.620
 2023SOL     OW 6967   6.883   6.804   0.147
 2023SOL    HW1 6968   6.905   6.707   0.163
 2023SOL    HW2 6969   6.786   6.813   0.125
 2024SOL     OW 6970   0.642   6.119   4.025
 2024SOL    HW1 6971   0.669   6.023   4.022
 2024SOL    HW2 6972   0.626   6.146   4.120
 2025SOL     OW 6973   1.343   6.181   4.221
 2025SOL    HW1 6974   1.335   6.167   4.122
 2025SOL    HW2 6975   1.311   6.273   4.244
 2026SOL     OW 6976   0.383   0.356   6.209
 2026SOL    HW1 6977   0.458   0.385   6.268
 2026SOL    HW2 6978   0.328   0.435   6.183
 2027SOL     OW 6979   6.699   6.043   2.001
 2027SOL    HW1 6980   6.600   6.030   2.006
 2027SOL    HW2 6981   6.731   6.082   2.088
 2028SOL     OW 6982   3.205   5.496   4.684
 2028SOL    HW1 6983   3.238   5.472   4.776
 2028SOL    HW2 6984   3.133   5.433   4.658
 2029SOL     OW 6985   6.224   2.901   6.377
 2029SOL    HW1 6986   6.244   2.999   6.376
 2029SOL    HW2 6987   6.258   2.862   6.463
 2030SOL     OW 6988   1.984   6.970   1.994
 2030SOL    HW1 6989   1.983   6.995   2.091
 2030SOL    HW2 6990   1.973   6.871   1.984
 2031SOL     OW 6991   0.315   5.960   4.229
 2031SOL    HW1 6992   0.302   5.924   4.137
 2031SOL    HW2 6993   0.307   6.060   4.227
 2032SOL     OW 6994   2.402   2.473   5.759
 2032SOL    HW1 6995   2.423   2.486   5.856
 2032SOL    HW2 6996   2.372   2.379   5.744
 2033SOL     OW 6997   2.574   2.121   0.781
 2033SOL    HW1 6998   2.587   2.059   0.859
 2033SOL    HW2 6999   2.610   2.078   0.699
 2034SOL     OW 7000   0.518   3.780   4.855
 2034SOL    HW1 7001   0.433   3.740   4.821
 2034SOL    HW2 7002   0.548   3.731   4.936
 2035SOL     OW 7003   5.129   6.996   3.324
 2035SOL    HW1 7004   5.165   6.903   3.328
 2035SOL    HW2 7005   5.034   6.994   3.292
 2036SOL     OW 7006   0.587   5.034   6.671
 2036SOL    HW1 7007   0.531   5.039   6.754
 2036SOL    HW2 7008   0.619   4.940   6.658
 2037SOL     OW 7009   1.062   2.497   6.928
 2037SOL    HW1 7010   0.981   2.458   6.971
 2037SOL    HW2 7011   1.078   2.453   6.840
 2038SOL     OW 7012   1.254   1.003   6.345
 2038SOL    HW1 7013   1.232   0.948   6.265
 2038SOL    HW2 7014   1.214   1.095   6.335
 2039SOL     OW 7015   5.057   6.373   3.626
 2039SOL    HW1 7016   5.022   6.465   3.642
 2039SOL    HW2 7017   5.034   6.345   3.532
 2040SOL     OW 7018   2.362   2.293   0.420
 2040SOL    HW1 7019   2.335   2.334   0.333
 2040SOL    HW2 7020   2.435   2.226   0.404
 2041SOL     OW 7021   2.582   0.638   6.325
 2041SOL    HW1 7022   2.492   0.651   6.284
 2041SOL    HW2 7023   2.652   0.650   6.255
 2042SOL     OW 7024   6.075   1.026   5.928
 2042SOL    HW1 7025   6.125   0.983   5.853
 2042SOL    HW2 7026   6.140   1.056   5.999
 2043SOL     OW 7027   0.520   3.932   1.439
 2043SOL    HW1 7028   0.473   4.016   1.413
 2043SOL    HW2 7029   0.596   3.954   1.499
 2044SOL     OW 7030   4.083   0.823   1.275
 2044SOL    HW1 7031   4.170   0.868   1.260
 2044SOL    HW2 7032   4.089   0.763   1.355
 2045SOL     OW 7033   1.237   6.407   4.626
 2045SOL    HW1 7034   1.206   6.444   4.714
 2045SOL    HW2 7035   1.333   6.429   4.613
 2046SOL     OW 7036   0.696   2.326   4.923
 2046SOL    HW1 7037   0.688   2.368   4.833
 2046SOL    HW2 7038   0.780   2.356   4.968
 2047SOL     OW 7039   0.204   0.642   0.627
 2047SOL    HW1 7040   0.150   0.726   0.616
 2047SOL    HW2 7041   0.278   0.641   0.559
 2048SOL     OW 7042   1.235   2.135   3.822
 2048SOL    HW1 7043   1.315   2.107   3.875
 2048SOL    HW2 7044   1.208   2.062   3.760
 2049SOL     OW 7045   4.702   2.335   4.596
 2049SOL    HW1 7046   4.731   2.273   4.523
 2049SOL    HW2 7047   4.604   2.354   4.587
 2050SOL     OW 7048   0.746   1.314   4.001
 2050SOL    HW1 7049   0.694   1.394   4.028
 2050SOL    HW2 7050   0.841   1.341   3.983
 2051SOL     OW 7051   2.455   6.472   0.183
 2051SOL    HW1 7052   2.423   6.520   0.265
 2051SOL    HW2 7053   2.550   6.499   0.164
 2052SOL     OW 7054   0.868   4.222   0.033
 2052SOL    HW1 7055   0.927   4.209   0.113
 2052SOL    HW2 7056   0.871   4.140   6.996
 2053SOL     OW 7057   6.414   5.358   2.974
 2053SOL    HW1 7058   6.442   5.400   3.060
 2053SOL    HW2 7059   6.320   5.385   2.952
 2054SOL     OW 7060   2.956   3.743   2.833
 2054SOL    HW1 7061   2.995   3.794   2.757
 2054SOL    HW2 7062   2.890   3.801   2.881
 2055SOL     OW 7063   3.768   2.400   5.389
 2055SOL    HW1 7064   3.820   2.482   5.364
 2055SOL    HW2 7065   3.684   2.426   5.436
 2056SOL     OW 7066   3.390   4.762   1.265
 2056SOL    HW1 7067   3.402   4.669   1.300
 2056SOL    HW2 7068   3.369   4.824   1.340
 2057SOL     OW 7069   5.294   3.090   4.320
 2057SOL    HW1 7070   5.214   3.065   4.374
 2057SOL    HW2 7071   5.366   3.123   4.382
 2058SOL     OW 7072   6.763   6.972   3.517
 2058SOL    HW1 7073   6.860   6.985   3.499
 2058SOL    HW2 7074   6.740   7.013   3.605
 2059SOL     OW 7075   1.694   1.181   5.365
 2059SOL    HW1 7076   1.772   1.208   5.421
 2059SOL    HW2 7077   1.609   1.197   5.416
 2060SOL     OW 7078   1.865   3.003   6.787
 2060SOL    HW1 7079   1.945   2.989   6.845
 2060SOL    HW2 7080   1.793   3.049   6.839
 2061SOL     OW 7081   1.877   2.661   2.675
 2061SOL    HW1 7082   1.946   2.732   2.659
 2061SOL    HW2 7083   1.793   2.685   2.629
 2062SOL     OW 7084   0.111   5.097   5.032
 2062SOL    HW1 7085   0.091   5.073   5.127
 2062SOL    HW2 7086   0.089   5.019   4.973
 2063SOL     OW 7087   1.040   1.813   4.414
 2063SOL    HW1 7088   1.018   1.833   4.509
 2063SOL    HW2 7089   0.996   1.880   4.354
 2064SOL     OW 7090   0.820   3.596   3.819
 2064SOL    HW1 7091   0.755   3.671   3.817
 2064SOL    HW2 7092   0.773   3.512   3.845
 2065SOL     OW 7093   4.110   3.556   5.773
 2065SOL    HW1 7094   4.084   3.465   5.741
 2065SOL    HW2 7095   4.103   3.621   5.697
 2066SOL     OW 7096   1.111   3.329   5.827
 2066SOL    HW1 7097   1.070   3.403   5.775
 2066SOL    HW2 7098   1.211   3.337   5.823
 2067SOL     OW 7099   6.217   5.011   1.502
 2067SOL    HW1 7100   6.283   5.017   1.577
 2067SOL    HW2 7101   6.194   5.103   1.469
 2068SOL     OW 7102   4.478   0.769   4.583
 2068SOL    HW1 7103   4.453   0.830   4.508
 2068SOL    HW2 7104   4.435   0.680   4.570
 2069SOL     OW 7105   0.158   0.909   3.458
 2069SOL    HW1 7106   0.182   0.963   3.377
 2069SOL    HW2 7107   0.087   0.957   3.510
 2070SOL     OW 7108   1.289   5.046   1.434
 2070SOL    HW1 7109   1.296   5.145   1.445
 2070SOL    HW2 7110   1.194   5.022   1.413
 2071SOL     OW 7111   0.414   1.739   5.561
 2071SOL    HW1 7112   0.389   1.830   5.529
 2071SOL    HW2 7113   0.398   1.673   5.489
 2072SOL     OW 7114   5.172   4.268   5.354
 2072SOL    HW1 7115   5.225   4.304   5.431
 2072SOL    HW2 7116   5.218   4.188   5.316
 2073SOL     OW 7117   3.217   5.362   6.956
 2073SOL    HW1 7118   3.166   5.449   6.954
 2073SOL    HW2 7119   3.153   5.287   6.967
 2074SOL     OW 7120   1.639   4.688   6.250
 2074SOL    HW1 7121   1.734   4.660   6.233
 2074SOL    HW2 7122   1.607   4.742   6.172
 2075SOL     OW 7123   5.909   2.877   1.381
 2075SOL    HW1 7124   5.970   2.834   1.314
 2075SOL    HW2 7125   5.928   2.975   1.385
 2076SOL     OW 7126   6.264   6.990   4.495
 2076SOL    HW1 7127   6.213   0.013   4.421
 2076SOL    HW2 7128   6.292   6.898   4.467
 2077SOL     OW 7129   6.137   4.602   0.915
 2077SOL    HW1 7130   6.112   4.509   0.887
 2077SOL    HW2 7131   6.190   4.646   0.843
 2078SOL     OW 7132   0.783   3.347   5.607
 2078SOL    HW1 7133   0.862   3.392   5.564
 2078SOL    HW2 7134   0.723   3.312   5.535
 2079SOL     OW 7135   5.250   0.791   2.699
 2079SOL    HW1 7136   5.246   0.757   2.793
 2079SOL    HW2 7137   5.345   0.790   2.667
 2080SOL     OW 7138   2.460   3.239   6.235
 2080SOL    HW1 7139   2.368   3.203   6.218
 2080SOL    HW2 7140   2.462   3.336   6.211
 2081SOL     OW 7141   5.761   6.301   1.959
 2081SOL    HW1 7142   5.803   6.220   1.918
 2081SOL    HW2 7143   5.795   6.313   2.052
 2082SOL     OW 7144   6.470   6.201   4.116
 2082SOL    HW1 7145   6.477   6.262   4.195
 2082SOL    HW2 7146   6.561   6.179   4.082
 2083SOL     OW 7147   0.160   6.553   3.764
 2083SOL    HW1 7148   0.225   6.497   3.712
 2083SOL    HW2 7149   0.170   6.532   3.862
 2084SOL     OW 7150   6.592   2.325   0.712
 2084SOL    HW1 7151   6.609   2.423   0.723
 2084SOL    HW2 7152   6.556   2.308   0.620
 2085SOL     OW 7153   6.390   5.860   0.703
 2085SOL    HW1 7154   6.395   5.958   0.721
 2085SOL    HW2 7155   6.432   5.811   0.779
 2086SOL     OW 7156   4.768   0.830   0.063
 2086SOL    HW1 7157   4.784   0.831   0.162
 2086SOL    HW2 7158   4.737   0.921   0.033
 2087SOL     OW 7159   4.316   1.760   0.048
 2087SOL    HW1 7160   4.245   1.828   0.064
 2087SOL    HW2 7161   4.288   1.699   6.995
 2088SOL     OW 7162   0.838   5.058   5.489
 2088SOL    HW1 7163   0.769   5.046   5.560
 2088SOL    HW2 7164   0.807   5.013   5.405
 2089SOL     OW 7165   2.594   3.024   6.605
 2089SOL    HW1 7166   2.608   3.044   6.508
 2089SOL    HW2 7167   2.635   3.097   6.660
 2090SOL     OW 7168   5.293   3.103   5.771
 2090SOL    HW1 7169   5.258   3.078   5.681
 2090SOL    HW2 7170   5.218   3.105   5.837
 2091SOL     OW 7171   5.406   6.166   1.247
 2091SOL    HW1 7172   5.380   6.142   1.341
 2091SOL    HW2 7173   5.365   6.254   1.223
 2092SOL     OW 7174   3.665   3.519   1.647
 2092SOL    HW1 7175   3.715   3.594   1.691
 2092SOL    HW2 7176   3.567   3.542   1.644
 2093SOL     OW 7177   4.348   1.299   1.421
 2093SOL    HW1 7178   4.302   1.281   1.335
 2093SOL    HW2 7179   4.283   1.290   1.497
 2094SOL     OW 7180   5.952   1.832   6.732
 2094SOL    HW1 7181   5.878   1.787   6.782
 2094SOL    HW2 7182   5.926   1.841   6.636
 2095SOL     OW 7183   5.129   5.555   3.827
 2095SOL    HW1 7184   5.174   5.559   3.916
 2095SOL    HW2 7185   5.197   5.564   3.754
 2096SOL     OW 7186   3.902   6.592   1.464
 2096SOL    HW1 7187   3.809   6.618   1.489
 2096SOL    HW2 7188   3.966   6.640   1.524
 2097SOL     OW 7189   0.843   5.680   6.230
 2097SOL    HW1 7190   0.844   5.580   6.239
 2097SOL    HW2 7191   0.819   5.704   6.136
 2098SOL     OW 7192   2.795   6.147   3.601
 2098SOL    HW1 7193   2.892   6.168   3.589
 2098SOL    HW2 7194   2.767   6.168   3.695
 2099SOL     OW 7195   4.427   2.065   6.159
 2099SOL    HW1 7196   4.454   2.158   6.137
 2099SOL    HW2 7197   4.461   2.041   6.250
 2100SOL     OW 7198   5.042   6.658   1.591
 2100SOL    HW1 7199   5.070   6.752   1.610
 2100SOL    HW2 7200   4.984   6.655   1.509
 2101SOL     OW 7201   0.930   0.346   3.141
 2101SOL    HW1 7202   0.944   0.267   3.082
 2101SOL    HW2 7203   0.962   0.428   3.094
 2102SOL     OW 7204   3.613   2.092   1.255
 2102SOL    HW1 7205   3.574   2.171   1.302
 2102SOL    HW2 7206   3.686   2.053   1.312
 2103SOL     OW 7207   1.933   6.420   0.628
 2103SOL    HW1 7208   1.960   6.465   0.542
 2103SOL    HW2 7209   1.991   6.341   0.644
 2104SOL     OW 7210   1.995   4.171   3.410
 2104SOL    HW1 7211   1.992   4.076   3.442
 2104SOL    HW2 7212   1.988   4.232   3.489
 2105SOL     OW 7213   5.566   6.814   5.115
 2105SOL    HW1 7214   5.547   6.786   5.021
 2105SOL    HW2 7215   5.480   6.834   5.162
 2106SOL     OW 7216   4.182   3.360   1.352
 2106SOL    HW1 7217   4.199   3.347   1.255
 2106SOL    HW2 7218   4.239   3.434   1.387
 2107SOL     OW 7219   4.956   4.958   5.188
 2107SOL    HW1 7220   4.884   4.894   5.215
 2107SOL    HW2 7221   5.011   4.982   5.268
 2108SOL     OW 7222   5.031   0.449   4.936
 2108SOL    HW1 7223   5.084   0.384   4.882
 2108SOL    HW2 7224   4.942   0.463   4.893
 2109SOL     OW 7225   3.040   6.589   2.292
 2109SOL    HW1 7226   3.136   6.615   2.279
 2109SOL    HW2 7227   3.005   6.635   2.374
 2110SOL     OW 7228   3.416   6.153   0.181
 2110SOL    HW1 7229   3.501   6.101   0.170
 2110SOL    HW2 7230   3.437   6.249   0.200
 2111SOL     OW 7231   1.177   2.205   5.630
 2111SOL    HW1 7232   1.082   2.223   5.655
 2111SOL    HW2 7233   1.192   2.107   5.627
 2112SOL     OW 7234   1.491   0.329   0.041
 2112SOL    HW1 7235   1.451   0.374   0.121
 2112SOL    HW2 7236   1.435   0.250   0.016
 2113SOL     OW 7237   6.639   1.403   4.655
 2113SOL    HW1 7238   6.689   1.473   4.604
 2113SOL    HW2 7239   6.593   1.341   4.590
 2114SOL     OW 7240   2.605   1.267   6.107
 2114SOL    HW1 7241   2.678   1.234   6.166
 2114SOL    HW2 7242   2.532   1.198   6.101
 2115SOL     OW 7243   6.193   6.304   3.502
 2115SOL    HW1 7244   6.095   6.308   3.522
 2115SOL    HW2 7245   6.207   6.268   3.409
 2116SOL     OW 7246   2.140   1.518   6.883
 2116SOL    HW1 7247   2.101   1.581   6.816
 2116SOL    HW2 7248   2.231   1.489   6.852
 2117SOL     OW 7249   6.641   1.322   2.607
 2117SOL    HW1 7250   6.733   1.288   2.628
 2117SOL    HW2 7251   6.579   1.297   2.682
 2118SOL     OW 7252   0.053   2.129   2.583
 2118SOL    HW1 7253   7.015   2.205   2.608
 2118SOL    HW2 7254   0.096   2.091   2.665
 2119SOL     OW 7255   1.090   1.941   0.576
 2119SOL    HW1 7256   1.145   2.015   0.614
 2119SOL    HW2 7257   1.120   1.921   0.483
 2120SOL     OW 7258   5.301   1.771   0.735
 2120SOL    HW1 7259   5.363   1.822   0.676
 2120SOL    HW2 7260   5.316   1.798   0.830
 2121SOL     OW 7261   1.876   0.002   0.634
 2121SOL    HW1 7262   1.842   6.993   0.545
 2121SOL    HW2 7263   1.972   0.026   0.627
 2122SOL     OW 7264   6.446   0.440   4.567
 2122SOL    HW1 7265   6.523   0.426   4.504
 2122SOL    HW2 7266   6.469   0.513   4.631
 2123SOL     OW 7267   1.423   5.640   2.677
 2123SOL    HW1 7268   1.402   5.547   2.647
 2123SOL    HW2 7269   1.354   5.670   2.742
 2124SOL     OW 7270   4.430   3.976   6.789
 2124SOL    HW1 7271   4.508   3.970   6.852
 2124SOL    HW2 7272   4.441   3.908   6.716
 2125SOL     OW 7273   1.442   5.945   4.543
 2125SOL    HW1 7274   1.504   6.023   4.552
 2125SOL    HW2 7275   1.371   5.967   4.476
 2126SOL     OW 7276   2.755   3.967   6.776
 2126SOL    HW1 7277   2.720   3.946   6.685
 2126SOL    HW2 7278   2.824   4.038   6.770
 2127SOL     OW 7279   0.905   3.091   4.373
 2127SOL    HW1 7280   0.931   3.187   4.364
 2127SOL    HW2 7281   0.870   3.075   4.465
 2128SOL     OW 7282   5.176   3.082   1.979
 2128SOL    HW1 7283   5.255   3.088   1.918
 2128SOL    HW2 7284   5.102   3.140   1.944
 2129SOL     OW 7285   5.189   4.690   4.288
 2129SOL    HW1 7286   5.182   4.667   4.191
 2129SOL    HW2 7287   5.285   4.695   4.315
 2130SOL     OW 7288   2.568   1.304   1.068
 2130SOL    HW1 7289   2.556   1.245   1.149
 2130SOL    HW2 7290   2.490   1.293   1.007
 2131SOL     OW 7291   5.353   0.316   5.681
 2131SOL    HW1 7292   5.431   0.351   5.734
 2131SOL    HW2 7293   5.268   0.343   5.725
 2132SOL     OW 7294   2.497   2.500   0.070
 2132SOL    HW1 7295   2.464   2.547   0.152
 2132SOL    HW2 7296   2.594   2.518   0.057
 2133SOL     OW 7297   3.180   2.069   1.349
 2133SOL    HW1 7298   3.227   2.144   1.302
 2133SOL    HW2 7299   3.243   2.025   1.413
 2134SOL     OW 7300   2.266   6.131   5.296
 2134SOL    HW1 7301   2.243   6.227   5.312
 2134SOL    HW2 7302   2.212   6.096   5.219
 2135SOL     OW 7303   1.000   5.950   3.353
 2135SOL    HW1 7304   0.918   5.927   3.406
 2135SOL    HW2 7305   0.976   5.965   3.258
 2136SOL     OW 7306   1.322   4.676   3.681
 2136SOL    HW1 7307   1.357   4.764   3.713
 2136SOL    HW2 7308   1.362   4.602   3.735
 2137SOL     OW 7309   1.103   1.693   4.829
 2137SOL    HW1 7310   1.164   1.616   4.810
 2137SOL    HW2 7311   1.043   1.670   4.905
 2138SOL     OW 7312   1.198   2.522   5.747
 2138SOL    HW1 7313   1.192   2.423   5.760
 2138SOL    HW2 7314   1.155   2.546   5.660
 2139SOL     OW 7315   2.649   0.204   4.711
 2139SOL    HW1 7316   2.653   0.304   4.708
 2139SOL    HW2 7317   2.593   0.175   4.788
 2140SOL     OW 7318   1.601   5.931   3.364
 2140SOL    HW1 7319   1.677   5.919   3.300
 2140SOL    HW2 7320   1.560   5.843   3.384
 2141SOL     OW 7321   0.213   1.612   0.242
 2141SOL    HW1 7322   0.192   1.547   0.315
 2141SOL    HW2 7323   0.232   1.701   0.282
 2142SOL     OW 7324   2.701   1.357   3.584
 2142SOL    HW1 7325   2.687   1.363   3.683
 2142SOL    HW2 7326   2.723   1.263   3.558
 2143SOL     OW 7327   4.160   6.353   6.828
 2143SOL    HW1 7328   4.127   6.268   6.869
 2143SOL    HW2 7329   4.257   6.344   6.807
 2144SOL     OW 7330   0.187   0.768   2.129
 2144SOL    HW1 7331   0.140   0.805   2.209
 2144SOL    HW2 7332   0.214   0.673   2.147
 2145SOL     OW 7333   3.794   5.554   2.532
 2145SOL    HW1 7334   3.836   5.621   2.592
 2145SOL    HW2 7335   3.696   5.548   2.551
 2146SOL     OW 7336   3.243   2.315   0.781
 2146SOL    HW1 7337   3.243   2.393   0.717
 2146SOL    HW2 7338   3.336   2.278   0.788
 2147SOL     OW 7339   0.378   0.832   5.588
 2147SOL    HW1 7340   0.387   0.756   5.653
 2147SOL    HW2 7341   0.468   0.857   5.553
 2148SOL     OW 7342   5.340   3.224   3.435
 2148SOL    HW1 7343   5.429   3.260   3.463
 2148SOL    HW2 7344   5.353   3.155   3.364
 2149SOL     OW 7345   3.111   0.634   2.889
 2149SOL    HW1 7346   3.104   0.535   2.887
 2149SOL    HW2 7347   3.138   0.668   2.798
 2150SOL     OW 7348   3.730   1.397   2.152
 2150SOL    HW1 7349   3.632   1.416   2.143
 2150SOL    HW2 7350   3.766   1.445   2.232
 2151SOL     OW 7351   3.285   3.231   5.495
 2151SOL    HW1 7352   3.208   3.268   5.442
 2151SOL    HW2 7353   3.261   3.141   5.530
 2152SOL     OW 7354   6.089   6.273   1.846
 2152SOL    HW1 7355   6.126   6.293   1.755
 2152SOL    HW2 7356   6.035   6.189   1.842
 2153SOL     OW 7357   4.820   2.450   2.506
 2153SOL    HW1 7358   4.744   2.514   2.518
 2153SOL    HW2 7359   4.860   2.429   2.596
 2154SOL     OW 7360   3.987   6.106   5.304
 2154SOL    HW1 7361   4.031   6.047   5.236
 2154SOL    HW2 7362   3.915   6.055   5.350
 2155SOL     OW 7363   5.918   3.855   6.615
 2155SOL    HW1 7364   5.873   3.767   6.626
 2155SOL    HW2 7365   5.939   3.894   6.705
 2156SOL     OW 7366   0.759   0.818   1.342
 2156SOL    HW1 7367   0.771   0.818   1.243
 2156SOL    HW2 7368   0.740   0.725   1.374
 2157SOL     OW 7369   6.521   1.281   4.434
 2157SOL    HW1 7370   6.479   1.190   4.428
 2157SOL    HW2 7371   6.611   1.279   4.391
 2158SOL     OW 7372   4.511   6.532   2.872
 2158SOL    HW1 7373   4.472   6.544   2.963
 2158SOL    HW2 7374   4.509   6.618   2.822
 2159SOL     OW 7375   2.231   6.743   5.137
 2159SOL    HW1 7376   2.304   6.702   5.083
 2159SOL    HW2 7377   2.263   6.759   5.230
 2160SOL     OW 7378   2.873   3.140   0.895
 2160SOL    HW1 7379   2.780   3.114   0.870
 2160SOL    HW2 7380   2.923   3.167   0.813
 2161SOL     OW 7381   5.101   2.265   4.075
 2161SOL    HW1 7382   5.160   2.210   4.017
 2161SOL    HW2 7383   5.076   2.349   4.027
 2162SOL     OW 7384   1.993   1.177   0.559
 2162SOL    HW1 7385   1.944   1.242   0.617
 2162SOL    HW2 7386   2.070   1.222   0.516
 2163SOL     OW 7387   2.701   1.491   1.197
 2163SOL    HW1 7388   2.654   1.423   1.141
 2163SOL    HW2 7389   2.634   1.550   1.242
 2164SOL     OW 7390   0.463   0.824   1.763
 2164SOL    HW1 7391   0.402   0.770   1.820
 2164SOL    HW2 7392   0.552   0.833   1.807
 2165SOL     OW 7393   3.119   6.934   1.411
 2165SOL    HW1 7394   3.217   6.928   1.428
 2165SOL    HW2 7395   3.079   7.003   1.470
 2166SOL     OW 7396   6.387   2.747   6.169
 2166SOL    HW1 7397   6.372   2.761   6.267
 2166SOL    HW2 7398   6.344   2.820   6.117
 2167SOL     OW 7399   2.898   0.477   2.192
 2167SOL    HW1 7400   2.925   0.397   2.246
 2167SOL    HW2 7401   2.974   0.541   2.187
 2168SOL     OW 7402   5.860   5.798   5.042
 2168SOL    HW1 7403   5.848   5.881   5.097
 2168SOL    HW2 7404   5.798   5.727   5.076
 2169SOL     OW 7405   6.432   1.395   5.531
 2169SOL    HW1 7406   6.369   1.456   5.483
 2169SOL    HW2 7407   6.383   1.312   5.558
 2170SOL     OW 7408   5.641   4.666   4.169
 2170SOL    HW1 7409   5.738   4.693   4.170
 2170SOL    HW2 7410   5.585   4.745   4.144
 2171SOL     OW 7411   0.097   2.999   0.157
 2171SOL    HW1 7412   0.183   2.949   0.147
 2171SOL    HW2 7413   0.028   2.960   0.096
 2172SOL     OW 7414   2.711   0.737   0.999
 2172SOL    HW1 7415   2.687   0.788   0.917
 2172SOL    HW2 7416   2.674   0.645   0.993
 2173SOL     OW 7417   4.929   2.029   5.041
 2173SOL    HW1 7418   4.905   2.042   4.944
 2173SOL    HW2 7419   4.964   1.937   5.054
 2174SOL     OW 7420   1.254   5.674   4.702
 2174SOL    HW1 7421   1.197   5.756   4.714
 2174SOL    HW2 7422   1.240   5.612   4.779
 2175SOL     OW 7423   1.475   6.170   5.924
 2175SOL    HW1 7424   1.475   6.150   5.826
 2175SOL    HW2 7425   1.542   6.241   5.944
 2176SOL     OW 7426   2.022   2.759   2.430
 2176SOL    HW1 7427   1.961   2.701   2.377
 2176SOL    HW2 7428   2.095   2.794   2.371
 2177SOL     OW 7429   7.013   1.401   2.427
 2177SOL    HW1 7430   0.003   1.490   2.383
 2177SOL    HW2 7431   0.080   1.370   2.463
 2178SOL     OW 7432   0.157   5.469   0.964
 2178SOL    HW1 7433   0.117   5.382   0.934
 2178SOL    HW2 7434   0.245   5.451   1.009
 2179SOL     OW 7435   1.374   4.017   3.932
 2179SOL    HW1 7436   1.468   4.026   3.898
 2179SOL    HW2 7437   1.373   4.031   4.031
 2180SOL     OW 7438   4.062   2.833   1.347
 2180SOL    HW1 7439   4.160   2.848   1.335
 2180SOL    HW2 7440   4.048   2.757   1.411
 2181SOL     OW 7441   4.027   6.805   0.981
 2181SOL    HW1 7442   4.076   6.760   0.907
 2181SOL    HW2 7443   4.018   6.902   0.962
 2182SOL     OW 7444   5.561   2.078   0.506
 2182SOL    HW1 7445   5.587   2.096   0.601
 2182SOL    HW2 7446   5.504   1.996   0.501
 2183SOL     OW 7447   2.858   2.414   0.454
 2183SOL    HW1 7448   2.782   2.441   0.513
 2183SOL    HW2 7449   2.922   2.491   0.445
 2184SOL     OW 7450   4.396   3.229   5.952
 2184SOL    HW1 7451   4.373   3.250   6.047
 2184SOL    HW2 7452   4.336   3.157   5.918
 2185SOL     OW 7453   0.492   0.006   1.659
 2185SOL    HW1 7454   0.441   6.995   1.579
 2185SOL    HW2 7455   0.506   6.951   1.723
 2186SOL     OW 7456   0.163   4.748   2.931
 2186SOL    HW1 7457   0.132   4.730   3.024
 2186SOL    HW2 7458   0.261   4.729   2.924
 2187SOL     OW 7459   6.539   1.503   6.791
 2187SOL    HW1 7460   6.453   1.536   6.829
 2187SOL    HW2 7461   6.586   1.577   6.743
 2188SOL     OW 7462   4.748   0.937   3.393
 2188SOL    HW1 7463   4.695   0.934   3.308
 2188SOL    HW2 7464   4.690   0.972   3.467
 2189SOL     OW 7465   3.151   0.204   6.457
 2189SOL    HW1 7466   3.053   0.189   6.464
 2189SOL    HW2 7467   3.197   0.116   6.440
 2190SOL     OW 7468   5.068   2.126   1.204
 2190SOL    HW1 7469   5.042   2.046   1.257
 2190SOL    HW2 7470   5.168   2.130   1.196
 2191SOL     OW 7471   3.345   1.582   6.914
 2191SOL    HW1 7472   3.390   1.627   6.991
 2191SOL    HW2 7473   3.383   1.490   6.904
 2192SOL     OW 7474   3.938   5.710   2.744
 2192SOL    HW1 7475   3.978   5.635   2.796
 2192SOL    HW2 7476   3.872   5.759   2.800
 2193SOL     OW 7477   6.876   6.027   5.140
 2193SOL    HW1 7478   6.865   6.006   5.043
 2193SOL    HW2 7479   6.970   6.006   5.168
 2194SOL     OW 7480   2.984   6.863   1.163
 2194SOL    HW1 7481   3.028   6.774   1.169
 2194SOL    HW2 7482   3.022   6.923   1.234
 2195SOL     OW 7483   1.363   5.132   2.751
 2195SOL    HW1 7484   1.432   5.134   2.679
 2195SOL    HW2 7485   1.308   5.049   2.742
 2196SOL     OW 7486   4.531   2.914   6.846
 2196SOL    HW1 7487   4.577   2.935   6.760
 2196SOL    HW2 7488   4.550   2.819   6.872
 2197SOL     OW 7489   4.637   4.393   6.756
 2197SOL    HW1 7490   4.676   4.482   6.779
 2197SOL    HW2 7491   4.591   4.399   6.667
 2198SOL     OW 7492   6.195   4.323   0.455
 2198SOL    HW1 7493   6.161   4.382   0.382
 2198SOL    HW2 7494   6.128   4.251   0.474
 2199SOL     OW 7495   4.150   0.706   2.331
 2199SOL    HW1 7496   4.087   0.641   2.373
 2199SOL    HW2 7497   4.100   0.789   2.306
 2200SOL     OW 7498   2.008   6.646   3.894
 2200SOL    HW1 7499   1.935   6.701   3.933
 2200SOL    HW2 7500   1.988   6.549   3.908
 2201SOL     OW 7501   4.746   4.093   3.448
 2201SOL    HW1 7502   4.682   4.114   3.522
 2201SOL    HW2 7503   4.732   4.158   3.373
 2202SOL     OW 7504   4.886   6.150   3.937
 2202SOL    HW1 7505   4.898   6.229   3.997
 2202SOL    HW2 7506   4.833   6.079   3.983
 2203SOL     OW 7507   3.337   1.673   2.827
 2203SOL    HW1 7508   3.254   1.730   2.830
 2203SOL    HW2 7509   3.415   1.730   2.803
 2204SOL     OW 7510   2.565   2.886   1.173
 2204SOL    HW1 7511   2.641   2.887   1.239
 2204SOL    HW2 7512   2.487   2.934   1.211
 2205SOL     OW 7513   2.610   0.975   1.780
 2205SOL    HW1 7514   2.617   0.884   1.741
 2205SOL    HW2 7515   2.701   1.017   1.784
 2206SOL     OW 7516   2.324   3.278   0.314
 2206SOL    HW1 7517   2.356   3.237   0.229
 2206SOL    HW2 7518   2.337   3.377   0.311
 2207SOL     OW 7519   0.398   4.358   4.275
 2207SOL    HW1 7520   0.335   4.431   4.300
 2207SOL    HW2 7521   0.361   4.270   4.308
 2208SOL     OW 7522   6.750   4.773   2.331
 2208SOL    HW1 7523   6.794   4.776   2.241
 2208SOL    HW2 7524   6.814   4.805   2.401
 2209SOL     OW 7525   1.335   6.751   1.497
 2209SOL    HW1 7526   1.285   6.670   1.465
 2209SOL    HW2 7527   1.366   6.737   1.591
 2210SOL     OW 7528   1.973   5.260   3.926
 2210SOL    HW1 7529   2.069   5.281   3.943
 2210SOL    HW2 7530   1.966   5.173   3.877
 2211SOL     OW 7531   6.742   1.383   5.727
 2211SOL    HW1 7532   6.733   1.458   5.662
 2211SOL    HW2 7533   6.742   1.418   5.820
 2212SOL     OW 7534   1.964   6.952   6.153
 2212SOL    HW1 7535   1.906   6.873   6.140
 2212SOL    HW2 7536   2.055   6.923   6.184
 2213SOL     OW 7537   3.728   0.748   3.208
 2213SOL    HW1 7538   3.671   0.667   3.197
 2213SOL    HW2 7539   3.786   0.738   3.289
 2214SOL     OW 7540   4.093   6.710   5.289
 2214SOL    HW1 7541   4.151   6.633   5.314
 2214SOL    HW2 7542   4.078   6.768   5.369
 2215SOL     OW 7543   5.745   2.594   5.242
 2215SOL    HW1 7544   5.745   2.519   5.176
 2215SOL    HW2 7545   5.651   2.624   5.257
 2216SOL     OW 7546   2.850   0.727   2.349
 2216SOL    HW1 7547   2.784   0.795   2.318
 2216SOL    HW2 7548   2.840   0.643   2.295
 2217SOL     OW 7549   4.534   1.094   1.840
 2217SOL    HW1 7550   4.543   1.192   1.858
 2217SOL    HW2 7551   4.518   1.046   1.926
 2218SOL     OW 7552   1.264   6.730   3.159
 2218SOL    HW1 7553   1.303   6.733   3.067
 2218SOL    HW2 7554   1.323   6.781   3.222
 2219SOL     OW 7555   1.549   2.237   2.586
 2219SOL    HW1 7556   1.496   2.153   2.592
 2219SOL    HW2 7557   1.583   2.262   2.677
 2220SOL     OW 7558   0.411   0.273   1.673
 2220SOL    HW1 7559   0.456   0.184   1.658
 2220SOL    HW2 7560   0.465   0.327   1.738
 2221SOL     OW 7561   1.259   1.644   6.825
 2221SOL    HW1 7562   1.231   1.722   6.880
 2221SOL    HW2 7563   1.200   1.638   6.744
 2222SOL     OW 7564   6.138   6.065   2.811
 2222SOL    HW1 7565   6.220   6.103   2.769
 2222SOL    HW2 7566   6.115   5.978   2.765
 2223SOL     OW 7567   6.337   5.553   1.604
 2223SOL    HW1 7568   6.241   5.572   1.621
 2223SOL    HW2 7569   6.353   5.454   1.609
 2224SOL     OW 7570   0.992   4.642   2.180
 2224SOL    HW1 7571   1.071   4.655   2.120
 2224SOL    HW2 7572   1.011   4.567   2.243
 2225SOL     OW 7573   0.252   4.839   1.157
 2225SOL    HW1 7574   0.238   4.740   1.152
 2225SOL    HW2 7575   0.276   4.864   1.251
 2226SOL     OW 7576   3.949   3.963   1.865
 2226SOL    HW1 7577   4.031   4.012   1.838
 2226SOL    HW2 7578   3.975   3.884   1.921
 2227SOL     OW 7579   0.633   2.907   4.687
 2227SOL    HW1 7580   0.581   2.930   4.770
 2227SOL    HW2 7581   0.706   2.973   4.674
 2228SOL     OW 7582   3.262   4.959   4.607
 2228SOL    HW1 7583   3.190   4.905   4.562
 2228SOL    HW2 7584   3.223   5.004   4.687
 2229SOL     OW 7585   5.886   7.002   3.322
 2229SOL    HW1 7586   5.857   6.926   3.264
 2229SOL    HW2 7587   5.822   0.057   3.313
 2230SOL     OW 7588   2.699   5.324   1.604
 2230SOL    HW1 7589   2.762   5.264   1.555
 2230SOL    HW2 7590   2.664   5.276   1.685
 2231SOL     OW 7591   2.692   5.701   1.150
 2231SOL    HW1 7592   2.636   5.775   1.113
 2231SOL    HW2 7593   2.732   5.728   1.237
 2232SOL     OW 7594   5.277   3.210   3.771
 2232SOL    HW1 7595   5.204   3.180   3.832
 2232SOL    HW2 7596   5.341   3.268   3.823
 2233SOL     OW 7597   2.454   2.157   6.247
 2233SOL    HW1 7598   2.505   2.086   6.296
 2233SOL    HW2 7599   2.420   2.120   6.161
 2234SOL     OW 7600   3.511   2.546   1.287
 2234SOL    HW1 7601   3.412   2.532   1.283
 2234SOL    HW2 7602   3.553   2.475   1.344
 2235SOL     OW 7603   2.513   1.652   0.819
 2235SOL    HW1 7604   2.591   1.593   0.799
 2235SOL    HW2 7605   2.464   1.617   0.899
 2236SOL     OW 7606   0.604   4.691   5.999
 2236SOL    HW1 7607   0.509   4.664   6.010
 2236SOL    HW2 7608   0.640   4.650   5.915
 2237SOL     OW 7609   6.171   3.182   4.103
 2237SOL    HW1 7610   6.261   3.191   4.060
 2237SOL    HW2 7611   6.166   3.240   4.183
 2238SOL     OW 7612   6.362   5.912   1.376
 2238SOL    HW1 7613   6.436   5.864   1.423
 2238SOL    HW2 7614   6.274   5.873   1.405
 2239SOL     OW 7615   5.415   5.865   2.409
 2239SOL    HW1 7616   5.385   5.960   2.401
 2239SOL    HW2 7617   5.515   5.862   2.411
 2240SOL     OW 7618   5.549   3.837   1.878
 2240SOL    HW1 7619   5.476   3.790   1.829
 2240SOL    HW2 7620   5.637   3.798   1.854
 2241SOL     OW 7621   1.068   7.002   2.367
 2241SOL    HW1 7622   1.078   6.903   2.374
 2241SOL    HW2 7623   1.129   0.026   2.432
 2242SOL     OW 7624   3.946   2.016   2.915
 2242SOL    HW1 7625   3.934   1.939   2.852
 2242SOL    HW2 7626   3.916   1.990   3.007
 2243SOL     OW 7627   2.475   6.610   5.417
 2243SOL    HW1 7628   2.381   6.644   5.421
 2243SOL    HW2 7629   2.525   6.638   5.499
 2244SOL     OW 7630   3.604   0.805   4.892
 2244SOL    HW1 7631   3.591   0.879   4.958
 2244SOL    HW2 7632   3.545   0.728   4.917
 2245SOL     OW 7633   0.326   2.123   2.030
 2245SOL    HW1 7634   0.239   2.080   2.006
 2245SOL    HW2 7635   0.365   2.166   1.948
 2246SOL     OW 7636   1.713   4.860   4.770
 2246SOL    HW1 7637   1.811   4.858   4.793
 2246SOL    HW2 7638   1.660   4.885   4.852
 2247SOL     OW 7639   2.136   1.543   4.857
 2247SOL    HW1 7640   2.039   1.531   4.876
 2247SOL    HW2 7641   2.190   1.512   4.935
 2248SOL     OW 7642   4.306   4.107   5.405
 2248SOL    HW1 7643   4.321   4.096   5.503
 2248SOL    HW2 7644   4.309   4.018   5.361
 2249SOL     OW 7645   3.636   4.989   4.996
 2249SOL    HW1 7646   3.564   4.949   5.053
 2249SOL    HW2 7647   3.611   4.979   4.900
 2250SOL     OW 7648   5.077   4.840   0.921
 2250SOL    HW1 7649   5.141   4.808   0.991
 2250SOL    HW2 7650   5.026   4.762   0.884
 2251SOL     OW 7651   0.665   0.157   6.348
 2251SOL    HW1 7652   0.736   0.136   6.281
 2251SOL    HW2 7653   0.671   0.094   6.425
 2252SOL     OW 7654   3.763   1.102   6.073
 2252SOL    HW1 7655   3.786   1.166   6.000
 2252SOL    HW2 7656   3.815   1.018   6.061
 2253SOL     OW 7657   1.373   2.754   6.260
 2253SOL    HW1 7658   1.375   2.854   6.269
 2253SOL    HW2 7659   1.285   2.726   6.223
 2254SOL     OW 7660   1.792   3.961   5.883
 2254SOL    HW1 7661   1.881   3.945   5.839
 2254SOL    HW2 7662   1.734   3.881   5.870
 2255SOL     OW 7663   5.160   3.216   0.251
 2255SOL    HW1 7664   5.202   3.147   0.310
 2255SOL    HW2 7665   5.152   3.302   0.300
 2256SOL     OW 7666   3.315   4.872   2.136
 2256SOL    HW1 7667   3.298   4.931   2.057
 2256SOL    HW2 7668   3.376   4.798   2.110
 2257SOL     OW 7669   2.175   3.566   4.248
 2257SOL    HW1 7670   2.188   3.567   4.347
 2257SOL    HW2 7671   2.187   3.474   4.213
 2258SOL     OW 7672   1.699   4.928   5.440
 2258SOL    HW1 7673   1.672   4.832   5.442
 2258SOL    HW2 7674   1.765   4.942   5.366
 2259SOL     OW 7675   6.240   3.173   6.352
 2259SOL    HW1 7676   6.322   3.180   6.409
 2259SOL    HW2 7677   6.245   3.239   6.277
 2260SOL     OW 7678   4.787   3.773   1.024
 2260SOL    HW1 7679   4.695   3.739   1.044
 2260SOL    HW2 7680   4.833   3.796   1.110
 2261SOL     OW 7681   2.869   6.222   4.789
 2261SOL    HW1 7682   2.885   6.282   4.867
 2261SOL    HW2 7683   2.957   6.195   4.750
 2262SOL     OW 7684   3.356   1.786   3.636
 2262SOL    HW1 7685   3.453   1.763   3.636
 2262SOL    HW2 7686   3.314   1.755   3.721
 2263SOL     OW 7687   0.410   3.510   5.532
 2263SOL    HW1 7688   0.479   3.519   5.460
 2263SOL    HW2 7689   0.319   3.504   5.490
 2264SOL     OW 7690   3.182   4.086   3.130
 2264SOL    HW1 7691   3.140   4.028   3.199
 2264SOL    HW2 7692   3.114   4.149   3.093
 2265SOL     OW 7693   0.739   6.862   3.281
 2265SOL    HW1 7694   0.647   6.830   3.260
 2265SOL    HW2 7695   0.735   6.949   3.330
 2266SOL     OW 7696   6.485   0.538   6.738
 2266SOL    HW1 7697   6.461   0.559   6.643
 2266SOL    HW2 7698   6.536   0.452   6.741
 2267SOL     OW 7699   6.033   2.061   5.573
 2267SOL    HW1 7700   6.043   2.070   5.672
 2267SOL    HW2 7701   6.040   2.151   5.530
 2268SOL     OW 7702   6.553   4.804   6.940
 2268SOL    HW1 7703   6.546   4.902   6.921
 2268SOL    HW2 7704   6.637   4.767   6.899
 2269SOL     OW 7705   0.147   6.179   2.955
 2269SOL    HW1 7706   0.223   6.215   3.010
 2269SOL    HW2 7707   0.077   6.249   2.946
 2270SOL     OW 7708   3.768   3.087   2.673
 2270SOL    HW1 7709   3.757   3.065   2.576
 2270SOL    HW2 7710   3.859   3.125   2.688
 2271SOL     OW 7711   0.372   4.009   2.599
 2271SOL    HW1 7712   0.343   4.016   2.695
 2271SOL    HW2 7713   0.347   4.092   2.550
 2272SOL     OW 7714   5.422   2.184   5.955
 2272SOL    HW1 7715   5.501   2.155   5.900
 2272SOL    HW2 7716   5.377   2.103   5.993
 2273SOL     OW 7717   0.661   0.603   3.749
 2273SOL    HW1 7718   0.600   0.676   3.719
 2273SOL    HW2 7719   0.637   0.574   3.842
 2274SOL     OW 7720   0.860   3.877   3.136
 2274SOL    HW1 7721   0.851   3.974   3.118
 2274SOL    HW2 7722   0.949   3.845   3.103
 2275SOL     OW 7723   4.629   6.309   3.584
 2275SOL    HW1 7724   4.715   6.260   3.596
 2275SOL    HW2 7725   4.591   6.287   3.494
 2276SOL     OW 7726   3.333   5.745   1.527
 2276SOL    HW1 7727   3.377   5.817   1.475
 2276SOL    HW2 7728   3.383   5.659   1.515
 2277SOL     OW 7729   3.176   3.846   0.991
 2277SOL    HW1 7730   3.160   3.749   0.976
 2277SOL    HW2 7731   3.271   3.860   1.019
 2278SOL     OW 7732   5.037   6.318   1.035
 2278SOL    HW1 7733   5.123   6.345   1.077
 2278SOL    HW2 7734   5.045   6.226   0.998
 2279SOL     OW 7735   5.564   4.122   5.443
 2279SOL    HW1 7736   5.589   4.182   5.367
 2279SOL    HW2 7737   5.471   4.089   5.430
 2280SOL     OW 7738   6.034   6.522   6.084
 2280SOL    HW1 7739   6.123   6.490   6.052
 2280SOL    HW2 7740   6.039   6.545   6.181
 2281SOL     OW 7741   3.336   2.094   0.527
 2281SOL    HW1 7742   3.356   2.063   0.620
 2281SOL    HW2 7743   3.257   2.155   0.529
 2282SOL     OW 7744   4.562   5.740   2.157
 2282SOL    HW1 7745   4.497   5.751   2.082
 2282SOL    HW2 7746   4.516   5.758   2.244
 2283SOL     OW 7747   6.851   4.129   2.074
 2283SOL    HW1 7748   6.926   4.117   2.010
 2283SOL    HW2 7749   6.867   4.209   2.131
 2284SOL     OW 7750   2.704   2.226   2.221
 2284SOL    HW1 7751   2.664   2.138   2.193
 2284SOL    HW2 7752   2.795   2.235   2.179
 2285SOL     OW 7753   1.748   3.946   6.770
 2285SOL    HW1 7754   1.735   3.849   6.792
 2285SOL    HW2 7755   1.688   3.972   6.694
 2286SOL     OW 7756   5.941   6.802   4.468
 2286SOL    HW1 7757   5.962   6.898   4.454
 2286SOL    HW2 7758   5.898   6.790   4.558
 2287SOL     OW 7759   2.131   2.298   0.964
 2287SOL    HW1 7760   2.143   2.199   0.954
 2287SOL    HW2 7761   2.187   2.345   0.896
 2288SOL     OW 7762   1.539   5.690   4.691
 2288SOL    HW1 7763   1.530   5.777   4.642
 2288SOL    HW2 7764   1.459   5.674   4.748
 2289SOL     OW 7765   4.643   1.196   0.334
 2289SOL    HW1 7766   4.564   1.251   0.309
 2289SOL    HW2 7767   4.662   1.129   0.262
 2290SOL     OW 7768   3.186   3.693   3.352
 2290SOL    HW1 7769   3.258   3.634   3.389
 2290SOL    HW2 7770   3.110   3.698   3.416
 2291SOL     OW 7771   1.174   2.111   6.280
 2291SOL    HW1 7772   1.218   2.188   6.325
 2291SOL    HW2 7773   1.085   2.140   6.244
 2292SOL     OW 7774   4.968   1.659   2.847
 2292SOL    HW1 7775   5.065   1.679   2.828
 2292SOL    HW2 7776   4.914   1.741   2.834
 2293SOL     OW 7777   0.947   0.680   0.076
 2293SOL    HW1 7778   0.896   0.744   0.133
 2293SOL    HW2 7779   0.897   0.662   7.012
 2294SOL     OW 7780   0.058   0.798   5.989
 2294SOL    HW1 7781   0.018   0.793   5.898
 2294SOL    HW2 7782   0.117   0.878   5.995
 2295SOL     OW 7783   5.728   5.414   1.293
 2295SOL    HW1 7784   5.763   5.432   1.201
 2295SOL    HW2 7785   5.803   5.418   1.359
 2296SOL     OW 7786   4.129   5.154   4.200
 2296SOL    HW1 7787   4.120   5.109   4.289
 2296SOL    HW2 7788   4.040   5.186   4.169
 2297SOL     OW 7789   5.306   4.026   5.310
 2297SOL    HW1 7790   5.357   4.003   5.227
 2297SOL    HW2 7791   5.263   3.943   5.346
 2298SOL     OW 7792   3.157   3.898   4.814
 2298SOL    HW1 7793   3.118   3.971   4.871
 2298SOL    HW2 7794   3.084   3.834   4.790
 2299SOL     OW 7795   5.587   3.133   4.029
 2299SOL    HW1 7796   5.682   3.099   4.034
 2299SOL    HW2 7797   5.528   3.060   3.996
 2300SOL     OW 7798   4.839   6.947   1.993
 2300SOL    HW1 7799   4.769   6.996   1.941
 2300SOL    HW2 7800   4.929   6.965   1.953
 2301SOL     OW 7801   3.752   3.114   4.791
 2301SOL    HW1 7802   3.829   3.105   4.727
 2301SOL    HW2 7803   3.727   3.211   4.799
 2302SOL     OW 7804   6.321   3.139   5.947
 2302SOL    HW1 7805   6.324   3.068   5.876
 2302SOL    HW2 7806   6.386   3.116   6.020
 2303SOL     OW 7807   3.079   2.531   0.184
 2303SOL    HW1 7808   3.118   2.580   0.106
 2303SOL    HW2 7809   3.092   2.433   0.172
 2304SOL     OW 7810   6.592   6.255   2.522
 2304SOL    HW1 7811   6.619   6.158   2.516
 2304SOL    HW2 7812   6.661   6.306   2.572
 2305SOL     OW 7813   2.456   6.674   4.968
 2305SOL    HW1 7814   2.473   6.764   4.927
 2305SOL    HW2 7815   2.463   6.604   4.897
 2306SOL     OW 7816   1.872   5.080   4.639
 2306SOL    HW1 7817   1.836   5.161   4.684
 2306SOL    HW2 7818   1.843   5.080   4.543
 2307SOL     OW 7819   6.062   3.323   4.907
 2307SOL    HW1 7820   6.065   3.313   5.006
 2307SOL    HW2 7821   6.058   3.420   4.883
 2308SOL     OW 7822   1.151   5.284   2.128
 2308SOL    HW1 7823   1.192   5.213   2.185
 2308SOL    HW2 7824   1.221   5.348   2.097
 2309SOL     OW 7825   2.041   0.450   4.607
 2309SOL    HW1 7826   2.076   0.363   4.643
 2309SOL    HW2 7827   2.110   0.491   4.547
 2310SOL     OW 7828   4.570   6.767   1.363
 2310SOL    HW1 7829   4.499   6.716   1.316
 2310SOL    HW2 7830   4.531   6.814   1.442
 2311SOL     OW 7831   2.359   4.871   1.086
 2311SOL    HW1 7832   2.443   4.886   1.138
 2311SOL    HW2 7833   2.380   4.870   0.988
 2312SOL     OW 7834   3.311   4.599   1.694
 2312SOL    HW1 7835   3.249   4.630   1.766
 2312SOL    HW2 7836   3.406   4.606   1.725
 2313SOL     OW 7837   4.971   5.117   1.290
 2313SOL    HW1 7838   4.926   5.160   1.368
 2313SOL    HW2 7839   4.910   5.047   1.251
 2314SOL     OW 7840   2.755   4.719   4.041
 2314SOL    HW1 7841   2.685   4.690   3.975
 2314SOL    HW2 7842   2.843   4.729   3.994
 2315SOL     OW 7843   4.338   2.591   6.175
 2315SOL    HW1 7844   4.331   2.686   6.144
 2315SOL    HW2 7845   4.300   2.583   6.267
 2316SOL     OW 7846   5.301   3.758   2.010
 2316SOL    HW1 7847   5.256   3.800   2.089
 2316SOL    HW2 7848   5.396   3.789   2.005
 2317SOL     OW 7849   0.126   5.893   2.899
 2317SOL    HW1 7850   0.048   5.857   2.951
 2317SOL    HW2 7851   0.131   5.992   2.910
 2318SOL     OW 7852   6.760   1.150   3.995
 2318SOL    HW1 7853   6.856   1.121   4.001
 2318SOL    HW2 7854   6.748   1.208   3.915
 2319SOL     OW 7855   1.412   5.332   2.375
 2319SOL    HW1 7856   1.461   5.288   2.450
 2319SOL    HW2 7857   1.369   5.263   2.317
 2320SOL     OW 7858   6.500   4.846   5.219
 2320SOL    HW1 7859   6.465   4.939   5.228
 2320SOL    HW2 7860   6.562   4.826   5.295
 2321SOL     OW 7861   3.531   4.924   4.672
 2321SOL    HW1 7862   3.571   4.909   4.582
 2321SOL    HW2 7863   3.432   4.935   4.663
 2322SOL     OW 7864   2.776   0.457   4.968
 2322SOL    HW1 7865   2.836   0.512   5.026
 2322SOL    HW2 7866   2.766   0.366   5.007
 2323SOL     OW 7867   5.131   3.729   2.612
 2323SOL    HW1 7868   5.138   3.678   2.697
 2323SOL    HW2 7869   5.129   3.666   2.534
 2324SOL     OW 7870   0.283   4.752   3.397
 2324SOL    HW1 7871   0.299   4.763   3.495
 2324SOL    HW2 7872   0.370   4.734   3.350
 2325SOL     OW 7873   0.540   2.412   0.536
 2325SOL    HW1 7874   0.625   2.463   0.524
 2325SOL    HW2 7875   0.541   2.365   0.624
 2326SOL     OW 7876   0.640   4.114   0.630
 2326SOL    HW1 7877   0.678   4.158   0.712
 2326SOL    HW2 7878   0.573   4.175   0.588
 2327SOL     OW 7879   5.466   1.899   3.699
 2327SOL    HW1 7880   5.411   1.941   3.771
 2327SOL    HW2 7881   5.549   1.953   3.684
 2328SOL     OW 7882   6.539   6.643   3.482
 2328SOL    HW1 7883   6.633   6.678   3.488
 2328SOL    HW2 7884   6.506   6.618   3.573
 2329SOL     OW 7885   6.411   5.660   2.882
 2329SOL    HW1 7886   6.504   5.623   2.884
 2329SOL    HW2 7887   6.375   5.663   2.975
 2330SOL     OW 7888   0.420   4.100   1.687
 2330SOL    HW1 7889   0.493   4.031   1.689
 2330SOL    HW2 7890   0.331   4.054   1.687
 2331SOL     OW 7891   1.179   4.473   5.480
 2331SOL    HW1 7892   1.082   4.482   5.502
 2331SOL    HW2 7893   1.226   4.422   5.552
 2332SOL     OW 7894   5.128   2.201   5.135
 2332SOL    HW1 7895   5.069   2.137   5.085
 2332SOL    HW2 7896   5.080   2.235   5.216
 2333SOL     OW 7897   2.662   4.977   3.518
 2333SOL    HW1 7898   2.638   4.911   3.590
 2333SOL    HW2 7899   2.583   4.992   3.459
 2334SOL     OW 7900   2.711   7.020   0.010
 2334SOL    HW1 7901   2.647   6.946   0.029
 2334SOL    HW2 7902   2.677   0.055   6.955
 2335SOL     OW 7903   4.589   5.545   4.788
 2335SOL    HW1 7904   4.618   5.554   4.693
 2335SOL    HW2 7905   4.532   5.464   4.798
 2336SOL     OW 7906   3.869   2.892   5.628
 2336SOL    HW1 7907   3.783   2.843   5.641
 2336SOL    HW2 7908   3.859   2.986   5.661
 2337SOL     OW 7909   6.151   0.485   4.538
 2337SOL    HW1 7910   6.145   0.579   4.504
 2337SOL    HW2 7911   6.247   0.461   4.554
 2338SOL     OW 7912   1.173   0.284   6.588
 2338SOL    HW1 7913   1.264   0.258   6.557
 2338SOL    HW2 7914   1.163   0.383   6.583
 2339SOL     OW 7915   3.923   4.943   6.222
 2339SOL    HW1 7916   3.986   5.006   6.267
 2339SOL    HW2 7917   3.919   4.964   6.124
 2340SOL     OW 7918   4.074   4.977   3.967
 2340SOL    HW1 7919   4.046   5.035   4.044
 2340SOL    HW2 7920   4.011   4.992   3.890
 2341SOL     OW 7921   5.616   4.693   6.220
 2341SOL    HW1 7922   5.597   4.768   6.156
 2341SOL    HW2 7923   5.541   4.627   6.217
 2342SOL     OW 7924   0.010   0.054   5.449
 2342SOL    HW1 7925   0.041   0.072   5.356
 2342SOL    HW2 7926   6.933   0.077   5.457
 2343SOL     OW 7927   0.899   0.496   1.151
 2343SOL    HW1 7928   0.849   0.458   1.229
 2343SOL    HW2 7929   0.996   0.473   1.159
 2344SOL     OW 7930   2.883   1.450   3.225
 2344SOL    HW1 7931   2.898   1.491   3.135
 2344SOL    HW2 7932   2.935   1.500   3.294
 2345SOL     OW 7933   1.255   1.790   3.055
 2345SOL    HW1 7934   1.333   1.852   3.064
 2345SOL    HW2 7935   1.198   1.820   2.979
 2346SOL     OW 7936   4.782   3.290   5.563
 2346SOL    HW1 7937   4.774   3.326   5.470
 2346SOL    HW2 7938   4.705   3.322   5.617
 2347SOL     OW 7939   1.266   3.601   0.808
 2347SOL    HW1 7940   1.310   3.577   0.722
 2347SOL    HW2 7941   1.279   3.528   0.875
 2348SOL     OW 7942   2.741   6.391   1.742
 2348SOL    HW1 7943   2.656   6.393   1.795
 2348SOL    HW2 7944   2.723   6.426   1.650
 2349SOL     OW 7945   4.105   4.378   6.275
 2349SOL    HW1 7946   4.198   4.407   6.250
 2349SOL    HW2 7947   4.074   4.431   6.354
 2350SOL     OW 7948   2.175   5.744   5.517
 2350SOL    HW1 7949   2.130   5.667   5.563
 2350SOL    HW2 7950   2.119   5.827   5.529
 2351SOL     OW 7951   2.251   5.083   2.984
 2351SOL    HW1 7952   2.201   5.114   2.904
 2351SOL    HW2 7953   2.216   5.128   3.066
 2352SOL     OW 7954   5.939   4.541   1.185
 2352SOL    HW1 7955   5.854   4.488   1.188
 2352SOL    HW2 7956   6.014   4.484   1.219
 2353SOL     OW 7957   2.293   3.962   6.542
 2353SOL    HW1 7958   2.202   3.972   6.504
 2353SOL    HW2 7959   2.314   3.865   6.555
 2354SOL     OW 7960   3.967   2.259   1.860
 2354SOL    HW1 7961   3.959   2.209   1.774
 2354SOL    HW2 7962   3.884   2.314   1.875
 2355SOL     OW 7963   6.929   1.534   1.633
 2355SOL    HW1 7964   6.872   1.608   1.669
 2355SOL    HW2 7965   6.873   1.476   1.573
 2356SOL     OW 7966   3.107   5.134   3.488
 2356SOL    HW1 7967   3.186   5.190   3.462
 2356SOL    HW2 7968   3.030   5.192   3.511
 2357SOL     OW 7969   0.087   4.558   1.138
 2357SOL    HW1 7970   0.091   4.597   1.046
 2357SOL    HW2 7971   7.014   4.526   1.156
 2358SOL     OW 7972   3.455   1.330   5.106
 2358SOL    HW1 7973   3.520   1.398   5.072
 2358SOL    HW2 7974   3.388   1.308   5.034
 2359SOL     OW 7975   2.587   1.369   5.854
 2359SOL    HW1 7976   2.603   1.468   5.856
 2359SOL    HW2 7977   2.582   1.335   5.948
 2360SOL     OW 7978   3.328   5.119   0.353
 2360SOL    HW1 7979   3.240   5.100   0.397
 2360SOL    HW2 7980   3.384   5.036   0.351
 2361SOL     OW 7981   3.594   6.007   1.195
 2361SOL    HW1 7982   3.565   5.999   1.100
 2361SOL    HW2 7983   3.671   5.945   1.212
 2362SOL     OW 7984   3.450   5.001   3.712
 2362SOL    HW1 7985   3.494   4.942   3.780
 2362SOL    HW2 7986   3.515   5.070   3.681
 2363SOL     OW 7987   1.676   3.338   0.152
 2363SOL    HW1 7988   1.588   3.340   0.104
 2363SOL    HW2 7989   1.717   3.429   0.150
 2364SOL     OW 7990   3.804   1.765   2.699
 2364SOL    HW1 7991   3.842   1.776   2.791
 2364SOL    HW2 7992   3.817   1.671   2.669
 2365SOL     OW 7993   5.051   4.009   3.248
 2365SOL    HW1 7994   5.104   4.033   3.166
 2365SOL    HW2 7995   4.959   3.983   3.221
 2366SOL     OW 7996   2.947   4.908   5.653
 2366SOL    HW1 7997   2.992   4.844   5.590
 2366SOL    HW2 7998   2.989   4.999   5.642
 2367SOL     OW 7999   5.947   4.867   5.445
 2367SOL    HW1 8000   5.848   4.866   5.430
 2367SOL    HW2 8001   5.965   4.877   5.543
 2368SOL     OW 8002   5.769   0.087   5.314
 2368SOL    HW1 8003   5.744   0.132   5.228
 2368SOL    HW2 8004   5.689   0.039   5.351
 2369SOL     OW 8005   3.858   1.947   4.347
 2369SOL    HW1 8006   3.910   1.991   4.273
 2369SOL    HW2 8007   3.916   1.879   4.392
 2370SOL     OW 8008   5.064   2.019   2.024
 2370SOL    HW1 8009   4.979   1.975   2.050
 2370SOL    HW2 8010   5.125   1.953   1.981
 2371SOL     OW 8011   0.999   6.409   1.610
 2371SOL    HW1 8012   1.038   6.500   1.599
 2371SOL    HW2 8013   1.044   6.346   1.547
 2372SOL     OW 8014   6.444   6.528   0.390
 2372SOL    HW1 8015   6.359   6.503   0.437
 2372SOL    HW2 8016   6.425   6.541   0.292
 2373SOL     OW 8017   6.114   4.226   6.218
 2373SOL    HW1 8018   6.111   4.168   6.137
 2373SOL    HW2 8019   6.030   4.214   6.271
 2374SOL     OW 8020   5.955   0.068   2.478
 2374SOL    HW1 8021   5.962   0.167   2.490
 2374SOL    HW2 8022   5.864   0.045   2.443
 2375SOL     OW 8023   1.804   0.521   4.411
 2375SOL    HW1 8024   1.873   0.453   4.385
 2375SOL    HW2 8025   1.774   0.505   4.505
 2376SOL     OW 8026   5.013   2.597   2.746
 2376SOL    HW1 8027   5.074   2.601   2.666
 2376SOL    HW2 8028   4.973   2.506   2.753
 2377SOL     OW 8029   4.760   3.649   5.768
 2377SOL    HW1 8030   4.796   3.742   5.773
 2377SOL    HW2 8031   4.746   3.613   5.860
 2378SOL     OW 8032   0.488   1.516   0.176
 2378SOL    HW1 8033   0.406   1.556   0.136
 2378SOL    HW2 8034   0.512   1.432   0.126
 2379SOL     OW 8035   7.018   5.727   2.328
 2379SOL    HW1 8036   6.932   5.680   2.348
 2379SOL    HW2 8037   7.003   5.826   2.332
 2380SOL     OW 8038   4.867   5.398   6.590
 2380SOL    HW1 8039   4.955   5.446   6.591
 2380SOL    HW2 8040   4.838   5.380   6.683
 2381SOL     OW 8041   2.258   4.159   3.757
 2381SOL    HW1 8042   2.212   4.071   3.745
 2381SOL    HW2 8043   2.300   4.163   3.848
 2382SOL     OW 8044   6.687   4.839   3.306
 2382SOL    HW1 8045   6.679   4.757   3.249
 2382SOL    HW2 8046   6.774   4.837   3.355
 2383SOL     OW 8047   5.240   4.377   5.949
 2383SOL    HW1 8048   5.224   4.393   5.852
 2383SOL    HW2 8049   5.184   4.299   5.979
 2384SOL     OW 8050   0.023   1.721   3.055
 2384SOL    HW1 8051   0.033   1.818   3.076
 2384SOL    HW2 8052   0.017   1.668   3.140
 2385SOL     OW 8053   0.183   1.163   0.664
 2385SOL    HW1 8054   0.224   1.249   0.636
 2385SOL    HW2 8055   0.167   1.164   0.763
 2386SOL     OW 8056   5.859   6.243   4.877
 2386SOL    HW1 8057   5.769   6.202   4.894
 2386SOL    HW2 8058   5.868   6.327   4.930
 2387SOL     OW 8059   1.140   1.593   4.102
 2387SOL    HW1 8060   1.230   1.632   4.122
 2387SOL    HW2 8061   1.071   1.665   4.110
 2388SOL     OW 8062   0.349   3.020   5.577
 2388SOL    HW1 8063   0.439   2.984   5.554
 2388SOL    HW2 8064   0.332   3.104   5.525
 2389SOL     OW 8065   3.837   5.223   3.148
 2389SOL    HW1 8066   3.914   5.275   3.185
 2389SOL    HW2 8067   3.865   5.178   3.063
 2390SOL     OW 8068   4.680   2.568   6.009
 2390SOL    HW1 8069   4.621   2.640   5.972
 2390SOL    HW2 8070   4.683   2.576   6.108
 2391SOL     OW 8071   3.479   4.690   6.356
 2391SOL    HW1 8072   3.385   4.712   6.332
 2391SOL    HW2 8073   3.481   4.605   6.409
 2392SOL     OW 8074   4.366   4.062   5.680
 2392SOL    HW1 8075   4.341   3.966   5.690
 2392SOL    HW2 8076   4.375   4.104   5.770
 2393SOL     OW 8077   4.856   4.363   0.612
 2393SOL    HW1 8078   4.788   4.380   0.684
 2393SOL    HW2 8079   4.939   4.327   0.653
 2394SOL     OW 8080   0.346   1.558   3.477
 2394SOL    HW1 8081   0.427   1.505   3.502
 2394SOL    HW2 8082   0.359   1.597   3.386
 2395SOL     OW 8083   1.195   2.941   3.992
 2395SOL    HW1 8084   1.105   2.955   3.951
 2395SOL    HW2 8085   1.263   2.997   3.944
 2396SOL     OW 8086   1.044   0.454   6.107
 2396SOL    HW1 8087   0.960   0.413   6.072
 2396SOL    HW2 8088   1.121   0.426   6.050
 2397SOL     OW 8089   0.533   3.746   5.151
 2397SOL    HW1 8090   0.601   3.819   5.151
 2397SOL    HW2 8091   0.566   3.669   5.204
 2398SOL     OW 8092   4.315   0.094   3.839
 2398SOL    HW1 8093   4.218   0.088   3.819
 2398SOL    HW2 8094   4.362   0.012   3.807
 2399SOL     OW 8095   3.351   2.153   3.279
 2399SOL    HW1 8096   3.321   2.073   3.330
 2399SOL    HW2 8097   3.352   2.233   3.339
 2400SOL     OW 8098   1.625   3.775   0.684
 2400SOL    HW1 8099   1.640   3.779   0.585
 2400SOL    HW2 8100   1.545   3.829   0.708
 2401SOL     OW 8101   1.761   6.915   6.742
 2401SOL    HW1 8102   1.807   6.903   6.654
 2401SOL    HW2 8103   1.702   6.836   6.760
 2402SOL     OW 8104   0.785   4.035   2.268
 2402SOL    HW1 8105   0.712   4.001   2.210
 2402SOL    HW2 8106   0.747   4.069   2.354
 2403SOL     OW 8107   3.362   3.895   4.440
 2403SOL    HW1 8108   3.306   3.960   4.492
 2403SOL    HW2 8109   3.443   3.872   4.493
 2404SOL     OW 8110   5.652   1.741   0.742
 2404SOL    HW1 8111   5.632   1.669   0.809
 2404SOL    HW2 8112   5.633   1.707   0.650
 2405SOL     OW 8113   1.188   3.278   0.685
 2405SOL    HW1 8114   1.211   3.185   0.713
 2405SOL    HW2 8115   1.096   3.280   0.646
 2406SOL     OW 8116   2.723   5.735   4.382
 2406SOL    HW1 8117   2.689   5.755   4.474
 2406SOL    HW2 8118   2.646   5.734   4.317
 2407SOL     OW 8119   2.958   0.745   3.303
 2407SOL    HW1 8120   3.043   0.693   3.297
 2407SOL    HW2 8121   2.964   0.826   3.245
 2408SOL     OW 8122   3.057   6.264   5.549
 2408SOL    HW1 8123   3.122   6.326   5.594
 2408SOL    HW2 8124   3.053   6.178   5.600
 2409SOL     OW 8125   0.904   3.491   0.313
 2409SOL    HW1 8126   0.866   3.417   0.367
 2409SOL    HW2 8127   1.001   3.475   0.296
 2410SOL     OW 8128   0.071   2.573   4.451
 2410SOL    HW1 8129   0.005   2.548   4.522
 2410SOL    HW2 8130   0.057   2.668   4.424
 2411SOL     OW 8131   3.305   2.082   6.545
 2411SOL    HW1 8132   3.230   2.110   6.484
 2411SOL    HW2 8133   3.267   2.039   6.626
 2412SOL     OW 8134   3.142   1.435   5.553
 2412SOL    HW1 8135   3.207   1.409   5.481
 2412SOL    HW2 8136   3.049   1.427   5.519
 2413SOL     OW 8137   0.293   2.960   6.913
 2413SOL    HW1 8138   0.382   2.997   6.887
 2413SOL    HW2 8139   0.305   2.893   6.987
 2414SOL     OW 8140   6.723   1.489   5.127
 2414SOL    HW1 8141   6.740   1.411   5.067
 2414SOL    HW2 8142   6.627   1.515   5.120
 2415SOL     OW 8143   2.722   5.215   6.502
 2415SOL    HW1 8144   2.805   5.200   6.448
 2415SOL    HW2 8145   2.745   5.219   6.599
 2416SOL     OW 8146   0.214   2.625   2.942
 2416SOL    HW1 8147   0.261   2.548   2.898
 2416SOL    HW2 8148   0.120   2.598   2.962
 2417SOL     OW 8149   2.725   2.721   1.493
 2417SOL    HW1 8150   2.782   2.672   1.559
 2417SOL    HW2 8151   2.638   2.672   1.483
 2418SOL     OW 8152   4.736   3.939   6.642
 2418SOL    HW1 8153   4.775   3.994   6.716
 2418SOL    HW2 8154   4.801   3.866   6.618
 2419SOL     OW 8155   2.907   0.590   3.741
 2419SOL    HW1 8156   2.829   0.553   3.792
 2419SOL    HW2 8157   2.909   0.690   3.752
 2420SOL     OW 8158   1.317   4.124   2.309
 2420SOL    HW1 8159   1.315   4.065   2.390
 2420SOL    HW2 8160   1.233   4.177   2.305
 2421SOL     OW 8161   3.053   6.755   3.684
 2421SOL    HW1 8162   3.081   6.850   3.691
 2421SOL    HW2 8163   2.975   6.748   3.622
 2422SOL     OW 8164   4.384   4.829   1.061
 2422SOL    HW1 8165   4.374   4.801   0.965
 2422SOL    HW2 8166   4.355   4.754   1.120
 2423SOL     OW 8167   2.240   5.497   2.909
 2423SOL    HW1 8168   2.294   5.460   2.985
 2423SOL    HW2 8169   2.149   5.522   2.943
 2424SOL     OW 8170   5.232   6.812   6.443
 2424SOL    HW1 8171   5.212   6.750   6.367
 2424SOL    HW2 8172   5.295   6.768   6.507
 2425SOL     OW 8173   5.019   5.702   4.759
 2425SOL    HW1 8174   5.013   5.645   4.676
 2425SOL    HW2 8175   4.927   5.718   4.794
 2426SOL     OW 8176   2.027   2.596   5.116
 2426SOL    HW1 8177   1.997   2.657   5.043
 2426SOL    HW2 8178   1.974   2.614   5.198
 2427SOL     OW 8179   5.398   0.663   0.768
 2427SOL    HW1 8180   5.347   0.627   0.690
 2427SOL    HW2 8181   5.338   0.721   0.823
 2428SOL     OW 8182   1.321   1.225   2.696
 2428SOL    HW1 8183   1.375   1.141   2.688
 2428SOL    HW2 8184   1.308   1.265   2.605
 2429SOL     OW 8185   5.880   5.248   1.872
 2429SOL    HW1 8186   5.859   5.172   1.810
 2429SOL    HW2 8187   5.796   5.299   1.892
 2430SOL     OW 8188   6.226   0.889   6.653
 2430SOL    HW1 8189   6.192   0.918   6.564
 2430SOL    HW2 8190   6.210   0.961   6.720
 2431SOL     OW 8191   0.463   3.747   1.783
 2431SOL    HW1 8192   0.423   3.737   1.692
 2431SOL    HW2 8193   0.550   3.699   1.787
 2432SOL     OW 8194   2.037   5.299   1.733
 2432SOL    HW1 8195   2.120   5.303   1.679
 2432SOL    HW2 8196   1.962   5.343   1.683
 2433SOL     OW 8197   0.084   3.903   5.040
 2433SOL    HW1 8198   0.107   3.837   4.968
 2433SOL    HW2 8199   0.081   3.856   5.128
 2434SOL     OW 8200   3.916   0.603   2.486
 2434SOL    HW1 8201   3.879   0.631   2.575
 2434SOL    HW2 8202   3.901   0.505   2.473
 2435SOL     OW 8203   6.104   6.818   6.834
 2435SOL    HW1 8204   6.044   6.847   6.759
 2435SOL    HW2 8205   6.199   6.826   6.804
 2436SOL     OW 8206   0.844   2.574   1.206
 2436SOL    HW1 8207   0.784   2.654   1.216
 2436SOL    HW2 8208   0.803   2.496   1.252
 2437SOL     OW 8209   6.901   3.917   2.581
 2437SOL    HW1 8210   6.992   3.903   2.543
 2437SOL    HW2 8211   6.909   3.962   2.671
 2438SOL     OW 8212   4.018   1.807   4.716
 2438SOL    HW1 8213   4.073   1.803   4.800
 2438SOL    HW2 8214   3.998   1.902   4.693
 2439SOL     OW 8215   1.476   5.873   1.369
 2439SOL    HW1 8216   1.572   5.870   1.341
 2439SOL    HW2 8217   1.439   5.964   1.351
 2440SOL     OW 8218   6.113   1.527   5.841
 2440SOL    HW1 8219   6.024   1.571   5.859
 2440SOL    HW2 8220   6.187   1.591   5.863
 2441SOL     OW 8221   6.192   0.195   0.642
 2441SOL    HW1 8222   6.284   0.232   0.628
 2441SOL    HW2 8223   6.156   0.164   0.554
 2442SOL     OW 8224   5.452   3.050   1.262
 2442SOL    HW1 8225   5.384   3.120   1.238
 2442SOL    HW2 8226   5.416   2.993   1.336
 2443SOL     OW 8227   0.890   2.825   1.899
 2443SOL    HW1 8228   0.911   2.922   1.890
 2443SOL    HW2 8229   0.940   2.788   1.977
 2444SOL     OW 8230   3.110   5.720   2.227
 2444SOL    HW1 8231   3.067   5.775   2.155
 2444SOL    HW2 8232   3.134   5.778   2.304
 2445SOL     OW 8233   0.873   2.046   1.665
 2445SOL    HW1 8234   0.848   1.950   1.677
 2445SOL    HW2 8235   0.802   2.093   1.611
 2446SOL     OW 8236   0.944   5.236   1.931
 2446SOL    HW1 8237   0.947   5.142   1.897
 2446SOL    HW2 8238   1.004   5.245   2.010
 2447SOL     OW 8239   2.305   7.016   0.172
 2447SOL    HW1 8240   2.281   0.046   0.089
 2447SOL    HW2 8241   2.311   0.058   0.249
 2448SOL     OW 8242   5.488   1.201   4.488
 2448SOL    HW1 8243   5.503   1.127   4.423
 2448SOL    HW2 8244   5.461   1.162   4.577
 2449SOL     OW 8245   1.236   4.281   1.830
 2449SOL    HW1 8246   1.179   4.258   1.908
 2449SOL    HW2 8247   1.220   4.215   1.756
 2450SOL     OW 8248   1.044   6.579   5.352
 2450SOL    HW1 8249   0.965   6.536   5.396
 2450SOL    HW2 8250   1.065   6.666   5.397
 2451SOL     OW 8251   1.068   6.360   5.091
 2451SOL    HW1 8252   1.096   6.326   5.181
 2451SOL    HW2 8253   1.050   6.459   5.097
 2452SOL     OW 8254   2.757   1.958   3.205
 2452SOL    HW1 8255   2.705   1.952   3.120
 2452SOL    HW2 8256   2.704   2.009   3.273
 2453SOL     OW 8257   1.187   1.082   5.436
 2453SOL    HW1 8258   1.201   0.986   5.463
 2453SOL    HW2 8259   1.091   1.106   5.449
 2454SOL     OW 8260   3.644   5.782   0.886
 2454SOL    HW1 8261   3.602   5.868   0.915
 2454SOL    HW2 8262   3.744   5.792   0.888
 2455SOL     OW 8263   3.960   2.528   0.373
 2455SOL    HW1 8264   4.003   2.440   0.392
 2455SOL    HW2 8265   3.891   2.517   0.302
 2456SOL     OW 8266   0.640   2.842   5.917
 2456SOL    HW1 8267   0.557   2.819   5.866
 2456SOL    HW2 8268   0.638   2.796   6.006
 2457SOL     OW 8269   4.518   2.243   5.131
 2457SOL    HW1 8270   4.495   2.265   5.226
 2457SOL    HW2 8271   4.617   2.233   5.122
 2458SOL     OW 8272   0.825   0.499   2.801
 2458SOL    HW1 8273   0.727   0.492   2.786
 2458SOL    HW2 8274   0.844   0.577   2.861
 2459SOL     OW 8275   2.272   0.118   6.948
 2459SOL    HW1 8276   2.186   0.169   6.940
 2459SOL    HW2 8277   2.349   0.182   6.953
 2460SOL     OW 8278   1.144   1.368   4.874
 2460SOL    HW1 8279   1.215   1.416   4.926
 2460SOL    HW2 8280   1.069   1.342   4.935
 2461SOL     OW 8281   4.571   0.410   3.726
 2461SOL    HW1 8282   4.659   0.456   3.716
 2461SOL    HW2 8283   4.556   0.390   3.823
 2462SOL     OW 8284   0.308   4.782   0.088
 2462SOL    HW1 8285   0.310   4.763   7.010
 2462SOL    HW2 8286   0.228   4.839   0.109
 2463SOL     OW 8287   6.660   0.628   0.339
 2463SOL    HW1 8288   6.652   0.726   0.322
 2463SOL    HW2 8289   6.569   0.586   0.335
 2464SOL     OW 8290   0.559   2.298   4.023
 2464SOL    HW1 8291   0.510   2.382   4.000
 2464SOL    HW2 8292   0.655   2.320   4.040
 2465SOL     OW 8293   0.228   6.798   6.043
 2465SOL    HW1 8294   0.265   6.733   5.977
 2465SOL    HW2 8295   0.268   6.780   6.133
 2466SOL     OW 8296   0.569   1.924   1.904
 2466SOL    HW1 8297   0.652   1.872   1.883
 2466SOL    HW2 8298   0.592   2.020   1.916
 2467SOL     OW 8299   6.168   2.642   5.351
 2467SOL    HW1 8300   6.161   2.610   5.445
 2467SOL    HW2 8301   6.101   2.714   5.335
 2468SOL     OW 8302   3.472   6.798   5.208
 2468SOL    HW1 8303   3.413   6.849   5.145
 2468SOL    HW2 8304   3.425   6.786   5.296
 2469SOL     OW 8305   3.554   1.649   5.429
 2469SOL    HW1 8306   3.530   1.654   5.332
 2469SOL    HW2 8307   3.482   1.693   5.483
 2470SOL     OW 8308   2.895   4.877   6.470
 2470SOL    HW1 8309   2.977   4.925   6.440
 2470SOL    HW2 8310   2.841   4.849   6.391
 2471SOL     OW 8311   2.818   5.484   1.873
 2471SOL    HW1 8312   2.746   5.508   1.938
 2471SOL    HW2 8313   2.789   5.406   1.818
 2472SOL     OW 8314   5.127   1.772   3.403
 2472SOL    HW1 8315   5.227   1.768   3.396
 2472SOL    HW2 8316   5.089   1.809   3.319
 2473SOL     OW 8317   0.275   4.106   4.321
 2473SOL    HW1 8318   0.217   4.148   4.251
 2473SOL    HW2 8319   0.286   4.008   4.301
 2474SOL     OW 8320   1.160   6.098   1.679
 2474SOL    HW1 8321   1.094   6.134   1.745
 2474SOL    HW2 8322   1.244   6.151   1.685
 2475SOL     OW 8323   4.972   0.905   0.623
 2475SOL    HW1 8324   5.002   0.907   0.718
 2475SOL    HW2 8325   4.971   0.998   0.586
 2476SOL     OW 8326   5.267   1.020   0.465
 2476SOL    HW1 8327   5.309   0.962   0.395
 2476SOL    HW2 8328   5.291   0.985   0.556
 2477SOL     OW 8329   3.987   0.184   3.137
 2477SOL    HW1 8330   4.037   0.236   3.207
 2477SOL    HW2 8331   3.983   0.088   3.165
 2478SOL     OW 8332   4.568   6.815   4.652
 2478SOL    HW1 8333   4.634   6.862   4.711
 2478SOL    HW2 8334   4.494   6.777   4.707
 2479SOL     OW 8335   5.572   3.168   0.011
 2479SOL    HW1 8336   5.570   3.074   0.046
 2479SOL    HW2 8337   5.637   3.222   0.065
 2480SOL     OW 8338   3.312   2.369   1.734
 2480SOL    HW1 8339   3.305   2.463   1.698
 2480SOL    HW2 8340   3.222   2.325   1.729
 2481SOL     OW 8341   3.155   0.530   1.222
 2481SOL    HW1 8342   3.109   0.538   1.310
 2481SOL    HW2 8343   3.115   0.595   1.157
 2482SOL     OW 8344   5.976   3.092   6.337
 2482SOL    HW1 8345   5.942   3.114   6.245
 2482SOL    HW2 8346   6.062   3.142   6.353
 2483SOL     OW 8347   1.229   2.435   0.279
 2483SOL    HW1 8348   1.246   2.465   0.186
 2483SOL    HW2 8349   1.302   2.467   0.339
 2484SOL     OW 8350   5.395   0.694   1.241
 2484SOL    HW1 8351   5.373   0.598   1.227
 2484SOL    HW2 8352   5.380   0.719   1.337
 2485SOL     OW 8353   6.871   2.145   6.269
 2485SOL    HW1 8354   6.855   2.098   6.182
 2485SOL    HW2 8355   6.784   2.158   6.316
 2486SOL     OW 8356   6.821   5.065   5.159
 2486SOL    HW1 8357   6.907   5.072   5.209
 2486SOL    HW2 8358   6.768   5.149   5.173
 2487SOL     OW 8359   5.295   5.721   6.607
 2487SOL    HW1 8360   5.321   5.776   6.527
 2487SOL    HW2 8361   5.227   5.771   6.660
 2488SOL     OW 8362   6.406   4.123   1.078
 2488SOL    HW1 8363   6.420   4.086   1.170
 2488SOL    HW2 8364   6.380   4.049   1.016
 2489SOL     OW 8365   0.043   6.385   4.662
 2489SOL    HW1 8366   0.026   6.286   4.668
 2489SOL    HW2 8367   0.141   6.401   4.652
 2490SOL     OW 8368   2.443   5.810   2.593
 2490SOL    HW1 8369   2.358   5.759   2.586
 2490SOL    HW2 8370   2.509   5.774   2.526
 2491SOL     OW 8371   3.606   4.574   1.404
 2491SOL    HW1 8372   3.621   4.621   1.317
 2491SOL    HW2 8373   3.609   4.475   1.390
 2492SOL     OW 8374   6.820   4.550   1.976
 2492SOL    HW1 8375   6.834   4.637   2.022
 2492SOL    HW2 8376   6.900   4.492   1.989
 2493SOL     OW 8377   6.269   6.810   1.253
 2493SOL    HW1 8378   6.192   6.874   1.258
 2493SOL    HW2 8379   6.310   6.800   1.344
 2494SOL     OW 8380   6.538   3.773   2.546
 2494SOL    HW1 8381   6.464   3.780   2.614
 2494SOL    HW2 8382   6.547   3.859   2.497
 2495SOL     OW 8383   6.570   4.551   3.201
 2495SOL    HW1 8384   6.593   4.490   3.277
 2495SOL    HW2 8385   6.471   4.565   3.198
 2496SOL     OW 8386   6.035   4.911   6.044
 2496SOL    HW1 8387   6.123   4.882   6.008
 2496SOL    HW2 8388   5.972   4.927   5.968
 2497SOL     OW 8389   0.531   0.501   2.250
 2497SOL    HW1 8390   0.576   0.440   2.184
 2497SOL    HW2 8391   0.563   0.480   2.342
 2498SOL     OW 8392   1.872   3.741   6.262
 2498SOL    HW1 8393   1.947   3.761   6.199
 2498SOL    HW2 8394   1.796   3.701   6.211
 2499SOL     OW 8395   6.705   3.882   1.887
 2499SOL    HW1 8396   6.678   3.790   1.917
 2499SOL    HW2 8397   6.691   3.947   1.962
 2500SOL     OW 8398   3.771   3.928   6.827
 2500SOL    HW1 8399   3.815   3.977   6.902
 2500SOL    HW2 8400   3.810   3.837   6.820
 2501SOL     OW 8401   5.888   5.725   0.320
 2501SOL    HW1 8402   5.828   5.738   0.241
 2501SOL    HW2 8403   5.840   5.751   0.403
 2502SOL     OW 8404   2.967   5.180   4.374
 2502SOL    HW1 8405   2.917   5.254   4.328
 2502SOL    HW2 8406   3.065   5.194   4.362
 2503SOL     OW 8407   2.429   6.631   5.984
 2503SOL    HW1 8408   2.410   6.656   5.889
 2503SOL    HW2 8409   2.466   6.538   5.988
 2504SOL     OW 8410   3.264   6.351   3.296
 2504SOL    HW1 8411   3.223   6.441   3.308
 2504SOL    HW2 8412   3.351   6.346   3.343
 2505SOL     OW 8413   0.199   5.461   3.412
 2505SOL    HW1 8414   0.298   5.450   3.405
 2505SOL    HW2 8415   0.166   5.411   3.492
 2506SOL     OW 8416   5.185   5.549   6.047
 2506SOL    HW1 8417   5.169   5.484   5.973
 2506SOL    HW2 8418   5.111   5.617   6.048
 2507SOL     OW 8419   6.589   3.360   0.360
 2507SOL    HW1 8420   6.646   3.279   0.375
 2507SOL    HW2 8421   6.573   3.372   0.262
 2508SOL     OW 8422   4.636   2.251   3.928
 2508SOL    HW1 8423   4.706   2.181   3.913
 2508SOL    HW2 8424   4.676   2.342   3.916
 2509SOL     OW 8425   0.282   4.179   5.450
 2509SOL    HW1 8426   0.284   4.117   5.528
 2509SOL    HW2 8427   0.189   4.212   5.435
 2510SOL     OW 8428   3.429   4.158   1.902
 2510SOL    HW1 8429   3.467   4.172   1.993
 2510SOL    HW2 8430   3.329   4.157   1.907
 2511SOL     OW 8431   2.035   0.388   5.019
 2511SOL    HW1 8432   2.078   0.321   5.080
 2511SOL    HW2 8433   2.103   0.420   4.952
 2512SOL     OW 8434   3.649   5.218   4.120
 2512SOL    HW1 8435   3.660   5.255   4.212
 2512SOL    HW2 8436   3.572   5.154   4.118
 2513SOL     OW 8437   2.156   6.067   6.125
 2513SOL    HW1 8438   2.226   6.067   6.054
 2513SOL    HW2 8439   2.199   6.062   6.215
 2514SOL     OW 8440   1.326   2.771   3.031
 2514SOL    HW1 8441   1.383   2.693   3.058
 2514SOL    HW2 8442   1.295   2.820   3.112
 2515SOL     OW 8443   1.420   1.593   1.532
 2515SOL    HW1 8444   1.479   1.532   1.585
 2515SOL    HW2 8445   1.418   1.562   1.437
 2516SOL     OW 8446   5.786   1.871   3.974
 2516SOL    HW1 8447   5.707   1.848   3.917
 2516SOL    HW2 8448   5.799   1.971   3.974
 2517SOL     OW 8449   1.345   1.689   4.260
 2517SOL    HW1 8450   1.439   1.696   4.292
 2517SOL    HW2 8451   1.284   1.669   4.337
 2518SOL     OW 8452   2.704   4.079   1.538
 2518SOL    HW1 8453   2.726   4.026   1.620
 2518SOL    HW2 8454   2.677   4.172   1.565
 2519SOL     OW 8455   1.210   1.203   0.447
 2519SOL    HW1 8456   1.124   1.214   0.497
 2519SOL    HW2 8457   1.275   1.153   0.504
 2520SOL     OW 8458   2.936   2.458   0.898
 2520SOL    HW1 8459   3.011   2.395   0.876
 2520SOL    HW2 8460   2.959   2.550   0.867
 2521SOL     OW 8461   5.180   1.317   5.041
 2521SOL    HW1 8462   5.101   1.300   5.099
 2521SOL    HW2 8463   5.253   1.252   5.064
 2522SOL     OW 8464   0.737   1.942   6.206
 2522SOL    HW1 8465   0.819   1.951   6.150
 2522SOL    HW2 8466   0.657   1.934   6.147
 2523SOL     OW 8467   2.068   4.875   0.068
 2523SOL    HW1 8468   2.076   4.788   0.019
 2523SOL    HW2 8469   2.016   4.940   0.012
 2524SOL     OW 8470   1.233   6.735   4.043
 2524SOL    HW1 8471   1.195   6.643   4.057
 2524SOL    HW2 8472   1.216   6.791   4.125
 2525SOL     OW 8473   6.931   2.208   4.300
 2525SOL    HW1 8474   6.963   2.286   4.247
 2525SOL    HW2 8475   6.844   2.176   4.264
 2526SOL     OW 8476   1.046   6.449   0.956
 2526SOL    HW1 8477   1.080   6.533   0.912
 2526SOL    HW2 8478   0.972   6.472   1.019
 2527SOL     OW 8479   4.854   4.765   6.470
 2527SOL    HW1 8480   4.897   4.701   6.406
 2527SOL    HW2 8481   4.881   4.858   6.446
 2528SOL     OW 8482   4.906   5.097   6.515
 2528SOL    HW1 8483   4.886   5.194   6.531
 2528SOL    HW2 8484   4.907   5.048   6.602
 2529SOL     OW 8485   0.257   0.015   6.462
 2529SOL    HW1 8486   0.228   0.102   6.421
 2529SOL    HW2 8487   0.218   0.007   6.554
 2530SOL     OW 8488   1.749   5.891   5.988
 2530SOL    HW1 8489   1.776   5.804   6.029
 2530SOL    HW2 8490   1.724   5.877   5.892
 2531SOL     OW 8491   6.117   5.462   6.011
 2531SOL    HW1 8492   6.051   5.470   6.086
 2531SOL    HW2 8493   6.129   5.366   5.988
 2532SOL     OW 8494   6.407   6.713   0.847
 2532SOL    HW1 8495   6.308   6.717   0.835
 2532SOL    HW2 8496   6.446   6.646   0.783
 2533SOL     OW 8497   5.015   0.661   3.242
 2533SOL    HW1 8498   5.010   0.652   3.143
 2533SOL    HW2 8499   4.930   0.628   3.283
 2534SOL     OW 8500   4.681   1.911   2.724
 2534SOL    HW1 8501   4.658   1.818   2.695
 2534SOL    HW2 8502   4.664   1.920   2.822
 2535SOL     OW 8503   3.683   2.976   6.000
 2535SOL    HW1 8504   3.591   2.989   5.964
 2535SOL    HW2 8505   3.681   2.983   6.100
 2536SOL     OW 8506   1.534   0.489   6.817
 2536SOL    HW1 8507   1.480   0.449   6.891
 2536SOL    HW2 8508   1.631   0.488   6.841
 2537SOL     OW 8509   4.328   0.767   6.979
 2537SOL    HW1 8510   4.229   0.753   6.974
 2537SOL    HW2 8511   4.349   0.864   6.969
 2538SOL     OW 8512   6.845   3.396   3.906
 2538SOL    HW1 8513   6.924   3.453   3.887
 2538SOL    HW2 8514   6.875   3.312   3.952
 2539SOL     OW 8515   4.783   1.751   5.035
 2539SOL    HW1 8516   4.845   1.675   5.015
 2539SOL    HW2 8517   4.786   1.772   5.132
 2540SOL     OW 8518   3.447   1.533   2.318
 2540SOL    HW1 8519   3.439   1.479   2.235
 2540SOL    HW2 8520   3.504   1.613   2.301
 2541SOL     OW 8521   3.531   6.306   5.272
 2541SOL    HW1 8522   3.558   6.395   5.237
 2541SOL    HW2 8523   3.449   6.316   5.330
 2542SOL     OW 8524   1.153   4.780   6.237
 2542SOL    HW1 8525   1.216   4.807   6.163
 2542SOL    HW2 8526   1.199   4.792   6.325
 2543SOL     OW 8527   1.802   1.379   4.110
 2543SOL    HW1 8528   1.789   1.398   4.013
 2543SOL    HW2 8529   1.713   1.378   4.157
 2544SOL     OW 8530   0.632   5.196   0.339
 2544SOL    HW1 8531   0.683   5.273   0.380
 2544SOL    HW2 8532   0.646   5.195   0.240
 2545SOL     OW 8533   2.087   6.379   2.688
 2545SOL    HW1 8534   2.055   6.409   2.599
 2545SOL    HW2 8535   2.028   6.416   2.760
 2546SOL     OW 8536   5.814   2.128   0.923
 2546SOL    HW1 8537   5.892   2.107   0.864
 2546SOL    HW2 8538   5.811   2.062   0.998
 2547SOL     OW 8539   0.288   3.638   5.148
 2547SOL    HW1 8540   0.246   3.671   5.064
 2547SOL    HW2 8541   0.379   3.678   5.158
 2548SOL     OW 8542   0.304   5.966   3.947
 2548SOL    HW1 8543   0.309   6.065   3.963
 2548SOL    HW2 8544   0.318   5.948   3.850
 2549SOL     OW 8545   0.612   1.298   0.548
 2549SOL    HW1 8546   0.616   1.242   0.631
 2549SOL    HW2 8547   0.622   1.240   0.468
 2550SOL     OW 8548   5.699   6.336   0.824
 2550SOL    HW1 8549   5.657   6.315   0.736
 2550SOL    HW2 8550   5.642   6.300   0.898
 2551SOL     OW 8551   1.396   4.207   6.626
 2551SOL    HW1 8552   1.318   4.160   6.667
 2551SOL    HW2 8553   1.375   4.233   6.533
 2552SOL     OW 8554   2.292   5.882   3.152
 2552SOL    HW1 8555   2.337   5.794   3.167
 2552SOL    HW2 8556   2.215   5.891   3.215
 2553SOL     OW 8557   4.125   3.543   6.802
 2553SOL    HW1 8558   4.148   3.538   6.705
 2553SOL    HW2 8559   4.208   3.551   6.856
 2554SOL     OW 8560   1.426   1.326   0.242
 2554SOL    HW1 8561   1.500   1.263   0.265
 2554SOL    HW2 8562   1.346   1.306   0.299
 2555SOL     OW 8563   6.005   2.541   6.505
 2555SOL    HW1 8564   5.989   2.528   6.407
 2555SOL    HW2 8565   6.079   2.481   6.535
 2556SOL     OW 8566   3.396   6.344   0.485
 2556SOL    HW1 8567   3.349   6.256   0.492
 2556SOL    HW2 8568   3.343   6.414   0.533
 2557SOL     OW 8569   1.780   4.098   7.001
 2557SOL    HW1 8570   1.872   4.135   7.014
 2557SOL    HW2 8571   1.778   4.041   6.919
 2558SOL     OW 8572   4.618   0.910   5.774
 2558SOL    HW1 8573   4.663   0.829   5.735
 2558SOL    HW2 8574   4.611   0.900   5.873
 2559SOL     OW 8575   0.244   4.453   4.517
 2559SOL    HW1 8576   0.293   4.461   4.604
 2559SOL    HW2 8577   0.165   4.394   4.528
 2560SOL     OW 8578   5.994   1.858   6.023
 2560SOL    HW1 8579   5.969   1.932   6.084
 2560SOL    HW2 8580   6.058   1.891   5.953
 2561SOL     OW 8581   2.928   5.307   4.918
 2561SOL    HW1 8582   2.879   5.301   4.831
 2561SOL    HW2 8583   3.013   5.358   4.905
 2562SOL     OW 8584   1.660   3.815   0.390
 2562SOL    HW1 8585   1.561   3.815   0.374
 2562SOL    HW2 8586   1.702   3.890   0.339
 2563SOL     OW 8587   3.111   1.116   6.750
 2563SOL    HW1 8588   3.116   1.096   6.653
 2563SOL    HW2 8589   3.199   1.095   6.793
 2564SOL     OW 8590   1.659   5.443   1.854
 2564SOL    HW1 8591   1.563   5.432   1.827
 2564SOL    HW2 8592   1.697   5.525   1.811
 2565SOL     OW 8593   1.364   0.709   1.410
 2565SOL    HW1 8594   1.295   0.654   1.455
 2565SOL    HW2 8595   1.325   0.797   1.383
 2566SOL     OW 8596   1.672   6.385   0.036
 2566SOL    HW1 8597   1.697   6.363   6.962
 2566SOL    HW2 8598   1.754   6.408   0.088
 2567SOL     OW 8599   1.387   6.380   0.097
 2567SOL    HW1 8600   1.457   6.332   0.044
 2567SOL    HW2 8601   1.432   6.443   0.161
 2568SOL     OW 8602   4.741   2.410   0.172
 2568SOL    HW1 8603   4.658   2.465   0.181
 2568SOL    HW2 8604   4.730   2.325   0.224
 2569SOL     OW 8605   3.246   0.236   3.410
 2569SOL    HW1 8606   3.178   0.307   3.431
 2569SOL    HW2 8607   3.208   0.146   3.429
 2570SOL     OW 8608   5.221   1.763   6.334
 2570SOL    HW1 8609   5.129   1.800   6.324
 2570SOL    HW2 8610   5.221   1.665   6.314
 2571SOL     OW 8611   1.160   4.662   4.043
 2571SOL    HW1 8612   1.252   4.623   4.047
 2571SOL    HW2 8613   1.100   4.613   4.107
 2572SOL     OW 8614   2.346   4.815   2.630
 2572SOL    HW1 8615   2.364   4.807   2.532
 2572SOL    HW2 8616   2.292   4.736   2.661
 2573SOL     OW 8617   0.663   0.588   1.438
 2573SOL    HW1 8618   0.655   0.507   1.380
 2573SOL    HW2 8619   0.572   0.622   1.461
 2574SOL     OW 8620   6.556   3.258   6.873
 2574SOL    HW1 8621   6.593   3.309   6.795
 2574SOL    HW2 8622   6.545   3.162   6.849
 2575SOL     OW 8623   6.887   5.693   6.119
 2575SOL    HW1 8624   6.893   5.638   6.036
 2575SOL    HW2 8625   6.818   5.765   6.106
 2576SOL     OW 8626   4.548   6.309   4.109
 2576SOL    HW1 8627   4.462   6.326   4.157
 2576SOL    HW2 8628   4.530   6.290   4.013
 2577SOL     OW 8629   2.600   4.647   2.206
 2577SOL    HW1 8630   2.574   4.742   2.191
 2577SOL    HW2 8631   2.685   4.627   2.158
 2578SOL     OW 8632   4.158   1.751   3.689
 2578SOL    HW1 8633   4.125   1.763   3.595
 2578SOL    HW2 8634   4.115   1.819   3.748
 2579SOL     OW 8635   1.082   6.339   3.755
 2579SOL    HW1 8636   1.001   6.307   3.707
 2579SOL    HW2 8637   1.079   6.308   3.850
 2580SOL     OW 8638   2.228   2.784   6.929
 2580SOL    HW1 8639   2.288   2.822   6.858
 2580SOL    HW2 8640   2.159   2.852   6.953
 2581SOL     OW 8641   2.887   6.951   5.467
 2581SOL    HW1 8642   2.800   6.988   5.434
 2581SOL    HW2 8643   2.962   6.988   5.413
 2582SOL     OW 8644   0.400   3.079   1.525
 2582SOL    HW1 8645   0.379   3.166   1.570
 2582SOL    HW2 8646   0.431   3.097   1.432
 2583SOL     OW 8647   5.809   6.948   1.077
 2583SOL    HW1 8648   5.823   0.001   1.011
 2583SOL    HW2 8649   5.779   6.987   1.165
 2584SOL     OW 8650   4.326   4.806   5.363
 2584SOL    HW1 8651   4.380   4.826   5.445
 2584SOL    HW2 8652   4.263   4.881   5.346
 2585SOL     OW 8653   3.339   5.225   6.738
 2585SOL    HW1 8654   3.285   5.279   6.803
 2585SOL    HW2 8655   3.378   5.146   6.785
 2586SOL     OW 8656   2.259   0.681   4.818
 2586SOL    HW1 8657   2.266   0.585   4.790
 2586SOL    HW2 8658   2.272   0.689   4.917
 2587SOL     OW 8659   6.505   1.077   3.492
 2587SOL    HW1 8660   6.463   0.987   3.502
 2587SOL    HW2 8661   6.581   1.071   3.427
 2588SOL     OW 8662   4.542   0.806   5.397
 2588SOL    HW1 8663   4.520   0.904   5.389
 2588SOL    HW2 8664   4.574   0.772   5.309
 2589SOL     OW 8665   1.607   6.697   0.048
 2589SOL    HW1 8666   1.535   6.765   0.054
 2589SOL    HW2 8667   1.629   6.680   6.972
 2590SOL     OW 8668   2.805   5.240   0.374
 2590SOL    HW1 8669   2.825   5.332   0.406
 2590SOL    HW2 8670   2.718   5.209   0.414
 2591SOL     OW 8671   6.004   5.419   3.910
 2591SOL    HW1 8672   5.977   5.333   3.953
 2591SOL    HW2 8673   5.927   5.483   3.912
 2592SOL     OW 8674   2.359   4.813   0.184
 2592SOL    HW1 8675   2.407   4.758   0.115
 2592SOL    HW2 8676   2.278   4.854   0.144
 2593SOL     OW 8677   3.098   3.777   0.445
 2593SOL    HW1 8678   3.082   3.844   0.373
 2593SOL    HW2 8679   3.102   3.686   0.405
 2594SOL     OW 8680   1.758   4.028   4.497
 2594SOL    HW1 8681   1.681   4.031   4.560
 2594SOL    HW2 8682   1.736   3.968   4.420
 2595SOL     OW 8683   1.773   1.020   3.350
 2595SOL    HW1 8684   1.850   1.035   3.412
 2595SOL    HW2 8685   1.789   0.937   3.297
 2596SOL     OW 8686   1.219   2.240   6.986
 2596SOL    HW1 8687   1.315   2.269   6.977
 2596SOL    HW2 8688   1.183   2.214   6.897
 2597SOL     OW 8689   6.623   5.797   6.278
 2597SOL    HW1 8690   6.646   5.821   6.184
 2597SOL    HW2 8691   6.524   5.779   6.285
 2598SOL     OW 8692   5.586   2.666   2.284
 2598SOL    HW1 8693   5.503   2.697   2.237
 2598SOL    HW2 8694   5.570   2.575   2.324
 2599SOL     OW 8695   2.895   6.215   1.946
 2599SOL    HW1 8696   2.815   6.243   1.894
 2599SOL    HW2 8697   2.930   6.293   1.998
 2600SOL     OW 8698   6.443   4.066   4.439
 2600SOL    HW1 8699   6.523   4.034   4.387
 2600SOL    HW2 8700   6.376   3.992   4.445
 2601SOL     OW 8701   0.189   2.111   3.164
 2601SOL    HW1 8702   0.118   2.042   3.172
 2601SOL    HW2 8703   0.194   2.164   3.249
 2602SOL     OW 8704   1.722   4.963   3.831
 2602SOL    HW1 8705   1.745   4.983   3.926
 2602SOL    HW2 8706   1.800   4.984   3.772
 2603SOL     OW 8707   2.704   0.175   3.004
 2603SOL    HW1 8708   2.761   0.193   3.084
 2603SOL    HW2 8709   2.701   0.256   2.945
 2604SOL     OW 8710   4.405   2.435   2.721
 2604SOL    HW1 8711   4.326   2.377   2.699
 2604SOL    HW2 8712   4.482   2.377   2.748
 2605SOL     OW 8713   1.492   3.630   1.930
 2605SOL    HW1 8714   1.470   3.694   1.856
 2605SOL    HW2 8715   1.585   3.595   1.916
 2606SOL     OW 8716   4.531   3.704   1.109
 2606SOL    HW1 8717   4.516   3.777   1.175
 2606SOL    HW2 8718   4.444   3.681   1.065
 2607SOL     OW 8719   2.671   2.148   1.355
 2607SOL    HW1 8720   2.619   2.188   1.280
 2607SOL    HW2 8721   2.768   2.156   1.337
 2608SOL     OW 8722   2.499   5.446   5.590
 2608SOL    HW1 8723   2.576   5.383   5.576
 2608SOL    HW2 8724   2.494   5.472   5.686
 2609SOL     OW 8725   0.002   1.440   0.685
 2609SOL    HW1 8726   0.094   1.402   0.677
 2609SOL    HW2 8727   6.993   1.439   0.780
 2610SOL     OW 8728   1.268   4.577   4.583
 2610SOL    HW1 8729   1.323   4.494   4.598
 2610SOL    HW2 8730   1.173   4.557   4.605
 2611SOL     OW 8731   5.370   0.009   6.404
 2611SOL    HW1 8732   5.316   6.947   6.421
 2611SOL    HW2 8733   5.338   0.053   6.320
 2612SOL     OW 8734   6.141   7.001   5.816
 2612SOL    HW1 8735   6.147   0.041   5.895
 2612SOL    HW2 8736   6.196   0.017   5.741
 2613SOL     OW 8737   1.129   5.820   6.801
 2613SOL    HW1 8738   1.168   5.854   6.887
 2613SOL    HW2 8739   1.106   5.898   6.742
 2614SOL     OW 8740   6.759   1.075   6.415
 2614SOL    HW1 8741   6.742   1.003   6.484
 2614SOL    HW2 8742   6.842   1.052   6.364
 2615SOL     OW 8743   0.893   3.299   0.527
 2615SOL    HW1 8744   0.810   3.271   0.575
 2615SOL    HW2 8745   0.944   3.218   0.499
 2616SOL     OW 8746   1.689   0.280   5.480
 2616SOL    HW1 8747   1.769   0.223   5.463
 2616SOL    HW2 8748   1.713   0.376   5.468
 2617SOL     OW 8749   5.645   0.199   1.334
 2617SOL    HW1 8750   5.740   0.207   1.364
 2617SOL    HW2 8751   5.585   0.237   1.404
 2618SOL     OW 8752   1.220   6.514   6.324
 2618SOL    HW1 8753   1.138   6.571   6.311
 2618SOL    HW2 8754   1.214   6.434   6.265
 2619SOL     OW 8755   4.860   1.181   2.344
 2619SOL    HW1 8756   4.945   1.228   2.368
 2619SOL    HW2 8757   4.818   1.143   2.426
 2620SOL     OW 8758   6.119   0.831   1.200
 2620SOL    HW1 8759   6.027   0.868   1.187
 2620SOL    HW2 8760   6.168   0.886   1.268
 2621SOL     OW 8761   1.469   6.375   1.810
 2621SOL    HW1 8762   1.468   6.312   1.733
 2621SOL    HW2 8763   1.388   6.360   1.867
 2622SOL     OW 8764   3.410   3.323   6.339
 2622SOL    HW1 8765   3.352   3.288   6.412
 2622SOL    HW2 8766   3.481   3.257   6.318
 2623SOL     OW 8767   0.903   6.582   3.598
 2623SOL    HW1 8768   0.878   6.510   3.533
 2623SOL    HW2 8769   0.994   6.617   3.576
 2624SOL     OW 8770   0.245   1.467   5.038
 2624SOL    HW1 8771   0.291   1.553   5.016
 2624SOL    HW2 8772   0.312   1.403   5.078
 2625SOL     OW 8773   2.175   5.342   6.088
 2625SOL    HW1 8774   2.232   5.322   6.009
 2625SOL    HW2 8775   2.228   5.392   6.156
 2626SOL     OW 8776   6.860   5.403   6.801
 2626SOL    HW1 8777   6.813   5.315   6.812
 2626SOL    HW2 8778   6.904   5.428   6.887
 2627SOL     OW 8779   1.869   6.902   5.360
 2627SOL    HW1 8780   1.872   6.818   5.414
 2627SOL    HW2 8781   1.793   6.898   5.296
 2628SOL     OW 8782   0.469   4.986   2.650
 2628SOL    HW1 8783   0.418   5.013   2.732
 2628SOL    HW2 8784   0.473   4.886   2.645
 2629SOL     OW 8785   3.428   3.850   2.624
 2629SOL    HW1 8786   3.440   3.860   2.526
 2629SOL    HW2 8787   3.339   3.807   2.643
 2630SOL     OW 8788   4.090   0.763   3.731
 2630SOL    HW1 8789   4.114   0.694   3.799
 2630SOL    HW2 8790   4.074   0.851   3.776
 2631SOL     OW 8791   6.211   0.387   6.851
 2631SOL    HW1 8792   6.273   0.438   6.792
 2631SOL    HW2 8793   6.214   0.425   6.944
 2632SOL     OW 8794   4.998   4.366   2.258
 2632SOL    HW1 8795   5.085   4.355   2.210
 2632SOL    HW2 8796   4.922   4.353   2.194
 2633SOL     OW 8797   0.233   3.231   6.106
 2633SOL    HW1 8798   0.239   3.219   6.205
 2633SOL    HW2 8799   0.180   3.313   6.085
 2634SOL     OW 8800   0.815   0.889   5.925
 2634SOL    HW1 8801   0.772   0.978   5.907
 2634SOL    HW2 8802   0.784   0.855   6.014
 2635SOL     OW 8803   5.240   5.078   3.026
 2635SOL    HW1 8804   5.287   5.164   3.006
 2635SOL    HW2 8805   5.250   5.057   3.124
 2636SOL     OW 8806   3.619   5.717   5.111
 2636SOL    HW1 8807   3.690   5.647   5.117
 2636SOL    HW2 8808   3.555   5.706   5.187
 2637SOL     OW 8809   0.710   1.397   3.653
 2637SOL    HW1 8810   0.652   1.409   3.572
 2637SOL    HW2 8811   0.675   1.321   3.707
 2638SOL     OW 8812   0.601   6.226   4.268
 2638SOL    HW1 8813   0.680   6.286   4.278
 2638SOL    HW2 8814   0.549   6.225   4.354
 2639SOL     OW 8815   4.049   4.799   5.073
 2639SOL    HW1 8816   3.952   4.787   5.054
 2639SOL    HW2 8817   4.061   4.861   5.151
 2640SOL     OW 8818   1.645   6.875   3.649
 2640SOL    HW1 8819   1.561   6.828   3.622
 2640SOL    HW2 8820   1.722   6.810   3.644
 2641SOL     OW 8821   5.652   2.661   7.007
 2641SOL    HW1 8822   5.636   2.734   6.941
 2641SOL    HW2 8823   5.748   2.662   0.015
 2642SOL     OW 8824   5.978   1.412   3.720
 2642SOL    HW1 8825   6.001   1.408   3.623
 2642SOL    HW2 8826   5.880   1.423   3.731
 2643SOL     OW 8827   2.244   4.704   3.568
 2643SOL    HW1 8828   2.272   4.702   3.664
 2643SOL    HW2 8829   2.302   4.642   3.515
 2644SOL     OW 8830   5.034   5.425   4.633
 2644SOL    HW1 8831   5.013   5.439   4.729
 2644SOL    HW2 8832   5.107   5.358   4.624
 2645SOL     OW 8833   4.863   5.632   3.796
 2645SOL    HW1 8834   4.961   5.621   3.809
 2645SOL    HW2 8835   4.846   5.704   3.729
 2646SOL     OW 8836   0.608   2.486   6.241
 2646SOL    HW1 8837   0.668   2.406   6.243
 2646SOL    HW2 8838   0.582   2.511   6.334
 2647SOL     OW 8839   5.542   0.382   1.863
 2647SOL    HW1 8840   5.496   0.465   1.830
 2647SOL    HW2 8841   5.637   0.403   1.885
 2648SOL     OW 8842   0.726   0.197   6.673
 2648SOL    HW1 8843   0.715   0.234   6.766
 2648SOL    HW2 8844   0.783   0.259   6.619
 2649SOL     OW 8845   4.834   1.928   2.071
 2649SOL    HW1 8846   4.834   1.850   2.009
 2649SOL    HW2 8847   4.760   1.990   2.046
 2650SOL     OW 8848   2.651   6.171   3.991
 2650SOL    HW1 8849   2.567   6.125   4.021
 2650SOL    HW2 8850   2.729   6.132   4.040
 2651SOL     OW 8851   4.337   2.379   4.264
 2651SOL    HW1 8852   4.238   2.393   4.260
 2651SOL    HW2 8853   4.374   2.376   4.171
 2652SOL     OW 8854   4.978   4.090   5.484
 2652SOL    HW1 8855   5.042   4.160   5.452
 2652SOL    HW2 8856   4.898   4.088   5.423
 2653SOL     OW 8857   2.456   5.407   0.436
 2653SOL    HW1 8858   2.380   5.397   0.500
 2653SOL    HW2 8859   2.424   5.390   0.343
 2654SOL     OW 8860   6.373   1.064   0.263
 2654SOL    HW1 8861   6.336   1.089   0.352
 2654SOL    HW2 8862   6.412   1.145   0.219
 2655SOL     OW 8863   4.880   6.219   2.667
 2655SOL    HW1 8864   4.787   6.226   2.630
 2655SOL    HW2 8865   4.940   6.283   2.618
 2656SOL     OW 8866   4.032   6.418   3.265
 2656SOL    HW1 8867   4.059   6.340   3.209
 2656SOL    HW2 8868   3.947   6.456   3.229
 2657SOL     OW 8869   0.472   4.161   0.276
 2657SOL    HW1 8870   0.405   4.132   0.344
 2657SOL    HW2 8871   0.503   4.081   0.224
 2658SOL     OW 8872   3.716   5.322   0.359
 2658SOL    HW1 8873   3.673   5.317   0.269
 2658SOL    HW2 8874   3.791   5.388   0.357
 2659SOL     OW 8875   0.248   1.861   4.956
 2659SOL    HW1 8876   0.164   1.847   4.904
 2659SOL    HW2 8877   0.272   1.958   4.954
 2660SOL     OW 8878   0.357   1.748   1.938
 2660SOL    HW1 8879   0.298   1.763   2.017
 2660SOL    HW2 8880   0.414   1.829   1.924
 2661SOL     OW 8881   1.445   1.185   0.928
 2661SOL    HW1 8882   1.368   1.124   0.909
 2661SOL    HW2 8883   1.531   1.136   0.914
 2662SOL     OW 8884   2.834   1.345   2.081
 2662SOL    HW1 8885   2.903   1.406   2.041
 2662SOL    HW2 8886   2.746   1.391   2.082
 2663SOL     OW 8887   4.045   6.814   0.156
 2663SOL    HW1 8888   4.055   6.910   0.130
 2663SOL    HW2 8889   3.975   6.805   0.226
 2664SOL     OW 8890   4.719   3.689   5.494
 2664SOL    HW1 8891   4.645   3.756   5.500
 2664SOL    HW2 8892   4.741   3.655   5.585
 2665SOL     OW 8893   2.129   3.902   4.806
 2665SOL    HW1 8894   2.150   3.986   4.758
 2665SOL    HW2 8895   2.143   3.915   4.904
 2666SOL     OW 8896   2.166   3.872   2.222
 2666SOL    HW1 8897   2.182   3.827   2.309
 2666SOL    HW2 8898   2.225   3.952   2.213
 2667SOL     OW 8899   0.154   2.941   4.727
 2667SOL    HW1 8900   0.241   2.892   4.738
 2667SOL    HW2 8901   0.135   2.993   4.810
 2668SOL     OW 8902   6.247   0.647   3.717
 2668SOL    HW1 8903   6.275   0.605   3.804
 2668SOL    HW2 8904   6.148   0.649   3.711
 2669SOL     OW 8905   2.535   0.619   6.986
 2669SOL    HW1 8906   2.485   0.695   6.943
 2669SOL    HW2 8907   2.498   0.603   0.056
 2670SOL     OW 8908   0.725   0.319   6.934
 2670SOL    HW1 8909   0.776   0.245   6.978
 2670SOL    HW2 8910   0.649   0.347   6.992
 2671SOL     OW 8911   5.179   4.708   6.100
 2671SOL    HW1 8912   5.098   4.761   6.127
 2671SOL    HW2 8913   5.150   4.618   6.067
 2672SOL     OW 8914   3.455   1.407   2.080
 2672SOL    HW1 8915   3.443   1.418   1.981
 2672SOL    HW2 8916   3.423   1.317   2.108
 2673SOL     OW 8917   3.364   0.270   2.662
 2673SOL    HW1 8918   3.379   0.239   2.756
 2673SOL    HW2 8919   3.447   0.255   2.608
 2674SOL     OW 8920   6.955   5.372   2.824
 2674SOL    HW1 8921   6.858   5.360   2.801
 2674SOL    HW2 8922   6.993   5.447   2.771
 2675SOL     OW 8923   5.351   0.708   4.195
 2675SOL    HW1 8924   5.271   0.691   4.137
 2675SOL    HW2 8925   5.356   0.638   4.266
 2676SOL     OW 8926   4.038   3.740   3.384
 2676SOL    HW1 8927   4.084   3.691   3.458
 2676SOL    HW2 8928   3.957   3.786   3.420
 2677SOL     OW 8929   2.631   5.106   1.141
 2677SOL    HW1 8930   2.683   5.062   1.068
 2677SOL    HW2 8931   2.693   5.134   1.214
 2678SOL     OW 8932   4.300   2.009   2.942
 2678SOL    HW1 8933   4.227   2.075   2.957
 2678SOL    HW2 8934   4.275   1.922   2.984
 2679SOL     OW 8935   2.043   3.362   2.745
 2679SOL    HW1 8936   2.016   3.265   2.746
 2679SOL    HW2 8937   2.055   3.392   2.651
 2680SOL     OW 8938   5.955   1.663   0.097
 2680SOL    HW1 8939   6.036   1.722   0.100
 2680SOL    HW2 8940   5.932   1.632   0.189
 2681SOL     OW 8941   1.890   2.204   4.218
 2681SOL    HW1 8942   1.827   2.260   4.165
 2681SOL    HW2 8943   1.891   2.236   4.313
 2682SOL     OW 8944   3.955   4.176   1.575
 2682SOL    HW1 8945   4.038   4.141   1.617
 2682SOL    HW2 8946   3.876   4.151   1.631
 2683SOL     OW 8947   2.236   4.376   2.007
 2683SOL    HW1 8948   2.285   4.457   2.040
 2683SOL    HW2 8949   2.154   4.363   2.062
 2684SOL     OW 8950   6.676   6.765   4.172
 2684SOL    HW1 8951   6.769   6.801   4.162
 2684SOL    HW2 8952   6.611   6.841   4.175
 2685SOL     OW 8953   0.785   5.654   5.933
 2685SOL    HW1 8954   0.880   5.628   5.917
 2685SOL    HW2 8955   0.762   5.733   5.877
 2686SOL     OW 8956   0.484   1.257   5.446
 2686SOL    HW1 8957   0.471   1.261   5.545
 2686SOL    HW2 8958   0.448   1.170   5.411
 2687SOL     OW 8959   4.017   1.831   1.514
 2687SOL    HW1 8960   4.115   1.818   1.529
 2687SOL    HW2 8961   3.968   1.746   1.537
 2688SOL     OW 8962   4.019   2.837   6.331
 2688SOL    HW1 8963   4.003   2.914   6.393
 2688SOL    HW2 8964   3.933   2.788   6.317
 2689SOL     OW 8965   1.660   4.159   3.304
 2689SOL    HW1 8966   1.748   4.160   3.257
 2689SOL    HW2 8967   1.627   4.065   3.311
 2690SOL     OW 8968   4.429   1.608   5.901
 2690SOL    HW1 8969   4.457   1.649   5.988
 2690SOL    HW2 8970   4.448   1.510   5.903
 2691SOL     OW 8971   6.684   3.619   5.071
 2691SOL    HW1 8972   6.595   3.655   5.097
 2691SOL    HW2 8973   6.677   3.575   4.981
 2692SOL     OW 8974   2.557   6.450   2.128
 2692SOL    HW1 8975   2.598   6.411   2.210
 2692SOL    HW2 8976   2.462   6.418   2.119
 2693SOL     OW 8977   1.420   6.205   3.190
 2693SOL    HW1 8978   1.394   6.188   3.285
 2693SOL    HW2 8979   1.439   6.117   3.145
 2694SOL     OW 8980   2.699   0.437   2.892
 2694SOL    HW1 8981   2.747   0.403   2.811
 2694SOL    HW2 8982   2.657   0.525   2.871
 2695SOL     OW 8983   6.967   5.541   3.778
 2695SOL    HW1 8984   0.011   5.479   3.734
 2695SOL    HW2 8985   6.988   5.635   3.753
 2696SOL     OW 8986   5.336   4.865   5.920
 2696SOL    HW1 8987   5.352   4.817   5.834
 2696SOL    HW2 8988   5.283   4.807   5.982
 2697SOL     OW 8989   4.238   2.575   6.443
 2697SOL    HW1 8990   4.169   2.503   6.448
 2697SOL    HW2 8991   4.227   2.637   6.521
 2698SOL     OW 8992   1.532   5.168   5.782
 2698SOL    HW1 8993   1.443   5.147   5.822
 2698SOL    HW2 8994   1.594   5.197   5.854
 2699SOL     OW 8995   2.634   6.308   2.366
 2699SOL    HW1 8996   2.632   6.212   2.337
 2699SOL    HW2 8997   2.727   6.333   2.391
 2700SOL     OW 8998   3.974   1.886   2.001
 2700SOL    HW1 8999   3.949   1.836   2.084
 2700SOL    HW2 9000   4.046   1.836   1.953
 2701SOL     OW 9001   5.044   3.192   5.159
 2701SOL    HW1 9002   5.049   3.203   5.258
 2701SOL    HW2 9003   5.133   3.210   5.119
 2702SOL     OW 9004   2.812   0.893   4.971
 2702SOL    HW1 9005   2.841   0.989   4.979
 2702SOL    HW2 9006   2.713   0.889   4.960
 2703SOL     OW 9007   2.099   6.686   2.619
 2703SOL    HW1 9008   2.038   6.754   2.577
 2703SOL    HW2 9009   2.130   6.621   2.550
 2704SOL     OW 9010   5.360   0.654   3.576
 2704SOL    HW1 9011   5.422   0.633   3.500
 2704SOL    HW2 9012   5.405   0.634   3.663
 2705SOL     OW 9013   0.718   0.628   5.488
 2705SOL    HW1 9014   0.678   0.719   5.498
 2705SOL    HW2 9015   0.750   0.595   5.577
 2706SOL     OW 9016   6.774   3.921   3.576
 2706SOL    HW1 9017   6.756   3.962   3.666
 2706SOL    HW2 9018   6.729   3.832   3.571
 2707SOL     OW 9019   4.469   1.325   2.734
 2707SOL    HW1 9020   4.430   1.307   2.643
 2707SOL    HW2 9021   4.552   1.379   2.725
 2708SOL     OW 9022   5.413   3.604   6.307
 2708SOL    HW1 9023   5.510   3.594   6.326
 2708SOL    HW2 9024   5.397   3.694   6.265
 2709SOL     OW 9025   5.194   1.582   5.582
 2709SOL    HW1 9026   5.242   1.582   5.494
 2709SOL    HW2 9027   5.126   1.656   5.582
 2710SOL     OW 9028   0.248   2.391   4.563
 2710SOL    HW1 9029   0.178   2.458   4.539
 2710SOL    HW2 9030   0.256   2.385   4.663
 2711SOL     OW 9031   3.443   1.075   1.751
 2711SOL    HW1 9032   3.372   1.090   1.681
 2711SOL    HW2 9033   3.444   0.978   1.776
 2712SOL     OW 9034   3.788   6.051   2.202
 2712SOL    HW1 9035   3.856   6.117   2.172
 2712SOL    HW2 9036   3.813   5.960   2.169
 2713SOL     OW 9037   3.661   4.769   5.499
 2713SOL    HW1 9038   3.574   4.782   5.547
 2713SOL    HW2 9039   3.684   4.672   5.499
 2714SOL     OW 9040   3.213   4.732   6.288
 2714SOL    HW1 9041   3.166   4.671   6.353
 2714SOL    HW2 9042   3.188   4.827   6.307
 2715SOL     OW 9043   4.459   1.022   6.862
 2715SOL    HW1 9044   4.437   0.937   6.815
 2715SOL    HW2 9045   4.469   1.095   6.795
 2716SOL     OW 9046   3.928   1.686   2.959
 2716SOL    HW1 9047   3.946   1.705   3.055
 2716SOL    HW2 9048   3.837   1.646   2.950
 2717SOL     OW 9049   0.464   1.183   2.375
 2717SOL    HW1 9050   0.406   1.103   2.388
 2717SOL    HW2 9051   0.412   1.266   2.397
 2718SOL     OW 9052   0.427   0.677   5.981
 2718SOL    HW1 9053   0.499   0.618   6.018
 2718SOL    HW2 9054   0.406   0.649   5.887
 2719SOL     OW 9055   1.693   4.818   2.823
 2719SOL    HW1 9056   1.685   4.754   2.899
 2719SOL    HW2 9057   1.657   4.907   2.850
 2720SOL     OW 9058   2.286   6.276   6.571
 2720SOL    HW1 9059   2.253   6.335   6.498
 2720SOL    HW2 9060   2.207   6.239   6.622
 2721SOL     OW 9061   3.021   6.419   1.617
 2721SOL    HW1 9062   2.931   6.413   1.660
 2721SOL    HW2 9063   3.088   6.453   1.683
 2722SOL     OW 9064   4.065   5.811   6.903
 2722SOL    HW1 9065   4.125   5.759   6.841
 2722SOL    HW2 9066   4.075   5.775   6.996
 2723SOL     OW 9067   3.216   6.260   7.012
 2723SOL    HW1 9068   3.314   6.239   7.010
 2723SOL    HW2 9069   3.166   6.184   6.970
 2724SOL     OW 9070   0.693   6.594   0.942
 2724SOL    HW1 9071   0.630   6.670   0.962
 2724SOL    HW2 9072   0.707   6.540   1.024
 2725SOL     OW 9073   6.001   3.999   4.449
 2725SOL    HW1 9074   6.014   4.080   4.392
 2725SOL    HW2 9075   6.031   4.018   4.542
 2726SOL     OW 9076   5.946   1.820   2.457
 2726SOL    HW1 9077   6.014   1.830   2.384
 2726SOL    HW2 9078   5.993   1.815   2.546
 2727SOL     OW 9079   1.438   5.339   3.321
 2727SOL    HW1 9080   1.455   5.293   3.408
 2727SOL    HW2 9081   1.342   5.329   3.295
 2728SOL     OW 9082   4.635   5.588   5.687
 2728SOL    HW1 9083   4.641   5.491   5.710
 2728SOL    HW2 9084   4.544   5.609   5.653
 2729SOL     OW 9085   5.474   0.314   6.389
 2729SOL    HW1 9086   5.538   0.239   6.408
 2729SOL    HW2 9087   5.511   0.370   6.315
 2730SOL     OW 9088   1.149   5.719   2.216
 2730SOL    HW1 9089   1.148   5.712   2.315
 2730SOL    HW2 9090   1.085   5.652   2.177
 2731SOL     OW 9091   3.048   3.994   4.052
 2731SOL    HW1 9092   3.083   3.953   4.136
 2731SOL    HW2 9093   2.982   4.066   4.075
 2732SOL     OW 9094   5.558   0.392   2.182
 2732SOL    HW1 9095   5.525   0.473   2.230
 2732SOL    HW2 9096   5.509   0.311   2.215
 2733SOL     OW 9097   1.473   6.489   6.619
 2733SOL    HW1 9098   1.394   6.462   6.675
 2733SOL    HW2 9099   1.499   6.414   6.559
 2734SOL     OW 9100   3.299   6.281   2.554
 2734SOL    HW1 9101   3.247   6.220   2.614
 2734SOL    HW2 9102   3.306   6.372   2.597
 2735SOL     OW 9103   0.647   1.606   1.616
 2735SOL    HW1 9104   0.675   1.690   1.571
 2735SOL    HW2 9105   0.629   1.624   1.713
 2736SOL     OW 9106   4.670   4.372   3.020
 2736SOL    HW1 9107   4.636   4.463   2.995
 2736SOL    HW2 9108   4.714   4.330   2.941
 2737SOL     OW 9109   2.967   0.553   5.465
 2737SOL    HW1 9110   2.916   0.502   5.396
 2737SOL    HW2 9111   3.007   0.635   5.423
 2738SOL     OW 9112   5.075   6.095   1.673
 2738SOL    HW1 9113   5.050   5.998   1.674
 2738SOL    HW2 9114   5.107   6.122   1.764
 2739SOL     OW 9115   6.713   5.510   1.651
 2739SOL    HW1 9116   6.679   5.566   1.726
 2739SOL    HW2 9117   6.803   5.544   1.621
 2740SOL     OW 9118   6.820   5.887   3.325
 2740SOL    HW1 9119   6.792   5.838   3.407
 2740SOL    HW2 9120   6.854   5.822   3.257
 2741SOL     OW 9121   1.807   0.699   5.884
 2741SOL    HW1 9122   1.753   0.615   5.876
 2741SOL    HW2 9123   1.763   0.762   5.947
 2742SOL     OW 9124   3.053   5.552   1.775
 2742SOL    HW1 9125   2.965   5.535   1.819
 2742SOL    HW2 9126   3.039   5.610   1.694
 2743SOL     OW 9127   5.546   2.408   2.403
 2743SOL    HW1 9128   5.482   2.433   2.476
 2743SOL    HW2 9129   5.506   2.334   2.348
 2744SOL     OW 9130   3.432   3.851   2.355
 2744SOL    HW1 9131   3.522   3.851   2.312
 2744SOL    HW2 9132   3.407   3.757   2.379
 2745SOL     OW 9133   0.627   6.593   0.325
 2745SOL    HW1 9134   0.717   6.621   0.290
 2745SOL    HW2 9135   0.631   6.497   0.355
 2746SOL     OW 9136   1.042   1.243   3.706
 2746SOL    HW1 9137   1.014   1.315   3.769
 2746SOL    HW2 9138   1.121   1.274   3.653
 2747SOL     OW 9139   3.683   4.759   0.783
 2747SOL    HW1 9140   3.614   4.749   0.712
 2747SOL    HW2 9141   3.771   4.728   0.748
 2748SOL     OW 9142   4.191   0.246   0.770
 2748SOL    HW1 9143   4.256   0.178   0.738
 2748SOL    HW2 9144   4.201   0.330   0.715
 2749SOL     OW 9145   3.528   2.120   0.351
 2749SOL    HW1 9146   3.463   2.099   0.424
 2749SOL    HW2 9147   3.512   2.212   0.317
 2750SOL     OW 9148   2.922   5.850   2.052
 2750SOL    HW1 9149   2.913   5.852   1.952
 2750SOL    HW2 9150   2.923   5.943   2.087
 2751SOL     OW 9151   5.637   4.777   1.193
 2751SOL    HW1 9152   5.645   4.873   1.169
 2751SOL    HW2 9153   5.706   4.753   1.262
 2752SOL     OW 9154   3.670   5.167   6.849
 2752SOL    HW1 9155   3.753   5.121   6.816
 2752SOL    HW2 9156   3.609   5.100   6.891
 2753SOL     OW 9157   6.245   5.247   5.296
 2753SOL    HW1 9158   6.277   5.300   5.218
 2753SOL    HW2 9159   6.236   5.151   5.270
 2754SOL     OW 9160   1.419   6.572   6.049
 2754SOL    HW1 9161   1.366   6.519   5.983
 2754SOL    HW2 9162   1.418   6.526   6.138
 2755SOL     OW 9163   3.143   0.664   2.195
 2755SOL    HW1 9164   3.117   0.741   2.137
 2755SOL    HW2 9165   3.214   0.693   2.259
 2756SOL     OW 9166   4.823   6.372   0.415
 2756SOL    HW1 9167   4.800   6.400   0.322
 2756SOL    HW2 9168   4.772   6.289   0.438
 2757SOL     OW 9169   0.494   5.286   1.332
 2757SOL    HW1 9170   0.548   5.299   1.249
 2757SOL    HW2 9171   0.416   5.227   1.311
 2758SOL     OW 9172   4.712   0.567   6.284
 2758SOL    HW1 9173   4.686   0.521   6.199
 2758SOL    HW2 9174   4.739   0.661   6.263
 2759SOL     OW 9175   4.979   6.033   4.734
 2759SOL    HW1 9176   5.005   5.937   4.736
 2759SOL    HW2 9177   5.060   6.089   4.719
 2760SOL     OW 9178   2.390   5.679   3.519
 2760SOL    HW1 9179   2.432   5.734   3.591
 2760SOL    HW2 9180   2.461   5.628   3.470
 2761SOL     OW 9181   2.051   5.500   3.269
 2761SOL    HW1 9182   2.056   5.406   3.304
 2761SOL    HW2 9183   2.045   5.498   3.169
 2762SOL     OW 9184   1.275   6.967   5.064
 2762SOL    HW1 9185   1.337   6.983   4.987
 2762SOL    HW2 9186   1.314   7.004   5.148
 2763SOL     OW 9187   5.233   1.840   1.902
 2763SOL    HW1 9188   5.242   1.880   1.811
 2763SOL    HW2 9189   5.166   1.766   1.900
 2764SOL     OW 9190   6.520   1.003   1.874
 2764SOL    HW1 9191   6.505   1.064   1.951
 2764SOL    HW2 9192   6.540   0.911   1.907
 2765SOL     OW 9193   5.052   1.600   1.857
 2765SOL    HW1 9194   5.061   1.563   1.949
 2765SOL    HW2 9195   5.107   1.546   1.793
 2766SOL     OW 9196   5.790   0.715   2.636
 2766SOL    HW1 9197   5.825   0.667   2.555
 2766SOL    HW2 9198   5.803   0.813   2.624
 2767SOL     OW 9199   5.924   4.513   6.066
 2767SOL    HW1 9200   5.976   4.492   6.149
 2767SOL    HW2 9201   5.906   4.428   6.016
 2768SOL     OW 9202   6.228   1.347   6.946
 2768SOL    HW1 9203   6.139   1.314   6.914
 2768SOL    HW2 9204   6.237   1.444   6.924
 2769SOL     OW 9205   1.138   4.010   1.395
 2769SOL    HW1 9206   1.218   4.007   1.335
 2769SOL    HW2 9207   1.072   4.075   1.358
 2770SOL     OW 9208   6.620   5.555   1.174
 2770SOL    HW1 9209   6.682   5.478   1.161
 2770SOL    HW2 9210   6.649   5.607   1.255
 2771SOL     OW 9211   5.069   0.842   1.642
 2771SOL    HW1 9212   5.044   0.902   1.718
 2771SOL    HW2 9213   5.031   0.751   1.658
 2772SOL     OW 9214   3.412   2.915   5.927
 2772SOL    HW1 9215   3.437   2.955   5.839
 2772SOL    HW2 9216   3.314   2.893   5.927
 2773SOL     OW 9217   3.336   3.972   6.535
 2773SOL    HW1 9218   3.380   3.909   6.600
 2773SOL    HW2 9219   3.335   3.930   6.444
 2774SOL     OW 9220   5.494   3.652   2.451
 2774SOL    HW1 9221   5.531   3.667   2.360
 2774SOL    HW2 9222   5.465   3.556   2.460
 2775SOL     OW 9223   0.105   6.139   1.965
 2775SOL    HW1 9224   0.180   6.157   1.902
 2775SOL    HW2 9225   0.027   6.196   1.942
 2776SOL     OW 9226   3.140   5.854   6.080
 2776SOL    HW1 9227   3.173   5.823   5.992
 2776SOL    HW2 9228   3.041   5.836   6.087
 2777SOL     OW 9229   3.528   1.867   2.732
 2777SOL    HW1 9230   3.608   1.807   2.734
 2777SOL    HW2 9231   3.557   1.962   2.745
 2778SOL     OW 9232   2.419   1.587   5.367
 2778SOL    HW1 9233   2.498   1.529   5.346
 2778SOL    HW2 9234   2.337   1.529   5.372
 2779SOL     OW 9235   6.039   1.053   0.096
 2779SOL    HW1 9236   6.032   1.141   0.142
 2779SOL    HW2 9237   6.021   0.979   0.162
 2780SOL     OW 9238   5.142   5.267   0.012
 2780SOL    HW1 9239   5.165   5.361   7.009
 2780SOL    HW2 9240   5.179   5.244   0.102
 2781SOL     OW 9241   4.659   4.586   0.102
 2781SOL    HW1 9242   4.585   4.519   0.106
 2781SOL    HW2 9243   4.652   4.637   0.016
 2782SOL     OW 9244   3.081   2.397   6.367
 2782SOL    HW1 9245   3.098   2.298   6.369
 2782SOL    HW2 9246   2.992   2.416   6.408
 2783SOL     OW 9247   0.377   4.378   5.234
 2783SOL    HW1 9248   0.375   4.437   5.315
 2783SOL    HW2 9249   0.364   4.282   5.262
 2784SOL     OW 9250   2.059   2.078   2.218
 2784SOL    HW1 9251   2.156   2.091   2.235
 2784SOL    HW2 9252   2.033   2.127   2.134
 2785SOL     OW 9253   6.219   1.006   1.371
 2785SOL    HW1 9254   6.237   1.104   1.363
 2785SOL    HW2 9255   6.283   0.965   1.436
 2786SOL     OW 9256   4.043   0.030   1.210
 2786SOL    HW1 9257   4.142   0.019   1.222
 2786SOL    HW2 9258   4.006   6.972   1.162
 2787SOL     OW 9259   2.035   2.317   5.543
 2787SOL    HW1 9260   2.107   2.340   5.478
 2787SOL    HW2 9261   2.076   2.270   5.622
 2788SOL     OW 9262   1.358   3.637   0.507
 2788SOL    HW1 9263   1.346   3.725   0.552
 2788SOL    HW2 9264   1.389   3.650   0.413
 2789SOL     OW 9265   0.026   1.615   4.134
 2789SOL    HW1 9266   7.005   1.544   4.077
 2789SOL    HW2 9267   0.027   1.702   4.085
 2790SOL     OW 9268   4.033   5.384   3.320
 2790SOL    HW1 9269   4.100   5.430   3.260
 2790SOL    HW2 9270   3.949   5.437   3.322
 2791SOL     OW 9271   1.820   2.752   3.735
 2791SOL    HW1 9272   1.792   2.812   3.659
 2791SOL    HW2 9273   1.760   2.672   3.736
 2792SOL     OW 9274   0.959   2.244   5.317
 2792SOL    HW1 9275   0.947   2.145   5.309
 2792SOL    HW2 9276   1.055   2.265   5.334
 2793SOL     OW 9277   5.165   1.103   3.393
 2793SOL    HW1 9278   5.119   1.017   3.415
 2793SOL    HW2 9279   5.104   1.160   3.338
 2794SOL     OW 9280   1.145   0.822   1.150
 2794SOL    HW1 9281   1.156   0.911   1.194
 2794SOL    HW2 9282   1.050   0.813   1.117
 2795SOL     OW 9283   2.168   4.057   1.950
 2795SOL    HW1 9284   2.168   3.963   1.984
 2795SOL    HW2 9285   2.230   4.113   2.005
 2796SOL     OW 9286   4.861   4.305   2.791
 2796SOL    HW1 9287   4.822   4.215   2.809
 2796SOL    HW2 9288   4.872   4.317   2.692
 2797SOL     OW 9289   4.467   4.592   4.768
 2797SOL    HW1 9290   4.528   4.668   4.792
 2797SOL    HW2 9291   4.408   4.570   4.846
 2798SOL     OW 9292   1.632   3.578   4.056
 2798SOL    HW1 9293   1.675   3.528   4.131
 2798SOL    HW2 9294   1.533   3.579   4.069
 2799SOL     OW 9295   6.663   5.099   5.738
 2799SOL    HW1 9296   6.707   5.171   5.683
 2799SOL    HW2 9297   6.569   5.086   5.706
 2800SOL     OW 9298   2.882   3.432   6.662
 2800SOL    HW1 9299   2.872   3.520   6.615
 2800SOL    HW2 9300   2.957   3.438   6.727
 2801SOL     OW 9301   4.833   5.409   2.384
 2801SOL    HW1 9302   4.783   5.490   2.356
 2801SOL    HW2 9303   4.806   5.383   2.477
 2802SOL     OW 9304   5.183   1.011   6.241
 2802SOL    HW1 9305   5.155   1.062   6.322
 2802SOL    HW2 9306   5.252   0.944   6.266
 2803SOL     OW 9307   2.276   5.986   6.395
 2803SOL    HW1 9308   2.314   6.068   6.438
 2803SOL    HW2 9309   2.243   5.923   6.466
 2804SOL     OW 9310   6.924   4.530   3.182
 2804SOL    HW1 9311   6.915   4.614   3.128
 2804SOL    HW2 9312   6.907   4.451   3.124
 2805SOL     OW 9313   5.771   3.801   6.962
 2805SOL    HW1 9314   5.708   3.772   0.014
 2805SOL    HW2 9315   5.855   3.748   6.967
 2806SOL     OW 9316   6.332   5.936   3.440
 2806SOL    HW1 9317   6.259   5.875   3.471
 2806SOL    HW2 9318   6.303   5.982   3.355
 2807SOL     OW 9319   4.381   4.944   3.878
 2807SOL    HW1 9320   4.325   5.026   3.865
 2807SOL    HW2 9321   4.321   4.864   3.887
 2808SOL     OW 9322   5.064   0.001   4.081
 2808SOL    HW1 9323   4.988   7.004   4.020
 2808SOL    HW2 9324   5.110   6.936   4.104
 2809SOL     OW 9325   5.235   3.078   0.488
 2809SOL    HW1 9326   5.178   3.124   0.556
 2809SOL    HW2 9327   5.255   2.985   0.519
 2810SOL     OW 9328   1.879   0.555   5.157
 2810SOL    HW1 9329   1.942   0.590   5.225
 2810SOL    HW2 9330   1.915   0.469   5.119
 2811SOL     OW 9331   0.249   0.718   3.626
 2811SOL    HW1 9332   0.340   0.745   3.656
 2811SOL    HW2 9333   0.210   0.790   3.570
 2812SOL     OW 9334   4.867   3.807   2.436
 2812SOL    HW1 9335   4.864   3.727   2.376
 2812SOL    HW2 9336   4.960   3.845   2.435
 2813SOL     OW 9337   6.091   1.325   6.369
 2813SOL    HW1 9338   6.123   1.345   6.276
 2813SOL    HW2 9339   5.992   1.336   6.374
 2814SOL     OW 9340   4.873   3.887   5.211
 2814SOL    HW1 9341   4.820   3.972   5.209
 2814SOL    HW2 9342   4.896   3.860   5.118
 2815SOL     OW 9343   0.215   1.041   5.573
 2815SOL    HW1 9344   0.224   1.103   5.651
 2815SOL    HW2 9345   0.278   0.964   5.584
 2816SOL     OW 9346   5.645   0.025   3.051
 2816SOL    HW1 9347   5.715   0.092   3.077
 2816SOL    HW2 9348   5.670   6.956   3.086
 2817SOL     OW 9349   1.191   2.380   1.241
 2817SOL    HW1 9350   1.187   2.453   1.309
 2817SOL    HW2 9351   1.138   2.407   1.161
 2818SOL     OW 9352   0.071   4.677   5.236
 2818SOL    HW1 9353   0.150   4.737   5.254
 2818SOL    HW2 9354   0.098   4.605   5.172
 2819SOL     OW 9355   0.042   2.765   0.479
 2819SOL    HW1 9356   6.965   2.779   0.464
 2819SOL    HW2 9357   0.057   2.734   0.573
 2820SOL     OW 9358   6.649   3.021   4.591
 2820SOL    HW1 9359   6.730   2.964   4.605
 2820SOL    HW2 9360   6.676   3.108   4.549
 2821SOL     OW 9361   1.481   3.803   4.398
 2821SOL    HW1 9362   1.452   3.740   4.470
 2821SOL    HW2 9363   1.404   3.826   4.339
 2822SOL     OW 9364   3.775   1.689   0.159
 2822SOL    HW1 9365   3.867   1.725   0.176
 2822SOL    HW2 9366   3.760   1.682   0.060
 2823SOL     OW 9367   1.391   6.749   3.644
 2823SOL    HW1 9368   1.386   6.798   3.732
 2823SOL    HW2 9369   1.337   6.665   3.650
 2824SOL     OW 9370   3.233   1.659   4.557
 2824SOL    HW1 9371   3.254   1.750   4.594
 2824SOL    HW2 9372   3.158   1.667   4.492
 2825SOL     OW 9373   6.342   5.524   0.821
 2825SOL    HW1 9374   6.418   5.584   0.794
 2825SOL    HW2 9375   6.265   5.581   0.853
 2826SOL     OW 9376   4.821   2.137   4.425
 2826SOL    HW1 9377   4.802   2.049   4.469
 2826SOL    HW2 9378   4.901   2.127   4.366
 2827SOL     OW 9379   5.887   0.522   5.519
 2827SOL    HW1 9380   5.907   0.544   5.614
 2827SOL    HW2 9381   5.897   0.423   5.505
 2828SOL     OW 9382   3.623   1.394   5.379
 2828SOL    HW1 9383   3.584   1.372   5.289
 2828SOL    HW2 9384   3.611   1.491   5.397
 2829SOL     OW 9385   1.966   6.389   6.877
 2829SOL    HW1 9386   1.932   6.465   6.822
 2829SOL    HW2 9387   1.989   6.422   6.968
 2830SOL     OW 9388   3.689   3.400   6.784
 2830SOL    HW1 9389   3.778   3.370   6.818
 2830SOL    HW2 9390   3.618   3.382   6.852
 2831SOL     OW 9391   5.914   5.812   4.581
 2831SOL    HW1 9392   5.883   5.891   4.527
 2831SOL    HW2 9393   5.961   5.844   4.663
 2832SOL     OW 9394   0.294   1.096   1.814
 2832SOL    HW1 9395   0.228   1.048   1.756
 2832SOL    HW2 9396   0.308   1.188   1.777
 2833SOL     OW 9397   6.386   2.863   1.542
 2833SOL    HW1 9398   6.364   2.952   1.502
 2833SOL    HW2 9399   6.303   2.808   1.548
 2834SOL     OW 9400   3.732   0.781   5.566
 2834SOL    HW1 9401   3.641   0.807   5.598
 2834SOL    HW2 9402   3.799   0.847   5.599
 2835SOL     OW 9403   0.895   6.236   2.243
 2835SOL    HW1 9404   0.967   6.195   2.300
 2835SOL    HW2 9405   0.894   6.335   2.258
 2836SOL     OW 9406   6.906   0.840   1.177
 2836SOL    HW1 9407   6.890   0.900   1.098
 2836SOL    HW2 9408   6.957   0.759   1.148
 2837SOL     OW 9409   5.922   3.398   3.643
 2837SOL    HW1 9410   5.893   3.491   3.668
 2837SOL    HW2 9411   6.020   3.398   3.627
 2838SOL     OW 9412   2.897   5.066   2.993
 2838SOL    HW1 9413   2.963   5.016   3.050
 2838SOL    HW2 9414   2.806   5.027   3.006
 2839SOL     OW 9415   5.085   1.932   0.514
 2839SOL    HW1 9416   5.083   1.834   0.492
 2839SOL    HW2 9417   5.075   1.945   0.612
 2840SOL     OW 9418   6.834   1.704   5.542
 2840SOL    HW1 9419   6.810   1.614   5.505
 2840SOL    HW2 9420   6.902   1.747   5.483
 2841SOL     OW 9421   1.054   5.889   1.568
 2841SOL    HW1 9422   1.086   5.967   1.622
 2841SOL    HW2 9423   1.063   5.910   1.470
 2842SOL     OW 9424   6.671   2.999   3.308
 2842SOL    HW1 9425   6.622   3.076   3.268
 2842SOL    HW2 9426   6.764   3.027   3.332
 2843SOL     OW 9427   4.288   2.014   4.719
 2843SOL    HW1 9428   4.226   1.938   4.697
 2843SOL    HW2 9429   4.310   2.013   4.816
 2844SOL     OW 9430   6.898   4.061   6.019
 2844SOL    HW1 9431   6.870   4.153   6.044
 2844SOL    HW2 9432   6.998   4.055   6.018
 2845SOL     OW 9433   6.868   4.013   5.335
 2845SOL    HW1 9434   6.805   4.001   5.412
 2845SOL    HW2 9435   6.939   4.078   5.360
 2846SOL     OW 9436   4.518   1.970   6.416
 2846SOL    HW1 9437   4.452   1.897   6.395
 2846SOL    HW2 9438   4.609   1.940   6.391
 2847SOL     OW 9439   5.414   4.492   4.130
 2847SOL    HW1 9440   5.497   4.547   4.118
 2847SOL    HW2 9441   5.339   4.534   4.080
 2848SOL     OW 9442   0.688   5.589   4.330
 2848SOL    HW1 9443   0.618   5.540   4.277
 2848SOL    HW2 9444   0.662   5.685   4.340
 2849SOL     OW 9445   2.859   2.785   1.225
 2849SOL    HW1 9446   2.815   2.763   1.312
 2849SOL    HW2 9447   2.815   2.735   1.151
 2850SOL     OW 9448   4.060   1.160   0.077
 2850SOL    HW1 9449   4.024   1.115   0.158
 2850SOL    HW2 9450   4.008   1.243   0.059
 2851SOL     OW 9451   1.920   4.658   6.164
 2851SOL    HW1 9452   1.957   4.676   6.255
 2851SOL    HW2 9453   1.982   4.597   6.115
 2852SOL     OW 9454   0.407   3.510   6.432
 2852SOL    HW1 9455   0.446   3.561   6.509
 2852SOL    HW2 9456   0.417   3.412   6.448
 2853SOL     OW 9457   3.218   3.796   1.408
 2853SOL    HW1 9458   3.120   3.780   1.420
 2853SOL    HW2 9459   3.265   3.708   1.401
 2854SOL     OW 9460   2.400   1.715   4.069
 2854SOL    HW1 9461   2.325   1.722   4.003
 2854SOL    HW2 9462   2.369   1.663   4.149
 2855SOL     OW 9463   3.111   0.732   5.303
 2855SOL    HW1 9464   3.133   0.821   5.343
 2855SOL    HW2 9465   3.184   0.705   5.240
 2856SOL     OW 9466   2.448   2.594   4.885
 2856SOL    HW1 9467   2.546   2.587   4.901
 2856SOL    HW2 9468   2.398   2.563   4.966
 2857SOL     OW 9469   3.252   3.281   2.043
 2857SOL    HW1 9470   3.322   3.261   2.112
 2857SOL    HW2 9471   3.186   3.346   2.080
 2858SOL     OW 9472   6.780   3.423   2.827
 2858SOL    HW1 9473   6.786   3.521   2.809
 2858SOL    HW2 9474   6.773   3.407   2.925
 2859SOL     OW 9475   5.931   6.692   0.628
 2859SOL    HW1 9476   5.913   6.774   0.573
 2859SOL    HW2 9477   5.851   6.673   0.686
 2860SOL     OW 9478   3.904   1.079   1.912
 2860SOL    HW1 9479   3.984   1.048   1.860
 2860SOL    HW2 9480   3.866   1.160   1.869
 2861SOL     OW 9481   3.749   5.909   5.364
 2861SOL    HW1 9482   3.676   5.854   5.324
 2861SOL    HW2 9483   3.793   5.858   5.438
 2862SOL     OW 9484   5.511   0.958   4.368
 2862SOL    HW1 9485   5.596   0.905   4.364
 2862SOL    HW2 9486   5.439   0.900   4.406
 2863SOL     OW 9487   6.433   2.212   6.469
 2863SOL    HW1 9488   6.526   2.230   6.500
 2863SOL    HW2 9489   6.370   2.217   6.547
 2864SOL     OW 9490   3.856   1.406   0.021
 2864SOL    HW1 9491   3.832   1.418   0.117
 2864SOL    HW2 9492   3.774   1.412   6.985
 2865SOL     OW 9493   4.588   4.771   4.922
 2865SOL    HW1 9494   4.568   4.862   4.960
 2865SOL    HW2 9495   4.642   4.719   4.987
 2866SOL     OW 9496   0.086   6.754   6.669
 2866SOL    HW1 9497   0.131   6.717   6.751
 2866SOL    HW2 9498   0.112   6.850   6.658
 2867SOL     OW 9499   6.823   4.414   3.789
 2867SOL    HW1 9500   6.869   4.412   3.700
 2867SOL    HW2 9501   6.828   4.506   3.827
 2868SOL     OW 9502   1.610   4.193   5.881
 2868SOL    HW1 9503   1.626   4.219   5.786
 2868SOL    HW2 9504   1.678   4.125   5.909
 2869SOL     OW 9505   6.267   1.456   2.258
 2869SOL    HW1 9506   6.333   1.382   2.250
 2869SOL    HW2 9507   6.174   1.418   2.263
 2870SOL     OW 9508   5.210   1.590   2.366
 2870SOL    HW1 9509   5.279   1.576   2.437
 2870SOL    HW2 9510   5.222   1.681   2.326
 2871SOL     OW 9511   1.448   2.122   6.121
 2871SOL    HW1 9512   1.468   2.098   6.216
 2871SOL    HW2 9513   1.493   2.057   6.060
 2872SOL     OW 9514   2.640   6.822   3.791
 2872SOL    HW1 9515   2.695   6.856   3.867
 2872SOL    HW2 9516   2.548   6.860   3.795
 2873SOL     OW 9517   0.046   5.191   1.532
 2873SOL    HW1 9518   0.042   5.130   1.611
 2873SOL    HW2 9519   0.081   5.280   1.561
 2874SOL     OW 9520   5.421   2.523   2.633
 2874SOL    HW1 9521   5.417   2.560   2.725
 2874SOL    HW2 9522   5.365   2.579   2.572
 2875SOL     OW 9523   3.610   4.917   6.649
 2875SOL    HW1 9524   3.594   4.924   6.747
 2875SOL    HW2 9525   3.695   4.868   6.632
 2876SOL     OW 9526   0.209   1.380   2.018
 2876SOL    HW1 9527   0.298   1.337   2.034
 2876SOL    HW2 9528   0.173   1.351   1.929
 2877SOL     OW 9529   2.801   2.698   5.785
 2877SOL    HW1 9530   2.825   2.666   5.876
 2877SOL    HW2 9531   2.726   2.763   5.791
 2878SOL     OW 9532   2.928   4.614   6.598
 2878SOL    HW1 9533   2.927   4.711   6.575
 2878SOL    HW2 9534   2.839   4.587   6.635
 2879SOL     OW 9535   5.033   5.007   0.207
 2879SOL    HW1 9536   5.109   4.944   0.225
 2879SOL    HW2 9537   4.982   4.975   0.127
 2880SOL     OW 9538   1.166   5.907   1.301
 2880SOL    HW1 9539   1.157   5.930   1.204
 2880SOL    HW2 9540   1.257   5.935   1.334
 2881SOL     OW 9541   6.800   6.707   0.908
 2881SOL    HW1 9542   6.705   6.728   0.931
 2881SOL    HW2 9543   6.858   6.730   0.986
 2882SOL     OW 9544   6.838   2.855   3.497
 2882SOL    HW1 9545   6.911   2.906   3.541
 2882SOL    HW2 9546   6.764   2.917   3.471
 2883SOL     OW 9547   4.062   6.883   2.148
 2883SOL    HW1 9548   4.158   6.910   2.156
 2883SOL    HW2 9549   4.008   6.932   2.217
 2884SOL     OW 9550   0.990   6.298   3.059
 2884SOL    HW1 9551   0.972   6.338   2.969
 2884SOL    HW2 9552   1.069   6.344   3.100
 2885SOL     OW 9553   0.717   2.447   3.377
 2885SOL    HW1 9554   0.647   2.508   3.341
 2885SOL    HW2 9555   0.701   2.354   3.344
 2886SOL     OW 9556   2.233   2.111   5.982
 2886SOL    HW1 9557   2.309   2.045   5.983
 2886SOL    HW2 9558   2.146   2.062   5.975
 2887SOL     OW 9559   1.552   0.566   4.815
 2887SOL    HW1 9560   1.641   0.583   4.772
 2887SOL    HW2 9561   1.508   0.488   4.771
 2888SOL     OW 9562   6.087   5.222   6.750
 2888SOL    HW1 9563   6.137   5.135   6.751
 2888SOL    HW2 9564   6.148   5.296   6.778
 2889SOL     OW 9565   0.180   0.165   1.826
 2889SOL    HW1 9566   0.236   0.199   1.751
 2889SOL    HW2 9567   0.226   0.088   1.871
 2890SOL     OW 9568   4.142   0.363   1.459
 2890SOL    HW1 9569   4.097   0.379   1.371
 2890SOL    HW2 9570   4.241   0.369   1.447
 2891SOL     OW 9571   2.543   4.987   3.956
 2891SOL    HW1 9572   2.571   4.954   3.865
 2891SOL    HW2 9573   2.617   4.968   4.021
 2892SOL     OW 9574   4.722   4.113   6.017
 2892SOL    HW1 9575   4.670   4.047   6.069
 2892SOL    HW2 9576   4.669   4.198   6.007
 2893SOL     OW 9577   2.278   0.015   5.492
 2893SOL    HW1 9578   2.267   0.102   5.540
 2893SOL    HW2 9579   2.297   0.032   5.395
 2894SOL     OW 9580   3.647   3.178   0.336
 2894SOL    HW1 9581   3.671   3.083   0.313
 2894SOL    HW2 9582   3.678   3.199   0.428
 2895SOL     OW 9583   3.493   3.593   6.346
 2895SOL    HW1 9584   3.545   3.600   6.261
 2895SOL    HW2 9585   3.462   3.499   6.359
 2896SOL     OW 9586   2.957   4.797   1.259
 2896SOL    HW1 9587   2.974   4.842   1.171
 2896SOL    HW2 9588   3.000   4.707   1.259
 2897SOL     OW 9589   1.985   6.371   3.503
 2897SOL    HW1 9590   1.932   6.307   3.559
 2897SOL    HW2 9591   2.044   6.426   3.562
 2898SOL     OW 9592   3.095   5.348   1.996
 2898SOL    HW1 9593   3.061   5.274   1.939
 2898SOL    HW2 9594   3.096   5.433   1.943
 2899SOL     OW 9595   0.131   6.851   0.050
 2899SOL    HW1 9596   0.137   6.779   7.001
 2899SOL    HW2 9597   0.048   6.838   0.104
 2900SOL     OW 9598   1.926   5.347   5.187
 2900SOL    HW1 9599   1.951   5.336   5.283
 2900SOL    HW2 9600   1.922   5.445   5.164
 2901SOL     OW 9601   2.638   1.283   1.475
 2901SOL    HW1 9602   2.712   1.334   1.429
 2901SOL    HW2 9603   2.632   1.313   1.570
 2902SOL     OW 9604   5.631   5.971   1.663
 2902SOL    HW1 9605   5.637   5.872   1.662
 2902SOL    HW2 9606   5.696   6.010   1.598
 2903SOL     OW 9607   2.460   1.938   1.887
 2903SOL    HW1 9608   2.434   2.027   1.924
 2903SOL    HW2 9609   2.477   1.947   1.789
 2904SOL     OW 9610   1.758   2.857   4.791
 2904SOL    HW1 9611   1.704   2.897   4.865
 2904SOL    HW2 9612   1.835   2.806   4.830
 2905SOL     OW 9613   1.944   2.570   1.937
 2905SOL    HW1 9614   1.953   2.665   1.966
 2905SOL    HW2 9615   1.850   2.539   1.954
 2906SOL     OW 9616   5.827   5.830   1.946
 2906SOL    HW1 9617   5.915   5.839   1.993
 2906SOL    HW2 9618   5.768   5.767   1.997
 2907SOL     OW 9619   6.429   1.028   4.365
 2907SOL    HW1 9620   6.470   0.999   4.278
 2907SOL    HW2 9621   6.332   1.047   4.350
 2908SOL     OW 9622   3.853   6.212   4.684
 2908SOL    HW1 9623   3.903   6.197   4.770
 2908SOL    HW2 9624   3.783   6.141   4.674
 2909SOL     OW 9625   1.495   6.053   4.817
 2909SOL    HW1 9626   1.440   6.004   4.885
 2909SOL    HW2 9627   1.438   6.076   4.738
 2910SOL     OW 9628   5.764   6.210   6.515
 2910SOL    HW1 9629   5.746   6.297   6.468
 2910SOL    HW2 9630   5.757   6.224   6.613
 2911SOL     OW 9631   1.938   4.202   3.152
 2911SOL    HW1 9632   1.989   4.132   3.101
 2911SOL    HW2 9633   1.965   4.198   3.249
 2912SOL     OW 9634   2.534   5.918   1.058
 2912SOL    HW1 9635   2.549   6.008   1.017
 2912SOL    HW2 9636   2.478   5.863   0.996
 2913SOL     OW 9637   1.330   3.753   3.178
 2913SOL    HW1 9638   1.379   3.712   3.254
 2913SOL    HW2 9639   1.367   3.719   3.092
 2914SOL     OW 9640   5.884   5.628   6.205
 2914SOL    HW1 9641   5.920   5.544   6.245
 2914SOL    HW2 9642   5.837   5.681   6.276
 2915SOL     OW 9643   4.732   1.198   4.063
 2915SOL    HW1 9644   4.751   1.248   3.978
 2915SOL    HW2 9645   4.633   1.187   4.074
 2916SOL     OW 9646   5.371   5.584   4.719
 2916SOL    HW1 9647   5.347   5.567   4.815
 2916SOL    HW2 9648   5.289   5.608   4.668
 2917SOL     OW 9649   4.477   0.445   2.301
 2917SOL    HW1 9650   4.500   0.503   2.379
 2917SOL    HW2 9651   4.387   0.404   2.315
 2918SOL     OW 9652   0.135   4.147   3.527
 2918SOL    HW1 9653   0.089   4.231   3.497
 2918SOL    HW2 9654   0.091   4.112   3.609
 2919SOL     OW 9655   6.470   5.832   0.444
 2919SOL    HW1 9656   6.430   5.825   0.535
 2919SOL    HW2 9657   6.559   5.877   0.450
 2920SOL     OW 9658   4.279   2.294   3.465
 2920SOL    HW1 9659   4.328   2.276   3.380
 2920SOL    HW2 9660   4.182   2.275   3.453
 2921SOL     OW 9661   0.771   0.095   2.060
 2921SOL    HW1 9662   0.869   0.084   2.041
 2921SOL    HW2 9663   0.730   0.005   2.075
 2922SOL     OW 9664   4.250   6.459   5.312
 2922SOL    HW1 9665   4.286   6.368   5.328
 2922SOL    HW2 9666   4.326   6.524   5.301
 2923SOL     OW 9667   6.371   4.702   2.071
 2923SOL    HW1 9668   6.350   4.605   2.054
 2923SOL    HW2 9669   6.294   4.758   2.041
 2924SOL     OW 9670   6.845   1.014   5.505
 2924SOL    HW1 9671   6.880   0.926   5.473
 2924SOL    HW2 9672   6.851   1.082   5.432
 2925SOL     OW 9673   5.369   3.828   1.260
 2925SOL    HW1 9674   5.279   3.863   1.284
 2925SOL    HW2 9675   5.440   3.882   1.306
 2926SOL     OW 9676   0.290   1.445   4.568
 2926SOL    HW1 9677   0.389   1.440   4.578
 2926SOL    HW2 9678   0.260   1.381   4.497
 2927SOL     OW 9679   0.688   2.532   2.800
 2927SOL    HW1 9680   0.598   2.574   2.806
 2927SOL    HW2 9681   0.679   2.432   2.802
 2928SOL     OW 9682   6.488   6.384   0.835
 2928SOL    HW1 9683   6.522   6.452   0.770
 2928SOL    HW2 9684   6.542   6.389   0.919
 2929SOL     OW 9685   0.997   6.711   6.251
 2929SOL    HW1 9686   0.930   6.636   6.258
 2929SOL    HW2 9687   0.978   6.778   6.323
 2930SOL     OW 9688   3.483   6.442   4.902
 2930SOL    HW1 9689   3.563   6.404   4.854
 2930SOL    HW2 9690   3.511   6.477   4.991
 2931SOL     OW 9691   4.106   6.375   5.652
 2931SOL    HW1 9692   4.011   6.383   5.621
 2931SOL    HW2 9693   4.108   6.322   5.737
 2932SOL     OW 9694   1.052   4.877   1.463
 2932SOL    HW1 9695   1.079   4.783   1.443
 2932SOL    HW2 9696   1.060   4.894   1.561
 2933SOL     OW 9697   4.982   1.862   3.166
 2933SOL    HW1 9698   4.934   1.944   3.197
 2933SOL    HW2 9699   5.048   1.887   3.095
 2934SOL     OW 9700   2.663   0.364   0.112
 2934SOL    HW1 9701   2.723   0.422   0.166
 2934SOL    HW2 9702   2.646   0.278   0.161
 2935SOL     OW 9703   6.171   2.386   1.194
 2935SOL    HW1 9704   6.247   2.323   1.181
 2935SOL    HW2 9705   6.180   2.462   1.129
 2936SOL     OW 9706   4.505   5.997   0.442
 2936SOL    HW1 9707   4.534   6.090   0.465
 2936SOL    HW2 9708   4.474   5.949   0.524
 2937SOL     OW 9709   3.196   4.857   0.100
 2937SOL    HW1 9710   3.260   4.914   0.152
 2937SOL    HW2 9711   3.124   4.915   0.062
 2938SOL     OW 9712   4.828   5.659   5.507
 2938SOL    HW1 9713   4.749   5.655   5.567
 2938SOL    HW2 9714   4.841   5.753   5.475
 2939SOL     OW 9715   0.570   6.310   5.711
 2939SOL    HW1 9716   0.476   6.344   5.705
 2939SOL    HW2 9717   0.593   6.262   5.626
 2940SOL     OW 9718   4.658   6.726   5.516
 2940SOL    HW1 9719   4.757   6.717   5.506
 2940SOL    HW2 9720   4.637   6.811   5.564
 2941SOL     OW 9721   1.886   1.888   5.490
 2941SOL    HW1 9722   1.934   1.801   5.493
 2941SOL    HW2 9723   1.797   1.877   5.446
 2942SOL     OW 9724   3.437   6.324   3.566
 2942SOL    HW1 9725   3.436   6.419   3.598
 2942SOL    HW2 9726   3.526   6.304   3.524
 2943SOL     OW 9727   5.946   3.712   3.603
 2943SOL    HW1 9728   5.897   3.714   3.515
 2943SOL    HW2 9729   5.895   3.655   3.668
 2944SOL     OW 9730   4.290   5.685   6.151
 2944SOL    HW1 9731   4.295   5.606   6.091
 2944SOL    HW2 9732   4.194   5.708   6.170
 2945SOL     OW 9733   2.957   3.187   3.225
 2945SOL    HW1 9734   2.944   3.284   3.244
 2945SOL    HW2 9735   2.919   3.166   3.135
 2946SOL     OW 9736   6.744   5.873   6.722
 2946SOL    HW1 9737   6.748   5.972   6.735
 2946SOL    HW2 9738   6.813   5.829   6.780
 2947SOL     OW 9739   6.604   4.621   0.172
 2947SOL    HW1 9740   6.541   4.590   0.101
 2947SOL    HW2 9741   6.669   4.686   0.133
 2948SOL     OW 9742   6.024   4.276   4.869
 2948SOL    HW1 9743   5.936   4.290   4.824
 2948SOL    HW2 9744   6.059   4.364   4.901
 2949SOL     OW 9745   1.597   0.152   0.428
 2949SOL    HW1 9746   1.649   0.067   0.425
 2949SOL    HW2 9747   1.503   0.132   0.455
 2950SOL     OW 9748   4.933   3.686   4.494
 2950SOL    HW1 9749   4.986   3.610   4.531
 2950SOL    HW2 9750   4.903   3.745   4.569
 2951SOL     OW 9751   6.863   1.838   1.266
 2951SOL    HW1 9752   6.841   1.833   1.169
 2951SOL    HW2 9753   6.959   1.864   1.277
 2952SOL     OW 9754   1.891   3.840   2.215
 2952SOL    HW1 9755   1.852   3.926   2.183
 2952SOL    HW2 9756   1.989   3.852   2.230
 2953SOL     OW 9757   4.629   1.381   2.351
 2953SOL    HW1 9758   4.634   1.433   2.265
 2953SOL    HW2 9759   4.717   1.338   2.369
 2954SOL     OW 9760   6.075   6.533   1.984
 2954SOL    HW1 9761   6.060   6.474   1.905
 2954SOL    HW2 9762   6.127   6.614   1.956
 2955SOL     OW 9763   0.096   3.107   0.650
 2955SOL    HW1 9764   0.074   3.195   0.690
 2955SOL    HW2 9765   0.094   3.113   0.550
 2956SOL     OW 9766   6.561   5.665   2.374
 2956SOL    HW1 9767   6.546   5.687   2.471
 2956SOL    HW2 9768   6.606   5.576   2.367
 2957SOL     OW 9769   0.870   3.749   1.714
 2957SOL    HW1 9770   0.939   3.729   1.644
 2957SOL    HW2 9771   0.803   3.675   1.717
 2958SOL     OW 9772   2.349   5.035   5.996
 2958SOL    HW1 9773   2.290   5.042   5.916
 2958SOL    HW2 9774   2.295   5.006   6.075
 2959SOL     OW 9775   3.977   5.431   6.713
 2959SOL    HW1 9776   3.951   5.426   6.809
 2959SOL    HW2 9777   3.912   5.489   6.664
 2960SOL     OW 9778   2.082   1.603   0.401
 2960SOL    HW1 9779   2.120   1.550   0.477
 2960SOL    HW2 9780   2.069   1.698   0.430
 2961SOL     OW 9781   5.789   3.270   3.827
 2961SOL    HW1 9782   5.721   3.342   3.841
 2961SOL    HW2 9783   5.861   3.303   3.767
 2962SOL     OW 9784   4.362   0.871   3.536
 2962SOL    HW1 9785   4.282   0.862   3.596
 2962SOL    HW2 9786   4.413   0.785   3.535
 2963SOL     OW 9787   2.189   2.596   4.453
 2963SOL    HW1 9788   2.229   2.510   4.424
 2963SOL    HW2 9789   2.261   2.665   4.463
 2964SOL     OW 9790   3.567   6.485   0.684
 2964SOL    HW1 9791   3.525   6.575   0.693
 2964SOL    HW2 9792   3.515   6.430   0.619
 2965SOL     OW 9793   0.541   2.032   6.579
 2965SOL    HW1 9794   0.551   2.084   6.663
 2965SOL    HW2 9795   0.631   2.001   6.548
 2966SOL     OW 9796   4.477   4.494   4.038
 2966SOL    HW1 9797   4.529   4.488   4.123
 2966SOL    HW2 9798   4.382   4.466   4.055
 2967SOL     OW 9799   5.818   2.601   3.911
 2967SOL    HW1 9800   5.781   2.644   3.994
 2967SOL    HW2 9801   5.749   2.541   3.871
 2968SOL     OW 9802   0.108   3.934   3.338
 2968SOL    HW1 9803   0.188   3.875   3.349
 2968SOL    HW2 9804   0.125   4.022   3.383
 2969SOL     OW 9805   4.700   1.786   4.742
 2969SOL    HW1 9806   4.748   1.866   4.706
 2969SOL    HW2 9807   4.666   1.806   4.833
 2970SOL     OW 9808   0.960   4.593   6.121
 2970SOL    HW1 9809   1.030   4.661   6.143
 2970SOL    HW2 9810   0.906   4.573   6.203
 2971SOL     OW 9811   5.289   3.068   2.862
 2971SOL    HW1 9812   5.297   3.081   2.764
 2971SOL    HW2 9813   5.255   2.975   2.881
 2972SOL     OW 9814   0.171   3.558   5.401
 2972SOL    HW1 9815   0.082   3.581   5.442
 2972SOL    HW2 9816   0.180   3.605   5.313
 2973SOL     OW 9817   5.321   6.252   4.386
 2973SOL    HW1 9818   5.347   6.280   4.294
 2973SOL    HW2 9819   5.404   6.241   4.442
 2974SOL     OW 9820   0.310   3.619   2.437
 2974SOL    HW1 9821   0.247   3.694   2.461
 2974SOL    HW2 9822   0.260   3.533   2.437
 2975SOL     OW 9823   0.420   1.074   5.257
 2975SOL    HW1 9824   0.510   1.058   5.217
 2975SOL    HW2 9825   0.350   1.065   5.186
 2976SOL     OW 9826   3.657   0.269   2.132
 2976SOL    HW1 9827   3.733   0.254   2.069
 2976SOL    HW2 9828   3.684   0.335   2.203
 2977SOL     OW 9829   3.409   6.320   4.371
 2977SOL    HW1 9830   3.474   6.376   4.320
 2977SOL    HW2 9831   3.317   6.358   4.361
 2978SOL     OW 9832   4.774   5.353   6.824
 2978SOL    HW1 9833   4.783   5.309   6.914
 2978SOL    HW2 9834   4.678   5.366   6.802
 2979SOL     OW 9835   3.479   0.903   3.097
 2979SOL    HW1 9836   3.548   0.854   3.150
 2979SOL    HW2 9837   3.511   0.997   3.080
 2980SOL     OW 9838   0.119   6.508   4.329
 2980SOL    HW1 9839   0.021   6.519   4.344
 2980SOL    HW2 9840   0.137   6.502   4.231
 2981SOL     OW 9841   2.747   0.742   5.839
 2981SOL    HW1 9842   2.781   0.664   5.787
 2981SOL    HW2 9843   2.661   0.716   5.884
 2982SOL     OW 9844   4.846   6.530   2.355
 2982SOL    HW1 9845   4.823   6.470   2.279
 2982SOL    HW2 9846   4.770   6.595   2.369
 2983SOL     OW 9847   6.537   0.717   3.886
 2983SOL    HW1 9848   6.561   0.811   3.860
 2983SOL    HW2 9849   6.603   0.654   3.845
 2984SOL     OW 9850   5.311   5.490   1.710
 2984SOL    HW1 9851   5.310   5.584   1.744
 2984SOL    HW2 9852   5.306   5.491   1.610
 2985SOL     OW 9853   6.060   2.531   2.771
 2985SOL    HW1 9854   6.085   2.559   2.863
 2985SOL    HW2 9855   5.961   2.516   2.766
 2986SOL     OW 9856   1.979   3.994   5.345
 2986SOL    HW1 9857   2.049   4.026   5.281
 2986SOL    HW2 9858   1.924   3.923   5.301
 2987SOL     OW 9859   4.466   2.397   4.498
 2987SOL    HW1 9860   4.394   2.375   4.564
 2987SOL    HW2 9861   4.430   2.393   4.405
 2988SOL     OW 9862   0.627   0.673   2.022
 2988SOL    HW1 9863   0.666   0.740   1.959
 2988SOL    HW2 9864   0.575   0.720   2.093
 2989SOL     OW 9865   6.481   4.882   1.311
 2989SOL    HW1 9866   6.441   4.875   1.402
 2989SOL    HW2 9867   6.550   4.954   1.309
 2990SOL     OW 9868   3.563   0.712   1.382
 2990SOL    HW1 9869   3.493   0.689   1.315
 2990SOL    HW2 9870   3.540   0.799   1.426
 2991SOL     OW 9871   6.434   3.872   0.196
 2991SOL    HW1 9872   6.359   3.934   0.174
 2991SOL    HW2 9873   6.502   3.920   0.251
 2992SOL     OW 9874   3.738   4.640   6.108
 2992SOL    HW1 9875   3.775   4.547   6.110
 2992SOL    HW2 9876   3.694   4.660   6.195
 2993SOL     OW 9877   1.967   5.130   1.356
 2993SOL    HW1 9878   1.933   5.212   1.403
 2993SOL    HW2 9879   2.057   5.105   1.393
 2994SOL     OW 9880   4.447   6.788   6.967
 2994SOL    HW1 9881   4.383   6.736   0.003
 2994SOL    HW2 9882   4.538   6.748   6.975
 2995SOL     OW 9883   2.525   1.530   6.126
 2995SOL    HW1 9884   2.556   1.436   6.112
 2995SOL    HW2 9885   2.442   1.530   6.181
 2996SOL     OW 9886   3.720   5.549   5.634
 2996SOL    HW1 9887   3.789   5.526   5.702
 2996SOL    HW2 9888   3.764   5.590   5.554
 2997SOL     OW 9889   5.176   6.731   0.820
 2997SOL    HW1 9890   5.083   6.759   0.797
 2997SOL    HW2 9891   5.232   6.811   0.839
 2998SOL     OW 9892   6.494   5.828   5.511
 2998SOL    HW1 9893   6.434   5.749   5.522
 2998SOL    HW2 9894   6.454   5.891   5.444
 2999SOL     OW 9895   3.033   0.065   3.083
 2999SOL    HW1 9896   3.102   0.073   3.011
 2999SOL    HW2 9897   2.990   6.996   3.080
 3000SOL     OW 9898   1.188   2.974   5.182
 3000SOL    HW1 9899   1.195   2.968   5.281
 3000SOL    HW2 9900   1.095   2.954   5.153
 3001SOL     OW 9901   4.798   6.983   5.976
 3001SOL    HW1 9902   4.829   6.889   5.961
 3001SOL    HW2 9903   4.700   6.989   5.958
 3002SOL     OW 9904   4.092   0.077   5.716
 3002SOL    HW1 9905   4.097   0.049   5.812
 3002SOL    HW2 9906   3.996   0.093   5.692
 3003SOL     OW 9907   2.271   0.064   6.352
 3003SOL    HW1 9908   2.282   7.001   6.298
 3003SOL    HW2 9909   2.286   0.043   6.449
 3004SOL     OW 9910   6.002   2.916   4.490
 3004SOL    HW1 9911   5.964   2.873   4.408
 3004SOL    HW2 9912   6.054   2.848   4.542
 3005SOL     OW 9913   4.487   2.568   1.133
 3005SOL    HW1 9914   4.514   2.594   1.041
 3005SOL    HW2 9915   4.388   2.556   1.137
 3006SOL     OW 9916   5.789   0.501   1.865
 3006SOL    HW1 9917   5.762   0.570   1.933
 3006SOL    HW2 9918   5.829   0.546   1.786
 3007SOL     OW 9919   6.218   5.069   2.712
 3007SOL    HW1 9920   6.199   4.973   2.693
 3007SOL    HW2 9921   6.131   5.118   2.726
 3008SOL     OW 9922   3.102   6.032   6.450
 3008SOL    HW1 9923   3.078   6.109   6.391
 3008SOL    HW2 9924   3.040   5.956   6.433
 3009SOL     OW 9925   1.999   0.574   3.416
 3009SOL    HW1 9926   1.967   0.484   3.385
 3009SOL    HW2 9927   2.081   0.600   3.365
 3010SOL     OW 9928   3.776   6.423   2.174
 3010SOL    HW1 9929   3.804   6.332   2.146
 3010SOL    HW2 9930   3.833   6.491   2.128
 3011SOL     OW 9931   5.339   0.500   7.017
 3011SOL    HW1 9932   5.422   0.553   6.999
 3011SOL    HW2 9933   5.350   0.407   6.982
 3012SOL     OW 9934   6.993   3.617   3.058
 3012SOL    HW1 9935   7.012   3.522   3.081
 3012SOL    HW2 9936   6.909   3.646   3.104
 3013SOL     OW 9937   6.032   4.756   2.306
 3013SOL    HW1 9938   6.063   4.790   2.218
 3013SOL    HW2 9939   5.933   4.739   2.303
 3014SOL     OW 9940   4.858   0.897   4.818
 3014SOL    HW1 9941   4.810   0.832   4.759
 3014SOL    HW2 9942   4.921   0.951   4.763
 3015SOL     OW 9943   2.803   2.204   0.272
 3015SOL    HW1 9944   2.815   2.259   0.190
 3015SOL    HW2 9945   2.819   2.261   0.353
 3016SOL     OW 9946   4.169   6.645   3.409
 3016SOL    HW1 9947   4.125   6.563   3.371
 3016SOL    HW2 9948   4.101   6.718   3.417
 3017SOL     OW 9949   0.590   5.771   1.248
 3017SOL    HW1 9950   0.573   5.704   1.321
 3017SOL    HW2 9951   0.686   5.766   1.221
 3018SOL     OW 9952   3.727   6.337   7.019
 3018SOL    HW1 9953   3.694   6.246   0.025
 3018SOL    HW2 9954   3.750   6.389   0.081
 3019SOL     OW 9955   4.364   6.685   1.946
 3019SOL    HW1 9956   4.424   6.660   2.022
 3019SOL    HW2 9957   4.366   6.784   1.933
 3020SOL     OW 9958   1.930   2.388   0.629
 3020SOL    HW1 9959   1.834   2.384   0.601
 3020SOL    HW2 9960   1.937   2.430   0.719
 3021SOL     OW 9961   2.734   1.749   6.346
 3021SOL    HW1 9962   2.819   1.798   6.327
 3021SOL    HW2 9963   2.733   1.721   6.442
 3022SOL     OW 9964   4.891   6.846   3.285
 3022SOL    HW1 9965   4.836   6.854   3.368
 3022SOL    HW2 9966   4.907   6.750   3.264
 3023SOL     OW 9967   4.951   6.618   1.975
 3023SOL    HW1 9968   4.990   6.655   2.060
 3023SOL    HW2 9969   4.868   6.668   1.952
 3024SOL     OW 9970   3.196   6.408   6.727
 3024SOL    HW1 9971   3.126   6.466   6.767
 3024SOL    HW2 9972   3.284   6.425   6.771
 3025SOL     OW 9973   2.041   2.314   1.204
 3025SOL    HW1 9974   2.133   2.326   1.242
 3025SOL    HW2 9975   2.046   2.307   1.104
 3026SOL     OW 9976   2.256   4.090   0.976
 3026SOL    HW1 9977   2.236   4.069   0.880
 3026SOL    HW2 9978   2.178   4.138   1.017
 3027SOL     OW 9979   0.855   1.978   3.296
 3027SOL    HW1 9980   0.936   2.036   3.289
 3027SOL    HW2 9981   0.880   1.889   3.335
 3028SOL     OW 9982   1.384   6.746   5.220
 3028SOL    HW1 9983   1.349   6.788   5.136
 3028SOL    HW2 9984   1.375   6.646   5.214
 3029SOL     OW 9985   5.419   6.284   5.414
 3029SOL    HW1 9986   5.337   6.315   5.463
 3029SOL    HW2 9987   5.475   6.230   5.476
 3030SOL     OW 9988   1.510   2.237   4.997
 3030SOL    HW1 9989   1.553   2.300   5.061
 3030SOL    HW2 9990   1.465   2.289   4.924
 3031SOL     OW 9991   1.028   4.962   6.587
 3031SOL    HW1 9992   0.979   4.933   6.505
 3031SOL    HW2 9993   1.045   4.883   6.645
 3032SOL     OW 9994   4.910   0.257   5.643
 3032SOL    HW1 9995   4.976   0.332   5.645
 3032SOL    HW2 9996   4.929   0.194   5.718
 3033SOL     OW 9997   6.018   3.277   6.560
 3033SOL    HW1 9998   6.004   3.196   6.503
 3033SOL    HW2 9999   5.942   3.287   6.624
 3034SOL     OW10000   2.398   6.811   4.704
 3034SOL    HW110001   2.489   6.853   4.705
 3034SOL    HW210002   2.329   6.882   4.719
 3035SOL     OW10003   6.216   0.584   0.032
 3035SOL    HW110004   6.131   0.597   0.082
 3035SOL    HW210005   6.282   0.655   0.058
 3036SOL     OW10006   1.196   4.471   6.551
 3036SOL    HW110007   1.171   4.393   6.494
 3036SOL    HW210008   1.113   4.516   6.585
 3037SOL     OW10009   6.415   6.666   5.797
 3037SOL    HW110010   6.345   6.631   5.735
 3037SOL    HW210011   6.418   6.766   5.791
 3038SOL     OW10012   5.584   6.968   5.959
 3038SOL    HW110013   5.580   6.984   5.860
 3038SOL    HW210014   5.577   6.870   5.978
 3039SOL     OW10015   1.188   4.764   1.163
 3039SOL    HW110016   1.281   4.788   1.134
 3039SOL    HW210017   1.136   4.848   1.178
 3040SOL     OW10018   2.683   2.885   6.919
 3040SOL    HW110019   2.696   2.806   6.860
 3040SOL    HW210020   2.594   2.878   6.965
 3041SOL     OW10021   1.701   2.293   5.873
 3041SOL    HW110022   1.618   2.328   5.830
 3041SOL    HW210023   1.781   2.327   5.823
 3042SOL     OW10024   4.578   0.458   2.054
 3042SOL    HW110025   4.533   0.454   2.143
 3042SOL    HW210026   4.533   0.395   1.990
 3043SOL     OW10027   0.311   5.459   0.287
 3043SOL    HW110028   0.313   5.460   0.187
 3043SOL    HW210029   0.311   5.365   0.320
 3044SOL     OW10030   3.421   4.156   6.298
 3044SOL    HW110031   3.417   4.171   6.397
 3044SOL    HW210032   3.381   4.067   6.276
 3045SOL     OW10033   5.536   2.561   3.111
 3045SOL    HW110034   5.602   2.622   3.154
 3045SOL    HW210035   5.528   2.477   3.166
 3046SOL     OW10036   2.134   3.093   5.546
 3046SOL    HW110037   2.215   3.109   5.489
 3046SOL    HW210038   2.090   3.007   5.517
 3047SOL     OW10039   6.252   4.929   2.392
 3047SOL    HW110040   6.179   4.865   2.370
 3047SOL    HW210041   6.337   4.900   2.347
 3048SOL     OW10042   3.334   2.601   1.585
 3048SOL    HW110043   3.431   2.623   1.595
 3048SOL    HW210044   3.312   2.586   1.489
 3049SOL     OW10045   0.578   0.774   2.315
 3049SOL    HW110046   0.567   0.675   2.307
 3049SOL    HW210047   0.658   0.803   2.264
 3050SOL     OW10048   4.279   6.087   4.148
 3050SOL    HW110049   4.291   6.046   4.238
 3050SOL    HW210050   4.329   6.034   4.080
 3051SOL     OW10051   2.218   4.627   5.982
 3051SOL    HW110052   2.228   4.715   6.028
 3051SOL    HW210053   2.309   4.590   5.963
 3052SOL     OW10054   4.110   6.833   2.915
 3052SOL    HW110055   4.043   6.824   2.840
 3052SOL    HW210056   4.202   6.841   2.877
 3053SOL     OW10057   5.500   6.557   0.267
 3053SOL    HW110058   5.516   6.598   0.177
 3053SOL    HW210059   5.402   6.542   0.280
 3054SOL     OW10060   1.302   3.398   6.416
 3054SOL    HW110061   1.367   3.323   6.424
 3054SOL    HW210062   1.227   3.371   6.356
 3055SOL     OW10063   6.283   6.541   3.387
 3055SOL    HW110064   6.276   6.457   3.441
 3055SOL    HW210065   6.367   6.589   3.413
 3056SOL     OW10066   6.965   0.663   0.956
 3056SOL    HW110067   0.029   0.611   0.968
 3056SOL    HW210068   6.887   0.602   0.960
 3057SOL     OW10069   5.951   5.181   2.778
 3057SOL    HW110070   5.891   5.124   2.722
 3057SOL    HW210071   5.974   5.133   2.863
 3058SOL     OW10072   6.462   4.991   1.633
 3058SOL    HW110073   6.510   5.078   1.650
 3058SOL    HW210074   6.491   4.923   1.700
 3059SOL     OW10075   1.754   2.694   4.563
 3059SOL    HW110076   1.849   2.676   4.536
 3059SOL    HW210077   1.753   2.748   4.647
 3060SOL     OW10078   6.653   6.959   0.759
 3060SOL    HW110079   6.574   6.922   0.710
 3060SOL    HW210080   6.736   6.941   0.705
 3061SOL     OW10081   0.189   0.379   6.586
 3061SOL    HW110082   0.221   0.471   6.562
 3061SOL    HW210083   0.191   0.321   6.505
 3062SOL     OW10084   3.410   6.641   0.001
 3062SOL    HW110085   3.463   6.717   6.985
 3062SOL    HW210086   3.400   6.570   6.952
 3063SOL     OW10087   2.013   4.580   1.542
 3063SOL    HW110088   2.026   4.559   1.639
 3063SOL    HW210089   2.091   4.633   1.509
 3064SOL     OW10090   6.170   3.785   3.465
 3064SOL    HW110091   6.104   3.758   3.535
 3064SOL    HW210092   6.263   3.767   3.498
 3065SOL     OW10093   2.022   0.997   6.855
 3065SOL    HW110094   2.056   1.034   6.941
 3065SOL    HW210095   1.923   1.008   6.850
 3066SOL     OW10096   5.770   4.974   1.771
 3066SOL    HW110097   5.677   4.998   1.742
 3066SOL    HW210098   5.835   5.000   1.700
 3067SOL     OW10099   5.255   0.137   3.916
 3067SOL    HW110100   5.251   0.237   3.924
 3067SOL    HW210101   5.180   0.096   3.967
 3068SOL     OW10102   5.765   4.819   0.240
 3068SOL    HW110103   5.814   4.754   0.298
 3068SOL    HW210104   5.813   4.907   0.240
 3069SOL     OW10105   0.652   6.207   2.581
 3069SOL    HW110106   0.601   6.292   2.570
 3069SOL    HW210107   0.664   6.163   2.492
 3070SOL     OW10108   4.227   1.399   4.099
 3070SOL    HW110109   4.295   1.352   4.043
 3070SOL    HW210110   4.222   1.356   4.189
 3071SOL     OW10111   5.956   6.522   3.241
 3071SOL    HW110112   6.040   6.575   3.253
 3071SOL    HW210113   5.943   6.502   3.144
 3072SOL     OW10114   0.736   0.480   2.472
 3072SOL    HW110115   0.681   0.422   2.532
 3072SOL    HW210116   0.760   0.429   2.389
 3073SOL     OW10117   1.269   3.212   5.099
 3073SOL    HW110118   1.318   3.211   5.012
 3073SOL    HW210119   1.240   3.119   5.122
 3074SOL     OW10120   4.607   3.109   6.152
 3074SOL    HW110121   4.524   3.106   6.096
 3074SOL    HW210122   4.594   3.054   6.235
 3075SOL     OW10123   1.733   5.841   1.369
 3075SOL    HW110124   1.731   5.742   1.356
 3075SOL    HW210125   1.826   5.875   1.357
 3076SOL     OW10126   0.246   0.610   5.014
 3076SOL    HW110127   0.237   0.668   5.095
 3076SOL    HW210128   0.180   0.639   4.945
 3077SOL     OW10129   5.321   4.909   3.631
 3077SOL    HW110130   5.392   4.980   3.630
 3077SOL    HW210131   5.296   4.887   3.537
 3078SOL     OW10132   1.591   3.547   1.652
 3078SOL    HW110133   1.644   3.464   1.634
 3078SOL    HW210134   1.643   3.608   1.712
 3079SOL     OW10135   0.114   1.891   5.522
 3079SOL    HW110136   0.118   1.990   5.516
 3079SOL    HW210137   0.188   1.851   5.468
 3080SOL     OW10138   6.531   5.041   0.627
 3080SOL    HW110139   6.526   5.131   0.670
 3080SOL    HW210140   6.465   5.036   0.552
 3081SOL     OW10141   0.255   5.095   5.666
 3081SOL    HW110142   0.235   5.182   5.711
 3081SOL    HW210143   0.173   5.062   5.620
 3082SOL     OW10144   2.818   0.366   2.675
 3082SOL    HW110145   2.895   0.302   2.675
 3082SOL    HW210146   2.839   0.444   2.615
 3083SOL     OW10147   3.544   0.389   1.781
 3083SOL    HW110148   3.452   0.373   1.817
 3083SOL    HW210149   3.597   0.441   1.848
 3084SOL     OW10150   5.227   5.879   4.814
 3084SOL    HW110151   5.154   5.815   4.790
 3084SOL    HW210152   5.271   5.849   4.899
 3085SOL     OW10153   0.811   5.552   2.398
 3085SOL    HW110154   0.815   5.563   2.497
 3085SOL    HW210155   0.889   5.498   2.367
 3086SOL     OW10156   4.842   1.319   3.813
 3086SOL    HW110157   4.834   1.410   3.772
 3086SOL    HW210158   4.882   1.256   3.746
 3087SOL     OW10159   6.945   3.321   2.646
 3087SOL    HW110160   6.879   3.363   2.708
 3087SOL    HW210161   6.913   3.330   2.552
 3088SOL     OW10162   3.134   4.906   5.929
 3088SOL    HW110163   3.185   4.925   5.846
 3088SOL    HW210164   3.108   4.809   5.931
 3089SOL     OW10165   1.767   2.278   0.327
 3089SOL    HW110166   1.787   2.227   0.410
 3089SOL    HW210167   1.684   2.241   0.284
 3090SOL     OW10168   1.462   1.707   1.013
 3090SOL    HW110169   1.547   1.687   1.061
 3090SOL    HW210170   1.465   1.799   0.975
 3091SOL     OW10171   2.988   6.687   0.188
 3091SOL    HW110172   3.058   6.617   0.169
 3091SOL    HW210173   2.937   6.706   0.104
 3092SOL     OW10174   4.974   6.745   0.292
 3092SOL    HW110175   4.885   6.778   0.324
 3092SOL    HW210176   5.006   6.671   0.350
 3093SOL     OW10177   5.390   5.886   4.512
 3093SOL    HW110178   5.403   5.909   4.609
 3093SOL    HW210179   5.474   5.846   4.476
 3094SOL     OW10180   2.836   5.797   5.886
 3094SOL    HW110181   2.872   5.710   5.854
 3094SOL    HW210182   2.752   5.819   5.836
 3095SOL     OW10183   3.004   4.827   4.915
 3095SOL    HW110184   3.092   4.781   4.922
 3095SOL    HW210185   2.944   4.793   4.988
 3096SOL     OW10186   1.359   0.636   6.225
 3096SOL    HW110187   1.352   0.709   6.293
 3096SOL    HW210188   1.295   0.563   6.247
 3097SOL     OW10189   1.682   3.163   6.926
 3097SOL    HW110190   1.628   3.175   7.009
 3097SOL    HW210191   1.627   3.187   6.846
 3098SOL     OW10192   3.488   2.706   0.623
 3098SOL    HW110193   3.471   2.636   0.553
 3098SOL    HW210194   3.401   2.742   0.656
 3099SOL     OW10195   0.865   5.523   5.235
 3099SOL    HW110196   0.871   5.433   5.277
 3099SOL    HW210197   0.950   5.543   5.186
 3100SOL     OW10198   6.987   0.018   6.926
 3100SOL    HW110199   0.031   6.980   6.975
 3100SOL    HW210200   6.944   0.081   6.991
 3101SOL     OW10201   4.710   0.020   1.056
 3101SOL    HW110202   4.669   6.950   1.065
 3101SOL    HW210203   4.754   0.029   0.967
 3102SOL     OW10204   1.718   4.268   1.305
 3102SOL    HW110205   1.650   4.340   1.292
 3102SOL    HW210206   1.756   4.242   1.216
 3103SOL     OW10207   3.983   3.159   2.039
 3103SOL    HW110208   3.936   3.194   1.958
 3103SOL    HW210209   4.061   3.218   2.060
 3104SOL     OW10210   6.312   5.827   3.892
 3104SOL    HW110211   6.297   5.774   3.976
 3104SOL    HW210212   6.396   5.796   3.848
 3105SOL     OW10213   5.826   6.253   4.203
 3105SOL    HW110214   5.898   6.271   4.136
 3105SOL    HW210215   5.761   6.329   4.203
 3106SOL     OW10216   6.833   2.335   3.952
 3106SOL    HW110217   6.898   2.383   4.009
 3106SOL    HW210218   6.777   2.274   4.008
 3107SOL     OW10219   2.905   0.631   4.477
 3107SOL    HW110220   2.866   0.638   4.569
 3107SOL    HW210221   2.846   0.574   4.420
 3108SOL     OW10222   3.482   0.691   3.445
 3108SOL    HW110223   3.481   0.593   3.423
 3108SOL    HW210224   3.576   0.725   3.440
 3109SOL     OW10225   4.489   5.251   3.331
 3109SOL    HW110226   4.406   5.228   3.382
 3109SOL    HW210227   4.468   5.321   3.263
 3110SOL     OW10228   0.548   2.799   2.418
 3110SOL    HW110229   0.501   2.733   2.360
 3110SOL    HW210230   0.631   2.758   2.455
 3111SOL     OW10231   0.164   5.128   3.476
 3111SOL    HW110232   0.088   5.105   3.536
 3111SOL    HW210233   0.250   5.099   3.518
 3112SOL     OW10234   4.137   4.100   6.268
 3112SOL    HW110235   4.136   4.196   6.240
 3112SOL    HW210236   4.116   4.093   6.365
 3113SOL     OW10237   3.047   6.369   3.866
 3113SOL    HW110238   3.070   6.413   3.779
 3113SOL    HW210239   2.949   6.350   3.868
 3114SOL     OW10240   6.044   5.658   1.317
 3114SOL    HW110241   6.076   5.612   1.234
 3114SOL    HW210242   5.984   5.734   1.292
 3115SOL     OW10243   2.490   3.558   1.422
 3115SOL    HW110244   2.537   3.646   1.422
 3115SOL    HW210245   2.497   3.516   1.513
 3116SOL     OW10246   0.291   1.865   0.342
 3116SOL    HW110247   0.279   1.926   0.420
 3116SOL    HW210248   0.382   1.878   0.303
 3117SOL     OW10249   3.944   3.572   5.331
 3117SOL    HW110250   3.874   3.627   5.376
 3117SOL    HW210251   3.925   3.475   5.345
 3118SOL     OW10252   5.983   3.880   0.702
 3118SOL    HW110253   6.078   3.883   0.735
 3118SOL    HW210254   5.928   3.947   0.753
 3119SOL     OW10255   1.595   4.272   5.608
 3119SOL    HW110256   1.658   4.342   5.573
 3119SOL    HW210257   1.590   4.196   5.544
 3120SOL     OW10258   3.142   5.533   5.097
 3120SOL    HW110259   3.045   5.509   5.094
 3120SOL    HW210260   3.157   5.597   5.173
 3121SOL     OW10261   6.926   6.605   2.096
 3121SOL    HW110262   6.933   6.676   2.166
 3121SOL    HW210263   7.018   6.581   2.064
 3122SOL     OW10264   3.118   5.398   0.299
 3122SOL    HW110265   3.053   5.381   0.373
 3122SOL    HW210266   3.070   5.438   0.221
 3123SOL     OW10267   3.600   6.684   3.888
 3123SOL    HW110268   3.618   6.586   3.894
 3123SOL    HW210269   3.603   6.712   3.792
 3124SOL     OW10270   4.328   0.820   6.501
 3124SOL    HW110271   4.255   0.760   6.534
 3124SOL    HW210272   4.346   0.802   6.404
 3125SOL     OW10273   0.276   1.729   6.017
 3125SOL    HW110274   0.192   1.774   6.050
 3125SOL    HW210275   0.253   1.669   5.941
 3126SOL     OW10276   4.467   6.061   0.181
 3126SOL    HW110277   4.490   6.055   0.278
 3126SOL    HW210278   4.422   5.976   0.152
 3127SOL     OW10279   0.349   1.393   3.887
 3127SOL    HW110280   0.289   1.443   3.824
 3127SOL    HW210281   0.349   1.440   3.975
 3128SOL     OW10282   1.751   1.465   0.962
 3128SOL    HW110283   1.673   1.408   0.989
 3128SOL    HW210284   1.736   1.559   0.993
 3129SOL     OW10285   0.758   3.314   4.867
 3129SOL    HW110286   0.682   3.286   4.809
 3129SOL    HW210287   0.810   3.386   4.822
 3130SOL     OW10288   1.433   5.591   3.012
 3130SOL    HW110289   1.381   5.619   3.093
 3130SOL    HW210290   1.377   5.602   2.930
 3131SOL     OW10291   6.559   3.406   3.322
 3131SOL    HW110292   6.499   3.470   3.273
 3131SOL    HW210293   6.631   3.457   3.369
 3132SOL     OW10294   5.768   6.254   6.100
 3132SOL    HW110295   5.840   6.199   6.144
 3132SOL    HW210296   5.679   6.214   6.121
 3133SOL     OW10297   3.001   1.799   3.274
 3133SOL    HW110298   2.974   1.885   3.231
 3133SOL    HW210299   2.939   1.779   3.350
 3134SOL     OW10300   4.931   3.099   2.250
 3134SOL    HW110301   4.881   3.057   2.326
 3134SOL    HW210302   4.879   3.087   2.165
 3135SOL     OW10303   3.256   1.963   3.423
 3135SOL    HW110304   3.182   1.996   3.482
 3135SOL    HW210305   3.284   1.872   3.452
 3136SOL     OW10306   5.535   6.287   5.149
 3136SOL    HW110307   5.455   6.282   5.210
 3136SOL    HW210308   5.530   6.372   5.096
 3137SOL     OW10309   5.962   2.164   4.175
 3137SOL    HW110310   5.920   2.106   4.244
 3137SOL    HW210311   5.893   2.188   4.106
 3138SOL     OW10312   5.732   1.166   4.916
 3138SOL    HW110313   5.723   1.156   5.015
 3138SOL    HW210314   5.688   1.251   4.887
 3139SOL     OW10315   4.976   6.382   5.300
 3139SOL    HW110316   4.928   6.358   5.216
 3139SOL    HW210317   5.012   6.299   5.343
 3140SOL     OW10318   6.233   6.197   0.286
 3140SOL    HW110319   6.332   6.191   0.298
 3140SOL    HW210320   6.212   6.249   0.204
 3141SOL     OW10321   0.999   5.026   0.442
 3141SOL    HW110322   0.920   5.014   0.503
 3141SOL    HW210323   0.973   5.002   0.349
 3142SOL     OW10324   4.612   6.574   0.238
 3142SOL    HW110325   4.654   6.654   0.281
 3142SOL    HW210326   4.553   6.603   0.163
 3143SOL     OW10327   6.283   1.313   1.076
 3143SOL    HW110328   6.371   1.300   1.030
 3143SOL    HW210329   6.289   1.392   1.138
 3144SOL     OW10330   1.700   3.341   6.476
 3144SOL    HW110331   1.702   3.253   6.524
 3144SOL    HW210332   1.776   3.344   6.411
 3145SOL     OW10333   3.285   6.102   3.525
 3145SOL    HW110334   3.334   6.027   3.570
 3145SOL    HW210335   3.345   6.182   3.519
 3146SOL     OW10336   1.728   0.393   3.678
 3146SOL    HW110337   1.770   0.336   3.749
 3146SOL    HW210338   1.709   0.336   3.598
 3147SOL     OW10339   4.585   4.333   0.284
 3147SOL    HW110340   4.623   4.307   0.373
 3147SOL    HW210341   4.611   4.266   0.215
 3148SOL     OW10342   3.334   5.851   4.472
 3148SOL    HW110343   3.257   5.788   4.484
 3148SOL    HW210344   3.414   5.815   4.520
 3149SOL     OW10345   3.733   6.796   5.631
 3149SOL    HW110346   3.676   6.732   5.579
 3149SOL    HW210347   3.674   6.863   5.676
 3150SOL     OW10348   6.241   0.419   4.965
 3150SOL    HW110349   6.318   0.469   4.926
 3150SOL    HW210350   6.252   0.321   4.947
 3151SOL     OW10351   4.443   1.168   6.065
 3151SOL    HW110352   4.506   1.225   6.011
 3151SOL    HW210353   4.426   1.082   6.017
 3152SOL     OW10354   1.629   5.237   0.857
 3152SOL    HW110355   1.552   5.206   0.802
 3152SOL    HW210356   1.680   5.307   0.806
 3153SOL     OW10357   6.656   4.011   2.475
 3153SOL    HW110358   6.599   4.040   2.551
 3153SOL    HW210359   6.742   3.973   2.510
 3154SOL     OW10360   5.674   2.492   6.328
 3154SOL    HW110361   5.593   2.528   6.374
 3154SOL    HW210362   5.679   2.530   6.236
 3155SOL     OW10363   5.378   5.592   0.631
 3155SOL    HW110364   5.398   5.601   0.729
 3155SOL    HW210365   5.291   5.543   0.620
 3156SOL     OW10366   3.401   3.980   3.457
 3156SOL    HW110367   3.450   3.931   3.530
 3156SOL    HW210368   3.321   4.025   3.496
 3157SOL     OW10369   2.096   3.265   4.489
 3157SOL    HW110370   2.113   3.241   4.394
 3157SOL    HW210371   2.096   3.182   4.545
 3158SOL     OW10372   4.660   6.312   0.174
 3158SOL    HW110373   4.577   6.256   0.182
 3158SOL    HW210374   4.636   6.408   0.189
 3159SOL     OW10375   5.586   4.977   0.550
 3159SOL    HW110376   5.607   4.932   0.637
 3159SOL    HW210377   5.487   4.983   0.538
 3160SOL     OW10378   5.817   4.129   6.961
 3160SOL    HW110379   5.776   4.099   0.026
 3160SOL    HW210380   5.878   4.057   6.926
 3161SOL     OW10381   0.589   2.064   2.761
 3161SOL    HW110382   0.685   2.054   2.789
 3161SOL    HW210383   0.558   2.157   2.780
 3162SOL     OW10384   0.017   6.128   6.219
 3162SOL    HW110385   0.058   6.219   6.227
 3162SOL    HW210386   0.041   6.073   6.300
 3163SOL     OW10387   2.448   4.033   5.956
 3163SOL    HW110388   2.483   3.959   5.898
 3163SOL    HW210389   2.489   4.119   5.927
 3164SOL     OW10390   5.545   5.512   6.429
 3164SOL    HW110391   5.501   5.471   6.349
 3164SOL    HW210392   5.535   5.450   6.507
 3165SOL     OW10393   6.889   2.084   1.438
 3165SOL    HW110394   6.872   1.999   1.388
 3165SOL    HW210395   6.988   2.096   1.450
 3166SOL     OW10396   5.095   2.747   5.972
 3166SOL    HW110397   5.076   2.818   5.904
 3166SOL    HW210398   5.031   2.671   5.960
 3167SOL     OW10399   0.589   4.876   2.266
 3167SOL    HW110400   0.563   4.783   2.290
 3167SOL    HW210401   0.507   4.930   2.247
 3168SOL     OW10402   5.493   3.236   0.892
 3168SOL    HW110403   5.584   3.264   0.863
 3168SOL    HW210404   5.425   3.299   0.853
 3169SOL     OW10405   1.589   1.794   5.701
 3169SOL    HW110406   1.527   1.769   5.775
 3169SOL    HW210407   1.586   1.892   5.686
 3170SOL     OW10408   4.557   0.717   6.618
 3170SOL    HW110409   4.540   0.651   6.692
 3170SOL    HW210410   4.470   0.755   6.587
 3171SOL     OW10411   6.501   6.902   3.468
 3171SOL    HW110412   6.593   6.924   3.501
 3171SOL    HW210413   6.503   6.813   3.422
 3172SOL     OW10414   6.253   6.613   5.562
 3172SOL    HW110415   6.211   6.523   5.550
 3172SOL    HW210416   6.183   6.678   5.592
 3173SOL     OW10417   1.710   1.226   1.299
 3173SOL    HW110418   1.783   1.289   1.327
 3173SOL    HW210419   1.750   1.147   1.253
 3174SOL     OW10420   2.035   3.561   5.896
 3174SOL    HW110421   2.086   3.600   5.973
 3174SOL    HW210422   2.011   3.634   5.832
 3175SOL     OW10423   0.208   6.427   0.681
 3175SOL    HW110424   0.197   6.510   0.628
 3175SOL    HW210425   0.294   6.430   0.731
 3176SOL     OW10426   0.329   5.145   6.519
 3176SOL    HW110427   0.272   5.209   6.571
 3176SOL    HW210428   0.410   5.121   6.574
 3177SOL     OW10429   6.715   0.047   5.411
 3177SOL    HW110430   6.708   6.968   5.407
 3177SOL    HW210431   6.724   0.083   5.318
 3178SOL     OW10432   1.203   3.162   1.538
 3178SOL    HW110433   1.264   3.095   1.579
 3178SOL    HW210434   1.122   3.174   1.596
 3179SOL     OW10435   2.258   2.046   2.998
 3179SOL    HW110436   2.226   1.962   3.042
 3179SOL    HW210437   2.290   2.025   2.905
 3180SOL     OW10438   5.823   0.998   6.084
 3180SOL    HW110439   5.898   0.982   6.019
 3180SOL    HW210440   5.780   1.086   6.065
 3181SOL     OW10441   0.541   1.439   2.934
 3181SOL    HW110442   0.544   1.465   2.837
 3181SOL    HW210443   0.522   1.520   2.990
 3182SOL     OW10444   1.632   4.652   5.356
 3182SOL    HW110445   1.649   4.661   5.258
 3182SOL    HW210446   1.560   4.584   5.371
 3183SOL     OW10447   3.967   3.270   1.488
 3183SOL    HW110448   4.053   3.280   1.436
 3183SOL    HW210449   3.902   3.217   1.433
 3184SOL     OW10450   2.621   1.129   3.014
 3184SOL    HW110451   2.559   1.206   2.997
 3184SOL    HW210452   2.704   1.162   3.060
 3185SOL     OW10453   0.025   6.571   5.924
 3185SOL    HW110454   0.112   6.521   5.917
 3185SOL    HW210455   6.976   6.511   5.964
 3186SOL     OW10456   3.251   0.608   1.586
 3186SOL    HW110457   3.179   0.555   1.630
 3186SOL    HW210458   3.335   0.553   1.582
 3187SOL     OW10459   2.865   4.216   0.018
 3187SOL    HW110460   2.898   4.182   6.951
 3187SOL    HW210461   2.943   4.229   0.080
 3188SOL     OW10462   4.121   6.521   2.952
 3188SOL    HW110463   4.114   6.621   2.954
 3188SOL    HW210464   4.038   6.483   2.911
 3189SOL     OW10465   1.414   0.014   2.276
 3189SOL    HW110466   1.444   0.035   2.183
 3189SOL    HW210467   1.494   0.007   2.336
 3190SOL     OW10468   0.547   6.791   2.104
 3190SOL    HW110469   0.548   6.809   2.202
 3190SOL    HW210470   0.608   6.714   2.083
 3191SOL     OW10471   3.631   0.510   0.718
 3191SOL    HW110472   3.730   0.510   0.701
 3191SOL    HW210473   3.611   0.464   0.804
 3192SOL     OW10474   6.609   2.729   2.859
 3192SOL    HW110475   6.540   2.799   2.840
 3192SOL    HW210476   6.699   2.762   2.831
 3193SOL     OW10477   4.705   3.749   0.202
 3193SOL    HW110478   4.645   3.828   0.208
 3193SOL    HW210479   4.780   3.759   0.268
 3194SOL     OW10480   1.033   3.835   5.866
 3194SOL    HW110481   1.054   3.930   5.843
 3194SOL    HW210482   0.933   3.823   5.865
 3195SOL     OW10483   0.149   3.574   3.322
 3195SOL    HW110484   0.123   3.629   3.242
 3195SOL    HW210485   0.239   3.602   3.355
 3196SOL     OW10486   0.567   6.974   5.562
 3196SOL    HW110487   0.508   6.902   5.596
 3196SOL    HW210488   0.646   6.984   5.623
 3197SOL     OW10489   1.399   4.094   4.238
 3197SOL    HW110490   1.396   4.194   4.236
 3197SOL    HW210491   1.493   4.063   4.222
 3198SOL     OW10492   6.967   1.361   0.412
 3198SOL    HW110493   6.904   1.435   0.391
 3198SOL    HW210494   0.013   1.392   0.480
 3199SOL     OW10495   3.615   2.116   2.782
 3199SOL    HW110496   3.565   2.136   2.867
 3199SOL    HW210497   3.707   2.156   2.788
 3200SOL     OW10498   6.932   2.234   0.957
 3200SOL    HW110499   6.907   2.323   0.918
 3200SOL    HW210500   7.012   2.244   1.016
 3201SOL     OW10501   4.257   4.756   2.912
 3201SOL    HW110502   4.234   4.732   3.006
 3201SOL    HW210503   4.353   4.786   2.908
 3202SOL     OW10504   2.229   5.714   1.271
 3202SOL    HW110505   2.327   5.729   1.258
 3202SOL    HW210506   2.189   5.677   1.187
 3203SOL     OW10507   6.406   0.536   2.017
 3203SOL    HW110508   6.337   0.536   1.945
 3203SOL    HW210509   6.363   0.566   2.103
 3204SOL     OW10510   6.128   5.917   1.868
 3204SOL    HW110511   6.194   5.980   1.828
 3204SOL    HW210512   6.146   5.824   1.835
 3205SOL     OW10513   1.689   4.007   2.926
 3205SOL    HW110514   1.667   4.103   2.907
 3205SOL    HW210515   1.668   3.987   3.021
 3206SOL     OW10516   1.625   6.991   0.191
 3206SOL    HW110517   1.653   0.031   0.116
 3206SOL    HW210518   1.545   6.938   0.162
 3207SOL     OW10519   0.449   1.074   4.117
 3207SOL    HW110520   0.451   0.976   4.098
 3207SOL    HW210521   0.530   1.117   4.076
 3208SOL     OW10522   6.410   0.337   5.835
 3208SOL    HW110523   6.455   0.390   5.763
 3208SOL    HW210524   6.355   0.398   5.892
 3209SOL     OW10525   2.441   0.678   3.400
 3209SOL    HW110526   2.447   0.579   3.411
 3209SOL    HW210527   2.504   0.723   3.464
 3210SOL     OW10528   6.911   5.016   3.296
 3210SOL    HW110529   6.920   5.100   3.350
 3210SOL    HW210530   6.815   4.999   3.276
 3211SOL     OW10531   1.046   4.176   2.010
 3211SOL    HW110532   0.968   4.152   1.952
 3211SOL    HW210533   1.016   4.185   2.105
 3212SOL     OW10534   4.902   2.577   5.878
 3212SOL    HW110535   4.879   2.641   5.805
 3212SOL    HW210536   4.823   2.566   5.939
 3213SOL     OW10537   5.410   6.054   1.798
 3213SOL    HW110538   5.417   6.151   1.822
 3213SOL    HW210539   5.497   6.023   1.759
 3214SOL     OW10540   3.898   4.803   5.802
 3214SOL    HW110541   3.876   4.879   5.864
 3214SOL    HW210542   3.825   4.735   5.805
 3215SOL     OW10543   6.105   1.388   0.304
 3215SOL    HW110544   6.143   1.470   0.261
 3215SOL    HW210545   6.170   1.353   0.372
 3216SOL     OW10546   5.716   6.886   4.677
 3216SOL    HW110547   5.726   6.984   4.692
 3216SOL    HW210548   5.674   6.844   4.758
 3217SOL     OW10549   6.784   4.176   1.165
 3217SOL    HW110550   6.787   4.084   1.205
 3217SOL    HW210551   6.847   4.181   1.087
 3218SOL     OW10552   2.928   1.100   2.023
 3218SOL    HW110553   2.901   1.080   1.929
 3218SOL    HW210554   2.878   1.180   2.056
 3219SOL     OW10555   6.771   7.021   4.007
 3219SOL    HW110556   6.850   6.960   4.016
 3219SOL    HW210557   6.749   0.039   4.096
 3220SOL     OW10558   5.750   3.000   5.426
 3220SOL    HW110559   5.752   3.100   5.422
 3220SOL    HW210560   5.655   2.968   5.417
 3221SOL     OW10561   3.585   6.973   2.620
 3221SOL    HW110562   3.634   7.005   2.702
 3221SOL    HW210563   3.650   6.943   2.551
 3222SOL     OW10564   6.022   3.007   3.113
 3222SOL    HW110565   5.935   3.001   3.161
 3222SOL    HW210566   6.010   3.056   3.027
 3223SOL     OW10567   2.449   4.824   4.833
 3223SOL    HW110568   2.529   4.766   4.848
 3223SOL    HW210569   2.452   4.863   4.742
 3224SOL     OW10570   4.042   5.411   0.825
 3224SOL    HW110571   4.032   5.414   0.925
 3224SOL    HW210572   3.951   5.415   0.783
 3225SOL     OW10573   2.040   2.745   1.476
 3225SOL    HW110574   2.104   2.670   1.486
 3225SOL    HW210575   2.012   2.753   1.380
 3226SOL     OW10576   0.197   0.875   4.456
 3226SOL    HW110577   0.278   0.818   4.467
 3226SOL    HW210578   0.150   0.850   4.371
 3227SOL     OW10579   2.750   1.115   5.276
 3227SOL    HW110580   2.844   1.107   5.244
 3227SOL    HW210581   2.699   1.178   5.218
 3228SOL     OW10582   4.860   3.110   4.984
 3228SOL    HW110583   4.911   3.155   5.058
 3228SOL    HW210584   4.819   3.179   4.925
 3229SOL     OW10585   3.793   2.130   5.057
 3229SOL    HW110586   3.815   2.050   5.114
 3229SOL    HW210587   3.875   2.161   5.010
 3230SOL     OW10588   1.125   0.662   3.816
 3230SOL    HW110589   1.053   0.709   3.764
 3230SOL    HW210590   1.212   0.671   3.767
 3231SOL     OW10591   5.449   5.585   0.902
 3231SOL    HW110592   5.537   5.632   0.908
 3231SOL    HW210593   5.462   5.492   0.869
 3232SOL     OW10594   2.033   4.290   3.640
 3232SOL    HW110595   1.954   4.249   3.685
 3232SOL    HW210596   2.116   4.266   3.690
 3233SOL     OW10597   1.285   4.257   1.293
 3233SOL    HW110598   1.251   4.297   1.208
 3233SOL    HW210599   1.211   4.250   1.359
 3234SOL     OW10600   6.289   1.837   4.700
 3234SOL    HW110601   6.357   1.766   4.716
 3234SOL    HW210602   6.216   1.801   4.641
 3235SOL     OW10603   5.607   0.457   3.011
 3235SOL    HW110604   5.646   0.547   3.027
 3235SOL    HW210605   5.532   0.441   3.074
 3236SOL     OW10606   0.613   2.929   1.925
 3236SOL    HW110607   0.706   2.897   1.907
 3236SOL    HW210608   0.576   2.971   1.841
 3237SOL     OW10609   3.383   6.651   4.339
 3237SOL    HW110610   3.377   6.622   4.435
 3237SOL    HW210611   3.477   6.678   4.318
 3238SOL     OW10612   6.370   6.866   6.785
 3238SOL    HW110613   6.419   6.811   6.718
 3238SOL    HW210614   6.373   6.962   6.757
 3239SOL     OW10615   0.327   6.417   5.647
 3239SOL    HW110616   0.269   6.340   5.622
 3239SOL    HW210617   0.382   6.446   5.569
 3240SOL     OW10618   0.612   1.138   4.906
 3240SOL    HW110619   0.523   1.092   4.904
 3240SOL    HW210620   0.652   1.138   4.815
 3241SOL     OW10621   4.690   1.126   5.136
 3241SOL    HW110622   4.747   1.044   5.133
 3241SOL    HW210623   4.612   1.111   5.198
 3242SOL     OW10624   3.032   6.471   0.433
 3242SOL    HW110625   3.075   6.552   0.393
 3242SOL    HW210626   3.082   6.443   0.515
 3243SOL     OW10627   3.620   5.343   0.053
 3243SOL    HW110628   3.597   5.291   6.991
 3243SOL    HW210629   3.538   5.389   0.087
 3244SOL     OW10630   2.332   6.128   5.900
 3244SOL    HW110631   2.279   6.212   5.907
 3244SOL    HW210632   2.347   6.106   5.803
 3245SOL     OW10633   3.007   1.662   5.979
 3245SOL    HW110634   2.995   1.745   6.034
 3245SOL    HW210635   3.002   1.687   5.882
 3246SOL     OW10636   5.245   6.631   3.843
 3246SOL    HW110637   5.241   6.725   3.807
 3246SOL    HW210638   5.161   6.583   3.818
 3247SOL     OW10639   6.746   1.753   4.810
 3247SOL    HW110640   6.740   1.748   4.710
 3247SOL    HW210641   6.825   1.699   4.841
 3248SOL     OW10642   5.356   4.190   2.623
 3248SOL    HW110643   5.334   4.251   2.699
 3248SOL    HW210644   5.303   4.105   2.631
 3249SOL     OW10645   3.020   4.246   5.268
 3249SOL    HW110646   2.964   4.326   5.246
 3249SOL    HW210647   2.978   4.165   5.226
 3250SOL     OW10648   4.239   6.019   2.002
 3250SOL    HW110649   4.252   5.943   1.939
 3250SOL    HW210650   4.213   6.101   1.950
 3251SOL     OW10651   3.412   1.203   3.459
 3251SOL    HW110652   3.423   1.172   3.554
 3251SOL    HW210653   3.487   1.166   3.404
 3252SOL     OW10654   3.154   2.166   3.622
 3252SOL    HW110655   3.072   2.182   3.566
 3252SOL    HW210656   3.129   2.170   3.719
 3253SOL     OW10657   4.565   3.660   0.775
 3253SOL    HW110658   4.575   3.689   0.680
 3253SOL    HW210659   4.592   3.564   0.784
 3254SOL     OW10660   4.902   4.966   2.388
 3254SOL    HW110661   4.822   4.950   2.445
 3254SOL    HW210662   4.906   4.896   2.316
 3255SOL     OW10663   3.933   4.365   0.914
 3255SOL    HW110664   3.867   4.383   0.987
 3255SOL    HW210665   4.022   4.401   0.941
 3256SOL     OW10666   6.300   6.462   6.093
 3256SOL    HW110667   6.331   6.412   6.174
 3256SOL    HW210668   6.317   6.560   6.105
 3257SOL     OW10669   2.214   2.016   0.932
 3257SOL    HW110670   2.251   2.040   0.843
 3257SOL    HW210671   2.284   1.970   0.986
 3258SOL     OW10672   5.825   6.976   1.661
 3258SOL    HW110673   5.892   7.004   1.731
 3258SOL    HW210674   5.868   6.910   1.599
 3259SOL     OW10675   5.925   6.204   3.241
 3259SOL    HW110676   5.938   6.261   3.322
 3259SOL    HW210677   5.837   6.224   3.199
 3260SOL     OW10678   1.610   3.245   0.423
 3260SOL    HW110679   1.512   3.249   0.443
 3260SOL    HW210680   1.626   3.275   0.329
 3261SOL     OW10681   4.684   0.045   3.689
 3261SOL    HW110682   4.707   0.113   3.759
 3261SOL    HW210683   4.587   0.020   3.697
 3262SOL     OW10684   3.926   1.411   4.476
 3262SOL    HW110685   4.010   1.462   4.461
 3262SOL    HW210686   3.871   1.456   4.546
 3263SOL     OW10687   3.092   5.502   2.379
 3263SOL    HW110688   3.000   5.465   2.375
 3263SOL    HW210689   3.101   5.578   2.314
 3264SOL     OW10690   4.630   4.558   5.762
 3264SOL    HW110691   4.565   4.573   5.688
 3264SOL    HW210692   4.679   4.473   5.748
 3265SOL     OW10693   5.045   0.930   6.574
 3265SOL    HW110694   4.968   0.951   6.635
 3265SOL    HW210695   5.085   1.016   6.540
 3266SOL     OW10696   0.430   2.056   6.907
 3266SOL    HW110697   0.344   2.010   6.884
 3266SOL    HW210698   0.507   1.995   6.888
 3267SOL     OW10699   4.962   2.368   1.181
 3267SOL    HW110700   4.882   2.363   1.241
 3267SOL    HW210701   4.995   2.276   1.161
 3268SOL     OW10702   1.485   4.858   6.450
 3268SOL    HW110703   1.529   4.817   6.370
 3268SOL    HW210704   1.481   4.790   6.524
 3269SOL     OW10705   4.886   3.671   0.688
 3269SOL    HW110706   4.806   3.727   0.707
 3269SOL    HW210707   4.912   3.620   0.771
 3270SOL     OW10708   0.372   5.574   4.291
 3270SOL    HW110709   0.377   5.474   4.294
 3270SOL    HW210710   0.367   5.605   4.196
 3271SOL     OW10711   5.389   1.218   1.989
 3271SOL    HW110712   5.315   1.192   1.926
 3271SOL    HW210713   5.436   1.299   1.953
 3272SOL     OW10714   4.842   0.077   0.285
 3272SOL    HW110715   4.916   0.100   0.221
 3272SOL    HW210716   4.815   0.158   0.336
 3273SOL     OW10717   0.453   0.006   3.201
 3273SOL    HW110718   0.438   0.058   3.285
 3273SOL    HW210719   0.453   6.929   3.223
 3274SOL     OW10720   3.734   2.122   6.309
 3274SOL    HW110721   3.683   2.105   6.393
 3274SOL    HW210722   3.730   2.041   6.251
 3275SOL     OW10723   4.007   1.017   0.294
 3275SOL    HW110724   3.959   1.009   0.382
 3275SOL    HW210725   4.106   1.016   0.310
 3276SOL     OW10726   2.266   6.358   0.409
 3276SOL    HW110727   2.344   6.305   0.376
 3276SOL    HW210728   2.299   6.435   0.463
 3277SOL     OW10729   6.894   6.343   5.553
 3277SOL    HW110730   6.794   6.346   5.559
 3277SOL    HW210731   6.926   6.419   5.496
 3278SOL     OW10732   1.239   0.982   0.278
 3278SOL    HW110733   1.238   1.057   0.344
 3278SOL    HW210734   1.305   0.913   0.306
 3279SOL     OW10735   1.877   6.503   1.038
 3279SOL    HW110736   1.967   6.519   0.998
 3279SOL    HW210737   1.815   6.467   0.968
 3280SOL     OW10738   2.123   5.603   5.244
 3280SOL    HW110739   2.161   5.657   5.319
 3280SOL    HW210740   2.023   5.608   5.246
 3281SOL     OW10741   2.345   6.172   0.639
 3281SOL    HW110742   2.434   6.147   0.601
 3281SOL    HW210743   2.351   6.263   0.680
 3282SOL     OW10744   2.273   6.195   2.196
 3282SOL    HW110745   2.311   6.251   2.123
 3282SOL    HW210746   2.246   6.106   2.159
 3283SOL     OW10747   1.727   0.519   3.946
 3283SOL    HW110748   1.707   0.570   3.862
 3283SOL    HW210749   1.756   0.426   3.923
 3284SOL     OW10750   1.031   4.123   5.796
 3284SOL    HW110751   1.083   4.184   5.856
 3284SOL    HW210752   1.087   4.097   5.718
 3285SOL     OW10753   0.036   2.066   5.049
 3285SOL    HW110754   0.122   2.105   5.015
 3285SOL    HW210755   0.027   2.085   5.147
 3286SOL     OW10756   3.998   4.955   5.585
 3286SOL    HW110757   3.980   4.885   5.655
 3286SOL    HW210758   3.914   4.976   5.536
 3287SOL     OW10759   0.117   4.329   1.702
 3287SOL    HW110760   0.095   4.394   1.630
 3287SOL    HW210761   0.216   4.323   1.713
 3288SOL     OW10762   1.792   6.473   6.633
 3288SOL    HW110763   1.763   6.403   6.699
 3288SOL    HW210764   1.864   6.436   6.574
 3289SOL     OW10765   1.235   5.324   4.572
 3289SOL    HW110766   1.326   5.310   4.610
 3289SOL    HW210767   1.242   5.374   4.486
 3290SOL     OW10768   6.879   4.805   3.071
 3290SOL    HW110769   6.965   4.848   3.098
 3290SOL    HW210770   6.806   4.874   3.071
 3291SOL     OW10771   2.354   6.824   1.595
 3291SOL    HW110772   2.384   6.753   1.660
 3291SOL    HW210773   2.254   6.823   1.588
 3292SOL     OW10774   0.614   5.418   5.451
 3292SOL    HW110775   0.653   5.496   5.500
 3292SOL    HW210776   0.541   5.451   5.390
 3293SOL     OW10777   6.344   0.558   2.847
 3293SOL    HW110778   6.318   0.504   2.927
 3293SOL    HW210779   6.364   0.652   2.875
 3294SOL     OW10780   0.766   0.425   0.918
 3294SOL    HW110781   0.824   0.440   0.998
 3294SOL    HW210782   0.675   0.463   0.935
 3295SOL     OW10783   1.475   2.343   6.357
 3295SOL    HW110784   1.411   2.376   6.288
 3295SOL    HW210785   1.568   2.346   6.320
 3296SOL     OW10786   0.752   6.419   1.390
 3296SOL    HW110787   0.818   6.376   1.451
 3296SOL    HW210788   0.715   6.501   1.433
 3297SOL     OW10789   3.174   1.577   6.146
 3297SOL    HW110790   3.118   1.589   6.064
 3297SOL    HW210791   3.120   1.603   6.226
 3298SOL     OW10792   6.434   3.529   3.114
 3298SOL    HW110793   6.367   3.509   3.042
 3298SOL    HW210794   6.524   3.545   3.073
 3299SOL     OW10795   0.938   1.092   5.181
 3299SOL    HW110796   0.940   1.137   5.092
 3299SOL    HW210797   1.011   1.024   5.186
 3300SOL     OW10798   6.818   0.121   5.161
 3300SOL    HW110799   6.793   0.044   5.102
 3300SOL    HW210800   6.843   0.199   5.104
 3301SOL     OW10801   0.140   3.411   2.472
 3301SOL    HW110802   0.077   3.414   2.550
 3301SOL    HW210803   0.094   3.366   2.395
 3302SOL     OW10804   1.168   5.425   4.244
 3302SOL    HW110805   1.259   5.447   4.210
 3302SOL    HW210806   1.109   5.506   4.237
 3303SOL     OW10807   3.024   3.906   3.590
 3303SOL    HW110808   3.030   3.874   3.684
 3303SOL    HW210809   3.070   3.995   3.581
 3304SOL     OW10810   1.524   0.578   3.616
 3304SOL    HW110811   1.590   0.512   3.652
 3304SOL    HW210812   1.483   0.629   3.692
 3305SOL     OW10813   0.989   2.116   1.079
 3305SOL    HW110814   1.028   2.163   1.000
 3305SOL    HW210815   1.043   2.137   1.161
 3306SOL     OW10816   0.804   3.263   2.650
 3306SOL    HW110817   0.723   3.258   2.593
 3306SOL    HW210818   0.827   3.359   2.666
 3307SOL     OW10819   0.830   6.403   0.697
 3307SOL    HW110820   0.829   6.495   0.736
 3307SOL    HW210821   0.902   6.397   0.627
 3308SOL     OW10822   5.680   6.641   0.786
 3308SOL    HW110823   5.643   6.551   0.760
 3308SOL    HW210824   5.689   6.645   0.886
 3309SOL     OW10825   1.378   5.443   2.022
 3309SOL    HW110826   1.409   5.486   2.106
 3309SOL    HW210827   1.353   5.513   1.955
 3310SOL     OW10828   1.279   6.416   2.203
 3310SOL    HW110829   1.298   6.318   2.210
 3310SOL    HW210830   1.288   6.458   2.294
 3311SOL     OW10831   3.858   6.754   1.192
 3311SOL    HW110832   3.934   6.732   1.131
 3311SOL    HW210833   3.854   6.685   1.265
 3312SOL     OW10834   2.001   3.216   6.694
 3312SOL    HW110835   1.947   3.289   6.735
 3312SOL    HW210836   1.949   3.130   6.698
 3313SOL     OW10837   6.187   6.194   5.305
 3313SOL    HW110838   6.269   6.136   5.308
 3313SOL    HW210839   6.169   6.231   5.396
 3314SOL     OW10840   0.364   3.502   6.939
 3314SOL    HW110841   0.415   3.483   6.855
 3314SOL    HW210842   0.357   3.418   6.993
 3315SOL     OW10843   6.348   3.485   2.634
 3315SOL    HW110844   6.419   3.418   2.613
 3315SOL    HW210845   6.329   3.541   2.554
 3316SOL     OW10846   4.497   1.530   0.489
 3316SOL    HW110847   4.556   1.503   0.413
 3316SOL    HW210848   4.502   1.461   0.561
 3317SOL     OW10849   4.267   2.751   1.639
 3317SOL    HW110850   4.366   2.743   1.641
 3317SOL    HW210851   4.227   2.662   1.613
 3318SOL     OW10852   2.567   5.117   4.896
 3318SOL    HW110853   2.578   5.019   4.882
 3318SOL    HW210854   2.539   5.135   4.990
 3319SOL     OW10855   0.095   5.981   6.456
 3319SOL    HW110856   0.048   6.021   6.535
 3319SOL    HW210857   0.187   5.952   6.483
 3320SOL     OW10858   0.693   1.397   6.074
 3320SOL    HW110859   0.778   1.417   6.123
 3320SOL    HW210860   0.617   1.444   6.117
 3321SOL     OW10861   3.747   3.693   4.049
 3321SOL    HW110862   3.768   3.748   3.969
 3321SOL    HW210863   3.813   3.618   4.057
 3322SOL     OW10864   4.455   2.981   1.156
 3322SOL    HW110865   4.366   2.963   1.115
 3322SOL    HW210866   4.444   3.041   1.235
 3323SOL     OW10867   2.612   4.906   6.787
 3323SOL    HW110868   2.529   4.941   6.830
 3323SOL    HW210869   2.597   4.897   6.688
 3324SOL     OW10870   6.672   3.201   1.202
 3324SOL    HW110871   6.760   3.248   1.205
 3324SOL    HW210872   6.681   3.112   1.248
 3325SOL     OW10873   1.102   3.572   6.558
 3325SOL    HW110874   1.178   3.509   6.541
 3325SOL    HW210875   1.095   3.637   6.482
 3326SOL     OW10876   6.714   1.153   1.686
 3326SOL    HW110877   6.756   1.094   1.617
 3326SOL    HW210878   6.669   1.095   1.755
 3327SOL     OW10879   3.542   6.114   2.044
 3327SOL    HW110880   3.628   6.093   2.090
 3327SOL    HW210881   3.561   6.156   1.955
 3328SOL     OW10882   5.015   0.326   3.651
 3328SOL    HW110883   5.033   0.414   3.607
 3328SOL    HW210884   4.956   0.271   3.592
 3329SOL     OW10885   5.524   0.588   6.075
 3329SOL    HW110886   5.552   0.680   6.103
 3329SOL    HW210887   5.584   0.520   6.118
 3330SOL     OW10888   6.770   6.164   3.217
 3330SOL    HW110889   6.824   6.099   3.270
 3330SOL    HW210890   6.823   6.248   3.203
 3331SOL     OW10891   1.386   3.445   2.492
 3331SOL    HW110892   1.453   3.433   2.418
 3331SOL    HW210893   1.295   3.456   2.453
 3332SOL     OW10894   3.513   4.928   0.255
 3332SOL    HW110895   3.581   4.985   0.209
 3332SOL    HW210896   3.524   4.833   0.226
 3333SOL     OW10897   2.315   3.242   1.713
 3333SOL    HW110898   2.326   3.333   1.752
 3333SOL    HW210899   2.402   3.193   1.716
 3334SOL     OW10900   2.009   2.246   2.007
 3334SOL    HW110901   1.997   2.160   1.959
 3334SOL    HW210902   2.049   2.314   1.946
 3335SOL     OW10903   3.936   4.042   4.815
 3335SOL    HW110904   3.928   4.129   4.864
 3335SOL    HW210905   4.024   4.039   4.767
 3336SOL     OW10906   4.325   5.715   5.006
 3336SOL    HW110907   4.358   5.712   5.101
 3336SOL    HW210908   4.328   5.623   4.967
 3337SOL     OW10909   3.430   2.864   2.568
 3337SOL    HW110910   3.464   2.770   2.560
 3337SOL    HW210911   3.409   2.899   2.477
 3338SOL     OW10912   2.441   3.290   1.127
 3338SOL    HW110913   2.414   3.200   1.161
 3338SOL    HW210914   2.534   3.311   1.158
 3339SOL     OW10915   1.848   0.302   6.619
 3339SOL    HW110916   1.828   0.392   6.658
 3339SOL    HW210917   1.799   0.232   6.672
 3340SOL     OW10918   3.944   1.123   5.316
 3340SOL    HW110919   3.935   1.024   5.318
 3340SOL    HW210920   3.997   1.153   5.396
 3341SOL     OW10921   1.182   4.693   2.020
 3341SOL    HW110922   1.248   4.739   2.079
 3341SOL    HW210923   1.229   4.621   1.967
 3342SOL     OW10924   6.434   0.866   2.514
 3342SOL    HW110925   6.367   0.903   2.579
 3342SOL    HW210926   6.523   0.909   2.531
 3343SOL     OW10927   4.554   5.489   0.178
 3343SOL    HW110928   4.464   5.445   0.168
 3343SOL    HW210929   4.562   5.563   0.111
 3344SOL     OW10930   0.838   3.351   2.236
 3344SOL    HW110931   0.875   3.261   2.216
 3344SOL    HW210932   0.835   3.365   2.335
 3345SOL     OW10933   5.654   5.416   0.997
 3345SOL    HW110934   5.750   5.430   0.973
 3345SOL    HW210935   5.608   5.369   0.922
 3346SOL     OW10936   2.047   0.738   6.924
 3346SOL    HW110937   2.063   0.741   0.002
 3346SOL    HW210938   2.036   0.831   6.889
 3347SOL     OW10939   0.513   3.899   5.549
 3347SOL    HW110940   0.458   3.827   5.590
 3347SOL    HW210941   0.508   3.981   5.606
 3348SOL     OW10942   3.644   4.182   5.940
 3348SOL    HW110943   3.689   4.214   5.857
 3348SOL    HW210944   3.713   4.154   6.006
 3349SOL     OW10945   1.994   5.771   2.572
 3349SOL    HW110946   2.094   5.778   2.567
 3349SOL    HW210947   1.953   5.842   2.515
 3350SOL     OW10948   1.703   5.093   4.432
 3350SOL    HW110949   1.665   5.007   4.466
 3350SOL    HW210950   1.643   5.130   4.361
 3351SOL     OW10951   5.556   0.901   2.024
 3351SOL    HW110952   5.581   0.882   2.119
 3351SOL    HW210953   5.555   0.815   1.972
 3352SOL     OW10954   5.767   1.692   6.910
 3352SOL    HW110955   5.701   1.618   6.897
 3352SOL    HW210956   5.832   1.667   6.982
 3353SOL     OW10957   3.917   0.216   6.934
 3353SOL    HW110958   3.826   0.181   6.956
 3353SOL    HW210959   3.909   0.305   6.888
 3354SOL     OW10960   2.966   4.170   6.757
 3354SOL    HW110961   2.996   4.123   6.674
 3354SOL    HW210962   3.040   4.228   6.790
 3355SOL     OW10963   1.273   0.283   5.216
 3355SOL    HW110964   1.192   0.339   5.200
 3355SOL    HW210965   1.328   0.278   5.133
 3356SOL     OW10966   1.989   0.676   6.403
 3356SOL    HW110967   1.994   0.633   6.313
 3356SOL    HW210968   1.931   0.619   6.463
 3357SOL     OW10969   3.289   2.973   2.771
 3357SOL    HW110970   3.330   2.917   2.699
 3357SOL    HW210971   3.325   2.944   2.860
 3358SOL     OW10972   7.019   1.174   1.956
 3358SOL    HW110973   0.041   1.218   1.877
 3358SOL    HW210974   0.016   1.075   1.952
 3359SOL     OW10975   0.783   6.382   5.090
 3359SOL    HW110976   0.767   6.468   5.042
 3359SOL    HW210977   0.874   6.348   5.067
 3360SOL     OW10978   2.189   4.973   4.135
 3360SOL    HW110979   2.114   4.985   4.200
 3360SOL    HW210980   2.236   5.060   4.121
 3361SOL     OW10981   6.667   6.579   5.679
 3361SOL    HW110982   6.616   6.570   5.593
 3361SOL    HW210983   6.607   6.616   5.750
 3362SOL     OW10984   3.758   0.358   3.939
 3362SOL    HW110985   3.798   0.408   4.016
 3362SOL    HW210986   3.665   0.330   3.964
 3363SOL     OW10987   5.656   4.061   0.145
 3363SOL    HW110988   5.602   3.978   0.158
 3363SOL    HW210989   5.601   4.130   0.097
 3364SOL     OW10990   1.623   3.719   2.268
 3364SOL    HW110991   1.713   3.748   2.236
 3364SOL    HW210992   1.580   3.794   2.319
 3365SOL     OW10993   0.968   3.557   3.242
 3365SOL    HW110994   0.937   3.638   3.191
 3365SOL    HW210995   1.050   3.520   3.198
 3366SOL     OW10996   5.789   3.245   4.954
 3366SOL    HW110997   5.884   3.253   4.927
 3366SOL    HW210998   5.745   3.334   4.948
 3367SOL     OW10999   3.236   3.245   3.787
 3367SOL    HW111000   3.279   3.217   3.701
 3367SOL    HW211001   3.286   3.324   3.824
 3368SOL     OW11002   2.764   0.899   2.924
 3368SOL    HW111003   2.837   0.941   2.870
 3368SOL    HW211004   2.721   0.969   2.982
 3369SOL     OW11005   4.995   2.546   0.970
 3369SOL    HW111006   4.976   2.489   1.050
 3369SOL    HW211007   5.060   2.617   0.994
 3370SOL     OW11008   0.067   5.566   2.571
 3370SOL    HW111009   0.102   5.473   2.580
 3370SOL    HW211010   0.004   5.570   2.494
 3371SOL     OW11011   1.993   2.929   1.689
 3371SOL    HW111012   2.081   2.950   1.732
 3371SOL    HW211013   1.999   2.843   1.639
 3372SOL     OW11014   5.982   3.630   2.742
 3372SOL    HW111015   5.971   3.574   2.660
 3372SOL    HW211016   5.920   3.708   2.737
 3373SOL     OW11017   0.062   4.129   1.909
 3373SOL    HW111018   0.068   4.185   1.826
 3373SOL    HW211019   0.145   4.075   1.919
 3374SOL     OW11020   0.704   6.306   3.829
 3374SOL    HW111021   0.756   6.278   3.748
 3374SOL    HW211022   0.697   6.230   3.892
 3375SOL     OW11023   0.136   5.924   6.089
 3375SOL    HW111024   0.218   5.910   6.144
 3375SOL    HW211025   0.093   6.011   6.114
 3376SOL     OW11026   3.625   2.870   4.025
 3376SOL    HW111027   3.601   2.773   4.037
 3376SOL    HW211028   3.599   2.921   4.107
 3377SOL     OW11029   0.095   5.417   4.297
 3377SOL    HW111030   0.074   5.385   4.205
 3377SOL    HW211031   0.049   5.359   4.365
 3378SOL     OW11032   1.802   6.128   1.104
 3378SOL    HW111033   1.861   6.180   1.042
 3378SOL    HW211034   1.849   6.044   1.131
 3379SOL     OW11035   6.162   3.721   4.428
 3379SOL    HW111036   6.164   3.776   4.512
 3379SOL    HW211037   6.250   3.728   4.381
 3380SOL     OW11038   2.512   4.564   0.622
 3380SOL    HW111039   2.611   4.575   0.630
 3380SOL    HW211040   2.479   4.619   0.545
 3381SOL     OW11041   2.474   3.752   5.840
 3381SOL    HW111042   2.452   3.654   5.846
 3381SOL    HW211043   2.553   3.764   5.780
 3382SOL     OW11044   6.850   3.752   0.035
 3382SOL    HW111045   6.932   3.708   0.073
 3382SOL    HW211046   6.769   3.720   0.085
 3383SOL     OW11047   4.373   5.545   6.943
 3383SOL    HW111048   4.332   5.465   6.986
 3383SOL    HW211049   4.309   5.584   6.877
 3384SOL     OW11050   2.685   3.144   6.376
 3384SOL    HW111051   2.776   3.184   6.371
 3384SOL    HW211052   2.622   3.198   6.319
 3385SOL     OW11053   6.378   2.124   4.232
 3385SOL    HW111054   6.473   2.153   4.237
 3385SOL    HW211055   6.355   2.070   4.314
 3386SOL     OW11056   0.043   5.960   4.578
 3386SOL    HW111057   6.976   5.913   4.585
 3386SOL    HW211058   0.111   5.898   4.539
 3387SOL     OW11059   6.016   1.064   2.877
 3387SOL    HW111060   5.985   1.148   2.922
 3387SOL    HW211061   5.947   0.993   2.889
 3388SOL     OW11062   6.687   4.339   0.956
 3388SOL    HW111063   6.622   4.275   0.996
 3388SOL    HW211064   6.639   4.398   0.891
 3389SOL     OW11065   5.795   5.581   6.513
 3389SOL    HW111066   5.696   5.573   6.502
 3389SOL    HW211067   5.834   5.493   6.537
 3390SOL     OW11068   3.072   5.174   0.079
 3390SOL    HW111069   2.973   5.185   0.080
 3390SOL    HW211070   3.108   5.182   0.172
 3391SOL     OW11071   4.693   4.172   4.976
 3391SOL    HW111072   4.772   4.209   4.927
 3391SOL    HW211073   4.646   4.105   4.919
 3392SOL     OW11074   4.680   6.523   6.201
 3392SOL    HW111075   4.742   6.513   6.123
 3392SOL    HW211076   4.729   6.500   6.285
 3393SOL     OW11077   3.637   6.162   0.466
 3393SOL    HW111078   3.711   6.201   0.411
 3393SOL    HW211079   3.554   6.215   0.452
 3394SOL     OW11080   3.239   5.387   1.228
 3394SOL    HW111081   3.262   5.293   1.251
 3394SOL    HW211082   3.299   5.450   1.278
 3395SOL     OW11083   1.635   6.955   2.972
 3395SOL    HW111084   1.674   6.873   3.014
 3395SOL    HW211085   1.666   0.016   3.021
 3396SOL     OW11086   4.591   0.103   4.037
 3396SOL    HW111087   4.669   0.043   4.017
 3396SOL    HW211088   4.506   0.053   4.021
 3397SOL     OW11089   2.570   5.678   6.705
 3397SOL    HW111090   2.635   5.742   6.664
 3397SOL    HW211091   2.505   5.648   6.635
 3398SOL     OW11092   6.976   1.812   5.738
 3398SOL    HW111093   0.028   1.845   5.678
 3398SOL    HW211094   6.902   1.773   5.683
 3399SOL     OW11095   6.488   6.031   2.193
 3399SOL    HW111096   6.562   5.965   2.209
 3399SOL    HW211097   6.520   6.123   2.215
 3400SOL     OW11098   3.849   3.126   5.728
 3400SOL    HW111099   3.916   3.188   5.768
 3400SOL    HW211100   3.775   3.179   5.687
 3401SOL     OW11101   0.023   3.782   4.265
 3401SOL    HW111102   7.015   3.753   4.356
 3401SOL    HW211103   0.114   3.822   4.269
 3402SOL     OW11104   6.594   3.652   0.905
 3402SOL    HW111105   6.537   3.572   0.890
 3402SOL    HW211106   6.607   3.701   0.818
 3403SOL     OW11107   5.249   0.008   6.714
 3403SOL    HW111108   5.173   0.001   6.650
 3403SOL    HW211109   5.257   6.943   6.766
 3404SOL     OW11110   5.157   5.039   3.848
 3404SOL    HW111111   5.170   4.990   3.762
 3404SOL    HW211112   5.246   5.064   3.886
 3405SOL     OW11113   4.069   6.078   6.918
 3405SOL    HW111114   4.161   6.095   6.952
 3405SOL    HW211115   4.049   5.980   6.924
 3406SOL     OW11116   3.121   5.470   0.982
 3406SOL    HW111117   3.173   5.431   1.058
 3406SOL    HW211118   3.107   5.568   0.998
 3407SOL     OW11119   1.165   4.119   6.734
 3407SOL    HW111120   1.140   4.201   6.785
 3407SOL    HW211121   1.138   4.129   6.639
 3408SOL     OW11122   4.829   0.181   3.504
 3408SOL    HW111123   4.778   0.176   3.418
 3408SOL    HW211124   4.769   0.159   3.580
 3409SOL     OW11125   4.215   1.544   0.192
 3409SOL    HW111126   4.181   1.592   0.112
 3409SOL    HW211127   4.308   1.576   0.214
 3410SOL     OW11128   6.492   0.538   3.175
 3410SOL    HW111129   6.397   0.570   3.176
 3410SOL    HW211130   6.493   0.438   3.178
 3411SOL     OW11131   6.078   3.183   5.526
 3411SOL    HW111132   6.166   3.149   5.559
 3411SOL    HW211133   6.091   3.229   5.438
 3412SOL     OW11134   5.488   3.405   2.255
 3412SOL    HW111135   5.570   3.421   2.199
 3412SOL    HW211136   5.406   3.421   2.200
 3413SOL     OW11137   6.371   1.385   0.686
 3413SOL    HW111138   6.438   1.341   0.747
 3413SOL    HW211139   6.284   1.394   0.733
 3414SOL     OW11140   3.336   3.505   1.886
 3414SOL    HW111141   3.283   3.453   1.819
 3414SOL    HW211142   3.406   3.446   1.925
 3415SOL     OW11143   2.187   1.864   5.721
 3415SOL    HW111144   2.188   1.776   5.674
 3415SOL    HW211145   2.182   1.850   5.819
 3416SOL     OW11146   6.353   6.841   0.071
 3416SOL    HW111147   6.337   6.841   6.993
 3416SOL    HW211148   6.283   6.787   0.116
 3417SOL     OW11149   6.600   6.991   3.048
 3417SOL    HW111150   6.621   6.958   2.956
 3417SOL    HW211151   6.681   0.012   3.088
 3418SOL     OW11152   4.189   5.636   0.443
 3418SOL    HW111153   4.225   5.724   0.413
 3418SOL    HW211154   4.183   5.634   0.543
 3419SOL     OW11155   2.414   4.812   5.200
 3419SOL    HW111156   2.315   4.822   5.197
 3419SOL    HW211157   2.458   4.896   5.167
 3420SOL     OW11158   4.124   1.499   2.185
 3420SOL    HW111159   4.162   1.417   2.226
 3420SOL    HW211160   4.190   1.574   2.193
 3421SOL     OW11161   0.155   1.678   5.183
 3421SOL    HW111162   0.167   1.599   5.123
 3421SOL    HW211163   0.062   1.714   5.173
 3422SOL     OW11164   3.037   6.620   0.807
 3422SOL    HW111165   2.955   6.564   0.798
 3422SOL    HW211166   3.020   6.695   0.870
 3423SOL     OW11167   2.661   4.497   5.577
 3423SOL    HW111168   2.647   4.544   5.490
 3423SOL    HW211169   2.669   4.399   5.562
 3424SOL     OW11170   5.209   0.742   2.404
 3424SOL    HW111171   5.221   0.834   2.366
 3424SOL    HW211172   5.180   0.750   2.500
 3425SOL     OW11173   6.476   3.615   6.016
 3425SOL    HW111174   6.422   3.698   6.029
 3425SOL    HW211175   6.549   3.633   5.950
 3426SOL     OW11176   6.246   4.043   0.125
 3426SOL    HW111177   6.163   4.008   0.169
 3426SOL    HW211178   6.224   4.076   0.033
 3427SOL     OW11179   1.547   1.992   0.008
 3427SOL    HW111180   1.566   1.970   6.933
 3427SOL    HW211181   1.627   1.971   0.063
 3428SOL     OW11182   4.828   6.910   4.814
 3428SOL    HW111183   4.904   6.974   4.806
 3428SOL    HW211184   4.861   6.817   4.797
 3429SOL     OW11185   4.409   6.900   0.972
 3429SOL    HW111186   4.485   6.862   1.025
 3429SOL    HW211187   4.442   6.936   0.885
 3430SOL     OW11188   2.622   4.011   6.321
 3430SOL    HW111189   2.531   3.978   6.297
 3430SOL    HW211190   2.643   4.093   6.267
 3431SOL     OW11191   0.701   4.558   2.579
 3431SOL    HW111192   0.674   4.487   2.644
 3431SOL    HW211193   0.645   4.552   2.497
 3432SOL     OW11194   0.511   4.692   0.480
 3432SOL    HW111195   0.536   4.613   0.424
 3432SOL    HW211196   0.583   4.760   0.475
 3433SOL     OW11197   2.097   0.721   0.152
 3433SOL    HW111198   2.092   0.627   0.184
 3433SOL    HW211199   2.084   0.784   0.229
 3434SOL     OW11200   3.592   2.605   1.736
 3434SOL    HW111201   3.508   2.636   1.781
 3434SOL    HW211202   3.638   2.539   1.794
 3435SOL     OW11203   1.710   2.351   1.131
 3435SOL    HW111204   1.619   2.368   1.170
 3435SOL    HW211205   1.780   2.372   1.199
 3436SOL     OW11206   3.757   6.636   6.336
 3436SOL    HW111207   3.682   6.624   6.271
 3436SOL    HW211208   3.721   6.643   6.429
 3437SOL     OW11209   1.362   0.086   6.950
 3437SOL    HW111210   1.338   0.010   7.010
 3437SOL    HW211211   1.350   0.058   6.854
 3438SOL     OW11212   2.603   4.224   0.719
 3438SOL    HW111213   2.518   4.271   0.696
 3438SOL    HW211214   2.624   4.239   0.816
 3439SOL     OW11215   2.819   5.842   0.314
 3439SOL    HW111216   2.752   5.770   0.333
 3439SOL    HW211217   2.831   5.897   0.397
 3440SOL     OW11218   3.411   3.509   5.599
 3440SOL    HW111219   3.385   3.417   5.630
 3440SOL    HW211220   3.403   3.573   5.675
 3441SOL     OW11221   6.510   4.845   4.914
 3441SOL    HW111222   6.503   4.926   4.856
 3441SOL    HW211223   6.433   4.843   4.978
 3442SOL     OW11224   1.629   3.070   0.957
 3442SOL    HW111225   1.723   3.057   0.927
 3442SOL    HW211226   1.618   3.035   1.050
 3443SOL     OW11227   0.497   5.941   2.303
 3443SOL    HW111228   0.577   5.995   2.330
 3443SOL    HW211229   0.459   5.978   2.218
 3444SOL     OW11230   6.798   3.784   5.781
 3444SOL    HW111231   6.886   3.739   5.767
 3444SOL    HW211232   6.812   3.869   5.832
 3445SOL     OW11233   6.143   4.505   4.516
 3445SOL    HW111234   6.152   4.433   4.585
 3445SOL    HW211235   6.230   4.553   4.505
 3446SOL     OW11236   4.786   1.532   0.955
 3446SOL    HW111237   4.704   1.552   0.902
 3446SOL    HW211238   4.866   1.532   0.896
 3447SOL     OW11239   5.686   0.964   6.619
 3447SOL    HW111240   5.591   0.971   6.588
 3447SOL    HW211241   5.747   0.977   6.540
 3448SOL     OW11242   1.015   4.547   4.707
 3448SOL    HW111243   0.940   4.601   4.669
 3448SOL    HW211244   0.983   4.454   4.725
 3449SOL     OW11245   0.719   4.251   5.226
 3449SOL    HW111246   0.697   4.338   5.269
 3449SOL    HW211247   0.666   4.178   5.269
 3450SOL     OW11248   2.349   0.083   2.078
 3450SOL    HW111249   2.342   0.088   2.178
 3450SOL    HW211250   2.303   7.021   2.046
 3451SOL     OW11251   1.722   2.071   0.839
 3451SOL    HW111252   1.800   2.093   0.780
 3451SOL    HW211253   1.661   2.009   0.790
 3452SOL     OW11254   4.248   1.411   5.378
 3452SOL    HW111255   4.239   1.401   5.477
 3452SOL    HW211256   4.339   1.382   5.350
 3453SOL     OW11257   4.224   6.871   6.764
 3453SOL    HW111258   4.289   6.803   6.799
 3453SOL    HW211259   4.142   6.871   6.822
 3454SOL     OW11260   0.221   3.095   1.924
 3454SOL    HW111261   0.138   3.142   1.954
 3454SOL    HW211262   0.291   3.162   1.901
 3455SOL     OW11263   0.616   3.806   6.176
 3455SOL    HW111264   0.613   3.708   6.155
 3455SOL    HW211265   0.566   3.856   6.105
 3456SOL     OW11266   4.917   5.588   4.081
 3456SOL    HW111267   4.889   5.629   3.993
 3456SOL    HW211268   4.989   5.521   4.064
 3457SOL     OW11269   3.654   4.485   6.751
 3457SOL    HW111270   3.642   4.550   6.826
 3457SOL    HW211271   3.606   4.400   6.772
 3458SOL     OW11272   4.137   1.827   2.403
 3458SOL    HW111273   4.103   1.735   2.419
 3458SOL    HW211274   4.064   1.893   2.421
 3459SOL     OW11275   5.375   5.999   2.051
 3459SOL    HW111276   5.371   6.025   1.955
 3459SOL    HW211277   5.283   5.973   2.082
 3460SOL     OW11278   3.767   1.899   4.841
 3460SOL    HW111279   3.791   1.876   4.936
 3460SOL    HW211280   3.839   1.954   4.800
 3461SOL     OW11281   5.083   5.205   4.337
 3461SOL    HW111282   4.985   5.213   4.316
 3461SOL    HW211283   5.122   5.130   4.283
 3462SOL     OW11284   0.849   4.165   6.289
 3462SOL    HW111285   0.936   4.212   6.287
 3462SOL    HW211286   0.845   4.099   6.214
 3463SOL     OW11287   5.760   3.776   0.277
 3463SOL    HW111288   5.675   3.789   0.226
 3463SOL    HW211289   5.747   3.808   0.371
 3464SOL     OW11290   0.013   4.464   4.209
 3464SOL    HW111291   0.106   4.493   4.233
 3464SOL    HW211292   0.018   4.380   4.155
 3465SOL     OW11293   0.869   2.170   2.433
 3465SOL    HW111294   0.909   2.120   2.510
 3465SOL    HW211295   0.814   2.108   2.378
 3466SOL     OW11296   0.017   3.395   4.638
 3466SOL    HW111297   6.996   3.486   4.628
 3466SOL    HW211298   6.968   3.329   4.666
 3467SOL     OW11299   1.839   2.231   5.347
 3467SOL    HW111300   1.899   2.271   5.416
 3467SOL    HW211301   1.895   2.183   5.278
 3468SOL     OW11302   4.170   6.359   2.207
 3468SOL    HW111303   4.165   6.458   2.200
 3468SOL    HW211304   4.160   6.331   2.303
 3469SOL     OW11305   5.436   3.624   1.068
 3469SOL    HW111306   5.482   3.656   0.986
 3469SOL    HW211307   5.387   3.701   1.110
 3470SOL     OW11308   0.222   5.576   1.311
 3470SOL    HW111309   0.303   5.552   1.365
 3470SOL    HW211310   0.250   5.595   1.217
 3471SOL     OW11311   4.122   6.748   4.616
 3471SOL    HW111312   4.165   6.824   4.663
 3471SOL    HW211313   4.183   6.668   4.618
 3472SOL     OW11314   4.626   1.200   4.750
 3472SOL    HW111315   4.609   1.107   4.783
 3472SOL    HW211316   4.630   1.262   4.827
 3473SOL     OW11317   3.816   0.065   3.850
 3473SOL    HW111318   3.798   0.159   3.880
 3473SOL    HW211319   3.763   0.001   3.906
 3474SOL     OW11320   4.916   4.585   1.064
 3474SOL    HW111321   4.878   4.638   0.988
 3474SOL    HW211322   4.958   4.501   1.028
 3475SOL     OW11323   1.748   6.338   4.957
 3475SOL    HW111324   1.810   6.273   4.913
 3475SOL    HW211325   1.800   6.397   5.019
 3476SOL     OW11326   4.332   2.050   4.982
 3476SOL    HW111327   4.327   2.093   5.071
 3476SOL    HW211328   4.406   1.983   4.981
 3477SOL     OW11329   4.289   5.893   1.574
 3477SOL    HW111330   4.197   5.914   1.542
 3477SOL    HW211331   4.352   5.892   1.497
 3478SOL     OW11332   4.132   4.185   0.205
 3478SOL    HW111333   4.036   4.196   0.178
 3478SOL    HW211334   4.158   4.089   0.198
 3479SOL     OW11335   1.388   0.162   1.457
 3479SOL    HW111336   1.324   0.089   1.481
 3479SOL    HW211337   1.467   0.122   1.411
 3480SOL     OW11338   0.791   6.979   4.195
 3480SOL    HW111339   0.797   6.882   4.222
 3480SOL    HW211340   0.696   7.001   4.172
 3481SOL     OW11341   1.741   6.136   0.135
 3481SOL    HW111342   1.798   6.104   0.060
 3481SOL    HW211343   1.679   6.207   0.102
 3482SOL     OW11344   0.878   2.445   2.407
 3482SOL    HW111345   0.844   2.456   2.314
 3482SOL    HW211346   0.887   2.347   2.428
 3483SOL     OW11347   3.729   1.901   0.538
 3483SOL    HW111348   3.818   1.857   0.549
 3483SOL    HW211349   3.738   2.000   0.549
 3484SOL     OW11350   4.081   3.156   3.826
 3484SOL    HW111351   3.996   3.115   3.862
 3484SOL    HW211352   4.089   3.135   3.729
 3485SOL     OW11353   6.542   1.824   5.000
 3485SOL    HW111354   6.634   1.793   4.977
 3485SOL    HW211355   6.490   1.841   4.916
 3486SOL     OW11356   4.920   0.637   2.640
 3486SOL    HW111357   4.916   0.708   2.569
 3486SOL    HW211358   4.978   0.669   2.715
 3487SOL     OW11359   0.426   0.911   0.650
 3487SOL    HW111360   0.361   0.951   0.585
 3487SOL    HW211361   0.380   0.897   0.738
 3488SOL     OW11362   6.352   3.565   4.204
 3488SOL    HW111363   6.276   3.529   4.259
 3488SOL    HW211364   6.431   3.504   4.213
 3489SOL     OW11365   2.242   5.375   0.631
 3489SOL    HW111366   2.230   5.296   0.691
 3489SOL    HW211367   2.194   5.454   0.671
 3490SOL     OW11368   4.421   3.375   1.158
 3490SOL    HW111369   4.426   3.472   1.131
 3490SOL    HW211370   4.421   3.318   1.077
 3491SOL     OW11371   0.319   2.953   5.856
 3491SOL    HW111372   0.293   3.038   5.809
 3491SOL    HW211373   0.366   2.892   5.792
 3492SOL     OW11374   5.912   4.562   6.947
 3492SOL    HW111375   5.987   4.627   6.940
 3492SOL    HW211376   5.920   4.494   6.873
 3493SOL     OW11377   6.789   4.977   1.885
 3493SOL    HW111378   6.754   5.067   1.912
 3493SOL    HW211379   6.712   4.918   1.859
 3494SOL     OW11380   2.910   6.839   0.904
 3494SOL    HW111381   2.814   6.849   0.878
 3494SOL    HW211382   2.917   6.832   1.003
 3495SOL     OW11383   6.046   3.967   0.280
 3495SOL    HW111384   5.999   4.046   0.318
 3495SOL    HW211385   5.980   3.912   0.228
 3496SOL     OW11386   0.799   4.617   0.698
 3496SOL    HW111387   0.853   4.615   0.782
 3496SOL    HW211388   0.807   4.530   0.651
 3497SOL     OW11389   4.523   6.367   4.564
 3497SOL    HW111390   4.560   6.315   4.487
 3497SOL    HW211391   4.590   6.367   4.638
 3498SOL     OW11392   1.355   1.638   0.751
 3498SOL    HW111393   1.380   1.542   0.744
 3498SOL    HW211394   1.418   1.684   0.814
 3499SOL     OW11395   0.093   4.191   4.527
 3499SOL    HW111396   7.019   4.181   4.496
 3499SOL    HW211397   0.155   4.178   4.450
 3500SOL     OW11398   6.213   3.503   0.853
 3500SOL    HW111399   6.213   3.576   0.784
 3500SOL    HW211400   6.305   3.466   0.863
 3501SOL     OW11401   1.077   3.790   3.052
 3501SOL    HW111402   1.066   3.792   2.952
 3501SOL    HW211403   1.169   3.755   3.074
 3502SOL     OW11404   1.023   4.842   1.739
 3502SOL    HW111405   0.931   4.874   1.761
 3502SOL    HW211406   1.090   4.889   1.796
 3503SOL     OW11407   3.612   6.794   3.645
 3503SOL    HW111408   3.626   6.773   3.548
 3503SOL    HW211409   3.640   6.888   3.663
 3504SOL     OW11410   2.242   2.876   2.875
 3504SOL    HW111411   2.241   2.862   2.974
 3504SOL    HW211412   2.249   2.973   2.854
 3505SOL     OW11413   4.353   6.236   4.786
 3505SOL    HW111414   4.385   6.234   4.692
 3505SOL    HW211415   4.432   6.239   4.848
 3506SOL     OW11416   5.733   4.949   2.368
 3506SOL    HW111417   5.705   5.036   2.326
 3506SOL    HW211418   5.747   4.881   2.296
 3507SOL     OW11419   0.301   0.572   6.413
 3507SOL    HW111420   0.397   0.543   6.414
 3507SOL    HW211421   0.260   0.547   6.326
 3508SOL     OW11422   6.014   3.958   6.835
 3508SOL    HW111423   6.059   3.869   6.841
 3508SOL    HW211424   6.061   4.015   6.768
 3509SOL     OW11425   5.989   0.436   0.399
 3509SOL    HW111426   5.904   0.429   0.451
 3509SOL    HW211427   6.028   0.344   0.388
 3510SOL     OW11428   2.224   2.520   2.313
 3510SOL    HW111429   2.300   2.459   2.291
 3510SOL    HW211430   2.137   2.473   2.295
 3511SOL     OW11431   0.675   1.023   5.158
 3511SOL    HW111432   0.662   1.057   5.064
 3511SOL    HW211433   0.772   1.029   5.182
 3512SOL     OW11434   3.103   2.650   1.164
 3512SOL    HW111435   3.112   2.667   1.066
 3512SOL    HW211436   3.013   2.681   1.195
 3513SOL     OW11437   5.178   4.544   1.244
 3513SOL    HW111438   5.106   4.536   1.176
 3513SOL    HW211439   5.138   4.549   1.335
 3514SOL     OW11440   1.436   6.861   1.877
 3514SOL    HW111441   1.436   6.795   1.803
 3514SOL    HW211442   1.444   6.954   1.840
 3515SOL     OW11443   3.808   6.208   3.627
 3515SOL    HW111444   3.896   6.234   3.589
 3515SOL    HW211445   3.822   6.157   3.712
 3516SOL     OW11446   2.181   1.284   0.397
 3516SOL    HW111447   2.220   1.216   0.335
 3516SOL    HW211448   2.114   1.339   0.348
 3517SOL     OW11449   0.798   0.517   6.532
 3517SOL    HW111450   0.736   0.549   6.603
 3517SOL    HW211451   0.860   0.592   6.505
 3518SOL     OW11452   4.591   3.446   5.687
 3518SOL    HW111453   4.522   3.478   5.752
 3518SOL    HW211454   4.680   3.483   5.712
 3519SOL     OW11455   3.235   6.678   0.407
 3519SOL    HW111456   3.172   6.734   0.462
 3519SOL    HW211457   3.303   6.737   0.364
 3520SOL     OW11458   3.919   4.784   1.354
 3520SOL    HW111459   3.832   4.811   1.311
 3520SOL    HW211460   3.951   4.699   1.312
 3521SOL     OW11461   5.888   2.499   6.045
 3521SOL    HW111462   5.846   2.426   5.992
 3521SOL    HW211463   5.829   2.580   6.043
 3522SOL     OW11464   2.791   0.459   0.742
 3522SOL    HW111465   2.750   0.467   0.833
 3522SOL    HW211466   2.866   0.524   0.734
 3523SOL     OW11467   2.677   4.526   5.288
 3523SOL    HW111468   2.627   4.539   5.202
 3523SOL    HW211469   2.775   4.518   5.269
 3524SOL     OW11470   1.841   0.172   1.870
 3524SOL    HW111471   1.900   0.109   1.921
 3524SOL    HW211472   1.834   0.259   1.919
 3525SOL     OW11473   1.461   3.905   2.784
 3525SOL    HW111474   1.477   3.837   2.713
 3525SOL    HW211475   1.549   3.932   2.824
 3526SOL     OW11476   4.040   6.968   3.275
 3526SOL    HW111477   4.002   6.905   3.343
 3526SOL    HW211478   4.125   7.007   3.310
 3527SOL     OW11479   5.344   2.954   6.183
 3527SOL    HW111480   5.336   2.934   6.086
 3527SOL    HW211481   5.419   3.019   6.197
 3528SOL     OW11482   1.195   7.004   4.661
 3528SOL    HW111483   1.254   0.005   4.739
 3528SOL    HW211484   1.247   6.951   4.593
 3529SOL     OW11485   4.155   6.484   0.052
 3529SOL    HW111486   4.250   6.480   0.084
 3529SOL    HW211487   4.149   6.448   6.980
 3530SOL     OW11488   1.660   6.630   2.808
 3530SOL    HW111489   1.579   6.678   2.843
 3530SOL    HW211490   1.741   6.661   2.858
 3531SOL     OW11491   4.905   4.493   6.635
 3531SOL    HW111492   4.841   4.445   6.575
 3531SOL    HW211493   4.907   4.590   6.611
 3532SOL     OW11494   1.692   6.625   0.676
 3532SOL    HW111495   1.719   6.538   0.718
 3532SOL    HW211496   1.736   6.700   0.724
 3533SOL     OW11497   1.474   1.440   3.855
 3533SOL    HW111498   1.381   1.475   3.844
 3533SOL    HW211499   1.475   1.342   3.836
 3534SOL     OW11500   5.356   0.782   5.383
 3534SOL    HW111501   5.323   0.710   5.444
 3534SOL    HW211502   5.368   0.746   5.291
 3535SOL     OW11503   4.870   6.386   6.744
 3535SOL    HW111504   4.819   6.341   6.670
 3535SOL    HW211505   4.835   6.355   6.832
 3536SOL     OW11506   0.663   3.802   2.648
 3536SOL    HW111507   0.599   3.730   2.622
 3536SOL    HW211508   0.724   3.767   2.720
 3537SOL     OW11509   2.672   4.121   1.211
 3537SOL    HW111510   2.584   4.085   1.180
 3537SOL    HW211511   2.676   4.117   1.311
 3538SOL     OW11512   4.265   1.034   3.330
 3538SOL    HW111513   4.275   1.004   3.235
 3538SOL    HW211514   4.293   0.961   3.391
 3539SOL     OW11515   5.310   5.991   6.438
 3539SOL    HW111516   5.382   5.921   6.438
 3539SOL    HW211517   5.334   6.064   6.502
 3540SOL     OW11518   2.472   4.810   6.076
 3540SOL    HW111519   2.420   4.888   6.041
 3540SOL    HW211520   2.526   4.837   6.155
 3541SOL     OW11521   1.522   2.710   1.782
 3541SOL    HW111522   1.574   2.780   1.831
 3541SOL    HW211523   1.573   2.624   1.783
 3542SOL     OW11524   6.299   1.631   6.902
 3542SOL    HW111525   6.266   1.669   6.989
 3542SOL    HW211526   6.279   1.695   6.828
 3543SOL     OW11527   0.498   2.063   3.587
 3543SOL    HW111528   0.503   1.994   3.659
 3543SOL    HW211529   0.483   2.018   3.499
 3544SOL     OW11530   3.074   3.853   0.039
 3544SOL    HW111531   3.136   3.888   6.989
 3544SOL    HW211532   2.999   3.804   7.016
 3545SOL     OW11533   3.936   0.155   0.375
 3545SOL    HW111534   3.922   0.057   0.388
 3545SOL    HW211535   3.850   0.203   0.392
 3546SOL     OW11536   6.642   4.207   1.893
 3546SOL    HW111537   6.694   4.192   1.977
 3546SOL    HW211538   6.704   4.228   1.818
 3547SOL     OW11539   1.104   4.080   4.660
 3547SOL    HW111540   1.099   3.989   4.619
 3547SOL    HW211541   1.160   4.139   4.602
 3548SOL     OW11542   5.971   6.936   6.211
 3548SOL    HW111543   5.935   6.845   6.230
 3548SOL    HW211544   5.904   6.989   6.159
 3549SOL     OW11545   2.374   6.565   6.943
 3549SOL    HW111546   2.409   6.656   6.922
 3549SOL    HW211547   2.381   6.548   0.021
 3550SOL     OW11548   5.562   1.148   5.386
 3550SOL    HW111549   5.602   1.107   5.467
 3550SOL    HW211550   5.547   1.246   5.401
 3551SOL     OW11551   5.252   1.749   4.926
 3551SOL    HW111552   5.197   1.786   4.851
 3551SOL    HW211553   5.345   1.731   4.893
 3552SOL     OW11554   6.442   0.165   3.701
 3552SOL    HW111555   6.360   0.110   3.720
 3552SOL    HW211556   6.420   0.262   3.711
 3553SOL     OW11557   5.923   6.155   6.879
 3553SOL    HW111558   6.000   6.157   6.942
 3553SOL    HW211559   5.945   6.208   6.797
 3554SOL     OW11560   4.931   4.620   0.088
 3554SOL    HW111561   4.835   4.632   0.111
 3554SOL    HW211562   4.943   4.536   0.037
 3555SOL     OW11563   2.789   1.577   5.075
 3555SOL    HW111564   2.840   1.536   4.999
 3555SOL    HW211565   2.852   1.610   5.144
 3556SOL     OW11566   5.606   1.111   0.935
 3556SOL    HW111567   5.676   1.181   0.949
 3556SOL    HW211568   5.558   1.128   0.849
 3557SOL     OW11569   5.173   6.893   1.562
 3557SOL    HW111570   5.238   6.821   1.538
 3557SOL    HW211571   5.217   6.982   1.553
 3558SOL     OW11572   3.434   5.626   2.322
 3558SOL    HW111573   3.442   5.527   2.317
 3558SOL    HW211574   3.354   5.655   2.270
 3559SOL     OW11575   4.441   6.488   6.543
 3559SOL    HW111576   4.396   6.489   6.454
 3559SOL    HW211577   4.494   6.572   6.554
 3560SOL     OW11578   0.974   5.626   4.260
 3560SOL    HW111579   0.996   5.641   4.357
 3560SOL    HW211580   0.877   5.604   4.251
 3561SOL     OW11581   4.529   3.424   5.392
 3561SOL    HW111582   4.549   3.468   5.480
 3561SOL    HW211583   4.592   3.458   5.323
 3562SOL     OW11584   3.146   1.637   0.237
 3562SOL    HW111585   3.230   1.689   0.225
 3562SOL    HW211586   3.084   1.686   0.298
 3563SOL     OW11587   6.634   2.422   6.257
 3563SOL    HW111588   6.692   2.475   6.319
 3563SOL    HW211589   6.663   2.440   6.162
 3564SOL     OW11590   6.178   3.823   2.468
 3564SOL    HW111591   6.170   3.740   2.412
 3564SOL    HW211592   6.093   3.875   2.461
 3565SOL     OW11593   4.998   5.791   5.894
 3565SOL    HW111594   4.947   5.859   5.842
 3565SOL    HW211595   5.026   5.717   5.833
 3566SOL     OW11596   1.318   0.963   4.971
 3566SOL    HW111597   1.340   1.029   4.899
 3566SOL    HW211598   1.306   1.012   5.058
 3567SOL     OW11599   6.954   3.589   6.702
 3567SOL    HW111600   7.005   3.504   6.713
 3567SOL    HW211601   6.878   3.590   6.767
 3568SOL     OW11602   5.775   3.579   6.369
 3568SOL    HW111603   5.734   3.501   6.416
 3568SOL    HW211604   5.795   3.652   6.434
 3569SOL     OW11605   1.161   0.372   3.723
 3569SOL    HW111606   1.215   0.391   3.641
 3569SOL    HW211607   1.108   0.453   3.748
 3570SOL     OW11608   5.733   1.576   4.563
 3570SOL    HW111609   5.806   1.605   4.625
 3570SOL    HW211610   5.761   1.494   4.514
 3571SOL     OW11611   6.540   6.418   5.231
 3571SOL    HW111612   6.614   6.352   5.216
 3571SOL    HW211613   6.469   6.404   5.161
 3572SOL     OW11614   6.293   6.343   5.821
 3572SOL    HW111615   6.288   6.352   5.920
 3572SOL    HW211616   6.305   6.247   5.796
 3573SOL     OW11617   0.500   2.071   2.232
 3573SOL    HW111618   0.435   2.079   2.308
 3573SOL    HW211619   0.454   2.098   2.147
 3574SOL     OW11620   6.002   3.669   0.289
 3574SOL    HW111621   6.047   3.685   0.377
 3574SOL    HW211622   5.915   3.719   0.286
 3575SOL     OW11623   6.527   5.680   1.763
 3575SOL    HW111624   6.531   5.780   1.765
 3575SOL    HW211625   6.455   5.652   1.699
 3576SOL     OW11626   0.461   1.091   6.730
 3576SOL    HW111627   0.499   1.149   6.802
 3576SOL    HW211628   0.466   1.139   6.642
 3577SOL     OW11629   2.418   3.412   6.497
 3577SOL    HW111630   2.485   3.470   6.451
 3577SOL    HW211631   2.401   3.330   6.442
 3578SOL     OW11632   3.532   4.350   1.734
 3578SOL    HW111633   3.523   4.437   1.782
 3578SOL    HW211634   3.504   4.275   1.794
 3579SOL     OW11635   1.724   4.391   5.133
 3579SOL    HW111636   1.688   4.379   5.226
 3579SOL    HW211637   1.717   4.304   5.084
 3580SOL     OW11638   6.970   3.125   1.647
 3580SOL    HW111639   6.960   3.052   1.716
 3580SOL    HW211640   0.036   3.173   1.663
 3581SOL     OW11641   5.674   1.402   3.112
 3581SOL    HW111642   5.591   1.408   3.167
 3581SOL    HW211643   5.683   1.484   3.055
 3582SOL     OW11644   0.172   0.443   5.394
 3582SOL    HW111645   0.166   0.398   5.483
 3582SOL    HW211646   0.241   0.397   5.338
 3583SOL     OW11647   1.798   5.262   1.544
 3583SOL    HW111648   1.713   5.314   1.532
 3583SOL    HW211649   1.776   5.164   1.549
 3584SOL     OW11650   5.939   0.146   5.765
 3584SOL    HW111651   5.869   0.082   5.733
 3584SOL    HW211652   6.014   0.095   5.807
 3585SOL     OW11653   2.293   4.719   3.832
 3585SOL    HW111654   2.365   4.682   3.891
 3585SOL    HW211655   2.204   4.687   3.865
 3586SOL     OW11656   1.005   1.528   6.150
 3586SOL    HW111657   0.931   1.591   6.126
 3586SOL    HW211658   1.085   1.548   6.093
 3587SOL     OW11659   3.609   0.023   6.602
 3587SOL    HW111660   3.550   0.095   6.638
 3587SOL    HW211661   3.627   0.040   6.505
 3588SOL     OW11662   2.144   1.129   5.388
 3588SOL    HW111663   2.230   1.115   5.435
 3588SOL    HW211664   2.146   1.218   5.341
 3589SOL     OW11665   3.700   0.493   4.824
 3589SOL    HW111666   3.643   0.511   4.904
 3589SOL    HW211667   3.643   0.493   4.742
 3590SOL     OW11668   1.113   5.010   0.056
 3590SOL    HW111669   1.080   4.933   0.110
 3590SOL    HW211670   1.047   5.031   7.005
 3591SOL     OW11671   5.546   2.500   5.874
 3591SOL    HW111672   5.528   2.558   5.795
 3591SOL    HW211673   5.459   2.474   5.917
 3592SOL     OW11674   5.169   2.246   2.098
 3592SOL    HW111675   5.132   2.153   2.089
 3592SOL    HW211676   5.096   2.313   2.085
 3593SOL     OW11677   0.710   4.761   4.161
 3593SOL    HW111678   0.767   4.811   4.096
 3593SOL    HW211679   0.763   4.686   4.202
 3594SOL     OW11680   4.341   1.351   4.550
 3594SOL    HW111681   4.299   1.387   4.633
 3594SOL    HW211682   4.437   1.378   4.546
 3595SOL     OW11683   1.867   5.942   6.312
 3595SOL    HW111684   1.792   6.008   6.312
 3595SOL    HW211685   1.905   5.935   6.220
 3596SOL     OW11686   0.346   3.792   3.419
 3596SOL    HW111687   0.378   3.855   3.490
 3596SOL    HW211688   0.386   3.702   3.434
 3597SOL     OW11689   3.730   6.452   3.539
 3597SOL    HW111690   3.763   6.535   3.583
 3597SOL    HW211691   3.744   6.374   3.601
 3598SOL     OW11692   1.356   0.133   0.534
 3598SOL    HW111693   1.382   0.086   0.619
 3598SOL    HW211694   1.292   0.206   0.555
 3599SOL     OW11695   6.616   1.486   4.085
 3599SOL    HW111696   6.618   1.471   4.184
 3599SOL    HW211697   6.709   1.504   4.052
 3600SOL     OW11698   6.551   0.811   1.445
 3600SOL    HW111699   6.566   0.820   1.346
 3600SOL    HW211700   6.545   0.714   1.468
 3601SOL     OW11701   6.194   3.376   5.347
 3601SOL    HW111702   6.278   3.322   5.343
 3601SOL    HW211703   6.146   3.369   5.260
 3602SOL     OW11704   2.614   1.964   0.557
 3602SOL    HW111705   2.589   2.019   0.477
 3602SOL    HW211706   2.609   1.867   0.534
 3603SOL     OW11707   4.412   5.130   4.582
 3603SOL    HW111708   4.506   5.138   4.550
 3603SOL    HW211709   4.390   5.034   4.600
 3604SOL     OW11710   0.011   3.750   3.621
 3604SOL    HW111711   6.938   3.785   3.627
 3604SOL    HW211712   0.022   3.701   3.534
 3605SOL     OW11713   6.491   2.970   6.589
 3605SOL    HW111714   6.527   2.987   6.681
 3605SOL    HW211715   6.425   2.895   6.592
 3606SOL     OW11716   1.971   4.128   3.969
 3606SOL    HW111717   2.029   4.206   3.990
 3606SOL    HW211718   1.971   4.064   4.047
 3607SOL     OW11719   4.338   0.046   0.121
 3607SOL    HW111720   4.245   0.083   0.127
 3607SOL    HW211721   4.379   0.043   0.212
 3608SOL     OW11722   0.401   2.879   2.640
 3608SOL    HW111723   0.323   2.938   2.621
 3608SOL    HW211724   0.442   2.848   2.555
 3609SOL     OW11725   6.691   6.800   5.390
 3609SOL    HW111726   6.621   6.791   5.319
 3609SOL    HW211727   6.705   6.712   5.435
 3610SOL     OW11728   1.615   5.743   5.102
 3610SOL    HW111729   1.578   5.702   5.186
 3610SOL    HW211730   1.540   5.766   5.040
 3611SOL     OW11731   4.044   5.212   5.256
 3611SOL    HW111732   4.069   5.242   5.164
 3611SOL    HW211733   3.976   5.275   5.295
 3612SOL     OW11734   1.632   6.681   1.078
 3612SOL    HW111735   1.684   6.610   1.030
 3612SOL    HW211736   1.667   6.771   1.051
 3613SOL     OW11737   5.285   4.921   6.293
 3613SOL    HW111738   5.249   4.831   6.268
 3613SOL    HW211739   5.324   4.916   6.385
 3614SOL     OW11740   4.111   3.643   4.028
 3614SOL    HW111741   4.089   3.723   3.972
 3614SOL    HW211742   4.131   3.565   3.968
 3615SOL     OW11743   6.445   6.040   6.344
 3615SOL    HW111744   6.527   6.021   6.399
 3615SOL    HW211745   6.376   5.970   6.362
 3616SOL     OW11746   6.318   0.705   5.290
 3616SOL    HW111747   6.325   0.784   5.230
 3616SOL    HW211748   6.279   0.628   5.239
 3617SOL     OW11749   6.883   0.777   7.002
 3617SOL    HW111750   6.962   0.783   6.941
 3617SOL    HW211751   6.799   0.783   6.948
 3618SOL     OW11752   2.905   0.351   5.935
 3618SOL    HW111753   2.941   0.274   5.882
 3618SOL    HW211754   2.940   0.347   6.028
 3619SOL     OW11755   5.137   3.658   4.125
 3619SOL    HW111756   5.160   3.664   4.028
 3619SOL    HW211757   5.048   3.702   4.141
 3620SOL     OW11758   6.407   1.062   5.279
 3620SOL    HW111759   6.421   0.999   5.202
 3620SOL    HW211760   6.467   1.141   5.268
 3621SOL     OW11761   1.232   3.050   5.863
 3621SOL    HW111762   1.272   2.984   5.799
 3621SOL    HW211763   1.278   3.138   5.854
 3622SOL     OW11764   0.632   3.251   0.570
 3622SOL    HW111765   0.535   3.244   0.548
 3622SOL    HW211766   0.644   3.249   0.670
 3623SOL     OW11767   0.066   5.597   4.057
 3623SOL    HW111768   0.052   5.614   4.155
 3623SOL    HW211769   0.050   5.682   4.006
 3624SOL     OW11770   2.007   1.223   1.684
 3624SOL    HW111771   1.940   1.279   1.734
 3624SOL    HW211772   1.960   1.164   1.619
 3625SOL     OW11773   0.557   3.233   4.695
 3625SOL    HW111774   0.476   3.286   4.719
 3625SOL    HW211775   0.581   3.251   4.599
 3626SOL     OW11776   2.586   3.787   5.308
 3626SOL    HW111777   2.538   3.848   5.245
 3626SOL    HW211778   2.519   3.743   5.368
 3627SOL     OW11779   3.022   3.278   3.499
 3627SOL    HW111780   2.981   3.187   3.493
 3627SOL    HW211781   2.988   3.335   3.424
 3628SOL     OW11782   3.145   5.318   2.961
 3628SOL    HW111783   3.058   5.359   2.987
 3628SOL    HW211784   3.169   5.247   3.027
 3629SOL     OW11785   5.916   2.265   5.260
 3629SOL    HW111786   5.921   2.166   5.271
 3629SOL    HW211787   5.852   2.287   5.187
 3630SOL     OW11788   5.649   1.955   4.905
 3630SOL    HW111789   5.654   1.861   4.870
 3630SOL    HW211790   5.571   2.002   4.863
 3631SOL     OW11791   1.650   0.577   4.187
 3631SOL    HW111792   1.724   0.562   4.253
 3631SOL    HW211793   1.688   0.580   4.095
 3632SOL     OW11794   4.067   7.011   6.523
 3632SOL    HW111795   4.039   0.079   6.560
 3632SOL    HW211796   4.166   7.009   6.512
 3633SOL     OW11797   2.235   3.105   5.802
 3633SOL    HW111798   2.214   3.170   5.876
 3633SOL    HW211799   2.210   3.146   5.714
 3634SOL     OW11800   2.719   5.771   5.275
 3634SOL    HW111801   2.637   5.747   5.328
 3634SOL    HW211802   2.800   5.763   5.333
 3635SOL     OW11803   2.099   0.886   4.910
 3635SOL    HW111804   2.159   0.819   4.868
 3635SOL    HW211805   2.013   0.842   4.936
 3636SOL     OW11806   1.234   5.641   6.286
 3636SOL    HW111807   1.302   5.568   6.281
 3636SOL    HW211808   1.184   5.635   6.372
 3637SOL     OW11809   5.080   1.505   2.127
 3637SOL    HW111810   5.160   1.535   2.178
 3637SOL    HW211811   5.063   1.408   2.146
 3638SOL     OW11812   6.240   4.321   3.831
 3638SOL    HW111813   6.256   4.411   3.871
 3638SOL    HW211814   6.294   4.312   3.747
 3639SOL     OW11815   2.442   5.089   0.024
 3639SOL    HW111816   2.356   5.133   7.019
 3639SOL    HW211817   2.447   5.081   0.124
 3640SOL     OW11818   3.216   5.914   1.124
 3640SOL    HW111819   3.129   5.867   1.114
 3640SOL    HW211820   3.285   5.870   1.067
 3641SOL     OW11821   2.231   0.194   4.612
 3641SOL    HW111822   2.193   0.104   4.632
 3641SOL    HW211823   2.324   0.184   4.577
 3642SOL     OW11824   6.150   6.973   3.410
 3642SOL    HW111825   6.062   7.003   3.375
 3642SOL    HW211826   6.218   0.025   3.397
 3643SOL     OW11827   2.865   4.263   5.963
 3643SOL    HW111828   2.948   4.241   5.912
 3643SOL    HW211829   2.802   4.314   5.904
 3644SOL     OW11830   0.163   0.812   0.315
 3644SOL    HW111831   0.083   0.763   0.279
 3644SOL    HW211832   0.138   0.859   0.399
 3645SOL     OW11833   3.258   6.891   3.013
 3645SOL    HW111834   3.289   6.929   2.926
 3645SOL    HW211835   3.283   6.794   3.017
 3646SOL     OW11836   6.507   5.410   4.492
 3646SOL    HW111837   6.500   5.503   4.529
 3646SOL    HW211838   6.544   5.349   4.561
 3647SOL     OW11839   2.466   2.647   1.604
 3647SOL    HW111840   2.410   2.567   1.622
 3647SOL    HW211841   2.442   2.719   1.670
 3648SOL     OW11842   2.810   5.656   3.250
 3648SOL    HW111843   2.816   5.752   3.278
 3648SOL    HW211844   2.728   5.643   3.194
 3649SOL     OW11845   3.145   3.480   2.251
 3649SOL    HW111846   3.091   3.425   2.314
 3649SOL    HW211847   3.228   3.511   2.297
 3650SOL     OW11848   6.649   6.760   1.456
 3650SOL    HW111849   6.567   6.778   1.510
 3650SOL    HW211850   6.664   6.662   1.450
 3651SOL     OW11851   1.627   6.066   2.474
 3651SOL    HW111852   1.724   6.056   2.455
 3651SOL    HW211853   1.601   6.007   2.551
 3652SOL     OW11854   4.173   5.304   3.050
 3652SOL    HW111855   4.173   5.219   3.103
 3652SOL    HW211856   4.259   5.353   3.064
 3653SOL     OW11857   0.375   2.749   4.339
 3653SOL    HW111858   0.391   2.711   4.430
 3653SOL    HW211859   0.343   2.677   4.278
 3654SOL     OW11860   1.522   6.541   1.279
 3654SOL    HW111861   1.575   6.456   1.283
 3654SOL    HW211862   1.550   6.593   1.198
 3655SOL     OW11863   1.214   0.740   4.109
 3655SOL    HW111864   1.272   0.819   4.094
 3655SOL    HW211865   1.163   0.719   4.026
 3656SOL     OW11866   2.329   2.136   2.264
 3656SOL    HW111867   2.371   2.227   2.266
 3656SOL    HW211868   2.384   2.073   2.318
 3657SOL     OW11869   4.004   5.440   1.139
 3657SOL    HW111870   3.941   5.379   1.187
 3657SOL    HW211871   4.086   5.452   1.194
 3658SOL     OW11872   1.400   5.460   6.014
 3658SOL    HW111873   1.406   5.366   6.047
 3658SOL    HW211874   1.400   5.523   6.092
 3659SOL     OW11875   1.465   4.539   0.156
 3659SOL    HW111876   1.424   4.450   0.176
 3659SOL    HW211877   1.467   4.594   0.239
 3660SOL     OW11878   4.703   5.727   0.780
 3660SOL    HW111879   4.694   5.825   0.800
 3660SOL    HW211880   4.650   5.674   0.847
 3661SOL     OW11881   5.174   1.368   0.922
 3661SOL    HW111882   5.209   1.334   1.009
 3661SOL    HW211883   5.108   1.303   0.885
 3662SOL     OW11884   3.355   6.748   5.487
 3662SOL    HW111885   3.266   6.701   5.486
 3662SOL    HW211886   3.354   6.821   5.555
 3663SOL     OW11887   0.891   3.483   6.207
 3663SOL    HW111888   0.903   3.550   6.280
 3663SOL    HW211889   0.849   3.528   6.128
 3664SOL     OW11890   3.920   1.222   0.978
 3664SOL    HW111891   3.972   1.143   1.010
 3664SOL    HW211892   3.933   1.299   1.040
 3665SOL     OW11893   1.094   6.756   5.805
 3665SOL    HW111894   1.027   6.784   5.874
 3665SOL    HW211895   1.186   6.784   5.834
 3666SOL     OW11896   0.807   5.598   3.820
 3666SOL    HW111897   0.847   5.689   3.828
 3666SOL    HW211898   0.844   5.553   3.738
 3667SOL     OW11899   6.476   1.896   6.425
 3667SOL    HW111900   6.527   1.962   6.479
 3667SOL    HW211901   6.401   1.942   6.378
 3668SOL     OW11902   1.048   6.178   1.913
 3668SOL    HW111903   1.109   6.256   1.915
 3668SOL    HW211904   1.037   6.141   2.005
 3669SOL     OW11905   6.593   2.339   3.098
 3669SOL    HW111906   6.563   2.305   3.187
 3669SOL    HW211907   6.568   2.436   3.089
 3670SOL     OW11908   1.791   5.286   5.775
 3670SOL    HW111909   1.745   5.365   5.734
 3670SOL    HW211910   1.843   5.315   5.855
 3671SOL     OW11911   0.919   0.861   3.465
 3671SOL    HW111912   0.835   0.883   3.416
 3671SOL    HW211913   0.998   0.873   3.404
 3672SOL     OW11914   0.134   0.005   0.915
 3672SOL    HW111915   0.042   0.035   0.939
 3672SOL    HW211916   0.152   0.024   0.819
 3673SOL     OW11917   4.897   0.490   0.031
 3673SOL    HW111918   4.893   0.521   0.127
 3673SOL    HW211919   4.893   0.570   6.992
 3674SOL     OW11920   0.860   6.797   1.199
 3674SOL    HW111921   0.876   6.867   1.268
 3674SOL    HW211922   0.805   6.835   1.125
 3675SOL     OW11923   1.767   1.769   4.900
 3675SOL    HW111924   1.676   1.792   4.865
 3675SOL    HW211925   1.808   1.850   4.941
 3676SOL     OW11926   2.235   5.398   2.612
 3676SOL    HW111927   2.233   5.303   2.643
 3676SOL    HW211928   2.203   5.458   2.685
 3677SOL     OW11929   6.382   6.778   4.347
 3677SOL    HW111930   6.412   6.848   4.283
 3677SOL    HW211931   6.371   6.691   4.298
 3678SOL     OW11932   0.984   1.753   3.785
 3678SOL    HW111933   1.045   1.811   3.731
 3678SOL    HW211934   0.969   1.795   3.875
 3679SOL     OW11935   0.411   1.325   1.727
 3679SOL    HW111936   0.503   1.295   1.703
 3679SOL    HW211937   0.377   1.390   1.658
 3680SOL     OW11938   6.715   3.472   4.842
 3680SOL    HW111939   6.787   3.404   4.827
 3680SOL    HW211940   6.637   3.451   4.782
 3681SOL     OW11941   5.981   6.068   5.078
 3681SOL    HW111942   6.004   6.157   5.115
 3681SOL    HW211943   5.919   6.079   5.000
 3682SOL     OW11944   0.802   1.956   6.475
 3682SOL    HW111945   0.842   1.865   6.471
 3682SOL    HW211946   0.789   1.991   6.382
 3683SOL     OW11947   5.486   6.534   3.983
 3683SOL    HW111948   5.531   6.499   3.901
 3683SOL    HW211949   5.392   6.559   3.962
 3684SOL     OW11950   1.436   3.060   0.587
 3684SOL    HW111951   1.491   3.070   0.505
 3684SOL    HW211952   1.481   2.998   0.650
 3685SOL     OW11953   6.551   6.648   6.884
 3685SOL    HW111954   6.461   6.687   6.867
 3685SOL    HW211955   6.599   6.636   6.798
 3686SOL     OW11956   6.189   4.351   1.234
 3686SOL    HW111957   6.273   4.330   1.185
 3686SOL    HW211958   6.201   4.331   1.331
 3687SOL     OW11959   3.447   1.286   0.037
 3687SOL    HW111960   3.362   1.308   0.085
 3687SOL    HW211961   3.523   1.290   0.102
 3688SOL     OW11962   0.639   3.308   0.248
 3688SOL    HW111963   0.727   3.264   0.231
 3688SOL    HW211964   0.622   3.312   0.347
 3689SOL     OW11965   2.595   0.912   3.841
 3689SOL    HW111966   2.510   0.965   3.844
 3689SOL    HW211967   2.648   0.929   3.924
 3690SOL     OW11968   5.773   5.965   5.294
 3690SOL    HW111969   5.820   5.962   5.382
 3690SOL    HW211970   5.797   6.049   5.246
 3691SOL     OW11971   3.460   2.543   6.918
 3691SOL    HW111972   3.485   2.640   6.928
 3691SOL    HW211973   3.530   2.487   6.963
 3692SOL     OW11974   2.051   0.368   5.981
 3692SOL    HW111975   2.114   0.445   5.968
 3692SOL    HW211976   2.070   0.298   5.912
 3693SOL     OW11977   2.804   2.253   3.105
 3693SOL    HW111978   2.897   2.276   3.132
 3693SOL    HW211979   2.795   2.154   3.096
 3694SOL     OW11980   2.154   6.116   2.754
 3694SOL    HW111981   2.223   6.094   2.684
 3694SOL    HW211982   2.111   6.204   2.732
 3695SOL     OW11983   1.587   1.971   2.161
 3695SOL    HW111984   1.686   1.984   2.171
 3695SOL    HW211985   1.555   1.904   2.227
 3696SOL     OW11986   3.105   6.612   5.898
 3696SOL    HW111987   3.126   6.709   5.888
 3696SOL    HW211988   3.155   6.576   5.977
 3697SOL     OW11989   5.931   0.073   4.382
 3697SOL    HW111990   5.942   0.154   4.439
 3697SOL    HW211991   6.000   0.073   4.310
 3698SOL     OW11992   2.974   6.811   5.681
 3698SOL    HW111993   2.990   6.716   5.657
 3698SOL    HW211994   2.935   6.860   5.603
 3699SOL     OW11995   0.898   3.775   2.284
 3699SOL    HW111996   0.998   3.784   2.288
 3699SOL    HW211997   0.857   3.862   2.257
 3700SOL     OW11998   0.226   6.814   4.165
 3700SOL    HW111999   0.277   6.855   4.241
 3700SOL    HW212000   0.278   6.736   4.129
 3701SOL     OW12001   5.983   0.605   3.687
 3701SOL    HW112002   5.914   0.677   3.675
 3701SOL    HW212003   5.962   0.552   3.769
 3702SOL     OW12004   3.679   0.897   6.913
 3702SOL    HW112005   3.660   0.799   6.906
 3702SOL    HW212006   3.738   0.915   6.992
 3703SOL     OW12007   4.187   4.659   6.504
 3703SOL    HW112008   4.179   4.729   6.575
 3703SOL    HW212009   4.104   4.659   6.448
 3704SOL     OW12010   2.323   0.961   2.270
 3704SOL    HW112011   2.347   0.996   2.361
 3704SOL    HW212012   2.394   0.988   2.205
 3705SOL     OW12013   5.553   0.886   4.079
 3705SOL    HW112014   5.512   0.846   4.161
 3705SOL    HW212015   5.624   0.951   4.106
 3706SOL     OW12016   1.825   2.032   3.942
 3706SOL    HW112017   1.860   2.097   3.875
 3706SOL    HW212018   1.766   2.079   4.007
 3707SOL     OW12019   4.267   2.702   5.354
 3707SOL    HW112020   4.217   2.644   5.290
 3707SOL    HW212021   4.204   2.738   5.423
 3708SOL     OW12022   6.195   6.794   6.059
 3708SOL    HW112023   6.181   6.754   5.968
 3708SOL    HW212024   6.135   6.873   6.070
 3709SOL     OW12025   4.456   0.626   0.529
 3709SOL    HW112026   4.438   0.720   0.499
 3709SOL    HW212027   4.552   0.617   0.554
 3710SOL     OW12028   0.285   5.186   1.075
 3710SOL    HW112029   0.243   5.153   1.159
 3710SOL    HW212030   0.271   5.120   1.001
 3711SOL     OW12031   6.405   4.911   3.088
 3711SOL    HW112032   6.444   4.965   3.014
 3711SOL    HW212033   6.418   4.959   3.175
 3712SOL     OW12034   2.202   6.926   0.762
 3712SOL    HW112035   2.252   6.905   0.678
 3712SOL    HW212036   2.153   7.012   0.750
 3713SOL     OW12037   3.761   5.876   6.006
 3713SOL    HW112038   3.748   5.920   5.917
 3713SOL    HW212039   3.779   5.945   6.076
 3714SOL     OW12040   3.800   0.884   4.704
 3714SOL    HW112041   3.738   0.863   4.779
 3714SOL    HW212042   3.878   0.822   4.707
 3715SOL     OW12043   5.404   3.654   4.517
 3715SOL    HW112044   5.388   3.634   4.420
 3715SOL    HW212045   5.317   3.647   4.567
 3716SOL     OW12046   0.524   1.504   4.342
 3716SOL    HW112047   0.536   1.454   4.428
 3716SOL    HW212048   0.437   1.554   4.345
 3717SOL     OW12049   5.409   6.884   0.135
 3717SOL    HW112050   5.314   6.854   0.142
 3717SOL    HW212051   5.413   6.983   0.140
 3718SOL     OW12052   0.483   5.578   0.463
 3718SOL    HW112053   0.448   5.657   0.514
 3718SOL    HW212054   0.407   5.529   0.420
 3719SOL     OW12055   3.796   4.989   5.417
 3719SOL    HW112056   3.743   4.908   5.441
 3719SOL    HW212057   3.809   4.993   5.318
 3720SOL     OW12058   0.387   1.991   5.505
 3720SOL    HW112059   0.398   2.090   5.518
 3720SOL    HW212060   0.392   1.970   5.407
 3721SOL     OW12061   4.944   3.580   0.929
 3721SOL    HW112062   4.913   3.485   0.921
 3721SOL    HW212063   4.875   3.634   0.977
 3722SOL     OW12064   6.223   5.665   2.069
 3722SOL    HW112065   6.186   5.641   2.159
 3722SOL    HW212066   6.174   5.615   1.998
 3723SOL     OW12067   4.516   1.339   0.703
 3723SOL    HW112068   4.514   1.415   0.767
 3723SOL    HW212069   4.609   1.324   0.671
 3724SOL     OW12070   0.282   5.879   5.414
 3724SOL    HW112071   0.338   5.800   5.440
 3724SOL    HW212072   0.341   5.954   5.385
 3725SOL     OW12073   6.667   0.035   0.988
 3725SOL    HW112074   6.678   6.992   1.063
 3725SOL    HW212075   6.672   7.007   0.901
 3726SOL     OW12076   5.516   3.097   1.596
 3726SOL    HW112077   5.596   3.150   1.624
 3726SOL    HW212078   5.546   3.018   1.543
 3727SOL     OW12079   2.214   3.248   5.252
 3727SOL    HW112080   2.302   3.267   5.296
 3727SOL    HW212081   2.209   3.152   5.227
 3728SOL     OW12082   0.883   3.291   6.779
 3728SOL    HW112083   0.915   3.307   6.873
 3728SOL    HW212084   0.958   3.257   6.723
 3729SOL     OW12085   0.324   2.778   3.341
 3729SOL    HW112086   0.240   2.747   3.295
 3729SOL    HW212087   0.317   2.756   3.438
 3730SOL     OW12088   2.746   0.798   0.045
 3730SOL    HW112089   2.703   0.711   0.020
 3730SOL    HW212090   2.838   0.782   0.080
 3731SOL     OW12091   4.059   6.430   6.597
 3731SOL    HW112092   3.992   6.492   6.639
 3731SOL    HW212093   4.115   6.388   6.669
 3732SOL     OW12094   2.110   3.873   5.076
 3732SOL    HW112095   2.133   3.786   5.119
 3732SOL    HW212096   2.193   3.928   5.065
 3733SOL     OW12097   2.265   3.501   1.186
 3733SOL    HW112098   2.330   3.425   1.197
 3733SOL    HW212099   2.231   3.502   1.092
 3734SOL     OW12100   5.101   6.934   2.624
 3734SOL    HW112101   5.057   7.010   2.576
 3734SOL    HW212102   5.181   6.904   2.573
 3735SOL     OW12103   3.413   1.527   1.794
 3735SOL    HW112104   3.377   1.511   1.702
 3735SOL    HW212105   3.490   1.590   1.790
 3736SOL     OW12106   5.484   1.088   6.941
 3736SOL    HW112107   5.530   1.170   6.906
 3736SOL    HW212108   5.385   1.100   6.934
 3737SOL     OW12109   4.489   6.995   3.286
 3737SOL    HW112110   4.520   6.922   3.225
 3737SOL    HW212111   4.500   6.966   3.381
 3738SOL     OW12112   0.134   0.158   3.935
 3738SOL    HW112113   0.180   0.069   3.930
 3738SOL    HW212114   0.201   0.231   3.921
 3739SOL     OW12115   0.474   4.095   2.232
 3739SOL    HW112116   0.526   4.037   2.169
 3739SOL    HW212117   0.481   4.058   2.325
 3740SOL     OW12118   5.465   1.149   0.198
 3740SOL    HW112119   5.371   1.182   0.202
 3740SOL    HW212120   5.482   1.106   0.110
 3741SOL     OW12121   3.667   2.373   6.238
 3741SOL    HW112122   3.723   2.296   6.266
 3741SOL    HW212123   3.619   2.410   6.318
 3742SOL     OW12124   3.071   3.365   5.361
 3742SOL    HW112125   3.078   3.434   5.433
 3742SOL    HW212126   3.009   3.397   5.290
 3743SOL     OW12127   0.523   5.484   6.353
 3743SOL    HW112128   0.452   5.452   6.290
 3743SOL    HW212129   0.575   5.405   6.386
 3744SOL     OW12130   6.903   5.958   3.017
 3744SOL    HW112131   6.814   5.923   3.046
 3744SOL    HW212132   6.891   6.021   2.940
 3745SOL     OW12133   4.813   6.160   1.925
 3745SOL    HW112134   4.720   6.181   1.893
 3745SOL    HW212135   4.819   6.064   1.949
 3746SOL     OW12136   3.871   1.933   2.479
 3746SOL    HW112137   3.804   1.967   2.414
 3746SOL    HW212138   3.824   1.882   2.551
 3747SOL     OW12139   2.906   0.049   0.447
 3747SOL    HW112140   2.921   0.095   0.360
 3747SOL    HW212141   2.879   6.975   0.431
 3748SOL     OW12142   5.812   1.132   2.364
 3748SOL    HW112143   5.749   1.142   2.287
 3748SOL    HW212144   5.896   1.184   2.345
 3749SOL     OW12145   1.593   0.147   5.143
 3749SOL    HW112146   1.611   0.244   5.162
 3749SOL    HW212147   1.518   0.115   5.201
 3750SOL     OW12148   0.636   4.291   6.466
 3750SOL    HW112149   0.544   4.252   6.457
 3750SOL    HW212150   0.704   4.220   6.444
 3751SOL     OW12151   1.370   3.820   2.099
 3751SOL    HW112152   1.425   3.743   2.068
 3751SOL    HW212153   1.430   3.896   2.124
 3752SOL     OW12154   5.644   6.997   6.503
 3752SOL    HW112155   5.554   0.000   6.467
 3752SOL    HW212156   5.633   6.936   6.581
 3753SOL     OW12157   6.850   0.434   4.213
 3753SOL    HW112158   6.809   0.418   4.124
 3753SOL    HW212159   6.896   0.523   4.214
 3754SOL     OW12160   2.605   1.895   0.939
 3754SOL    HW112161   2.553   1.817   0.904
 3754SOL    HW212162   2.657   1.867   1.020
 3755SOL     OW12163   3.192   5.052   3.755
 3755SOL    HW112164   3.289   5.034   3.739
 3755SOL    HW212165   3.151   5.087   3.671
 3756SOL     OW12166   1.951   6.214   0.340
 3756SOL    HW112167   1.873   6.190   0.282
 3756SOL    HW212168   1.973   6.311   0.328
 3757SOL     OW12169   6.616   4.554   1.799
 3757SOL    HW112170   6.677   4.519   1.869
 3757SOL    HW212171   6.539   4.492   1.786
 3758SOL     OW12172   2.065   7.010   3.945
 3758SOL    HW112173   1.993   7.002   3.876
 3758SOL    HW212174   2.049   0.072   4.000
 3759SOL     OW12175   5.306   0.386   4.060
 3759SOL    HW112176   5.379   0.406   4.125
 3759SOL    HW212177   5.217   0.403   4.104
 3760SOL     OW12178   0.916   1.211   3.464
 3760SOL    HW112179   1.000   1.173   3.426
 3760SOL    HW212180   0.924   1.217   3.563
 3761SOL     OW12181   5.375   0.821   4.729
 3761SOL    HW112182   5.450   0.823   4.794
 3761SOL    HW212183   5.371   0.908   4.679
 3762SOL     OW12184   6.964   2.656   3.663
 3762SOL    HW112185   0.032   2.698   3.679
 3762SOL    HW212186   6.904   2.721   3.617
 3763SOL     OW12187   0.668   4.350   6.950
 3763SOL    HW112188   0.608   4.355   0.009
 3763SOL    HW212189   0.751   4.299   6.974
 3764SOL     OW12190   2.670   0.750   3.192
 3764SOL    HW112191   2.727   0.794   3.123
 3764SOL    HW212192   2.707   0.769   3.283
 3765SOL     OW12193   5.524   3.038   3.027
 3765SOL    HW112194   5.608   3.001   2.988
 3765SOL    HW212195   5.457   3.053   2.954
 3766SOL     OW12196   1.174   3.793   2.315
 3766SOL    HW112197   1.211   3.862   2.378
 3766SOL    HW212198   1.236   3.781   2.238
 3767SOL     OW12199   1.114   5.309   6.170
 3767SOL    HW112200   1.059   5.299   6.087
 3767SOL    HW212201   1.136   5.218   6.206
 3768SOL     OW12202   0.969   6.709   3.028
 3768SOL    HW112203   0.919   6.662   3.101
 3768SOL    HW212204   1.055   6.745   3.064
 3769SOL     OW12205   5.530   5.463   4.264
 3769SOL    HW112206   5.519   5.550   4.216
 3769SOL    HW212207   5.557   5.481   4.359
 3770SOL     OW12208   1.873   1.020   1.455
 3770SOL    HW112209   1.893   1.090   1.385
 3770SOL    HW212210   1.789   0.972   1.432
 3771SOL     OW12211   6.586   5.433   5.405
 3771SOL    HW112212   6.530   5.493   5.349
 3771SOL    HW212213   6.527   5.379   5.465
 3772SOL     OW12214   1.511   6.181   1.071
 3772SOL    HW112215   1.473   6.173   0.978
 3772SOL    HW212216   1.611   6.184   1.066
 3773SOL     OW12217   5.370   4.958   6.567
 3773SOL    HW112218   5.461   4.916   6.554
 3773SOL    HW212219   5.381   5.056   6.580
 3774SOL     OW12220   6.634   5.253   1.706
 3774SOL    HW112221   6.660   5.342   1.670
 3774SOL    HW212222   6.645   5.252   1.805
 3775SOL     OW12223   4.652   5.036   5.154
 3775SOL    HW112224   4.670   4.943   5.183
 3775SOL    HW212225   4.692   5.100   5.219
 3776SOL     OW12226   3.617   2.759   5.708
 3776SOL    HW112227   3.675   2.764   5.789
 3776SOL    HW212228   3.547   2.689   5.721
 3777SOL     OW12229   2.765   5.055   4.522
 3777SOL    HW112230   2.823   5.092   4.449
 3777SOL    HW212231   2.808   4.973   4.561
 3778SOL     OW12232   3.240   5.734   6.842
 3778SOL    HW112233   3.140   5.736   6.839
 3778SOL    HW212234   3.276   5.738   6.748
 3779SOL     OW12235   0.044   4.687   0.245
 3779SOL    HW112236   6.999   4.614   0.263
 3779SOL    HW212237   0.137   4.651   0.250
 3780SOL     OW12238   5.168   4.526   1.568
 3780SOL    HW112239   5.080   4.500   1.609
 3780SOL    HW212240   5.188   4.621   1.588
 3781SOL     OW12241   2.518   6.030   4.647
 3781SOL    HW112242   2.485   6.113   4.602
 3781SOL    HW212243   2.617   6.025   4.638
 3782SOL     OW12244   4.572   4.610   0.939
 3782SOL    HW112245   4.497   4.642   0.881
 3782SOL    HW212246   4.653   4.667   0.923
 3783SOL     OW12247   4.890   5.563   4.439
 3783SOL    HW112248   4.802   5.516   4.445
 3783SOL    HW212249   4.955   5.522   4.503
 3784SOL     OW12250   5.737   2.540   4.489
 3784SOL    HW112251   5.690   2.518   4.574
 3784SOL    HW212252   5.698   2.623   4.449
 3785SOL     OW12253   1.747   2.920   3.536
 3785SOL    HW112254   1.690   3.002   3.538
 3785SOL    HW212255   1.691   2.841   3.509
 3786SOL     OW12256   2.160   3.056   4.650
 3786SOL    HW112257   2.222   2.979   4.637
 3786SOL    HW212258   2.168   3.090   4.744
 3787SOL     OW12259   4.858   0.098   4.286
 3787SOL    HW112260   4.907   0.051   4.213
 3787SOL    HW212261   4.902   0.079   4.374
 3788SOL     OW12262   5.519   2.821   5.272
 3788SOL    HW112263   5.431   2.801   5.230
 3788SOL    HW212264   5.564   2.895   5.222
 3789SOL     OW12265   2.171   3.074   2.380
 3789SOL    HW112266   2.148   3.117   2.293
 3789SOL    HW212267   2.223   2.990   2.363
 3790SOL     OW12268   0.128   6.523   1.945
 3790SOL    HW112269   0.178   6.555   1.864
 3790SOL    HW212270   0.185   6.534   2.026
 3791SOL     OW12271   5.262   1.253   5.870
 3791SOL    HW112272   5.258   1.199   5.787
 3791SOL    HW212273   5.257   1.350   5.847
 3792SOL     OW12274   6.781   0.296   4.788
 3792SOL    HW112275   6.762   0.200   4.769
 3792SOL    HW212276   6.703   0.336   4.837
 3793SOL     OW12277   4.122   4.876   0.156
 3793SOL    HW112278   4.117   4.964   0.108
 3793SOL    HW212279   4.193   4.819   0.114
 3794SOL     OW12280   0.412   4.291   6.223
 3794SOL    HW112281   0.353   4.228   6.274
 3794SOL    HW212282   0.417   4.379   6.271
 3795SOL     OW12283   2.867   5.802   1.372
 3795SOL    HW112284   2.914   5.746   1.439
 3795SOL    HW212285   2.932   5.865   1.330
 3796SOL     OW12286   4.580   1.531   0.136
 3796SOL    HW112287   4.656   1.500   0.079
 3796SOL    HW212288   4.558   1.626   0.112
 3797SOL     OW12289   0.716   4.366   2.190
 3797SOL    HW112290   0.729   4.452   2.141
 3797SOL    HW212291   0.719   4.290   2.125
 3798SOL     OW12292   1.548   5.639   3.715
 3798SOL    HW112293   1.643   5.607   3.719
 3798SOL    HW212294   1.512   5.647   3.808
 3799SOL     OW12295   6.771   0.926   3.323
 3799SOL    HW112296   6.747   0.971   3.238
 3799SOL    HW212297   6.813   0.992   3.385
 3800SOL     OW12298   5.328   2.756   3.106
 3800SOL    HW112299   5.417   2.710   3.106
 3800SOL    HW212300   5.340   2.852   3.133
 3801SOL     OW12301   5.956   1.752   1.353
 3801SOL    HW112302   6.003   1.828   1.307
 3801SOL    HW212303   5.958   1.768   1.452
 3802SOL     OW12304   6.630   3.141   1.828
 3802SOL    HW112305   6.701   3.095   1.880
 3802SOL    HW212306   6.589   3.077   1.763
 3803SOL     OW12307   3.303   3.334   4.239
 3803SOL    HW112308   3.378   3.298   4.183
 3803SOL    HW212309   3.247   3.259   4.273
 3804SOL     OW12310   4.252   6.191   3.430
 3804SOL    HW112311   4.189   6.124   3.391
 3804SOL    HW212312   4.321   6.216   3.362
 3805SOL     OW12313   2.732   2.589   7.003
 3805SOL    HW112314   2.699   2.608   6.910
 3805SOL    HW212315   2.742   2.676   0.032
 3806SOL     OW12316   2.685   4.734   1.132
 3806SOL    HW112317   2.701   4.661   1.198
 3806SOL    HW212318   2.686   4.822   1.178
 3807SOL     OW12319   1.891   4.251   4.605
 3807SOL    HW112320   1.831   4.182   4.564
 3807SOL    HW212321   1.877   4.339   4.560
 3808SOL     OW12322   2.444   6.641   6.434
 3808SOL    HW112323   2.369   6.590   6.393
 3808SOL    HW212324   2.514   6.577   6.467
 3809SOL     OW12325   5.175   1.799   1.335
 3809SOL    HW112326   5.170   1.819   1.432
 3809SOL    HW212327   5.086   1.816   1.293
 3810SOL     OW12328   5.401   2.234   2.252
 3810SOL    HW112329   5.477   2.229   2.187
 3810SOL    HW212330   5.315   2.244   2.202
 3811SOL     OW12331   0.427   5.711   5.603
 3811SOL    HW112332   0.360   5.652   5.559
 3811SOL    HW212333   0.512   5.660   5.619
 3812SOL     OW12334   4.666   5.995   0.811
 3812SOL    HW112335   4.640   6.040   0.897
 3812SOL    HW212336   4.702   6.062   0.747
 3813SOL     OW12337   6.337   4.104   6.888
 3813SOL    HW112338   6.382   4.017   6.868
 3813SOL    HW212339   6.356   4.169   6.814
 3814SOL     OW12340   0.002   0.535   5.211
 3814SOL    HW112341   6.994   0.628   5.235
 3814SOL    HW212342   0.072   0.504   5.275
 3815SOL     OW12343   6.490   3.625   5.519
 3815SOL    HW112344   6.399   3.638   5.477
 3815SOL    HW212345   6.545   3.707   5.505
 3816SOL     OW12346   0.048   5.716   1.094
 3816SOL    HW112347   0.074   5.805   1.056
 3816SOL    HW212348   0.070   5.644   1.028
 3817SOL     OW12349   4.768   3.988   1.742
 3817SOL    HW112350   4.695   4.004   1.676
 3817SOL    HW212351   4.778   4.069   1.801
 3818SOL     OW12352   5.659   6.074   2.720
 3818SOL    HW112353   5.739   6.112   2.766
 3818SOL    HW212354   5.593   6.147   2.700
 3819SOL     OW12355   6.203   4.041   3.832
 3819SOL    HW112356   6.223   4.137   3.850
 3819SOL    HW212357   6.209   3.989   3.917
 3820SOL     OW12358   2.633   6.222   4.365
 3820SOL    HW112359   2.696   6.179   4.430
 3820SOL    HW212360   2.669   6.212   4.272
 3821SOL     OW12361   1.726   0.203   0.065
 3821SOL    HW112362   1.758   0.176   6.995
 3821SOL    HW212363   1.655   0.273   0.056
 3822SOL     OW12364   4.639   0.195   2.373
 3822SOL    HW112365   4.720   0.227   2.325
 3822SOL    HW212366   4.591   0.273   2.414
 3823SOL     OW12367   5.761   5.931   6.474
 3823SOL    HW112368   5.781   6.029   6.480
 3823SOL    HW212369   5.758   5.893   6.567
 3824SOL     OW12370   2.546   3.135   0.117
 3824SOL    HW112371   2.502   3.190   0.046
 3824SOL    HW212372   2.611   3.071   0.075
 3825SOL     OW12373   1.167   4.565   5.158
 3825SOL    HW112374   1.074   4.574   5.196
 3825SOL    HW212375   1.227   4.526   5.227
 3826SOL     OW12376   5.302   4.275   3.946
 3826SOL    HW112377   5.360   4.323   4.011
 3826SOL    HW212378   5.323   4.177   3.949
 3827SOL     OW12379   0.724   1.965   0.859
 3827SOL    HW112380   0.755   1.998   0.770
 3827SOL    HW212381   0.781   1.887   0.887
 3828SOL     OW12382   3.519   3.537   4.091
 3828SOL    HW112383   3.436   3.587   4.116
 3828SOL    HW212384   3.593   3.602   4.076
 3829SOL     OW12385   0.778   3.553   2.425
 3829SOL    HW112386   0.683   3.542   2.394
 3829SOL    HW212387   0.813   3.642   2.395
 3830SOL     OW12388   5.743   0.741   3.660
 3830SOL    HW112389   5.670   0.721   3.726
 3830SOL    HW212390   5.709   0.725   3.567
 3831SOL     OW12391   5.274   2.059   3.977
 3831SOL    HW112392   5.196   2.020   3.929
 3831SOL    HW212393   5.321   2.124   3.917
 3832SOL     OW12394   6.370   0.839   3.543
 3832SOL    HW112395   6.345   0.811   3.450
 3832SOL    HW212396   6.325   0.780   3.610
 3833SOL     OW12397   2.205   1.582   5.666
 3833SOL    HW112398   2.276   1.517   5.640
 3833SOL    HW212399   2.163   1.552   5.752
 3834SOL     OW12400   4.990   4.020   0.801
 3834SOL    HW112401   5.029   4.012   0.893
 3834SOL    HW212402   4.895   3.989   0.802
 3835SOL     OW12403   3.690   5.339   5.037
 3835SOL    HW112404   3.615   5.287   4.998
 3835SOL    HW212405   3.772   5.328   4.981
 3836SOL     OW12406   0.140   6.235   5.550
 3836SOL    HW112407   0.122   6.143   5.586
 3836SOL    HW212408   0.054   6.285   5.542
 3837SOL     OW12409   4.507   4.582   5.512
 3837SOL    HW112410   4.457   4.667   5.497
 3837SOL    HW212411   4.475   4.512   5.448
 3838SOL     OW12412   0.982   1.442   3.899
 3838SOL    HW112413   1.076   1.461   3.927
 3838SOL    HW212414   0.932   1.527   3.887
 3839SOL     OW12415   4.396   1.010   3.903
 3839SOL    HW112416   4.473   0.951   3.876
 3839SOL    HW212417   4.322   1.001   3.836
 3840SOL     OW12418   2.731   1.250   6.810
 3840SOL    HW112419   2.685   1.185   6.749
 3840SOL    HW212420   2.815   1.283   6.766
 3841SOL     OW12421   5.965   4.415   4.314
 3841SOL    HW112422   5.999   4.454   4.227
 3841SOL    HW212423   6.033   4.431   4.385
 3842SOL     OW12424   1.530   3.354   5.159
 3842SOL    HW112425   1.514   3.442   5.202
 3842SOL    HW212426   1.443   3.318   5.122
 3843SOL     OW12427   5.181   2.665   0.429
 3843SOL    HW112428   5.098   2.675   0.485
 3843SOL    HW212429   5.195   2.568   0.409
 3844SOL     OW12430   0.752   0.106   1.556
 3844SOL    HW112431   0.753   0.180   1.489
 3844SOL    HW212432   0.659   0.074   1.570
 3845SOL     OW12433   2.096   5.621   0.713
 3845SOL    HW112434   2.030   5.681   0.758
 3845SOL    HW212435   2.186   5.665   0.712
 3846SOL     OW12436   0.834   2.678   2.976
 3846SOL    HW112437   0.773   2.738   3.028
 3846SOL    HW212438   0.780   2.621   2.914
 3847SOL     OW12439   6.701   1.746   6.731
 3847SOL    HW112440   6.685   1.841   6.703
 3847SOL    HW212441   6.761   1.745   6.811
 3848SOL     OW12442   5.496   3.841   2.644
 3848SOL    HW112443   5.490   3.767   2.578
 3848SOL    HW212444   5.406   3.883   2.656
 3849SOL     OW12445   6.797   4.861   6.625
 3849SOL    HW112446   6.782   4.791   6.695
 3849SOL    HW212447   6.741   4.941   6.645
 3850SOL     OW12448   2.285   2.553   1.356
 3850SOL    HW112449   2.267   2.455   1.365
 3850SOL    HW212450   2.370   2.567   1.305
 3851SOL     OW12451   0.553   5.641   2.324
 3851SOL    HW112452   0.639   5.596   2.347
 3851SOL    HW212453   0.563   5.740   2.334
 3852SOL     OW12454   2.618   6.694   5.627
 3852SOL    HW112455   2.596   6.789   5.608
 3852SOL    HW212456   2.614   6.678   5.726
 3853SOL     OW12457   2.500   0.367   3.437
 3853SOL    HW112458   2.502   0.301   3.512
 3853SOL    HW212459   2.583   0.358   3.382
 3854SOL     OW12460   1.683   2.258   2.320
 3854SOL    HW112461   1.607   2.252   2.385
 3854SOL    HW212462   1.731   2.171   2.316
 3855SOL     OW12463   3.848   6.881   0.345
 3855SOL    HW112464   3.778   6.845   0.284
 3855SOL    HW212465   3.828   6.854   0.439
 3856SOL     OW12466   0.475   2.224   0.107
 3856SOL    HW112467   0.453   2.168   0.027
 3856SOL    HW212468   0.526   2.169   0.173
 3857SOL     OW12469   2.500   0.032   5.915
 3857SOL    HW112470   2.476   7.001   5.997
 3857SOL    HW212471   2.588   0.078   5.929
 3858SOL     OW12472   4.348   0.527   4.552
 3858SOL    HW112473   4.258   0.538   4.509
 3858SOL    HW212474   4.399   0.457   4.503
 3859SOL     OW12475   6.266   0.032   2.181
 3859SOL    HW112476   6.241   6.998   2.260
 3859SOL    HW212477   6.342   7.009   2.132
 3860SOL     OW12478   0.859   6.726   4.292
 3860SOL    HW112479   0.900   6.638   4.269
 3860SOL    HW212480   0.824   6.723   4.386
 3861SOL     OW12481   3.467   5.925   1.405
 3861SOL    HW112482   3.503   5.939   1.313
 3861SOL    HW212483   3.543   5.911   1.469
 3862SOL     OW12484   1.599   0.127   3.593
 3862SOL    HW112485   1.522   0.188   3.612
 3862SOL    HW212486   1.585   0.040   3.641
 3863SOL     OW12487   3.857   0.520   0.567
 3863SOL    HW112488   3.903   0.483   0.648
 3863SOL    HW212489   3.909   0.495   0.486
 3864SOL     OW12490   2.645   6.884   4.717
 3864SOL    HW112491   2.723   6.841   4.762
 3864SOL    HW212492   2.664   6.894   4.619
 3865SOL     OW12493   3.941   0.746   0.702
 3865SOL    HW112494   3.920   0.827   0.646
 3865SOL    HW212495   3.889   0.668   0.667
 3866SOL     OW12496   2.618   2.674   6.740
 3866SOL    HW112497   2.547   2.603   6.738
 3866SOL    HW212498   2.661   2.681   6.650
 3867SOL     OW12499   0.252   3.666   1.946
 3867SOL    HW112500   0.292   3.584   1.986
 3867SOL    HW212501   0.324   3.725   1.910
 3868SOL     OW12502   4.723   0.862   0.334
 3868SOL    HW112503   4.625   0.879   0.334
 3868SOL    HW212504   4.762   0.891   0.421
 3869SOL     OW12505   6.227   2.900   3.466
 3869SOL    HW112506   6.274   2.909   3.378
 3869SOL    HW212507   6.155   2.969   3.473
 3870SOL     OW12508   0.304   0.579   4.151
 3870SOL    HW112509   0.299   0.555   4.054
 3870SOL    HW212510   0.301   0.496   4.206
 3871SOL     OW12511   3.031   4.901   4.175
 3871SOL    HW112512   3.027   4.898   4.075
 3871SOL    HW212513   3.017   4.995   4.206
 3872SOL     OW12514   3.053   3.551   5.555
 3872SOL    HW112515   3.008   3.636   5.530
 3872SOL    HW212516   3.074   3.552   5.653
 3873SOL     OW12517   4.710   2.038   0.117
 3873SOL    HW112518   4.687   2.134   0.133
 3873SOL    HW212519   4.807   2.024   0.136
 3874SOL     OW12520   3.143   0.537   0.076
 3874SOL    HW112521   3.167   0.575   0.165
 3874SOL    HW212522   3.126   0.611   0.011
 3875SOL     OW12523   1.310   2.337   6.027
 3875SOL    HW112524   1.377   2.409   6.042
 3875SOL    HW212525   1.355   2.248   6.028
 3876SOL     OW12526   4.236   5.041   1.172
 3876SOL    HW112527   4.301   4.971   1.141
 3876SOL    HW212528   4.188   5.008   1.253
 3877SOL     OW12529   6.888   1.950   0.098
 3877SOL    HW112530   6.890   1.916   0.192
 3877SOL    HW212531   6.796   1.984   0.077
 3878SOL     OW12532   4.396   0.699   4.260
 3878SOL    HW112533   4.305   0.675   4.295
 3878SOL    HW212534   4.417   0.794   4.283
 3879SOL     OW12535   5.294   5.224   0.260
 3879SOL    HW112536   5.266   5.320   0.247
 3879SOL    HW212537   5.389   5.213   0.231
 3880SOL     OW12538   4.791   4.095   4.220
 3880SOL    HW112539   4.834   4.182   4.197
 3880SOL    HW212540   4.764   4.095   4.316
 3881SOL     OW12541   0.872   4.072   0.469
 3881SOL    HW112542   0.880   4.052   0.371
 3881SOL    HW212543   0.777   4.092   0.491
 3882SOL     OW12544   1.113   1.647   0.617
 3882SOL    HW112545   1.068   1.736   0.615
 3882SOL    HW212546   1.193   1.652   0.677
 3883SOL     OW12547   4.993   6.248   3.370
 3883SOL    HW112548   5.040   6.303   3.301
 3883SOL    HW212549   5.040   6.160   3.380
 3884SOL     OW12550   0.873   4.884   2.291
 3884SOL    HW112551   0.921   4.813   2.238
 3884SOL    HW212552   0.775   4.875   2.278
 3885SOL     OW12553   5.327   6.183   3.326
 3885SOL    HW112554   5.247   6.152   3.377
 3885SOL    HW212555   5.303   6.263   3.270
 3886SOL     OW12556   3.783   6.247   5.877
 3886SOL    HW112557   3.693   6.262   5.916
 3886SOL    HW212558   3.843   6.324   5.900
 3887SOL     OW12559   0.152   6.144   2.224
 3887SOL    HW112560   0.246   6.109   2.233
 3887SOL    HW212561   0.130   6.153   2.128
 3888SOL     OW12562   5.893   5.972   4.083
 3888SOL    HW112563   5.804   6.009   4.110
 3888SOL    HW212564   5.961   6.045   4.085
 3889SOL     OW12565   5.419   3.238   6.450
 3889SOL    HW112566   5.341   3.297   6.431
 3889SOL    HW212567   5.391   3.164   6.511
 3890SOL     OW12568   5.476   3.263   4.474
 3890SOL    HW112569   5.541   3.224   4.539
 3890SOL    HW212570   5.525   3.292   4.391
 3891SOL     OW12571   5.987   4.755   3.371
 3891SOL    HW112572   5.946   4.794   3.289
 3891SOL    HW212573   5.922   4.696   3.417
 3892SOL     OW12574   0.633   2.456   1.382
 3892SOL    HW112575   0.554   2.516   1.396
 3892SOL    HW212576   0.623   2.407   1.295
 3893SOL     OW12577   3.974   3.761   1.386
 3893SOL    HW112578   3.962   3.767   1.485
 3893SOL    HW212579   3.929   3.679   1.351
 3894SOL     OW12580   4.913   0.418   6.378
 3894SOL    HW112581   4.982   0.478   6.418
 3894SOL    HW212582   4.832   0.471   6.356
 3895SOL     OW12583   1.573   6.778   4.349
 3895SOL    HW112584   1.557   6.820   4.260
 3895SOL    HW212585   1.669   6.750   4.355
 3896SOL     OW12586   1.477   1.145   6.976
 3896SOL    HW112587   1.388   1.099   6.976
 3896SOL    HW212588   1.468   1.234   6.932
 3897SOL     OW12589   4.241   5.799   1.837
 3897SOL    HW112590   4.324   5.746   1.855
 3897SOL    HW212591   4.241   5.831   1.742
 3898SOL     OW12592   4.337   3.071   6.359
 3898SOL    HW112593   4.283   3.153   6.374
 3898SOL    HW212594   4.317   3.033   6.269
 3899SOL     OW12595   4.017   6.184   6.415
 3899SOL    HW112596   4.052   6.126   6.342
 3899SOL    HW212597   4.017   6.279   6.384
 3900SOL     OW12598   5.095   3.889   2.920
 3900SOL    HW112599   5.011   3.924   2.961
 3900SOL    HW212600   5.084   3.792   2.898
 3901SOL     OW12601   2.904   0.128   0.173
 3901SOL    HW112602   2.858   0.063   0.113
 3901SOL    HW212603   2.948   0.199   0.118
 3902SOL     OW12604   6.127   3.293   2.402
 3902SOL    HW112605   6.209   3.251   2.364
 3902SOL    HW212606   6.089   3.235   2.474
 3903SOL     OW12607   3.593   5.412   6.733
 3903SOL    HW112608   3.509   5.419   6.679
 3903SOL    HW212609   3.614   5.316   6.749
 3904SOL     OW12610   1.654   0.406   0.364
 3904SOL    HW112611   1.573   0.438   0.315
 3904SOL    HW212612   1.641   0.311   0.392
 3905SOL     OW12613   6.761   6.029   5.419
 3905SOL    HW112614   6.833   6.075   5.470
 3905SOL    HW212615   6.790   6.018   5.324
 3906SOL     OW12616   5.856   6.810   5.441
 3906SOL    HW112617   5.833   6.900   5.405
 3906SOL    HW212618   5.933   6.817   5.504
 3907SOL     OW12619   5.769   1.858   4.314
 3907SOL    HW112620   5.842   1.796   4.286
 3907SOL    HW212621   5.686   1.838   4.262
 3908SOL     OW12622   1.562   2.096   5.691
 3908SOL    HW112623   1.642   2.111   5.750
 3908SOL    HW212624   1.577   2.143   5.603
 3909SOL     OW12625   5.831   5.186   3.975
 3909SOL    HW112626   5.841   5.087   3.971
 3909SOL    HW212627   5.738   5.209   4.004
 3910SOL     OW12628   3.631   3.938   2.846
 3910SOL    HW112629   3.646   3.904   2.938
 3910SOL    HW212630   3.555   4.003   2.846
 3911SOL     OW12631   5.811   1.525   5.462
 3911SOL    HW112632   5.794   1.515   5.560
 3911SOL    HW212633   5.764   1.607   5.429
 3912SOL     OW12634   5.767   2.318   5.794
 3912SOL    HW112635   5.685   2.361   5.832
 3912SOL    HW212636   5.791   2.363   5.707
 3913SOL     OW12637   0.993   6.696   0.385
 3913SOL    HW112638   1.050   6.767   0.426
 3913SOL    HW212639   0.973   6.626   0.454
 3914SOL     OW12640   3.138   6.470   6.470
 3914SOL    HW112641   3.165   6.458   6.566
 3914SOL    HW212642   3.185   6.402   6.414
 3915SOL     OW12643   5.437   5.283   1.829
 3915SOL    HW112644   5.397   5.359   1.777
 3915SOL    HW212645   5.489   5.224   1.768
 3916SOL     OW12646   1.217   0.034   3.021
 3916SOL    HW112647   1.163   0.053   3.104
 3916SOL    HW212648   1.155   0.014   2.945
 3917SOL     OW12649   2.002   6.945   6.933
 3917SOL    HW112650   2.045   7.003   6.864
 3917SOL    HW212651   1.918   6.905   6.895
 3918SOL     OW12652   5.344   4.487   1.822
 3918SOL    HW112653   5.311   4.504   1.729
 3918SOL    HW212654   5.370   4.573   1.865
 3919SOL     OW12655   3.380   0.110   0.227
 3919SOL    HW112656   3.311   0.039   0.214
 3919SOL    HW212657   3.436   0.117   0.144
 3920SOL     OW12658   2.101   2.284   6.826
 3920SOL    HW112659   2.040   2.275   6.904
 3920SOL    HW212660   2.147   2.374   6.829
 3921SOL     OW12661   1.154   4.077   1.656
 3921SOL    HW112662   1.200   3.998   1.696
 3921SOL    HW212663   1.169   4.077   1.557
 3922SOL     OW12664   0.873   4.442   1.388
 3922SOL    HW112665   0.778   4.421   1.364
 3922SOL    HW212666   0.898   4.532   1.353
 3923SOL     OW12667   0.511   0.472   0.278
 3923SOL    HW112668   0.541   0.434   0.191
 3923SOL    HW212669   0.534   0.409   0.352
 3924SOL     OW12670   6.638   4.552   4.483
 3924SOL    HW112671   6.598   4.463   4.508
 3924SOL    HW212672   6.729   4.560   4.523
 3925SOL     OW12673   1.828   5.489   2.266
 3925SOL    HW112674   1.822   5.438   2.180
 3925SOL    HW212675   1.838   5.587   2.246
 3926SOL     OW12676   4.333   4.562   2.152
 3926SOL    HW112677   4.276   4.612   2.086
 3926SOL    HW212678   4.362   4.475   2.111
 3927SOL     OW12679   0.434   2.987   6.189
 3927SOL    HW112680   0.501   3.059   6.169
 3927SOL    HW212681   0.395   2.952   6.104
 3928SOL     OW12682   5.628   5.633   6.946
 3928SOL    HW112683   5.549   5.691   6.963
 3928SOL    HW212684   5.682   5.670   6.871
 3929SOL     OW12685   1.086   1.370   5.182
 3929SOL    HW112686   1.082   1.420   5.268
 3929SOL    HW212687   1.005   1.311   5.174
 3930SOL     OW12688   2.241   1.432   3.469
 3930SOL    HW112689   2.261   1.529   3.484
 3930SOL    HW212690   2.316   1.390   3.418
 3931SOL     OW12691   5.948   1.794   1.633
 3931SOL    HW112692   5.990   1.715   1.677
 3931SOL    HW212693   5.983   1.878   1.674
 3932SOL     OW12694   0.813   2.362   4.067
 3932SOL    HW112695   0.842   2.458   4.070
 3932SOL    HW212696   0.849   2.314   4.146
 3933SOL     OW12697   1.324   0.148   6.227
 3933SOL    HW112698   1.420   0.120   6.222
 3933SOL    HW212699   1.318   0.245   6.251
 3934SOL     OW12700   5.973   0.563   6.028
 3934SOL    HW112701   6.066   0.538   6.054
 3934SOL    HW212702   5.935   0.625   6.097
 3935SOL     OW12703   4.664   0.586   1.073
 3935SOL    HW112704   4.644   0.676   1.035
 3935SOL    HW212705   4.608   0.571   1.154
 3936SOL     OW12706   6.450   5.497   4.047
 3936SOL    HW112707   6.361   5.542   4.039
 3936SOL    HW212708   6.521   5.567   4.060
 3937SOL     OW12709   0.550   1.122   2.719
 3937SOL    HW112710   0.589   1.177   2.645
 3937SOL    HW212711   0.451   1.114   2.705
 3938SOL     OW12712   6.896   1.218   3.048
 3938SOL    HW112713   6.894   1.317   3.033
 3938SOL    HW212714   6.991   1.186   3.048
 3939SOL     OW12715   2.954   1.781   2.063
 3939SOL    HW112716   2.994   1.743   2.147
 3939SOL    HW212717   2.969   1.880   2.061
 3940SOL     OW12718   3.448   3.861   1.025
 3940SOL    HW112719   3.511   3.916   1.079
 3940SOL    HW212720   3.426   3.776   1.075
 3941SOL     OW12721   3.863   4.376   6.127
 3941SOL    HW112722   3.861   4.299   6.063
 3941SOL    HW212723   3.939   4.364   6.191
 3942SOL     OW12724   6.553   6.633   6.585
 3942SOL    HW112725   6.633   6.573   6.581
 3942SOL    HW212726   6.578   6.724   6.551
 3943SOL     OW12727   0.641   3.558   4.742
 3943SOL    HW112728   0.615   3.650   4.773
 3943SOL    HW212729   0.560   3.500   4.740
 3944SOL     OW12730   4.983   2.440   4.821
 3944SOL    HW112731   5.002   2.344   4.798
 3944SOL    HW212732   4.893   2.447   4.863
 3945SOL     OW12733   0.186   1.642   1.087
 3945SOL    HW112734   0.236   1.672   1.006
 3945SOL    HW212735   0.132   1.718   1.123
 3946SOL     OW12736   4.438   4.660   3.341
 3946SOL    HW112737   4.502   4.734   3.364
 3946SOL    HW212738   4.344   4.692   3.354
 3947SOL     OW12739   5.333   5.890   0.413
 3947SOL    HW112740   5.390   5.813   0.440
 3947SOL    HW212741   5.292   5.872   0.324
 3948SOL     OW12742   5.848   4.728   1.340
 3948SOL    HW112743   5.855   4.652   1.275
 3948SOL    HW212744   5.931   4.731   1.396
 3949SOL     OW12745   4.530   5.982   3.224
 3949SOL    HW112746   4.440   5.983   3.182
 3949SOL    HW212747   4.572   5.892   3.212
 3950SOL     OW12748   2.139   5.597   1.056
 3950SOL    HW112749   2.191   5.512   1.042
 3950SOL    HW212750   2.041   5.576   1.059
 3951SOL     OW12751   5.327   0.279   1.990
 3951SOL    HW112752   5.404   0.342   1.983
 3951SOL    HW212753   5.273   0.282   1.905
 3952SOL     OW12754   6.921   2.929   0.762
 3952SOL    HW112755   6.849   2.988   0.800
 3952SOL    HW212756   6.999   2.985   0.734
 3953SOL     OW12757   4.054   3.748   2.059
 3953SOL    HW112758   4.030   3.661   2.104
 3953SOL    HW212759   4.037   3.823   2.122
 3954SOL     OW12760   4.094   4.631   5.613
 3954SOL    HW112761   4.027   4.651   5.685
 3954SOL    HW212762   4.116   4.534   5.613
 3955SOL     OW12763   3.739   0.520   5.644
 3955SOL    HW112764   3.723   0.603   5.591
 3955SOL    HW212765   3.820   0.532   5.702
 3956SOL     OW12766   0.948   1.105   1.960
 3956SOL    HW112767   0.959   1.100   2.059
 3956SOL    HW212768   0.862   1.151   1.938
 3957SOL     OW12769   3.665   0.224   4.280
 3957SOL    HW112770   3.609   0.249   4.359
 3957SOL    HW212771   3.691   0.128   4.287
 3958SOL     OW12772   6.152   1.849   5.087
 3958SOL    HW112773   6.145   1.891   4.997
 3958SOL    HW212774   6.236   1.795   5.093
 3959SOL     OW12775   4.868   5.110   0.395
 3959SOL    HW112776   4.931   5.085   0.322
 3959SOL    HW212777   4.806   5.033   0.413
 3960SOL     OW12778   5.307   2.382   5.268
 3960SOL    HW112779   5.265   2.447   5.204
 3960SOL    HW212780   5.348   2.307   5.217
 3961SOL     OW12781   5.755   6.621   3.447
 3961SOL    HW112782   5.815   6.636   3.369
 3961SOL    HW212783   5.728   6.709   3.487
 3962SOL     OW12784   0.177   5.342   5.725
 3962SOL    HW112785   0.100   5.365   5.783
 3962SOL    HW212786   0.195   5.418   5.662
 3963SOL     OW12787   4.588   6.447   1.824
 3963SOL    HW112788   4.497   6.428   1.860
 3963SOL    HW212789   4.634   6.514   1.882
 3964SOL     OW12790   4.841   3.890   3.026
 3964SOL    HW112791   4.817   3.900   3.122
 3964SOL    HW212792   4.796   3.809   2.988
 3965SOL     OW12793   5.378   3.552   4.240
 3965SOL    HW112794   5.457   3.562   4.180
 3965SOL    HW212795   5.305   3.613   4.209
 3966SOL     OW12796   2.924   5.563   6.827
 3966SOL    HW112797   2.870   5.512   6.895
 3966SOL    HW212798   2.930   5.659   6.855
 3967SOL     OW12799   1.807   4.985   2.437
 3967SOL    HW112800   1.729   4.931   2.405
 3967SOL    HW212801   1.877   4.987   2.366
 3968SOL     OW12802   4.358   0.898   0.861
 3968SOL    HW112803   4.348   0.995   0.882
 3968SOL    HW212804   4.278   0.848   0.895
 3969SOL     OW12805   1.933   6.001   1.989
 3969SOL    HW112806   1.898   6.037   1.903
 3969SOL    HW212807   1.857   5.988   2.053
 3970SOL     OW12808   5.758   6.460   2.372
 3970SOL    HW112809   5.790   6.476   2.279
 3970SOL    HW212810   5.680   6.397   2.370
 3971SOL     OW12811   2.980   5.636   4.017
 3971SOL    HW112812   3.057   5.678   3.968
 3971SOL    HW212813   2.986   5.659   4.114
 3972SOL     OW12814   2.032   4.177   0.022
 3972SOL    HW112815   2.078   4.113   0.083
 3972SOL    HW212816   2.099   4.218   6.981
 3973SOL     OW12817   1.264   6.013   0.324
 3973SOL    HW112818   1.235   6.078   0.254
 3973SOL    HW212819   1.343   5.961   0.290
 3974SOL     OW12820   2.409   0.356   6.069
 3974SOL    HW112821   2.370   0.330   6.157
 3974SOL    HW212822   2.501   0.319   6.061
 3975SOL     OW12823   5.476   2.030   6.445
 3975SOL    HW112824   5.415   2.105   6.420
 3975SOL    HW212825   5.506   1.982   6.362
 3976SOL     OW12826   1.747   5.985   2.177
 3976SOL    HW112827   1.709   6.063   2.228
 3976SOL    HW212828   1.678   5.914   2.169
 3977SOL     OW12829   0.723   3.660   6.548
 3977SOL    HW112830   0.782   3.593   6.503
 3977SOL    HW212831   0.748   3.752   6.519
 3978SOL     OW12832   6.865   4.691   3.832
 3978SOL    HW112833   6.786   4.708   3.772
 3978SOL    HW212834   6.938   4.756   3.810
 3979SOL     OW12835   3.462   0.589   6.266
 3979SOL    HW112836   3.483   0.674   6.217
 3979SOL    HW212837   3.541   0.563   6.322
 3980SOL     OW12838   6.033   6.544   6.367
 3980SOL    HW112839   6.092   6.468   6.395
 3980SOL    HW212840   6.082   6.630   6.377
 3981SOL     OW12841   4.726   6.758   0.416
 3981SOL    HW112842   4.723   6.687   0.487
 3981SOL    HW212843   4.699   6.846   0.456
 3982SOL     OW12844   2.579   0.010   2.653
 3982SOL    HW112845   2.571   6.944   2.604
 3982SOL    HW212846   2.641   0.071   2.604
 3983SOL     OW12847   4.218   5.904   3.649
 3983SOL    HW112848   4.240   5.927   3.554
 3983SOL    HW212849   4.230   5.806   3.664
 3984SOL     OW12850   6.011   2.169   2.794
 3984SOL    HW112851   6.058   2.083   2.814
 3984SOL    HW212852   6.079   2.242   2.783
 3985SOL     OW12853   3.101   5.591   6.374
 3985SOL    HW112854   3.138   5.503   6.345
 3985SOL    HW212855   3.043   5.578   6.454
 3986SOL     OW12856   4.853   1.639   2.264
 3986SOL    HW112857   4.832   1.630   2.362
 3986SOL    HW212858   4.952   1.635   2.251
 3987SOL     OW12859   3.230   4.927   5.323
 3987SOL    HW112860   3.166   4.869   5.374
 3987SOL    HW212861   3.178   4.990   5.265
 3988SOL     OW12862   4.713   5.255   0.156
 3988SOL    HW112863   4.671   5.208   0.234
 3988SOL    HW212864   4.680   5.349   0.153
 3989SOL     OW12865   6.642   2.076   6.692
 3989SOL    HW112866   6.609   2.065   6.786
 3989SOL    HW212867   6.740   2.058   6.689
 3990SOL     OW12868   5.226   2.654   1.827
 3990SOL    HW112869   5.137   2.663   1.872
 3990SOL    HW212870   5.262   2.745   1.806
 3991SOL     OW12871   0.228   0.663   3.267
 3991SOL    HW112872   0.129   0.674   3.268
 3991SOL    HW212873   0.262   0.654   3.361
 3992SOL     OW12874   2.758   2.585   1.062
 3992SOL    HW112875   2.702   2.612   0.983
 3992SOL    HW212876   2.820   2.511   1.035
 3993SOL     OW12877   1.120   3.510   2.358
 3993SOL    HW112878   1.119   3.471   2.266
 3993SOL    HW212879   1.148   3.606   2.353
 3994SOL     OW12880   2.707   6.816   5.039
 3994SOL    HW112881   2.770   6.886   5.005
 3994SOL    HW212882   2.734   6.726   5.003
 3995SOL     OW12883   1.336   2.598   4.961
 3995SOL    HW112884   1.420   2.567   4.916
 3995SOL    HW212885   1.329   2.556   5.051
 3996SOL     OW12886   0.288   6.465   4.942
 3996SOL    HW112887   0.193   6.491   4.962
 3996SOL    HW212888   0.348   6.506   5.010
 3997SOL     OW12889   5.696   0.866   4.586
 3997SOL    HW112890   5.766   0.938   4.580
 3997SOL    HW212891   5.659   0.864   4.679
 3998SOL     OW12892   4.153   2.103   3.759
 3998SOL    HW112893   4.244   2.099   3.800
 3998SOL    HW212894   4.086   2.066   3.824
 3999SOL     OW12895   5.975   1.987   5.303
 3999SOL    HW112896   6.039   1.935   5.247
 3999SOL    HW212897   6.020   2.013   5.389
 4000SOL     OW12898   4.108   0.302   3.346
 4000SOL    HW112899   4.176   0.230   3.361
 4000SOL    HW212900   4.083   0.343   3.433
 4001SOL     OW12901   1.084   2.114   3.238
 4001SOL    HW112902   1.090   2.200   3.288
 4001SOL    HW212903   1.174   2.071   3.235
 4002SOL     OW12904   1.993   3.579   2.130
 4002SOL    HW112905   1.991   3.679   2.130
 4002SOL    HW212906   2.075   3.547   2.083
 4003SOL     OW12907   3.729   0.545   4.501
 4003SOL    HW112908   3.731   0.628   4.445
 4003SOL    HW212909   3.821   0.526   4.535
 4004SOL     OW12910   6.902   1.687   5.171
 4004SOL    HW112911   6.832   1.615   5.162
 4004SOL    HW212912   6.859   1.776   5.162
 4005SOL     OW12913   5.568   5.325   5.882
 4005SOL    HW112914   5.633   5.352   5.953
 4005SOL    HW212915   5.534   5.233   5.901
 4006SOL     OW12916   3.849   5.563   2.105
 4006SOL    HW112917   3.814   5.650   2.138
 4006SOL    HW212918   3.931   5.537   2.157
 4007SOL     OW12919   0.024   2.013   6.413
 4007SOL    HW112920   0.070   2.059   6.489
 4007SOL    HW212921   6.972   2.072   6.378
 4008SOL     OW12922   2.322   2.603   5.126
 4008SOL    HW112923   2.357   2.667   5.194
 4008SOL    HW212924   2.222   2.601   5.130
 4009SOL     OW12925   4.059   3.653   2.927
 4009SOL    HW112926   4.056   3.561   2.888
 4009SOL    HW212927   4.096   3.717   2.859
 4010SOL     OW12928   2.056   2.996   7.004
 4010SOL    HW112929   2.120   3.072   6.994
 4010SOL    HW212930   1.985   3.019   0.049
 4011SOL     OW12931   1.207   2.537   1.454
 4011SOL    HW112932   1.280   2.493   1.506
 4011SOL    HW212933   1.129   2.554   1.515
 4012SOL     OW12934   6.433   3.762   3.494
 4012SOL    HW112935   6.423   3.822   3.415
 4012SOL    HW212936   6.458   3.815   3.575
 4013SOL     OW12937   4.659   2.687   3.421
 4013SOL    HW112938   4.592   2.618   3.446
 4013SOL    HW212939   4.653   2.764   3.484
 4014SOL     OW12940   5.262   6.008   2.739
 4014SOL    HW112941   5.333   5.945   2.772
 4014SOL    HW212942   5.303   6.098   2.722
 4015SOL     OW12943   5.301   3.800   6.149
 4015SOL    HW112944   5.210   3.839   6.135
 4015SOL    HW212945   5.369   3.856   6.101
 4016SOL     OW12946   2.828   6.206   5.330
 4016SOL    HW112947   2.855   6.263   5.408
 4016SOL    HW212948   2.738   6.166   5.348
 4017SOL     OW12949   6.451   5.861   6.960
 4017SOL    HW112950   6.444   5.784   6.896
 4017SOL    HW212951   6.407   5.942   6.920
 4018SOL     OW12952   2.716   5.715   0.731
 4018SOL    HW112953   2.695   5.670   0.644
 4018SOL    HW212954   2.751   5.807   0.713
 4019SOL     OW12955   5.223   5.081   3.307
 4019SOL    HW112956   5.134   5.063   3.348
 4019SOL    HW212957   5.282   5.126   3.374
 4020SOL     OW12958   5.093   1.963   5.743
 4020SOL    HW112959   5.189   1.980   5.719
 4020SOL    HW212960   5.047   2.051   5.757
 4021SOL     OW12961   3.290   4.353   6.033
 4021SOL    HW112962   3.331   4.277   5.983
 4021SOL    HW212963   3.348   4.435   6.023
 4022SOL     OW12964   5.290   0.115   1.565
 4022SOL    HW112965   5.269   0.156   1.476
 4022SOL    HW212966   5.386   0.130   1.587
 4023SOL     OW12967   6.534   0.471   6.111
 4023SOL    HW112968   6.632   0.489   6.112
 4023SOL    HW212969   6.512   0.407   6.185
 4024SOL     OW12970   3.724   4.868   4.172
 4024SOL    HW112971   3.823   4.851   4.179
 4024SOL    HW212972   3.696   4.862   4.077
 4025SOL     OW12973   1.318   4.481   2.799
 4025SOL    HW112974   1.396   4.465   2.859
 4025SOL    HW212975   1.302   4.579   2.790
 4026SOL     OW12976   5.607   6.764   4.439
 4026SOL    HW112977   5.666   6.807   4.506
 4026SOL    HW212978   5.630   6.798   4.347
 4027SOL     OW12979   4.240   5.474   1.316
 4027SOL    HW112980   4.236   5.501   1.412
 4027SOL    HW212981   4.331   5.438   1.295
 4028SOL     OW12982   2.311   0.129   3.835
 4028SOL    HW112983   2.249   0.064   3.878
 4028SOL    HW212984   2.340   0.094   3.745
 4029SOL     OW12985   2.120   4.519   4.729
 4029SOL    HW112986   2.033   4.482   4.761
 4029SOL    HW212987   2.126   4.511   4.629
 4030SOL     OW12988   0.966   1.959   6.073
 4030SOL    HW112989   1.060   1.945   6.042
 4030SOL    HW212990   0.930   2.044   6.032
 4031SOL     OW12991   4.201   5.642   4.650
 4031SOL    HW112992   4.288   5.687   4.630
 4031SOL    HW212993   4.130   5.712   4.662
 4032SOL     OW12994   5.066   0.014   4.784
 4032SOL    HW112995   5.093   6.961   4.846
 4032SOL    HW212996   5.124   0.094   4.799
 4033SOL     OW12997   3.040   3.823   5.330
 4033SOL    HW112998   3.073   3.766   5.254
 4033SOL    HW212999   2.969   3.773   5.380
 4034SOL     OW13000   6.593   2.188   3.803
 4034SOL    HW113001   6.644   2.230   3.729
 4034SOL    HW213002   6.562   2.097   3.775
 4035SOL     OW13003   0.136   5.225   0.616
 4035SOL    HW113004   0.216   5.206   0.558
 4035SOL    HW213005   0.100   5.315   0.595
 4036SOL     OW13006   6.807   6.704   3.503
 4036SOL    HW113007   6.815   6.799   3.532
 4036SOL    HW213008   6.878   6.649   3.546
 4037SOL     OW13009   6.488   4.335   6.076
 4037SOL    HW113010   6.439   4.292   6.152
 4037SOL    HW213011   6.485   4.434   6.087
 4038SOL     OW13012   6.439   5.029   4.001
 4038SOL    HW113013   6.480   5.113   3.966
 4038SOL    HW213014   6.502   4.953   3.987
 4039SOL     OW13015   3.944   6.166   1.047
 4039SOL    HW113016   3.938   6.261   1.079
 4039SOL    HW213017   3.981   6.109   1.120
 4040SOL     OW13018   3.884   6.409   1.125
 4040SOL    HW113019   3.818   6.449   1.188
 4040SOL    HW213020   3.851   6.420   1.031
 4041SOL     OW13021   1.207   0.139   3.934
 4041SOL    HW113022   1.145   0.123   4.011
 4041SOL    HW213023   1.179   0.222   3.885
 4042SOL     OW13024   6.210   5.354   2.215
 4042SOL    HW113025   6.222   5.314   2.306
 4042SOL    HW213026   6.295   5.345   2.163
 4043SOL     OW13027   6.422   3.341   1.881
 4043SOL    HW113028   6.399   3.386   1.795
 4043SOL    HW213029   6.496   3.276   1.866
 4044SOL     OW13030   6.564   6.291   3.336
 4044SOL    HW113031   6.627   6.239   3.279
 4044SOL    HW213032   6.526   6.367   3.282
 4045SOL     OW13033   2.132   5.530   5.674
 4045SOL    HW113034   2.202   5.470   5.634
 4045SOL    HW213035   2.162   5.561   5.764
 4046SOL     OW13036   0.993   2.780   0.967
 4046SOL    HW113037   0.917   2.819   0.914
 4046SOL    HW213038   1.004   2.833   1.051
 4047SOL     OW13039   3.438   3.921   1.504
 4047SOL    HW113040   3.397   4.002   1.546
 4047SOL    HW213041   3.366   3.867   1.459
 4048SOL     OW13042   5.088   1.799   1.007
 4048SOL    HW113043   5.086   1.842   0.917
 4048SOL    HW213044   5.046   1.860   1.074
 4049SOL     OW13045   6.821   0.807   6.154
 4049SOL    HW113046   6.918   0.806   6.130
 4049SOL    HW213047   6.767   0.828   6.073
 4050SOL     OW13048   2.343   0.423   1.426
 4050SOL    HW113049   2.400   0.416   1.508
 4050SOL    HW213050   2.277   0.497   1.437
 4051SOL     OW13051   1.795   4.160   1.055
 4051SOL    HW113052   1.757   4.074   1.020
 4051SOL    HW213053   1.890   4.146   1.083
 4052SOL     OW13054   1.486   6.201   1.574
 4052SOL    HW113055   1.522   6.114   1.606
 4052SOL    HW213056   1.478   6.199   1.475
 4053SOL     OW13057   2.869   4.810   3.340
 4053SOL    HW113058   2.834   4.903   3.354
 4053SOL    HW213059   2.957   4.800   3.386
 4054SOL     OW13060   5.430   1.655   6.815
 4054SOL    HW113061   5.482   1.583   6.861
 4054SOL    HW213062   5.355   1.686   6.875
 4055SOL     OW13063   4.088   2.308   0.427
 4055SOL    HW113064   4.033   2.240   0.475
 4055SOL    HW213065   4.185   2.284   0.436
 4056SOL     OW13066   3.882   3.024   0.985
 4056SOL    HW113067   3.913   2.944   1.036
 4056SOL    HW213068   3.810   3.071   1.037
 4057SOL     OW13069   6.411   2.215   6.877
 4057SOL    HW113070   6.342   2.288   6.875
 4057SOL    HW213071   6.496   2.251   6.917
 4058SOL     OW13072   1.472   0.979   4.632
 4058SOL    HW113073   1.447   1.057   4.689
 4058SOL    HW213074   1.391   0.924   4.614
 4059SOL     OW13075   6.251   1.535   4.924
 4059SOL    HW113076   6.267   1.466   4.994
 4059SOL    HW213077   6.170   1.512   4.871
 4060SOL     OW13078   4.031   6.383   4.526
 4060SOL    HW113079   4.129   6.360   4.527
 4060SOL    HW213080   3.980   6.309   4.572
 4061SOL     OW13081   2.548   3.094   1.717
 4061SOL    HW113082   2.622   3.090   1.650
 4061SOL    HW213083   2.509   3.002   1.729
 4062SOL     OW13084   3.253   6.390   3.015
 4062SOL    HW113085   3.265   6.349   3.106
 4062SOL    HW213086   3.168   6.355   2.975
 4063SOL     OW13087   2.994   5.554   6.112
 4063SOL    HW113088   3.014   5.604   6.197
 4063SOL    HW213089   3.079   5.531   6.066
 4064SOL     OW13090   5.978   0.286   4.583
 4064SOL    HW113091   6.060   0.343   4.579
 4064SOL    HW213092   5.901   0.339   4.619
 4065SOL     OW13093   6.103   5.090   0.086
 4065SOL    HW113094   6.088   5.102   0.185
 4065SOL    HW213095   6.123   5.178   0.044
 4066SOL     OW13096   6.330   5.187   1.950
 4066SOL    HW113097   6.268   5.117   1.985
 4066SOL    HW213098   6.419   5.177   1.995
 4067SOL     OW13099   6.106   0.796   1.876
 4067SOL    HW113100   6.104   0.697   1.860
 4067SOL    HW213101   6.090   0.814   1.973
 4068SOL     OW13102   5.646   1.252   4.045
 4068SOL    HW113103   5.670   1.347   4.060
 4068SOL    HW213104   5.546   1.241   4.048
 4069SOL     OW13105   0.118   5.845   1.364
 4069SOL    HW113106   0.147   5.752   1.389
 4069SOL    HW213107   0.091   5.846   1.267
 4070SOL     OW13108   0.472   3.365   2.825
 4070SOL    HW113109   0.456   3.319   2.738
 4070SOL    HW213110   0.385   3.389   2.868
 4071SOL     OW13111   2.560   0.719   3.651
 4071SOL    HW113112   2.500   0.643   3.678
 4071SOL    HW213113   2.582   0.775   3.731
 4072SOL     OW13114   0.597   0.537   4.422
 4072SOL    HW113115   0.649   0.477   4.361
 4072SOL    HW213116   0.544   0.481   4.486
 4073SOL     OW13117   3.364   5.139   1.312
 4073SOL    HW113118   3.418   5.153   1.230
 4073SOL    HW213119   3.372   5.043   1.341
 4074SOL     OW13120   1.035   2.675   0.592
 4074SOL    HW113121   1.045   2.707   0.498
 4074SOL    HW213122   1.086   2.590   0.604
 4075SOL     OW13123   5.023   0.696   4.024
 4075SOL    HW113124   5.055   0.664   3.934
 4075SOL    HW213125   5.019   0.796   4.024
 4076SOL     OW13126   1.454   2.291   3.524
 4076SOL    HW113127   1.424   2.312   3.617
 4076SOL    HW213128   1.436   2.369   3.465
 4077SOL     OW13129   2.905   1.785   0.798
 4077SOL    HW113130   2.812   1.784   0.833
 4077SOL    HW213131   2.969   1.804   0.873
 4078SOL     OW13132   5.100   3.984   2.412
 4078SOL    HW113133   5.180   3.952   2.361
 4078SOL    HW213134   5.127   4.055   2.476
 4079SOL     OW13135   6.672   0.774   4.324
 4079SOL    HW113136   6.622   0.695   4.359
 4079SOL    HW213137   6.749   0.744   4.269
 4080SOL     OW13138   3.694   3.023   2.424
 4080SOL    HW113139   3.623   2.953   2.423
 4080SOL    HW213140   3.753   3.011   2.344
 4081SOL     OW13141   2.227   2.170   6.402
 4081SOL    HW113142   2.320   2.182   6.366
 4081SOL    HW213143   2.163   2.158   6.325
 4082SOL     OW13144   1.334   2.212   5.384
 4082SOL    HW113145   1.269   2.220   5.460
 4082SOL    HW213146   1.418   2.170   5.416
 4083SOL     OW13147   5.804   5.420   2.715
 4083SOL    HW113148   5.798   5.443   2.618
 4083SOL    HW213149   5.848   5.330   2.725
 4084SOL     OW13150   4.343   0.448   2.674
 4084SOL    HW113151   4.378   0.390   2.748
 4084SOL    HW213152   4.409   0.521   2.655
 4085SOL     OW13153   3.066   4.829   2.356
 4085SOL    HW113154   3.040   4.829   2.259
 4085SOL    HW213155   3.126   4.751   2.374
 4086SOL     OW13156   6.158   4.528   4.938
 4086SOL    HW113157   6.225   4.503   4.867
 4086SOL    HW213158   6.190   4.610   4.986
 4087SOL     OW13159   1.798   0.400   2.064
 4087SOL    HW113160   1.706   0.409   2.102
 4087SOL    HW213161   1.823   0.484   2.016
 4088SOL     OW13162   0.330   1.927   5.216
 4088SOL    HW113163   0.279   1.843   5.196
 4088SOL    HW213164   0.267   2.000   5.241
 4089SOL     OW13165   1.132   0.790   2.972
 4089SOL    HW113166   1.212   0.843   2.942
 4089SOL    HW213167   1.152   0.747   3.060
 4090SOL     OW13168   2.866   2.166   5.774
 4090SOL    HW113169   2.940   2.232   5.771
 4090SOL    HW213170   2.896   2.080   5.732
 4091SOL     OW13171   3.659   5.653   1.835
 4091SOL    HW113172   3.576   5.705   1.853
 4091SOL    HW213173   3.643   5.556   1.854
 4092SOL     OW13174   4.782   2.345   5.652
 4092SOL    HW113175   4.732   2.428   5.627
 4092SOL    HW213176   4.741   2.305   5.734
 4093SOL     OW13177   5.518   4.201   3.615
 4093SOL    HW113178   5.470   4.151   3.543
 4093SOL    HW213179   5.458   4.211   3.694
 4094SOL     OW13180   0.174   6.067   0.016
 4094SOL    HW113181   0.077   6.059   0.041
 4094SOL    HW213182   0.183   6.070   6.938
 4095SOL     OW13183   1.078   5.273   0.971
 4095SOL    HW113184   1.161   5.224   0.996
 4095SOL    HW213185   1.101   5.365   0.940
 4096SOL     OW13186   0.848   0.564   6.876
 4096SOL    HW113187   0.798   0.629   6.819
 4096SOL    HW213188   0.788   0.487   6.899
 4097SOL     OW13189   6.438   3.756   5.123
 4097SOL    HW113190   6.445   3.774   5.025
 4097SOL    HW213191   6.381   3.826   5.166
 4098SOL     OW13192   1.281   5.093   2.265
 4098SOL    HW113193   1.251   5.001   2.289
 4098SOL    HW213194   1.350   5.088   2.193
 4099SOL     OW13195   5.850   4.578   5.566
 4099SOL    HW113196   5.937   4.591   5.614
 4099SOL    HW213197   5.797   4.507   5.612
 4100SOL     OW13198   1.942   1.661   2.867
 4100SOL    HW113199   1.916   1.655   2.963
 4100SOL    HW213200   1.873   1.715   2.817
 4101SOL     OW13201   6.532   5.545   0.021
 4101SOL    HW113202   6.630   5.561   0.014
 4101SOL    HW213203   6.484   5.606   6.979
 4102SOL     OW13204   1.472   6.071   0.581
 4102SOL    HW113205   1.503   6.022   0.499
 4102SOL    HW213206   1.430   6.157   0.554
 4103SOL     OW13207   1.971   6.978   3.498
 4103SOL    HW113208   2.001   6.899   3.445
 4103SOL    HW213209   1.871   6.974   3.510
 4104SOL     OW13210   2.133   6.049   5.517
 4104SOL    HW113211   2.042   6.086   5.498
 4104SOL    HW213212   2.190   6.058   5.436
 4105SOL     OW13213   4.000   0.274   2.292
 4105SOL    HW113214   4.090   0.292   2.332
 4105SOL    HW213215   4.010   0.252   2.195
 4106SOL     OW13216   1.537   1.050   2.726
 4106SOL    HW113217   1.533   0.995   2.642
 4106SOL    HW213218   1.481   1.007   2.796
 4107SOL     OW13219   1.619   0.624   1.367
 4107SOL    HW113220   1.628   0.532   1.327
 4107SOL    HW213221   1.522   0.646   1.377
 4108SOL     OW13222   6.131   6.165   6.014
 4108SOL    HW113223   6.087   6.138   6.100
 4108SOL    HW213224   6.061   6.185   5.946
 4109SOL     OW13225   5.428   6.086   3.673
 4109SOL    HW113226   5.499   6.091   3.744
 4109SOL    HW213227   5.457   6.023   3.601
 4110SOL     OW13228   5.185   2.924   0.757
 4110SOL    HW113229   5.242   2.884   0.685
 4110SOL    HW213230   5.244   2.970   0.824
 4111SOL     OW13231   6.037   4.311   4.011
 4111SOL    HW113232   6.118   4.312   3.953
 4111SOL    HW213233   6.011   4.216   4.031
 4112SOL     OW13234   3.899   6.087   4.284
 4112SOL    HW113235   3.837   6.163   4.303
 4112SOL    HW213236   3.908   6.075   4.185
 4113SOL     OW13237   4.463   5.301   4.790
 4113SOL    HW113238   4.525   5.230   4.824
 4113SOL    HW213239   4.426   5.272   4.701
 4114SOL     OW13240   0.073   0.982   1.676
 4114SOL    HW113241   0.030   0.998   1.587
 4114SOL    HW213242   0.042   0.895   1.713
 4115SOL     OW13243   4.481   5.842   3.458
 4115SOL    HW113244   4.537   5.794   3.390
 4115SOL    HW213245   4.489   5.941   3.445
 4116SOL     OW13246   4.836   3.785   2.699
 4116SOL    HW113247   4.899   3.707   2.692
 4116SOL    HW213248   4.831   3.832   2.611
 4117SOL     OW13249   1.233   1.519   3.765
 4117SOL    HW113250   1.156   1.583   3.764
 4117SOL    HW213251   1.226   1.458   3.686
 4118SOL     OW13252   0.822   6.910   0.402
 4118SOL    HW113253   0.878   6.828   0.413
 4118SOL    HW213254   0.881   6.991   0.406
 4119SOL     OW13255   0.423   0.748   4.468
 4119SOL    HW113256   0.457   0.661   4.433
 4119SOL    HW213257   0.498   0.800   4.509
 4120SOL     OW13258   2.632   1.063   6.632
 4120SOL    HW113259   2.543   1.108   6.627
 4120SOL    HW213260   2.620   0.965   6.616
 4121SOL     OW13261   6.615   0.313   2.279
 4121SOL    HW113262   6.707   0.351   2.267
 4121SOL    HW213263   6.582   0.277   2.192
 4122SOL     OW13264   0.805   4.139   3.048
 4122SOL    HW113265   0.866   4.198   2.995
 4122SOL    HW213266   0.710   4.155   3.019
 4123SOL     OW13267   5.292   4.729   1.078
 4123SOL    HW113268   5.249   4.665   1.142
 4123SOL    HW213269   5.335   4.803   1.128
 4124SOL     OW13270   6.673   6.016   0.073
 4124SOL    HW113271   6.645   6.112   0.065
 4124SOL    HW213272   6.604   5.958   0.030
 4125SOL     OW13273   6.198   2.772   0.342
 4125SOL    HW113274   6.235   2.847   0.287
 4125SOL    HW213275   6.252   2.689   0.325
 4126SOL     OW13276   0.966   3.369   3.472
 4126SOL    HW113277   1.000   3.425   3.397
 4126SOL    HW213278   0.914   3.427   3.536
 4127SOL     OW13279   4.693   2.766   3.940
 4127SOL    HW113280   4.732   2.857   3.951
 4127SOL    HW213281   4.673   2.728   4.031
 4128SOL     OW13282   6.908   2.886   6.730
 4128SOL    HW113283   6.969   2.963   6.751
 4128SOL    HW213284   6.823   2.921   6.690
 4129SOL     OW13285   3.098   1.712   1.004
 4129SOL    HW113286   3.170   1.663   0.954
 4129SOL    HW213287   3.098   1.681   1.099
 4130SOL     OW13288   6.259   2.986   0.722
 4130SOL    HW113289   6.178   3.016   0.773
 4130SOL    HW213290   6.254   2.888   0.705
 4131SOL     OW13291   5.367   6.622   3.160
 4131SOL    HW113292   5.457   6.584   3.179
 4131SOL    HW213293   5.371   6.677   3.076
 4132SOL     OW13294   6.457   5.084   3.310
 4132SOL    HW113295   6.542   5.080   3.362
 4132SOL    HW213296   6.404   5.164   3.338
 4133SOL     OW13297   5.808   0.092   2.749
 4133SOL    HW113298   5.855   0.058   2.830
 4133SOL    HW213299   5.813   0.192   2.746
 4134SOL     OW13300   1.542   3.968   1.000
 4134SOL    HW113301   1.628   3.930   0.966
 4134SOL    HW213302   1.494   4.013   0.925
 4135SOL     OW13303   6.394   0.921   1.651
 4135SOL    HW113304   6.450   0.963   1.722
 4135SOL    HW213305   6.453   0.885   1.579
 4136SOL     OW13306   0.773   5.040   1.062
 4136SOL    HW113307   0.685   4.994   1.051
 4136SOL    HW213308   0.775   5.123   1.007
 4137SOL     OW13309   0.704   2.438   6.787
 4137SOL    HW113310   0.769   2.425   6.712
 4137SOL    HW213311   0.626   2.377   6.774
 4138SOL     OW13312   4.672   0.431   6.761
 4138SOL    HW113313   4.609   0.499   6.800
 4138SOL    HW213314   4.766   0.453   6.787
 4139SOL     OW13315   2.131   4.005   2.953
 4139SOL    HW113316   2.159   3.915   2.920
 4139SOL    HW213317   2.103   4.062   2.875
 4140SOL     OW13318   2.273   0.466   6.592
 4140SOL    HW113319   2.357   0.421   6.622
 4140SOL    HW213320   2.209   0.397   6.557
 4141SOL     OW13321   5.539   0.890   6.083
 4141SOL    HW113322   5.634   0.908   6.061
 4141SOL    HW213323   5.483   0.905   6.001
 4142SOL     OW13324   6.522   5.336   2.697
 4142SOL    HW113325   6.519   5.342   2.797
 4142SOL    HW213326   6.436   5.370   2.659
 4143SOL     OW13327   6.618   3.362   6.612
 4143SOL    HW113328   6.649   3.437   6.553
 4143SOL    HW213329   6.568   3.295   6.558
 4144SOL     OW13330   5.422   1.686   1.489
 4144SOL    HW113331   5.406   1.588   1.483
 4144SOL    HW213332   5.336   1.735   1.473
 4145SOL     OW13333   0.082   0.586   1.730
 4145SOL    HW113334   0.013   0.543   1.789
 4145SOL    HW213335   0.173   0.562   1.762
 4146SOL     OW13336   5.017   6.438   1.750
 4146SOL    HW113337   5.055   6.510   1.693
 4146SOL    HW213338   5.014   6.468   1.846
 4147SOL     OW13339   4.553   4.958   6.481
 4147SOL    HW113340   4.577   5.025   6.411
 4147SOL    HW213341   4.507   5.004   6.557
 4148SOL     OW13342   3.064   1.228   4.751
 4148SOL    HW113343   3.017   1.141   4.770
 4148SOL    HW213344   3.050   1.253   4.655
 4149SOL     OW13345   1.236   3.866   6.449
 4149SOL    HW113346   1.255   3.860   6.351
 4149SOL    HW213347   1.216   3.962   6.473
 4150SOL     OW13348   5.353   1.548   0.107
 4150SOL    HW113349   5.426   1.509   0.051
 4150SOL    HW213350   5.265   1.516   0.073
 4151SOL     OW13351   2.562   5.758   4.601
 4151SOL    HW113352   2.612   5.786   4.682
 4151SOL    HW213353   2.502   5.833   4.571
 4152SOL     OW13354   2.353   4.422   1.403
 4152SOL    HW113355   2.281   4.362   1.437
 4152SOL    HW213356   2.328   4.457   1.313
 4153SOL     OW13357   6.590   5.950   1.758
 4153SOL    HW113358   6.641   5.978   1.676
 4153SOL    HW213359   6.644   5.971   1.839
 4154SOL     OW13360   0.801   6.429   4.294
 4154SOL    HW113361   0.776   6.507   4.352
 4154SOL    HW213362   0.799   6.456   4.198
 4155SOL     OW13363   0.334   0.587   1.872
 4155SOL    HW113364   0.307   0.557   1.963
 4155SOL    HW213365   0.419   0.542   1.845
 4156SOL     OW13366   0.597   4.969   5.926
 4156SOL    HW113367   0.561   4.883   5.961
 4156SOL    HW213368   0.537   5.044   5.953
 4157SOL     OW13369   5.618   5.675   1.130
 4157SOL    HW113370   5.593   5.581   1.107
 4157SOL    HW213371   5.535   5.729   1.144
 4158SOL     OW13372   0.768   3.261   1.409
 4158SOL    HW113373   0.803   3.192   1.472
 4158SOL    HW213374   0.835   3.336   1.401
 4159SOL     OW13375   2.577   0.458   4.643
 4159SOL    HW113376   2.525   0.502   4.570
 4159SOL    HW213377   2.621   0.528   4.700
 4160SOL     OW13378   0.729   6.982   6.551
 4160SOL    HW113379   0.713   0.051   6.591
 4160SOL    HW213380   0.826   6.969   6.534
 4161SOL     OW13381   3.602   3.481   2.797
 4161SOL    HW113382   3.684   3.526   2.831
 4161SOL    HW213383   3.542   3.458   2.874
 4162SOL     OW13384   5.239   5.518   1.425
 4162SOL    HW113385   5.319   5.570   1.393
 4162SOL    HW213386   5.233   5.432   1.374
 4163SOL     OW13387   3.538   5.848   1.999
 4163SOL    HW113388   3.511   5.943   1.991
 4163SOL    HW213389   3.458   5.791   2.014
 4164SOL     OW13390   7.016   1.016   6.325
 4164SOL    HW113391   0.018   0.943   6.389
 4164SOL    HW213392   0.067   1.025   6.256
 4165SOL     OW13393   4.173   0.908   4.431
 4165SOL    HW113394   4.101   0.872   4.371
 4165SOL    HW213395   4.133   0.972   4.497
 4166SOL     OW13396   5.625   2.311   1.291
 4166SOL    HW113397   5.676   2.234   1.327
 4166SOL    HW213398   5.545   2.329   1.349
 4167SOL     OW13399   3.562   5.340   4.423
 4167SOL    HW113400   3.468   5.373   4.433
 4167SOL    HW213401   3.594   5.301   4.509
 4168SOL     OW13402   5.063   3.830   0.140
 4168SOL    HW113403   5.021   3.809   0.228
 4168SOL    HW213404   5.137   3.766   0.121
 4169SOL     OW13405   5.362   2.765   5.947
 4169SOL    HW113406   5.392   2.729   5.859
 4169SOL    HW213407   5.262   2.759   5.954
 4170SOL     OW13408   0.618   2.138   4.414
 4170SOL    HW113409   0.652   2.223   4.455
 4170SOL    HW213410   0.612   2.067   4.484
 4171SOL     OW13411   0.878   1.402   0.022
 4171SOL    HW113412   0.953   1.340   0.044
 4171SOL    HW213413   0.820   1.414   0.102
 4172SOL     OW13414   2.761   3.474   0.661
 4172SOL    HW113415   2.821   3.497   0.738
 4172SOL    HW213416   2.679   3.531   0.666
 4173SOL     OW13417   5.092   1.989   6.450
 4173SOL    HW113418   5.037   2.051   6.506
 4173SOL    HW213419   5.113   1.907   6.502
 4174SOL     OW13420   4.170   6.996   4.772
 4174SOL    HW113421   4.146   0.051   4.833
 4174SOL    HW213422   4.248   0.002   4.716
 4175SOL     OW13423   0.825   4.494   6.349
 4175SOL    HW113424   0.806   4.518   6.444
 4175SOL    HW213425   0.754   4.431   6.316
 4176SOL     OW13426   5.759   6.709   6.459
 4176SOL    HW113427   5.856   6.694   6.441
 4176SOL    HW213428   5.747   6.743   6.553
 4177SOL     OW13429   3.981   4.834   2.931
 4177SOL    HW113430   4.075   4.807   2.910
 4177SOL    HW213431   3.923   4.817   2.852
 4178SOL     OW13432   4.094   6.213   1.624
 4178SOL    HW113433   4.015   6.170   1.667
 4178SOL    HW213434   4.064   6.266   1.545
 4179SOL     OW13435   4.892   3.029   6.514
 4179SOL    HW113436   4.958   2.991   6.450
 4179SOL    HW213437   4.930   3.027   6.606
 4180SOL     OW13438   4.078   3.447   0.925
 4180SOL    HW113439   4.098   3.493   0.838
 4180SOL    HW213440   4.051   3.515   0.993
 4181SOL     OW13441   5.102   7.011   5.670
 4181SOL    HW113442   5.092   0.034   5.759
 4181SOL    HW213443   5.021   0.010   5.614
 4182SOL     OW13444   0.702   6.477   4.768
 4182SOL    HW113445   0.756   6.530   4.834
 4182SOL    HW213446   0.610   6.516   4.760
 4183SOL     OW13447   4.240   2.180   0.894
 4183SOL    HW113448   4.172   2.254   0.904
 4183SOL    HW213449   4.217   2.125   0.814
 4184SOL     OW13450   3.726   5.636   3.842
 4184SOL    HW113451   3.750   5.695   3.919
 4184SOL    HW213452   3.662   5.566   3.872
 4185SOL     OW13453   4.889   3.375   3.500
 4185SOL    HW113454   4.879   3.282   3.466
 4185SOL    HW213455   4.851   3.382   3.592
 4186SOL     OW13456   1.559   5.946   0.276
 4186SOL    HW113457   1.631   6.009   0.249
 4186SOL    HW213458   1.543   5.879   0.204
 4187SOL     OW13459   1.466   3.326   6.760
 4187SOL    HW113460   1.502   3.419   6.756
 4187SOL    HW213461   1.421   3.304   6.674
 4188SOL     OW13462   4.601   0.240   7.011
 4188SOL    HW113463   4.606   0.250   0.089
 4188SOL    HW213464   4.667   0.302   6.968
 4189SOL     OW13465   4.468   5.006   3.623
 4189SOL    HW113466   4.462   4.983   3.720
 4189SOL    HW213467   4.438   5.100   3.609
 4190SOL     OW13468   6.525   5.836   1.170
 4190SOL    HW113469   6.624   5.832   1.184
 4190SOL    HW213470   6.480   5.855   1.257
 4191SOL     OW13471   4.404   3.759   6.591
 4191SOL    HW113472   4.444   3.755   6.499
 4191SOL    HW213473   4.433   3.678   6.643
 4192SOL     OW13474   1.444   3.331   0.019
 4192SOL    HW113475   1.463   3.331   6.942
 4192SOL    HW213476   1.394   3.248   0.044
 4193SOL     OW13477   0.272   0.576   0.362
 4193SOL    HW113478   0.236   0.663   0.326
 4193SOL    HW213479   0.358   0.554   0.316
 4194SOL     OW13480   5.065   1.744   5.940
 4194SOL    HW113481   5.028   1.820   5.886
 4194SOL    HW213482   5.019   1.742   6.029
 4195SOL     OW13483   3.739   6.813   0.567
 4195SOL    HW113484   3.668   6.748   0.595
 4195SOL    HW213485   3.729   6.897   0.619
 4196SOL     OW13486   6.131   2.915   2.420
 4196SOL    HW113487   6.080   2.959   2.493
 4196SOL    HW213488   6.228   2.914   2.442
 4197SOL     OW13489   4.138   1.233   6.669
 4197SOL    HW113490   4.072   1.197   6.603
 4197SOL    HW213491   4.229   1.195   6.649
 4198SOL     OW13492   6.244   2.122   2.274
 4198SOL    HW113493   6.205   2.074   2.352
 4198SOL    HW213494   6.175   2.181   2.233
 4199SOL     OW13495   0.214   4.144   6.352
 4199SOL    HW113496   0.237   4.068   6.412
 4199SOL    HW213497   0.157   4.209   6.401
 4200SOL     OW13498   4.405   1.408   3.810
 4200SOL    HW113499   4.474   1.351   3.764
 4200SOL    HW213500   4.348   1.454   3.742
 4201SOL     OW13501   5.926   6.685   3.919
 4201SOL    HW113502   5.917   6.776   3.878
 4201SOL    HW213503   5.913   6.616   3.848
 4202SOL     OW13504   4.851   4.131   1.390
 4202SOL    HW113505   4.885   4.200   1.326
 4202SOL    HW213506   4.918   4.119   1.464
 4203SOL     OW13507   6.506   4.180   5.052
 4203SOL    HW113508   6.555   4.107   5.100
 4203SOL    HW213509   6.413   4.186   5.087
 4204SOL     OW13510   1.878   3.679   6.551
 4204SOL    HW113511   1.805   3.621   6.587
 4204SOL    HW213512   1.861   3.697   6.454
 4205SOL     OW13513   4.479   6.701   6.299
 4205SOL    HW113514   4.551   6.633   6.286
 4205SOL    HW213515   4.519   6.787   6.331
 4206SOL     OW13516   2.233   1.982   4.643
 4206SOL    HW113517   2.142   1.999   4.605
 4206SOL    HW213518   2.245   1.884   4.659
 4207SOL     OW13519   0.568   1.565   2.145
 4207SOL    HW113520   0.554   1.556   2.046
 4207SOL    HW213521   0.582   1.475   2.186
 4208SOL     OW13522   2.048   2.619   3.641
 4208SOL    HW113523   1.976   2.658   3.699
 4208SOL    HW213524   2.018   2.621   3.546
 4209SOL     OW13525   6.393   6.499   2.017
 4209SOL    HW113526   6.336   6.567   2.063
 4209SOL    HW213527   6.387   6.412   2.066
 4210SOL     OW13528   3.451   4.192   4.643
 4210SOL    HW113529   3.486   4.154   4.557
 4210SOL    HW213530   3.420   4.286   4.628
 4211SOL     OW13531   3.926   2.617   5.361
 4211SOL    HW113532   3.999   2.592   5.297
 4211SOL    HW213533   3.965   2.628   5.452
 4212SOL     OW13534   6.683   1.905   3.220
 4212SOL    HW113535   6.596   1.922   3.266
 4212SOL    HW213536   6.685   1.954   3.133
 4213SOL     OW13537   3.058   0.839   4.370
 4213SOL    HW113538   3.017   0.750   4.391
 4213SOL    HW213539   3.058   0.896   4.452
 4214SOL     OW13540   6.795   6.471   2.984
 4214SOL    HW113541   6.829   6.565   2.990
 4214SOL    HW213542   6.862   6.410   3.026
 4215SOL     OW13543   5.308   6.836   5.642
 4215SOL    HW113544   5.240   6.902   5.674
 4215SOL    HW213545   5.374   6.819   5.715
 4216SOL     OW13546   2.173   5.679   1.970
 4216SOL    HW113547   2.122   5.605   1.927
 4216SOL    HW213548   2.152   5.765   1.923
 4217SOL     OW13549   1.142   0.883   3.325
 4217SOL    HW113550   1.218   0.862   3.386
 4217SOL    HW213551   1.145   0.980   3.301
 4218SOL     OW13552   3.441   1.247   0.492
 4218SOL    HW113553   3.377   1.187   0.539
 4218SOL    HW213554   3.419   1.342   0.512
 4219SOL     OW13555   4.504   5.510   2.463
 4219SOL    HW113556   4.477   5.416   2.444
 4219SOL    HW213557   4.432   5.572   2.432
 4220SOL     OW13558   5.654   1.363   1.609
 4220SOL    HW113559   5.699   1.436   1.557
 4220SOL    HW213560   5.724   1.310   1.657
 4221SOL     OW13561   1.462   6.458   0.660
 4221SOL    HW113562   1.431   6.505   0.743
 4221SOL    HW213563   1.561   6.469   0.650
 4222SOL     OW13564   5.274   2.856   4.114
 4222SOL    HW113565   5.285   2.934   4.176
 4222SOL    HW213566   5.177   2.843   4.094
 4223SOL     OW13567   4.011   3.549   2.217
 4223SOL    HW113568   4.039   3.509   2.304
 4223SOL    HW213569   3.911   3.549   2.211
 4224SOL     OW13570   4.859   4.968   4.500
 4224SOL    HW113571   4.891   4.925   4.415
 4224SOL    HW213572   4.822   5.059   4.479
 4225SOL     OW13573   0.765   2.086   5.913
 4225SOL    HW113574   0.775   1.990   5.885
 4225SOL    HW213575   0.760   2.144   5.832
 4226SOL     OW13576   0.518   6.097   4.590
 4226SOL    HW113577   0.506   5.997   4.586
 4226SOL    HW213578   0.429   6.141   4.583
 4227SOL     OW13579   4.302   5.371   2.185
 4227SOL    HW113580   4.219   5.422   2.162
 4227SOL    HW213581   4.375   5.397   2.120
 4228SOL     OW13582   1.185   5.494   3.831
 4228SOL    HW113583   1.221   5.545   3.753
 4228SOL    HW213584   1.156   5.559   3.902
 4229SOL     OW13585   6.919   4.995   5.779
 4229SOL    HW113586   6.937   4.955   5.869
 4229SOL    HW213587   6.824   5.026   5.774
 4230SOL     OW13588   6.842   0.835   2.222
 4230SOL    HW113589   6.831   0.892   2.140
 4230SOL    HW213590   6.755   0.830   2.270
 4231SOL     OW13591   6.577   1.298   6.333
 4231SOL    HW113592   6.661   1.247   6.348
 4231SOL    HW213593   6.530   1.261   6.252
 4232SOL     OW13594   1.633   5.424   3.904
 4232SOL    HW113595   1.573   5.504   3.893
 4232SOL    HW213596   1.687   5.411   3.821
 4233SOL     OW13597   3.942   5.247   2.316
 4233SOL    HW113598   3.847   5.221   2.332
 4233SOL    HW213599   3.994   5.166   2.289
 4234SOL     OW13600   3.226   5.144   6.045
 4234SOL    HW113601   3.308   5.108   6.089
 4234SOL    HW213602   3.176   5.069   6.001
 4235SOL     OW13603   6.864   6.037   5.676
 4235SOL    HW113604   6.954   6.003   5.652
 4235SOL    HW213605   6.858   6.049   5.775
 4236SOL     OW13606   0.709   5.100   2.696
 4236SOL    HW113607   0.618   5.064   2.673
 4236SOL    HW213608   0.699   5.180   2.755
 4237SOL     OW13609   0.089   4.744   4.035
 4237SOL    HW113610   0.114   4.669   4.096
 4237SOL    HW213611   0.171   4.795   4.009
 4238SOL     OW13612   2.932   6.513   3.033
 4238SOL    HW113613   2.956   6.416   3.034
 4238SOL    HW213614   2.833   6.523   3.031
 4239SOL     OW13615   4.192   1.038   3.734
 4239SOL    HW113616   4.158   1.110   3.794
 4239SOL    HW213617   4.166   1.058   3.639
 4240SOL     OW13618   6.548   6.821   2.338
 4240SOL    HW113619   6.511   6.809   2.246
 4240SOL    HW213620   6.501   6.759   2.401
 4241SOL     OW13621   6.292   3.681   0.666
 4241SOL    HW113622   6.244   3.718   0.586
 4241SOL    HW213623   6.358   3.612   0.636
 4242SOL     OW13624   2.862   1.568   3.508
 4242SOL    HW113625   2.794   1.633   3.474
 4242SOL    HW213626   2.818   1.481   3.530
 4243SOL     OW13627   4.886   0.661   2.974
 4243SOL    HW113628   4.916   0.755   2.994
 4243SOL    HW213629   4.798   0.663   2.928
 4244SOL     OW13630   3.597   3.264   3.657
 4244SOL    HW113631   3.552   3.307   3.578
 4244SOL    HW213632   3.654   3.188   3.627
 4245SOL     OW13633   6.253   1.395   6.602
 4245SOL    HW113634   6.323   1.330   6.632
 4245SOL    HW213635   6.192   1.350   6.536
 4246SOL     OW13636   0.366   3.255   0.473
 4246SOL    HW113637   0.308   3.304   0.409
 4246SOL    HW213638   0.311   3.221   0.549
 4247SOL     OW13639   0.092   5.901   5.621
 4247SOL    HW113640   0.163   5.925   5.688
 4247SOL    HW213641   0.130   5.905   5.529
 4248SOL     OW13642   1.375   2.886   4.966
 4248SOL    HW113643   1.356   2.794   4.933
 4248SOL    HW213644   1.308   2.911   5.035
 4249SOL     OW13645   5.678   4.157   6.057
 4249SOL    HW113646   5.681   4.211   6.141
 4249SOL    HW213647   5.754   4.184   5.997
 4250SOL     OW13648   0.546   4.326   3.004
 4250SOL    HW113649   0.631   4.337   2.952
 4250SOL    HW213650   0.526   4.411   3.053
 4251SOL     OW13651   5.743   3.875   0.529
 4251SOL    HW113652   5.698   3.964   0.536
 4251SOL    HW213653   5.835   3.881   0.567
 4252SOL     OW13654   0.530   5.965   5.599
 4252SOL    HW113655   0.469   5.887   5.606
 4252SOL    HW213656   0.504   6.022   5.521
 4253SOL     OW13657   4.009   6.065   2.658
 4253SOL    HW113658   3.910   6.068   2.672
 4253SOL    HW213659   4.048   5.991   2.712
 4254SOL     OW13660   2.689   4.284   0.990
 4254SOL    HW113661   2.714   4.234   1.073
 4254SOL    HW213662   2.765   4.341   0.961
 4255SOL     OW13663   6.893   2.078   4.537
 4255SOL    HW113664   6.932   2.112   4.452
 4255SOL    HW213665   6.862   1.984   4.524
 4256SOL     OW13666   1.754   1.051   2.150
 4256SOL    HW113667   1.718   1.037   2.058
 4256SOL    HW213668   1.839   1.103   2.145
 4257SOL     OW13669   4.092   2.219   4.461
 4257SOL    HW113670   4.119   2.265   4.546
 4257SOL    HW213671   3.993   2.205   4.461
 4258SOL     OW13672   5.624   6.527   2.610
 4258SOL    HW113673   5.678   6.527   2.526
 4258SOL    HW213674   5.537   6.574   2.594
 4259SOL     OW13675   1.943   3.082   0.395
 4259SOL    HW113676   1.908   3.068   0.302
 4259SOL    HW213677   1.894   3.022   0.458
 4260SOL     OW13678   4.900   5.615   3.453
 4260SOL    HW113679   4.912   5.713   3.441
 4260SOL    HW213680   4.990   5.572   3.468
 4261SOL     OW13681   2.289   1.048   2.881
 4261SOL    HW113682   2.279   1.147   2.879
 4261SOL    HW213683   2.203   1.006   2.910
 4262SOL     OW13684   0.359   5.919   6.513
 4262SOL    HW113685   0.394   6.010   6.535
 4262SOL    HW213686   0.418   5.850   6.556
 4263SOL     OW13687   3.193   5.446   5.943
 4263SOL    HW113688   3.141   5.381   5.887
 4263SOL    HW213689   3.229   5.399   6.023
 4264SOL     OW13690   6.889   0.197   0.639
 4264SOL    HW113691   6.805   0.251   0.632
 4264SOL    HW213692   6.968   0.257   0.630
 4265SOL     OW13693   6.841   2.476   0.883
 4265SOL    HW113694   6.878   2.549   0.940
 4265SOL    HW213695   6.765   2.512   0.829
 4266SOL     OW13696   3.033   4.554   0.566
 4266SOL    HW113697   2.933   4.556   0.566
 4266SOL    HW213698   3.065   4.505   0.647
 4267SOL     OW13699   1.948   4.008   5.620
 4267SOL    HW113700   1.963   4.021   5.522
 4267SOL    HW213701   1.999   4.076   5.671
 4268SOL     OW13702   1.547   1.361   1.114
 4268SOL    HW113703   1.504   1.291   1.057
 4268SOL    HW213704   1.617   1.319   1.172
 4269SOL     OW13705   3.304   3.415   0.316
 4269SOL    HW113706   3.229   3.459   0.266
 4269SOL    HW213707   3.269   3.335   0.365
 4270SOL     OW13708   3.283   2.720   5.215
 4270SOL    HW113709   3.338   2.744   5.295
 4270SOL    HW213710   3.254   2.625   5.221
 4271SOL     OW13711   1.274   6.998   0.327
 4271SOL    HW113712   1.328   0.028   0.394
 4271SOL    HW213713   1.179   6.996   0.356
 4272SOL     OW13714   6.826   4.590   4.083
 4272SOL    HW113715   6.914   4.556   4.116
 4272SOL    HW213716   6.836   4.626   3.991
 4273SOL     OW13717   5.964   6.355   5.235
 4273SOL    HW113718   6.058   6.322   5.243
 4273SOL    HW213719   5.963   6.455   5.239
 4274SOL     OW13720   2.055   0.240   4.050
 4274SOL    HW113721   2.039   0.270   4.144
 4274SOL    HW213722   2.105   0.311   4.001
 4275SOL     OW13723   1.019   6.931   6.596
 4275SOL    HW113724   1.072   6.969   6.521
 4275SOL    HW213725   1.031   6.988   6.678
 4276SOL     OW13726   2.053   4.314   2.194
 4276SOL    HW113727   2.024   4.374   2.270
 4276SOL    HW213728   1.976   4.257   2.166
 4277SOL     OW13729   0.417   5.405   3.711
 4277SOL    HW113730   0.465   5.407   3.798
 4277SOL    HW213731   0.482   5.387   3.637
 4278SOL     OW13732   0.514   6.520   5.435
 4278SOL    HW113733   0.506   6.620   5.438
 4278SOL    HW213734   0.595   6.492   5.487
 4279SOL     OW13735   3.486   5.668   4.140
 4279SOL    HW113736   3.493   5.659   4.240
 4279SOL    HW213737   3.515   5.583   4.097
 4280SOL     OW13738   4.970   3.436   4.023
 4280SOL    HW113739   5.065   3.408   4.038
 4280SOL    HW213740   4.911   3.390   4.089
 4281SOL     OW13741   2.206   4.158   5.261
 4281SOL    HW113742   2.258   4.089   5.211
 4281SOL    HW213743   2.267   4.211   5.319
 4282SOL     OW13744   1.499   2.467   1.229
 4282SOL    HW113745   1.525   2.501   1.320
 4282SOL    HW213746   1.402   2.442   1.229
 4283SOL     OW13747   1.678   0.245   4.638
 4283SOL    HW113748   1.715   0.230   4.729
 4283SOL    HW213749   1.586   0.205   4.632
 4284SOL     OW13750   6.172   1.925   2.771
 4284SOL    HW113751   6.258   1.970   2.744
 4284SOL    HW213752   6.158   1.843   2.715
 4285SOL     OW13753   1.219   5.972   6.357
 4285SOL    HW113754   1.292   5.917   6.315
 4285SOL    HW213755   1.131   5.924   6.345
 4286SOL     OW13756   5.770   5.287   0.149
 4286SOL    HW113757   5.825   5.332   0.219
 4286SOL    HW213758   5.707   5.353   0.109
 4287SOL     OW13759   4.940   6.652   4.813
 4287SOL    HW113760   4.956   6.565   4.860
 4287SOL    HW213761   4.886   6.634   4.730
 4288SOL     OW13762   1.385   6.841   2.921
 4288SOL    HW113763   1.481   6.869   2.930
 4288SOL    HW213764   1.326   6.920   2.931
 4289SOL     OW13765   5.723   3.448   1.085
 4289SOL    HW113766   5.734   3.405   0.995
 4289SOL    HW213767   5.628   3.477   1.096
 4290SOL     OW13768   2.370   0.890   1.590
 4290SOL    HW113769   2.425   0.938   1.659
 4290SOL    HW213770   2.303   0.831   1.636
 4291SOL     OW13771   6.440   4.492   1.179
 4291SOL    HW113772   6.535   4.504   1.206
 4291SOL    HW213773   6.435   4.436   1.096
 4292SOL     OW13774   6.274   5.451   6.796
 4292SOL    HW113775   6.188   5.473   6.841
 4292SOL    HW213776   6.288   5.512   6.718
 4293SOL     OW13777   0.062   2.621   0.251
 4293SOL    HW113778   0.134   2.553   0.260
 4293SOL    HW213779   0.079   2.698   0.313
 4294SOL     OW13780   4.983   2.204   5.803
 4294SOL    HW113781   5.051   2.277   5.810
 4294SOL    HW213782   4.918   2.225   5.730
 4295SOL     OW13783   3.942   6.540   4.762
 4295SOL    HW113784   3.972   6.475   4.692
 4295SOL    HW213785   3.943   6.633   4.724
 4296SOL     OW13786   2.353   1.764   0.636
 4296SOL    HW113787   2.425   1.722   0.691
 4296SOL    HW213788   2.265   1.721   0.657
 4297SOL     OW13789   5.887   0.622   5.790
 4297SOL    HW113790   5.796   0.664   5.788
 4297SOL    HW213791   5.911   0.599   5.885
 4298SOL     OW13792   3.037   5.575   0.735
 4298SOL    HW113793   3.069   5.665   0.763
 4298SOL    HW213794   3.079   5.505   0.793
 4299SOL     OW13795   0.542   3.980   6.366
 4299SOL    HW113796   0.460   3.943   6.411
 4299SOL    HW213797   0.562   3.927   6.284
 4300SOL     OW13798   5.643   0.640   0.221
 4300SOL    HW113799   5.620   0.716   0.161
 4300SOL    HW213800   5.681   0.565   0.167
 4301SOL     OW13801   3.216   1.367   0.187
 4301SOL    HW113802   3.215   1.467   0.177
 4301SOL    HW213803   3.122   1.334   0.196
 4302SOL     OW13804   0.820   6.295   6.647
 4302SOL    HW113805   0.887   6.296   6.721
 4302SOL    HW213806   0.763   6.212   6.654
 4303SOL     OW13807   6.901   2.964   1.848
 4303SOL    HW113808   6.926   2.996   1.940
 4303SOL    HW213809   6.898   2.864   1.848
 4304SOL     OW13810   3.280   2.983   3.935
 4304SOL    HW113811   3.237   2.948   4.018
 4304SOL    HW213812   3.217   3.045   3.888
 4305SOL     OW13813   6.091   1.871   3.804
 4305SOL    HW113814   6.053   1.784   3.834
 4305SOL    HW213815   6.149   1.909   3.876
 4306SOL     OW13816   6.455   5.423   5.726
 4306SOL    HW113817   6.421   5.371   5.648
 4306SOL    HW213818   6.405   5.509   5.734
 4307SOL     OW13819   5.179   3.470   6.188
 4307SOL    HW113820   5.236   3.538   6.232
 4307SOL    HW213821   5.225   3.435   6.106
 4308SOL     OW13822   5.384   6.346   4.742
 4308SOL    HW113823   5.475   6.305   4.734
 4308SOL    HW213824   5.393   6.440   4.775
 4309SOL     OW13825   1.890   1.332   0.773
 4309SOL    HW113826   1.904   1.253   0.832
 4309SOL    HW213827   1.823   1.393   0.814
 4310SOL     OW13828   1.218   0.579   2.646
 4310SOL    HW113829   1.299   0.525   2.669
 4310SOL    HW213830   1.161   0.527   2.582
 4311SOL     OW13831   1.739   6.594   3.639
 4311SOL    HW113832   1.823   6.583   3.691
 4311SOL    HW213833   1.663   6.552   3.689
 4312SOL     OW13834   2.419   5.109   1.765
 4312SOL    HW113835   2.481   5.162   1.823
 4312SOL    HW213836   2.455   5.105   1.672
 4313SOL     OW13837   4.573   0.556   2.523
 4313SOL    HW113838   4.638   0.521   2.590
 4313SOL    HW213839   4.586   0.655   2.513
 4314SOL     OW13840   4.883   2.915   2.843
 4314SOL    HW113841   4.837   2.992   2.887
 4314SOL    HW213842   4.969   2.896   2.890
 4315SOL     OW13843   2.537   1.685   1.893
 4315SOL    HW113844   2.520   1.781   1.873
 4315SOL    HW213845   2.450   1.637   1.903
 4316SOL     OW13846   6.677   0.010   2.554
 4316SOL    HW113847   6.578   0.023   2.554
 4316SOL    HW213848   6.708   7.004   2.463
 4317SOL     OW13849   4.166   1.341   3.100
 4317SOL    HW113850   4.152   1.242   3.102
 4317SOL    HW213851   4.082   1.387   3.130
 4318SOL     OW13852   0.216   2.343   4.028
 4318SOL    HW113853   0.208   2.442   4.018
 4318SOL    HW213854   0.223   2.301   3.937
 4319SOL     OW13855   2.425   3.475   5.854
 4319SOL    HW113856   2.436   3.393   5.798
 4319SOL    HW213857   2.382   3.450   5.941
 4320SOL     OW13858   0.002   5.811   2.679
 4320SOL    HW113859   0.061   5.850   2.751
 4320SOL    HW213860   0.037   5.721   2.653
 4321SOL     OW13861   0.973   0.246   5.528
 4321SOL    HW113862   1.054   0.206   5.571
 4321SOL    HW213863   0.960   0.206   5.438
 4322SOL     OW13864   6.185   0.568   0.521
 4322SOL    HW113865   6.096   0.538   0.486
 4322SOL    HW213866   6.177   0.661   0.557
 4323SOL     OW13867   6.955   2.385   3.708
 4323SOL    HW113868   6.904   2.348   3.785
 4323SOL    HW213869   6.924   2.478   3.688
 4324SOL     OW13870   5.895   4.266   5.878
 4324SOL    HW113871   5.871   4.249   5.783
 4324SOL    HW213872   5.988   4.233   5.896
 4325SOL     OW13873   2.188   1.848   6.515
 4325SOL    HW113874   2.224   1.921   6.573
 4325SOL    HW213875   2.174   1.765   6.569
 4326SOL     OW13876   6.327   2.191   5.529
 4326SOL    HW113877   6.264   2.256   5.487
 4326SOL    HW213878   6.348   2.118   5.463
 4327SOL     OW13879   5.894   6.796   2.723
 4327SOL    HW113880   5.908   6.894   2.741
 4327SOL    HW213881   5.876   6.782   2.625
 4328SOL     OW13882   5.286   5.000   0.429
 4328SOL    HW113883   5.298   5.091   0.391
 4328SOL    HW213884   5.215   5.002   0.500
 4329SOL     OW13885   3.367   1.646   5.825
 4329SOL    HW113886   3.363   1.717   5.896
 4329SOL    HW213887   3.462   1.625   5.804
 4330SOL     OW13888   1.642   0.620   6.427
 4330SOL    HW113889   1.673   0.669   6.508
 4330SOL    HW213890   1.543   0.630   6.418
 4331SOL     OW13891   6.255   2.611   6.930
 4331SOL    HW113892   6.240   2.707   6.956
 4331SOL    HW213893   6.336   2.605   6.873
 4332SOL     OW13894   5.274   3.314   1.412
 4332SOL    HW113895   5.230   3.404   1.420
 4332SOL    HW213896   5.260   3.262   1.496
 4333SOL     OW13897   5.690   1.075   5.158
 4333SOL    HW113898   5.774   1.109   5.199
 4333SOL    HW213899   5.614   1.088   5.221
 4334SOL     OW13900   4.537   0.950   2.082
 4334SOL    HW113901   4.634   0.946   2.106
 4334SOL    HW213902   4.482   0.950   2.165
 4335SOL     OW13903   3.302   4.183   5.163
 4335SOL    HW113904   3.354   4.252   5.214
 4335SOL    HW213905   3.289   4.102   5.219
 4336SOL     OW13906   1.349   6.243   3.933
 4336SOL    HW113907   1.253   6.257   3.910
 4336SOL    HW213908   1.406   6.265   3.853
 4337SOL     OW13909   6.898   5.089   1.085
 4337SOL    HW113910   6.932   5.009   1.134
 4337SOL    HW213911   6.958   5.108   1.006
 4338SOL     OW13912   6.362   6.609   4.031
 4338SOL    HW113913   6.433   6.552   4.071
 4338SOL    HW213914   6.396   6.653   3.948
 4339SOL     OW13915   6.434   1.489   6.167
 4339SOL    HW113916   6.490   1.443   6.236
 4339SOL    HW213917   6.418   1.428   6.090
 4340SOL     OW13918   4.802   3.487   1.698
 4340SOL    HW113919   4.733   3.416   1.683
 4340SOL    HW213920   4.790   3.560   1.631
 4341SOL     OW13921   0.514   4.537   0.764
 4341SOL    HW113922   0.607   4.534   0.727
 4341SOL    HW213923   0.481   4.632   0.763
 4342SOL     OW13924   7.020   3.076   2.764
 4342SOL    HW113925   6.985   3.153   2.711
 4342SOL    HW213926   6.991   3.084   2.859
 4343SOL     OW13927   2.391   1.612   1.106
 4343SOL    HW113928   2.438   1.624   1.194
 4343SOL    HW213929   2.342   1.525   1.107
 4344SOL     OW13930   2.011   4.848   3.079
 4344SOL    HW113931   1.931   4.864   3.137
 4344SOL    HW213932   2.095   4.859   3.134
 4345SOL     OW13933   1.849   1.906   5.760
 4345SOL    HW113934   1.876   1.914   5.664
 4345SOL    HW213935   1.777   1.837   5.768
 4346SOL     OW13936   1.481   3.296   1.833
 4346SOL    HW113937   1.402   3.350   1.805
 4346SOL    HW213938   1.546   3.288   1.757
 4347SOL     OW13939   6.206   6.431   2.847
 4347SOL    HW113940   6.196   6.418   2.749
 4347SOL    HW213941   6.232   6.526   2.865
 4348SOL     OW13942   0.847   3.591   6.826
 4348SOL    HW113943   0.785   3.555   6.896
 4348SOL    HW213944   0.803   3.584   6.736
 4349SOL     OW13945   6.774   0.368   3.936
 4349SOL    HW113946   6.699   0.409   3.883
 4349SOL    HW213947   6.817   0.295   3.883
 4350SOL     OW13948   4.938   1.917   3.564
 4350SOL    HW113949   4.987   1.874   3.488
 4350SOL    HW213950   4.867   1.855   3.597
 4351SOL     OW13951   2.887   6.449   1.107
 4351SOL    HW113952   2.800   6.426   1.063
 4351SOL    HW213953   2.877   6.444   1.207
 4352SOL     OW13954   6.440   1.467   1.710
 4352SOL    HW113955   6.362   1.414   1.742
 4352SOL    HW213956   6.519   1.449   1.769
 4353SOL     OW13957   4.019   5.799   0.262
 4353SOL    HW113958   4.036   5.722   0.200
 4353SOL    HW213959   4.105   5.834   0.296
 4354SOL     OW13960   1.548   0.408   0.979
 4354SOL    HW113961   1.480   0.482   0.976
 4354SOL    HW213962   1.593   0.401   0.889
 4355SOL     OW13963   5.606   0.875   1.111
 4355SOL    HW113964   5.576   0.941   1.043
 4355SOL    HW213965   5.527   0.826   1.148
 4356SOL     OW13966   3.633   4.550   0.446
 4356SOL    HW113967   3.673   4.489   0.515
 4356SOL    HW213968   3.676   4.640   0.453
 4357SOL     OW13969   6.416   0.871   6.920
 4357SOL    HW113970   6.424   0.815   6.837
 4357SOL    HW213971   6.353   0.947   6.903
 4358SOL     OW13972   0.856   0.521   1.971
 4358SOL    HW113973   0.780   0.563   2.021
 4358SOL    HW213974   0.839   0.527   1.873
 4359SOL     OW13975   6.288   2.207   3.811
 4359SOL    HW113976   6.264   2.153   3.892
 4359SOL    HW213977   6.377   2.250   3.825
 4360SOL     OW13978   1.580   3.310   1.263
 4360SOL    HW113979   1.588   3.337   1.167
 4360SOL    HW213980   1.506   3.244   1.273
 4361SOL     OW13981   4.827   1.774   1.844
 4361SOL    HW113982   4.767   1.709   1.797
 4361SOL    HW213983   4.918   1.735   1.853
 4362SOL     OW13984   5.958   4.573   4.049
 4362SOL    HW113985   6.033   4.625   4.010
 4362SOL    HW213986   5.975   4.475   4.037
 4363SOL     OW13987   4.863   1.504   6.053
 4363SOL    HW113988   4.954   1.474   6.080
 4363SOL    HW213989   4.807   1.521   6.134
 4364SOL     OW13990   3.699   3.896   4.885
 4364SOL    HW113991   3.611   3.943   4.887
 4364SOL    HW213992   3.765   3.950   4.833
 4365SOL     OW13993   3.486   0.970   1.434
 4365SOL    HW113994   3.390   0.952   1.454
 4365SOL    HW213995   3.493   1.048   1.371
 4366SOL     OW13996   5.272   5.002   1.141
 4366SOL    HW113997   5.199   5.066   1.160
 4366SOL    HW213998   5.357   5.053   1.123
 4367SOL     OW13999   1.157   6.388   6.552
 4367SOL    HW114000   1.099   6.313   6.520
 4367SOL    HW214001   1.196   6.436   6.474
 4368SOL     OW14002   5.152   3.716   1.773
 4368SOL    HW114003   5.231   3.728   1.712
 4368SOL    HW214004   5.179   3.737   1.867
 4369SOL     OW14005   3.856   5.674   1.605
 4369SOL    HW114006   3.796   5.623   1.667
 4369SOL    HW214007   3.908   5.611   1.549
 4370SOL     OW14008   5.499   4.998   2.729
 4370SOL    HW114009   5.421   5.061   2.738
 4370SOL    HW214010   5.514   4.951   2.816
 4371SOL     OW14011   6.352   1.585   2.485
 4371SOL    HW114012   6.450   1.599   2.467
 4371SOL    HW214013   6.307   1.550   2.403
 4372SOL     OW14014   4.654   6.751   3.450
 4372SOL    HW114015   4.581   6.726   3.386
 4372SOL    HW214016   4.650   6.690   3.529
 4373SOL     OW14017   0.050   1.831   6.193
 4373SOL    HW114018   0.053   1.898   6.266
 4373SOL    HW214019   6.991   1.772   6.204
 4374SOL     OW14020   2.507   2.547   1.187
 4374SOL    HW114021   2.592   2.597   1.169
 4374SOL    HW214022   2.524   2.449   1.181
 4375SOL     OW14023   2.986   6.702   4.233
 4375SOL    HW114024   3.018   6.681   4.140
 4375SOL    HW214025   2.887   6.714   4.231
 4376SOL     OW14026   5.665   1.571   3.448
 4376SOL    HW114027   5.620   1.599   3.533
 4376SOL    HW214028   5.606   1.591   3.370
 4377SOL     OW14029   5.616   4.818   6.450
 4377SOL    HW114030   5.566   4.744   6.496
 4377SOL    HW214031   5.641   4.787   6.358
 4378SOL     OW14032   1.994   1.112   3.854
 4378SOL    HW114033   2.042   1.133   3.940
 4378SOL    HW214034   2.053   1.056   3.796
 4379SOL     OW14035   2.826   2.037   5.132
 4379SOL    HW114036   2.884   2.024   5.213
 4379SOL    HW214037   2.831   2.132   5.103
 4380SOL     OW14038   0.115   1.200   2.214
 4380SOL    HW114039   0.128   1.239   2.123
 4380SOL    HW214040   0.078   1.270   2.276
 4381SOL     OW14041   1.522   5.884   6.391
 4381SOL    HW114042   1.599   5.827   6.363
 4381SOL    HW214043   1.462   5.832   6.452
 4382SOL     OW14044   6.953   3.476   5.091
 4382SOL    HW114045   6.902   3.404   5.138
 4382SOL    HW214046   6.897   3.559   5.086
 4383SOL     OW14047   6.322   3.013   0.163
 4383SOL    HW114048   6.293   3.099   0.119
 4383SOL    HW214049   6.387   3.034   0.236
 4384SOL     OW14050   5.714   6.767   4.054
 4384SOL    HW114051   5.652   6.689   4.065
 4384SOL    HW214052   5.801   6.736   4.016
 4385SOL     OW14053   4.485   1.399   5.105
 4385SOL    HW114054   4.560   1.379   5.041
 4385SOL    HW214055   4.515   1.377   5.198
 4386SOL     OW14056   1.226   3.260   4.688
 4386SOL    HW114057   1.304   3.248   4.750
 4386SOL    HW214058   1.230   3.190   4.617
 4387SOL     OW14059   6.758   1.997   0.564
 4387SOL    HW114060   6.666   2.033   0.551
 4387SOL    HW214061   6.770   1.969   0.660
 4388SOL     OW14062   5.227   2.858   6.825
 4388SOL    HW114063   5.273   2.876   6.738
 4388SOL    HW214064   5.245   2.764   6.853
 4389SOL     OW14065   0.603   3.440   1.227
 4389SOL    HW114066   0.618   3.384   1.309
 4389SOL    HW214067   0.652   3.400   1.150
 4390SOL     OW14068   6.630   1.515   1.172
 4390SOL    HW114069   6.673   1.588   1.225
 4390SOL    HW214070   6.581   1.555   1.094
 4391SOL     OW14071   1.938   5.962   0.699
 4391SOL    HW114072   1.979   6.032   0.642
 4391SOL    HW214073   2.007   5.922   0.759
 4392SOL     OW14074   1.512   2.501   5.452
 4392SOL    HW114075   1.490   2.557   5.372
 4392SOL    HW214076   1.564   2.420   5.422
 4393SOL     OW14077   4.727   0.681   1.997
 4393SOL    HW114078   4.676   0.598   2.019
 4393SOL    HW214079   4.710   0.706   1.902
 4394SOL     OW14080   1.244   0.218   2.318
 4394SOL    HW114081   1.310   0.144   2.303
 4394SOL    HW214082   1.172   0.213   2.249
 4395SOL     OW14083   3.072   4.947   1.731
 4395SOL    HW114084   3.113   4.888   1.800
 4395SOL    HW214085   3.065   4.898   1.645
 4396SOL     OW14086   3.060   0.442   3.499
 4396SOL    HW114087   3.103   0.506   3.435
 4396SOL    HW214088   2.994   0.490   3.556
 4397SOL     OW14089   3.520   1.408   4.439
 4397SOL    HW114090   3.558   1.466   4.368
 4397SOL    HW214091   3.575   1.325   4.448
 4398SOL     OW14092   1.770   2.459   4.880
 4398SOL    HW114093   1.847   2.401   4.907
 4398SOL    HW214094   1.699   2.403   4.837
 4399SOL     OW14095   3.005   6.996   2.284
 4399SOL    HW114096   2.917   0.021   2.267
 4399SOL    HW214097   3.022   6.930   2.211
 4400SOL     OW14098   1.810   5.618   4.757
 4400SOL    HW114099   1.712   5.625   4.744
 4400SOL    HW214100   1.842   5.694   4.814
 4401SOL     OW14101   3.427   6.745   6.462
 4401SOL    HW114102   3.416   6.651   6.432
 4401SOL    HW214103   3.520   6.758   6.499
 4402SOL     OW14104   1.356   0.940   3.676
 4402SOL    HW114105   1.316   0.868   3.620
 4402SOL    HW214106   1.413   1.000   3.619
 4403SOL     OW14107   1.415   5.118   2.020
 4403SOL    HW114108   1.390   5.215   2.023
 4403SOL    HW214109   1.503   5.108   1.973
 4404SOL     OW14110   0.526   6.900   6.142
 4404SOL    HW114111   0.468   6.975   6.109
 4404SOL    HW214112   0.481   6.855   6.219
 4405SOL     OW14113   1.746   6.068   2.778
 4405SOL    HW114114   1.677   6.135   2.752
 4405SOL    HW214115   1.783   6.091   2.868
 4406SOL     OW14116   5.972   3.766   2.073
 4406SOL    HW114117   5.943   3.769   2.168
 4406SOL    HW214118   6.014   3.853   2.048
 4407SOL     OW14119   5.441   6.314   1.882
 4407SOL    HW114120   5.503   6.328   1.960
 4407SOL    HW214121   5.352   6.282   1.916
 4408SOL     OW14122   4.457   0.935   0.349
 4408SOL    HW114123   4.383   0.952   0.283
 4408SOL    HW214124   4.436   0.981   0.435
 4409SOL     OW14125   2.744   0.416   3.296
 4409SOL    HW114126   2.778   0.322   3.290
 4409SOL    HW214127   2.806   0.477   3.247
 4410SOL     OW14128   0.876   6.654   0.752
 4410SOL    HW114129   0.963   6.661   0.802
 4410SOL    HW214130   0.804   6.626   0.814
 4411SOL     OW14131   3.477   4.326   5.308
 4411SOL    HW114132   3.563   4.302   5.264
 4411SOL    HW214133   3.475   4.424   5.327
 4412SOL     OW14134   4.516   6.236   2.930
 4412SOL    HW114135   4.548   6.163   2.869
 4412SOL    HW214136   4.479   6.311   2.875
 4413SOL     OW14137   4.607   6.634   3.919
 4413SOL    HW114138   4.520   6.652   3.965
 4413SOL    HW214139   4.680   6.626   3.987
 4414SOL     OW14140   4.587   4.108   1.380
 4414SOL    HW114141   4.685   4.122   1.384
 4414SOL    HW214142   4.560   4.088   1.286
 4415SOL     OW14143   2.334   2.882   1.718
 4415SOL    HW114144   2.281   2.941   1.778
 4415SOL    HW214145   2.305   2.898   1.623
 4416SOL     OW14146   4.451   2.524   3.505
 4416SOL    HW114147   4.366   2.471   3.509
 4416SOL    HW214148   4.492   2.529   3.596
 4417SOL     OW14149   0.156   3.684   2.755
 4417SOL    HW114150   0.110   3.706   2.669
 4417SOL    HW214151   0.175   3.769   2.805
 4418SOL     OW14152   6.631   6.594   6.000
 4418SOL    HW114153   6.613   6.500   5.969
 4418SOL    HW214154   6.561   6.655   5.964
 4419SOL     OW14155   5.679   5.227   6.405
 4419SOL    HW114156   5.750   5.165   6.438
 4419SOL    HW214157   5.706   5.321   6.424
 4420SOL     OW14158   2.795   2.119   1.040
 4420SOL    HW114159   2.752   2.034   1.010
 4420SOL    HW214160   2.880   2.134   0.988
 4421SOL     OW14161   1.754   2.383   6.380
 4421SOL    HW114162   1.795   2.350   6.465
 4421SOL    HW214163   1.732   2.481   6.390
 4422SOL     OW14164   6.162   3.731   6.367
 4422SOL    HW114165   6.148   3.674   6.286
 4422SOL    HW214166   6.087   3.796   6.376
 4423SOL     OW14167   5.446   4.104   4.762
 4423SOL    HW114168   5.495   4.154   4.691
 4423SOL    HW214169   5.478   4.009   4.765
 4424SOL     OW14170   4.661   5.689   3.288
 4424SOL    HW114171   4.740   5.679   3.348
 4424SOL    HW214172   4.689   5.674   3.193
 4425SOL     OW14173   1.793   5.560   1.434
 4425SOL    HW114174   1.712   5.522   1.480
 4425SOL    HW214175   1.875   5.532   1.483
 4426SOL     OW14176   0.384   0.393   4.991
 4426SOL    HW114177   0.480   0.400   4.963
 4426SOL    HW214178   0.341   0.483   4.986
 4427SOL     OW14179   2.375   6.345   2.821
 4427SOL    HW114180   2.382   6.279   2.746
 4427SOL    HW214181   2.280   6.353   2.850
 4428SOL     OW14182   5.212   6.249   3.813
 4428SOL    HW114183   5.283   6.210   3.754
 4428SOL    HW214184   5.146   6.300   3.757
 4429SOL     OW14185   2.811   5.864   2.757
 4429SOL    HW114186   2.792   5.837   2.852
 4429SOL    HW214187   2.796   5.786   2.697
 4430SOL     OW14188   4.813   3.940   5.829
 4430SOL    HW114189   4.899   3.976   5.793
 4430SOL    HW214190   4.785   3.993   5.909
 4431SOL     OW14191   3.163   6.505   3.634
 4431SOL    HW114192   3.263   6.514   3.630
 4431SOL    HW214193   3.123   6.594   3.659
 4432SOL     OW14194   0.783   3.704   5.855
 4432SOL    HW114195   0.726   3.623   5.846
 4432SOL    HW214196   0.780   3.757   5.770
 4433SOL     OW14197   0.865   0.932   5.445
 4433SOL    HW114198   0.907   0.888   5.366
 4433SOL    HW214199   0.900   0.889   5.529
 4434SOL     OW14200   0.553   0.594   3.120
 4434SOL    HW114201   0.588   0.685   3.097
 4434SOL    HW214202   0.454   0.592   3.106
 4435SOL     OW14203   2.373   4.265   0.204
 4435SOL    HW114204   2.460   4.266   0.154
 4435SOL    HW214205   2.335   4.173   0.204
 4436SOL     OW14206   4.125   1.578   1.730
 4436SOL    HW114207   4.082   1.649   1.787
 4436SOL    HW214208   4.068   1.496   1.731
 4437SOL     OW14209   6.737   3.983   0.252
 4437SOL    HW114210   6.759   3.943   0.164
 4437SOL    HW214211   6.746   3.914   0.324
 4438SOL     OW14212   4.080   0.174   5.432
 4438SOL    HW114213   4.172   0.193   5.398
 4438SOL    HW214214   4.086   0.145   5.528
 4439SOL     OW14215   2.700   6.932   2.903
 4439SOL    HW114216   2.714   0.006   2.932
 4439SOL    HW214217   2.659   6.931   2.812
 4440SOL     OW14218   1.460   5.178   6.971
 4440SOL    HW114219   1.472   5.117   0.029
 4440SOL    HW214220   1.366   5.169   6.937
 4441SOL     OW14221   0.080   1.706   0.585
 4441SOL    HW114222   0.121   1.615   0.585
 4441SOL    HW214223   0.055   1.731   0.679
 4442SOL     OW14224   1.898   4.933   6.613
 4442SOL    HW114225   1.960   5.001   6.652
 4442SOL    HW214226   1.825   4.913   6.679
 4443SOL     OW14227   0.918   5.397   6.325
 4443SOL    HW114228   0.858   5.317   6.329
 4443SOL    HW214229   1.002   5.373   6.277
 4444SOL     OW14230   5.524   4.785   6.802
 4444SOL    HW114231   5.440   4.837   6.817
 4444SOL    HW214232   5.576   4.780   6.887
 4445SOL     OW14233   0.299   4.905   0.434
 4445SOL    HW114234   0.299   4.902   0.534
 4445SOL    HW214235   0.393   4.899   0.400
 4446SOL     OW14236   4.987   1.434   1.140
 4446SOL    HW114237   4.923   1.470   1.073
 4446SOL    HW214238   5.063   1.498   1.152
 4447SOL     OW14239   5.109   5.389   5.822
 4447SOL    HW114240   5.205   5.398   5.796
 4447SOL    HW214241   5.054   5.457   5.774
 4448SOL     OW14242   3.806   6.159   1.382
 4448SOL    HW114243   3.766   6.122   1.298
 4448SOL    HW214244   3.744   6.227   1.422
 4449SOL     OW14245   3.264   1.359   5.335
 4449SOL    HW114246   3.339   1.354   5.269
 4449SOL    HW214247   3.186   1.404   5.293
 4450SOL     OW14248   3.231   6.970   6.757
 4450SOL    HW114249   3.132   6.979   6.773
 4450SOL    HW214250   3.247   6.898   6.690
 4451SOL     OW14251   4.564   4.798   2.849
 4451SOL    HW114252   4.622   4.863   2.898
 4451SOL    HW214253   4.612   4.711   2.840
 4452SOL     OW14254   4.340   6.584   4.634
 4452SOL    HW114255   4.381   6.498   4.602
 4452SOL    HW214256   4.397   6.623   4.706
 4453SOL     OW14257   6.347   4.127   0.684
 4453SOL    HW114258   6.313   4.210   0.639
 4453SOL    HW214259   6.445   4.137   0.701
 4454SOL     OW14260   1.258   3.136   0.095
 4454SOL    HW114261   1.191   3.131   0.021
 4454SOL    HW214262   1.220   3.095   0.178
 4455SOL     OW14263   0.869   6.457   5.505
 4455SOL    HW114264   0.802   6.385   5.487
 4455SOL    HW214265   0.923   6.433   5.586
 4456SOL     OW14266   2.492   0.147   4.502
 4456SOL    HW114267   2.545   0.198   4.570
 4456SOL    HW214268   2.544   0.141   4.417
 4457SOL     OW14269   1.717   2.120   4.538
 4457SOL    HW114270   1.816   2.128   4.523
 4457SOL    HW214271   1.699   2.124   4.636
 4458SOL     OW14272   1.579   3.547   6.656
 4458SOL    HW114273   1.541   3.631   6.617
 4458SOL    HW214274   1.595   3.481   6.583
 4459SOL     OW14275   0.631   2.865   3.102
 4459SOL    HW114276   0.676   2.949   3.133
 4459SOL    HW214277   0.575   2.886   3.021
 4460SOL     OW14278   6.777   2.664   4.470
 4460SOL    HW114279   6.693   2.620   4.501
 4460SOL    HW214280   6.777   2.668   4.370
 4461SOL     OW14281   2.166   1.068   0.766
 4461SOL    HW114282   2.239   1.016   0.722
 4461SOL    HW214283   2.090   1.081   0.702
 4462SOL     OW14284   6.678   4.171   3.252
 4462SOL    HW114285   6.678   4.262   3.294
 4462SOL    HW214286   6.584   4.134   3.254
 4463SOL     OW14287   5.617   1.985   0.828
 4463SOL    HW114288   5.643   1.891   0.806
 4463SOL    HW214289   5.696   2.034   0.865
 4464SOL     OW14290   0.231   5.111   1.339
 4464SOL    HW114291   0.143   5.129   1.383
 4464SOL    HW214292   0.275   5.034   1.385
 4465SOL     OW14293   3.642   5.569   1.290
 4465SOL    HW114294   3.585   5.589   1.209
 4465SOL    HW214295   3.691   5.484   1.276
 4466SOL     OW14296   1.857   2.392   2.818
 4466SOL    HW114297   1.858   2.468   2.753
 4466SOL    HW214298   1.950   2.365   2.840
 4467SOL     OW14299   5.079   6.006   3.234
 4467SOL    HW114300   5.159   5.990   3.177
 4467SOL    HW214301   5.018   6.071   3.189
 4468SOL     OW14302   1.737   3.079   1.729
 4468SOL    HW114303   1.837   3.077   1.726
 4468SOL    HW214304   1.705   3.029   1.809
 4469SOL     OW14305   2.951   6.032   1.177
 4469SOL    HW114306   2.988   6.116   1.136
 4469SOL    HW214307   2.929   5.966   1.106
 4470SOL     OW14308   2.130   6.966   2.887
 4470SOL    HW114309   2.096   6.879   2.852
 4470SOL    HW214310   2.227   6.958   2.907
 4471SOL     OW14311   1.166   0.553   6.570
 4471SOL    HW114312   1.225   0.606   6.632
 4471SOL    HW214313   1.089   0.609   6.542
 4472SOL     OW14314   1.930   2.857   1.233
 4472SOL    HW114315   1.917   2.956   1.223
 4472SOL    HW214316   1.930   2.814   1.142
 4473SOL     OW14317   0.202   2.555   4.215
 4473SOL    HW114318   0.154   2.562   4.303
 4473SOL    HW214319   0.252   2.468   4.212
 4474SOL     OW14320   3.012   5.729   0.989
 4474SOL    HW114321   3.025   5.790   0.911
 4474SOL    HW214322   2.916   5.701   0.993
 4475SOL     OW14323   0.905   4.000   1.129
 4475SOL    HW114324   0.961   3.984   1.048
 4475SOL    HW214325   0.924   3.929   1.197
 4476SOL     OW14326   5.130   0.950   3.894
 4476SOL    HW114327   5.155   0.920   3.801
 4476SOL    HW214328   5.134   1.050   3.898
 4477SOL     OW14329   1.361   1.179   4.789
 4477SOL    HW114330   1.431   1.242   4.754
 4477SOL    HW214331   1.280   1.230   4.816
 4478SOL     OW14332   2.290   0.250   0.994
 4478SOL    HW114333   2.256   0.193   0.919
 4478SOL    HW214334   2.307   0.343   0.961
 4479SOL     OW14335   1.471   2.336   7.003
 4479SOL    HW114336   1.490   2.327   0.080
 4479SOL    HW214337   1.548   2.300   6.951
 4480SOL     OW14338   1.066   6.508   4.059
 4480SOL    HW114339   1.024   6.542   3.975
 4480SOL    HW214340   1.081   6.410   4.052
 4481SOL     OW14341   2.226   3.864   5.895
 4481SOL    HW114342   2.235   3.963   5.886
 4481SOL    HW214343   2.315   3.821   5.881
 4482SOL     OW14344   2.516   6.328   1.281
 4482SOL    HW114345   2.443   6.281   1.331
 4482SOL    HW214346   2.596   6.268   1.273
 4483SOL     OW14347   1.345   3.370   0.468
 4483SOL    HW114348   1.344   3.470   0.471
 4483SOL    HW214349   1.301   3.333   0.550
 4484SOL     OW14350   2.492   1.234   6.981
 4484SOL    HW114351   2.505   1.157   0.022
 4484SOL    HW214352   2.579   1.253   6.934
 4485SOL     OW14353   6.613   2.829   5.237
 4485SOL    HW114354   6.517   2.801   5.244
 4485SOL    HW214355   6.650   2.842   5.329
 4486SOL     OW14356   4.645   5.147   4.895
 4486SOL    HW114357   4.722   5.103   4.849
 4486SOL    HW214358   4.623   5.098   4.979
 4487SOL     OW14359   0.486   3.068   6.747
 4487SOL    HW114360   0.414   3.025   6.693
 4487SOL    HW214361   0.569   3.012   6.744
 4488SOL     OW14362   0.236   4.212   3.881
 4488SOL    HW114363   0.312   4.254   3.831
 4488SOL    HW214364   0.180   4.158   3.819
 4489SOL     OW14365   4.054   6.043   6.184
 4489SOL    HW114366   4.151   6.055   6.160
 4489SOL    HW214367   4.038   5.948   6.211
 4490SOL     OW14368   5.178   1.449   1.670
 4490SOL    HW114369   5.092   1.401   1.653
 4490SOL    HW214370   5.237   1.440   1.590
 4491SOL     OW14371   1.253   3.405   3.137
 4491SOL    HW114372   1.353   3.406   3.142
 4491SOL    HW214373   1.223   3.337   3.071
 4492SOL     OW14374   6.800   0.614   2.438
 4492SOL    HW114375   6.805   0.591   2.340
 4492SOL    HW214376   6.804   0.529   2.491
 4493SOL     OW14377   5.487   1.439   5.235
 4493SOL    HW114378   5.552   1.516   5.239
 4493SOL    HW214379   5.526   1.365   5.180
 4494SOL     OW14380   1.345   0.855   1.690
 4494SOL    HW114381   1.333   0.763   1.652
 4494SOL    HW214382   1.409   0.852   1.767
 4495SOL     OW14383   4.170   6.339   0.833
 4495SOL    HW114384   4.137   6.265   0.891
 4495SOL    HW214385   4.093   6.382   0.787
 4496SOL     OW14386   3.314   6.277   6.371
 4496SOL    HW114387   3.306   6.235   6.281
 4496SOL    HW214388   3.378   6.224   6.427
 4497SOL     OW14389   4.220   1.000   5.928
 4497SOL    HW114390   4.139   0.989   5.871
 4497SOL    HW214391   4.278   0.918   5.919
 4498SOL     OW14392   0.241   5.315   4.909
 4498SOL    HW114393   0.220   5.403   4.952
 4498SOL    HW214394   0.192   5.242   4.957
 4499SOL     OW14395   5.675   1.865   2.094
 4499SOL    HW114396   5.715   1.949   2.057
 4499SOL    HW214397   5.576   1.868   2.084
 4500SOL     OW14398   3.847   5.440   6.970
 4500SOL    HW114399   3.777   5.381   7.009
 4500SOL    HW214400   3.806   5.500   6.901
 4501SOL     OW14401   5.683   0.367   2.770
 4501SOL    HW114402   5.640   0.427   2.702
 4501SOL    HW214403   5.658   0.398   2.862
 4502SOL     OW14404   0.123   3.369   6.541
 4502SOL    HW114405   0.137   3.377   6.639
 4502SOL    HW214406   0.147   3.276   6.511
 4503SOL     OW14407   3.287   1.008   2.812
 4503SOL    HW114408   3.272   1.000   2.910
 4503SOL    HW214409   3.350   1.083   2.794
 4504SOL     OW14410   0.107   1.734   2.780
 4504SOL    HW114411   0.051   1.701   2.703
 4504SOL    HW214412   0.054   1.727   2.864
 4505SOL     OW14413   5.783   4.737   3.855
 4505SOL    HW114414   5.826   4.678   3.924
 4505SOL    HW214415   5.705   4.689   3.814
 4506SOL     OW14416   5.538   3.001   5.705
 4506SOL    HW114417   5.453   3.004   5.756
 4506SOL    HW214418   5.525   3.043   5.615
 4507SOL     OW14419   6.168   2.324   3.179
 4507SOL    HW114420   6.198   2.361   3.267
 4507SOL    HW214421   6.180   2.225   3.179
 4508SOL     OW14422   0.008   5.196   0.858
 4508SOL    HW114423   0.004   5.209   0.759
 4508SOL    HW214424   0.064   5.115   0.879
 4509SOL     OW14425   4.981   2.722   1.977
 4509SOL    HW114426   4.942   2.796   1.922
 4509SOL    HW214427   4.925   2.709   2.059
 4510SOL     OW14428   3.798   1.387   3.959
 4510SOL    HW114429   3.838   1.450   3.893
 4510SOL    HW214430   3.711   1.352   3.923
 4511SOL     OW14431   0.387   4.465   6.900
 4511SOL    HW114432   0.475   4.468   6.853
 4511SOL    HW214433   0.398   4.422   6.989
 4512SOL     OW14434   3.127   3.674   5.128
 4512SOL    HW114435   3.036   3.657   5.091
 4512SOL    HW214436   3.195   3.629   5.069
 4513SOL     OW14437   0.846   0.173   1.067
 4513SOL    HW114438   0.790   0.128   1.136
 4513SOL    HW214439   0.795   0.179   0.981
 4514SOL     OW14440   3.701   4.682   6.516
 4514SOL    HW114441   3.624   4.697   6.453
 4514SOL    HW214442   3.675   4.614   6.584
 4515SOL     OW14443   4.408   0.778   5.924
 4515SOL    HW114444   4.501   0.752   5.950
 4515SOL    HW214445   4.393   0.757   5.827
 4516SOL     OW14446   2.840   2.261   5.473
 4516SOL    HW114447   2.860   2.270   5.375
 4516SOL    HW214448   2.743   2.240   5.485
 4517SOL     OW14449   4.153   0.906   5.143
 4517SOL    HW114450   4.151   0.962   5.060
 4517SOL    HW214451   4.060   0.895   5.178
 4518SOL     OW14452   0.697   6.232   0.883
 4518SOL    HW114453   0.755   6.287   0.824
 4518SOL    HW214454   0.701   6.267   0.977
 4519SOL     OW14455   4.595   6.976   0.181
 4519SOL    HW114456   4.573   6.924   0.263
 4519SOL    HW214457   4.683   0.000   0.191
 4520SOL     OW14458   4.177   5.543   5.509
 4520SOL    HW114459   4.197   5.496   5.422
 4520SOL    HW214460   4.114   5.487   5.563
 4521SOL     OW14461   4.392   2.407   3.971
 4521SOL    HW114462   4.463   2.338   3.959
 4521SOL    HW214463   4.433   2.499   3.967
 4522SOL     OW14464   5.902   4.067   3.470
 4522SOL    HW114465   5.939   3.988   3.420
 4522SOL    HW214466   5.921   4.151   3.419
 4523SOL     OW14467   0.669   3.309   5.860
 4523SOL    HW114468   0.579   3.353   5.862
 4523SOL    HW214469   0.717   3.334   5.776
 4524SOL     OW14470   1.526   3.453   2.276
 4524SOL    HW114471   1.554   3.393   2.201
 4524SOL    HW214472   1.574   3.541   2.268
 4525SOL     OW14473   3.488   2.513   5.437
 4525SOL    HW114474   3.408   2.483   5.385
 4525SOL    HW214475   3.481   2.611   5.457
 4526SOL     OW14476   0.937   6.800   6.015
 4526SOL    HW114477   0.981   6.755   6.093
 4526SOL    HW214478   0.877   6.873   6.047
 4527SOL     OW14479   0.103   1.281   2.675
 4527SOL    HW114480   0.075   1.185   2.670
 4527SOL    HW214481   0.176   1.291   2.743
 4528SOL     OW14482   5.381   0.619   5.154
 4528SOL    HW114483   5.423   0.533   5.127
 4528SOL    HW214484   5.334   0.658   5.074
 4529SOL     OW14485   2.284   1.003   3.999
 4529SOL    HW114486   2.245   0.920   3.957
 4529SOL    HW214487   2.300   1.072   3.928
 4530SOL     OW14488   4.262   5.804   6.470
 4530SOL    HW114489   4.224   5.896   6.460
 4530SOL    HW214490   4.249   5.753   6.385
 4531SOL     OW14491   1.031   5.854   5.687
 4531SOL    HW114492   0.998   5.791   5.616
 4531SOL    HW214493   1.131   5.852   5.689
 4532SOL     OW14494   5.520   0.841   2.931
 4532SOL    HW114495   5.444   0.777   2.921
 4532SOL    HW214496   5.511   0.890   3.018
 4533SOL     OW14497   2.658   0.477   0.966
 4533SOL    HW114498   2.561   0.478   0.991
 4533SOL    HW214499   2.700   0.393   1.000
 4534SOL     OW14500   4.703   1.557   3.718
 4534SOL    HW114501   4.606   1.542   3.738
 4534SOL    HW214502   4.732   1.645   3.756
 4535SOL     OW14503   1.799   0.647   0.949
 4535SOL    HW114504   1.752   0.716   1.003
 4535SOL    HW214505   1.863   0.596   1.007
 4536SOL     OW14506   3.029   0.251   5.606
 4536SOL    HW114507   3.074   0.180   5.552
 4536SOL    HW214508   3.094   0.291   5.670
 4537SOL     OW14509   2.946   3.646   3.522
 4537SOL    HW114510   2.928   3.742   3.546
 4537SOL    HW214511   2.984   3.599   3.601
 4538SOL     OW14512   0.448   2.023   0.904
 4538SOL    HW114513   0.546   2.004   0.904
 4538SOL    HW214514   0.406   1.982   0.823
 4539SOL     OW14515   1.514   6.075   5.660
 4539SOL    HW114516   1.584   6.102   5.593
 4539SOL    HW214517   1.527   5.980   5.686
 4540SOL     OW14518   0.967   2.274   0.456
 4540SOL    HW114519   1.038   2.313   0.514
 4540SOL    HW214520   1.003   2.261   0.364
 4541SOL     OW14521   4.049   2.961   6.085
 4541SOL    HW114522   4.083   2.902   6.159
 4541SOL    HW214523   4.000   3.039   6.124
 4542SOL     OW14524   0.597   1.803   6.890
 4542SOL    HW114525   0.686   1.759   6.891
 4542SOL    HW214526   0.539   1.765   6.962
 4543SOL     OW14527   3.737   2.184   0.547
 4543SOL    HW114528   3.684   2.160   0.466
 4543SOL    HW214529   3.743   2.284   0.554
 4544SOL     OW14530   5.418   6.592   0.612
 4544SOL    HW114531   5.330   6.627   0.579
 4544SOL    HW214532   5.421   6.597   0.712
 4545SOL     OW14533   1.999   3.023   5.122
 4545SOL    HW114534   2.023   3.063   5.034
 4545SOL    HW214535   2.080   2.980   5.162
 4546SOL     OW14536   3.360   0.664   4.916
 4546SOL    HW114537   3.381   0.643   4.820
 4546SOL    HW214538   3.269   0.630   4.938
 4547SOL     OW14539   6.935   0.225   0.107
 4547SOL    HW114540   6.861   0.290   0.128
 4547SOL    HW214541   0.001   0.261   0.143
 4548SOL     OW14542   2.739   1.619   2.820
 4548SOL    HW114543   2.785   1.693   2.869
 4548SOL    HW214544   2.807   1.557   2.781
 4549SOL     OW14545   0.426   3.331   4.349
 4549SOL    HW114546   0.509   3.284   4.379
 4549SOL    HW214547   0.449   3.424   4.322
 4550SOL     OW14548   2.200   5.314   4.124
 4550SOL    HW114549   2.135   5.270   4.186
 4550SOL    HW214550   2.281   5.343   4.176
 4551SOL     OW14551   2.265   2.184   5.212
 4551SOL    HW114552   2.358   2.213   5.233
 4551SOL    HW214553   2.203   2.262   5.221
 4552SOL     OW14554   5.343   1.063   1.084
 4552SOL    HW114555   5.438   1.090   1.098
 4552SOL    HW214556   5.286   1.103   1.154
 4553SOL     OW14557   0.357   5.548   0.038
 4553SOL    HW114558   0.281   5.534   6.995
 4553SOL    HW214559   0.378   5.646   0.044
 4554SOL     OW14560   6.597   6.563   3.128
 4554SOL    HW114561   6.612   6.513   3.043
 4554SOL    HW214562   6.668   6.540   3.194
 4555SOL     OW14563   1.253   0.986   0.856
 4555SOL    HW114564   1.254   0.897   0.809
 4555SOL    HW214565   1.165   0.999   0.901
 4556SOL     OW14566   5.792   4.978   4.403
 4556SOL    HW114567   5.841   4.918   4.339
 4556SOL    HW214568   5.694   4.963   4.394
 4557SOL     OW14569   0.009   4.948   4.221
 4557SOL    HW114570   6.935   4.951   4.253
 4557SOL    HW214571   0.031   4.856   4.189
 4558SOL     OW14572   1.669   3.650   4.709
 4558SOL    HW114573   1.751   3.593   4.700
 4558SOL    HW214574   1.607   3.632   4.634
 4559SOL     OW14575   0.115   2.902   3.913
 4559SOL    HW114576   0.183   2.972   3.936
 4559SOL    HW214577   0.154   2.811   3.925
 4560SOL     OW14578   5.303   4.008   3.084
 4560SOL    HW114579   5.398   3.987   3.064
 4560SOL    HW214580   5.243   3.944   3.036
 4561SOL     OW14581   4.417   2.117   3.856
 4561SOL    HW114582   4.508   2.149   3.878
 4561SOL    HW214583   4.375   2.075   3.937
 4562SOL     OW14584   3.742   0.815   0.895
 4562SOL    HW114585   3.727   0.903   0.851
 4562SOL    HW214586   3.840   0.793   0.894
 4563SOL     OW14587   0.522   4.613   2.319
 4563SOL    HW114588   0.521   4.567   2.230
 4563SOL    HW214589   0.429   4.619   2.355
 4564SOL     OW14590   2.179   3.770   1.989
 4564SOL    HW114591   2.199   3.810   2.079
 4564SOL    HW214592   2.186   3.670   1.995
 4565SOL     OW14593   2.047   6.172   6.699
 4565SOL    HW114594   1.998   6.090   6.671
 4565SOL    HW214595   2.003   6.212   6.779
 4566SOL     OW14596   6.921   4.563   3.566
 4566SOL    HW114597   6.880   4.653   3.549
 4566SOL    HW214598   7.014   4.562   3.529
 4567SOL     OW14599   0.150   0.013   6.719
 4567SOL    HW114600   0.235   0.064   6.737
 4567SOL    HW214601   0.089   0.024   6.798
 4568SOL     OW14602   1.555   5.033   2.947
 4568SOL    HW114603   1.491   5.083   2.890
 4568SOL    HW214604   1.624   5.096   2.984
 4569SOL     OW14605   1.949   1.091   3.553
 4569SOL    HW114606   1.970   1.133   3.642
 4569SOL    HW214607   2.034   1.065   3.508
 4570SOL     OW14608   5.018   5.824   1.698
 4570SOL    HW114609   4.962   5.779   1.768
 4570SOL    HW214610   5.045   5.758   1.628
 4571SOL     OW14611   2.625   2.883   6.322
 4571SOL    HW114612   2.650   2.980   6.317
 4571SOL    HW214613   2.527   2.875   6.339
 4572SOL     OW14614   3.128   3.048   2.037
 4572SOL    HW114615   3.071   3.053   1.955
 4572SOL    HW214616   3.169   3.137   2.056
 4573SOL     OW14617   3.422   5.405   0.933
 4573SOL    HW114618   3.342   5.372   0.883
 4573SOL    HW214619   3.490   5.440   0.868
 4574SOL     OW14620   4.953   0.584   1.683
 4574SOL    HW114621   5.033   0.555   1.735
 4574SOL    HW214622   4.872   0.580   1.741
 4575SOL     OW14623   0.836   0.310   5.988
 4575SOL    HW114624   0.792   0.227   6.023
 4575SOL    HW214625   0.838   0.309   5.888
 4576SOL     OW14626   2.705   4.532   6.069
 4576SOL    HW114627   2.651   4.578   6.000
 4576SOL    HW214628   2.800   4.525   6.038
 4577SOL     OW14629   0.713   1.660   2.458
 4577SOL    HW114630   0.802   1.704   2.445
 4577SOL    HW214631   0.643   1.711   2.408
 4578SOL     OW14632   1.246   1.839   1.994
 4578SOL    HW114633   1.251   1.897   1.912
 4578SOL    HW214634   1.251   1.743   1.967
 4579SOL     OW14635   4.807   0.519   3.366
 4579SOL    HW114636   4.875   0.451   3.395
 4579SOL    HW214637   4.781   0.575   3.445
 4580SOL     OW14638   0.123   1.887   1.311
 4580SOL    HW114639   0.176   1.945   1.250
 4580SOL    HW214640   0.185   1.839   1.374
 4581SOL     OW14641   3.447   0.863   0.866
 4581SOL    HW114642   3.406   0.955   0.873
 4581SOL    HW214643   3.541   0.866   0.898
 4582SOL     OW14644   6.457   1.331   3.921
 4582SOL    HW114645   6.496   1.391   3.991
 4582SOL    HW214646   6.358   1.342   3.919
 4583SOL     OW14647   1.995   0.356   0.813
 4583SOL    HW114648   2.022   0.390   0.723
 4583SOL    HW214649   1.937   0.424   0.858
 4584SOL     OW14650   0.801   1.580   4.431
 4584SOL    HW114651   0.867   1.517   4.391
 4584SOL    HW214652   0.708   1.553   4.405
 4585SOL     OW14653   1.604   2.933   3.253
 4585SOL    HW114654   1.509   2.945   3.223
 4585SOL    HW214655   1.651   3.021   3.250
 4586SOL     OW14656   5.914   5.351   6.578
 4586SOL    HW114657   5.875   5.263   6.551
 4586SOL    HW214658   5.952   5.342   6.670
 4587SOL     OW14659   3.456   3.076   5.144
 4587SOL    HW114660   3.498   3.153   5.096
 4587SOL    HW214661   3.411   3.016   5.077
 4588SOL     OW14662   3.273   3.913   6.268
 4588SOL    HW114663   3.202   3.975   6.234
 4588SOL    HW214664   3.252   3.820   6.239
 4589SOL     OW14665   5.827   6.546   2.125
 4589SOL    HW114666   5.926   6.533   2.112
 4589SOL    HW214667   5.793   6.610   2.056
 4590SOL     OW14668   3.545   5.185   1.098
 4590SOL    HW114669   3.594   5.113   1.048
 4590SOL    HW214670   3.494   5.242   1.033
 4591SOL     OW14671   2.106   0.232   5.234
 4591SOL    HW114672   2.201   0.220   5.263
 4591SOL    HW214673   2.071   0.145   5.200
 4592SOL     OW14674   1.559   1.711   3.825
 4592SOL    HW114675   1.527   1.616   3.825
 4592SOL    HW214676   1.634   1.721   3.890
 4593SOL     OW14677   1.592   5.660   4.390
 4593SOL    HW114678   1.676   5.612   4.366
 4593SOL    HW214679   1.562   5.631   4.481
 4594SOL     OW14680   1.780   0.159   3.128
 4594SOL    HW114681   1.879   0.155   3.120
 4594SOL    HW214682   1.753   0.143   3.223
 4595SOL     OW14683   5.448   1.859   6.214
 4595SOL    HW114684   5.398   1.908   6.143
 4595SOL    HW214685   5.386   1.834   6.288
 4596SOL     OW14686   6.887   0.568   2.177
 4596SOL    HW114687   6.904   0.666   2.173
 4596SOL    HW214688   6.914   0.526   2.091
 4597SOL     OW14689   2.595   6.083   0.522
 4597SOL    HW114690   2.637   6.090   0.431
 4597SOL    HW214691   2.523   6.013   0.519
 4598SOL     OW14692   0.799   4.365   0.608
 4598SOL    HW114693   0.777   4.336   0.515
 4598SOL    HW214694   0.867   4.302   0.647
 4599SOL     OW14695   3.186   6.151   1.954
 4599SOL    HW114696   3.211   6.091   2.030
 4599SOL    HW214697   3.091   6.134   1.928
 4600SOL     OW14698   0.626   6.183   6.316
 4600SOL    HW114699   0.611   6.131   6.232
 4600SOL    HW214700   0.665   6.272   6.294
 4601SOL     OW14701   1.779   0.855   5.321
 4601SOL    HW114702   1.743   0.869   5.228
 4601SOL    HW214703   1.877   0.876   5.321
 4602SOL     OW14704   3.192   2.046   5.825
 4602SOL    HW114705   3.146   2.057   5.737
 4602SOL    HW214706   3.291   2.056   5.813
 4603SOL     OW14707   4.774   0.121   1.346
 4603SOL    HW114708   4.814   0.062   1.416
 4603SOL    HW214709   4.806   0.091   1.256
 4604SOL     OW14710   6.436   0.103   4.879
 4604SOL    HW114711   6.535   0.106   4.877
 4604SOL    HW214712   6.404   0.028   4.820
 4605SOL     OW14713   4.106   0.639   1.497
 4605SOL    HW114714   4.116   0.540   1.492
 4605SOL    HW214715   4.013   0.662   1.524
 4606SOL     OW14716   7.015   6.536   5.406
 4606SOL    HW114717   0.080   6.583   5.426
 4606SOL    HW214718   6.962   6.588   5.340
 4607SOL     OW14719   2.318   2.047   0.671
 4607SOL    HW114720   2.404   2.098   0.677
 4607SOL    HW214721   2.336   1.954   0.639
 4608SOL     OW14722   6.806   2.282   4.739
 4608SOL    HW114723   6.708   2.292   4.722
 4608SOL    HW214724   6.847   2.226   4.666
 4609SOL     OW14725   5.136   5.464   6.615
 4609SOL    HW114726   5.192   5.456   6.697
 4609SOL    HW214727   5.182   5.525   6.550
 4610SOL     OW14728   5.141   4.371   0.007
 4610SOL    HW114729   5.043   4.365   7.010
 4610SOL    HW214730   5.181   4.442   6.970
 4611SOL     OW14731   0.962   0.728   6.481
 4611SOL    HW114732   1.018   0.797   6.527
 4611SOL    HW214733   0.919   0.769   6.400
 4612SOL     OW14734   2.104   1.851   1.647
 4612SOL    HW114735   2.138   1.757   1.657
 4612SOL    HW214736   2.010   1.848   1.613
 4613SOL     OW14737   1.364   4.507   1.904
 4613SOL    HW114738   1.323   4.419   1.883
 4613SOL    HW214739   1.418   4.539   1.826
 4614SOL     OW14740   6.722   4.411   4.262
 4614SOL    HW114741   6.769   4.457   4.187
 4614SOL    HW214742   6.679   4.479   4.321
 4615SOL     OW14743   1.377   3.527   5.918
 4615SOL    HW114744   1.353   3.622   5.901
 4615SOL    HW214745   1.387   3.513   6.017
 4616SOL     OW14746   0.269   2.609   5.452
 4616SOL    HW114747   0.259   2.660   5.538
 4616SOL    HW214748   0.301   2.672   5.381
 4617SOL     OW14749   0.203   2.502   3.421
 4617SOL    HW114750   0.214   2.403   3.422
 4617SOL    HW214751   0.226   2.539   3.511
 4618SOL     OW14752   2.372   3.957   6.215
 4618SOL    HW114753   2.319   4.005   6.285
 4618SOL    HW214754   2.368   4.008   6.129
 4619SOL     OW14755   4.855   6.371   6.361
 4619SOL    HW114756   4.847   6.286   6.309
 4619SOL    HW214757   4.952   6.388   6.382
 4620SOL     OW14758   0.917   4.928   2.771
 4620SOL    HW114759   0.846   4.986   2.731
 4620SOL    HW214760   0.900   4.916   2.869
 4621SOL     OW14761   3.364   0.002   2.795
 4621SOL    HW114762   3.427   0.002   2.717
 4621SOL    HW214763   3.272   0.027   2.764
 4622SOL     OW14764   5.181   6.434   0.699
 4622SOL    HW114765   5.165   6.335   0.699
 4622SOL    HW214766   5.274   6.453   0.729
 4623SOL     OW14767   2.710   4.486   1.294
 4623SOL    HW114768   2.686   4.542   1.373
 4623SOL    HW214769   2.670   4.394   1.304
 4624SOL     OW14770   4.260   1.206   1.942
 4624SOL    HW114771   4.265   1.120   1.891
 4624SOL    HW214772   4.316   1.275   1.897
 4625SOL     OW14773   2.098   6.344   1.532
 4625SOL    HW114774   2.107   6.253   1.491
 4625SOL    HW214775   2.153   6.410   1.480
 4626SOL     OW14776   4.273   3.754   1.712
 4626SOL    HW114777   4.361   3.790   1.680
 4626SOL    HW214778   4.285   3.662   1.749
 4627SOL     OW14779   5.489   0.350   5.204
 4627SOL    HW114780   5.580   0.313   5.187
 4627SOL    HW214781   5.469   0.344   5.302
 4628SOL     OW14782   5.644   4.870   3.606
 4628SOL    HW114783   5.690   4.818   3.679
 4628SOL    HW214784   5.571   4.815   3.566
 4629SOL     OW14785   2.339   5.380   0.177
 4629SOL    HW114786   2.311   5.314   0.107
 4629SOL    HW214787   2.260   5.437   0.202
 4630SOL     OW14788   1.778   3.347   1.692
 4630SOL    HW114789   1.862   3.375   1.738
 4630SOL    HW214790   1.773   3.248   1.687
 4631SOL     OW14791   0.267   0.512   3.035
 4631SOL    HW114792   0.193   0.447   3.021
 4631SOL    HW214793   0.254   0.560   3.122
 4632SOL     OW14794   3.312   4.866   2.881
 4632SOL    HW114795   3.218   4.894   2.860
 4632SOL    HW214796   3.316   4.766   2.888
 4633SOL     OW14797   4.877   1.271   4.611
 4633SOL    HW114798   4.850   1.250   4.517
 4633SOL    HW214799   4.796   1.267   4.670
 4634SOL     OW14800   3.341   3.936   5.332
 4634SOL    HW114801   3.415   3.941   5.399
 4634SOL    HW214802   3.256   3.914   5.378
 4635SOL     OW14803   4.196   6.277   1.857
 4635SOL    HW114804   4.170   6.273   1.761
 4635SOL    HW214805   4.160   6.360   1.898
 4636SOL     OW14806   1.613   5.425   6.941
 4636SOL    HW114807   1.706   5.386   6.944
 4636SOL    HW214808   1.552   5.360   6.895
 4637SOL     OW14809   3.163   1.585   3.294
 4637SOL    HW114810   3.210   1.546   3.215
 4637SOL    HW214811   3.118   1.670   3.268
 4638SOL     OW14812   3.931   5.047   6.728
 4638SOL    HW114813   3.910   5.079   6.636
 4638SOL    HW214814   4.030   5.052   6.743
 4639SOL     OW14815   3.749   2.297   1.577
 4639SOL    HW114816   3.736   2.315   1.674
 4639SOL    HW214817   3.804   2.214   1.565
 4640SOL     OW14818   6.187   3.208   0.013
 4640SOL    HW114819   6.203   3.270   6.957
 4640SOL    HW214820   6.178   3.261   0.097
 4641SOL     OW14821   1.265   5.956   4.319
 4641SOL    HW114822   1.284   6.048   4.284
 4641SOL    HW214823   1.201   5.962   4.396
 4642SOL     OW14824   6.549   0.981   4.585
 4642SOL    HW114825   6.479   0.955   4.653
 4642SOL    HW214826   6.507   0.984   4.494
 4643SOL     OW14827   0.525   2.030   0.288
 4643SOL    HW114828   0.561   1.945   0.248
 4643SOL    HW214829   0.601   2.084   0.326
 4644SOL     OW14830   1.351   1.031   0.579
 4644SOL    HW114831   1.352   1.052   0.677
 4644SOL    HW214832   1.317   0.938   0.565
 4645SOL     OW14833   6.724   1.747   4.516
 4645SOL    HW114834   6.807   1.716   4.470
 4645SOL    HW214835   6.644   1.703   4.474
 4646SOL     OW14836   2.465   4.446   4.181
 4646SOL    HW114837   2.545   4.480   4.229
 4646SOL    HW214838   2.383   4.460   4.237
 4647SOL     OW14839   1.331   6.438   1.512
 4647SOL    HW114840   1.357   6.342   1.518
 4647SOL    HW214841   1.408   6.492   1.479
 4648SOL     OW14842   2.791   1.474   4.290
 4648SOL    HW114843   2.828   1.446   4.201
 4648SOL    HW214844   2.706   1.426   4.308
 4649SOL     OW14845   6.464   1.788   0.314
 4649SOL    HW114846   6.516   1.724   0.371
 4649SOL    HW214847   6.371   1.796   0.350
 4650SOL     OW14848   5.106   6.176   0.702
 4650SOL    HW114849   5.085   6.137   0.791
 4650SOL    HW214850   5.046   6.137   0.633
 4651SOL     OW14851   6.772   3.279   6.039
 4651SOL    HW114852   6.724   3.192   6.051
 4651SOL    HW214853   6.732   3.347   6.100
 4652SOL     OW14854   0.494   6.050   5.320
 4652SOL    HW114855   0.548   5.979   5.274
 4652SOL    HW214856   0.483   6.128   5.258
 4653SOL     OW14857   6.426   5.311   0.079
 4653SOL    HW114858   6.329   5.319   0.055
 4653SOL    HW214859   6.477   5.387   0.039
 4654SOL     OW14860   1.699   0.427   5.940
 4654SOL    HW114861   1.619   0.418   5.999
 4654SOL    HW214862   1.768   0.361   5.968
 4655SOL     OW14863   4.916   2.909   1.567
 4655SOL    HW114864   4.893   2.811   1.566
 4655SOL    HW214865   4.906   2.944   1.660
 4656SOL     OW14866   0.004   1.457   1.345
 4656SOL    HW114867   6.936   1.460   1.298
 4656SOL    HW214868   7.014   1.496   1.436
 4657SOL     OW14869   3.947   1.129   2.473
 4657SOL    HW114870   3.885   1.171   2.539
 4657SOL    HW214871   4.034   1.107   2.518
 4658SOL     OW14872   1.318   2.804   5.747
 4658SOL    HW114873   1.269   2.717   5.751
 4658SOL    HW214874   1.394   2.802   5.812
 4659SOL     OW14875   1.533   4.222   6.971
 4659SOL    HW114876   1.627   4.191   6.985
 4659SOL    HW214877   1.498   4.184   6.886
 4660SOL     OW14878   1.020   6.266   3.392
 4660SOL    HW114879   1.071   6.306   3.316
 4660SOL    HW214880   1.014   6.167   3.379
 4661SOL     OW14881   0.770   1.784   5.866
 4661SOL    HW114882   0.721   1.698   5.851
 4661SOL    HW214883   0.847   1.767   5.928
 4662SOL     OW14884   1.964   0.211   5.484
 4662SOL    HW114885   1.977   0.112   5.482
 4662SOL    HW214886   2.006   0.252   5.403
 4663SOL     OW14887   1.113   6.879   0.552
 4663SOL    HW114888   1.204   6.847   0.577
 4663SOL    HW214889   1.072   6.928   0.629
 4664SOL     OW14890   6.340   0.127   6.800
 4664SOL    HW114891   6.288   0.206   6.832
 4664SOL    HW214892   6.426   0.120   6.851
 4665SOL     OW14893   1.110   0.361   4.096
 4665SOL    HW114894   1.204   0.395   4.106
 4665SOL    HW214895   1.052   0.433   4.058
 4666SOL     OW14896   2.265   1.715   4.661
 4666SOL    HW114897   2.218   1.677   4.741
 4666SOL    HW214898   2.363   1.723   4.681
 4667SOL     OW14899   6.433   3.851   1.315
 4667SOL    HW114900   6.343   3.825   1.350
 4667SOL    HW214901   6.452   3.946   1.339
 4668SOL     OW14902   4.994   1.738   4.252
 4668SOL    HW114903   4.909   1.790   4.244
 4668SOL    HW214904   5.006   1.708   4.347
 4669SOL     OW14905   5.363   0.056   6.090
 4669SOL    HW114906   5.315   0.135   6.052
 4669SOL    HW214907   5.452   0.046   6.044
 4670SOL     OW14908   0.548   2.950   0.437
 4670SOL    HW114909   0.502   2.866   0.407
 4670SOL    HW214910   0.498   2.990   0.513
 4671SOL     OW14911   0.347   3.498   0.860
 4671SOL    HW114912   0.332   3.589   0.822
 4671SOL    HW214913   0.445   3.482   0.872
 4672SOL     OW14914   2.600   4.546   6.591
 4672SOL    HW114915   2.619   4.475   6.523
 4672SOL    HW214916   2.643   4.522   6.678
 4673SOL     OW14917   6.078   1.131   0.603
 4673SOL    HW114918   6.085   1.144   0.702
 4673SOL    HW214919   6.066   1.033   0.583
 4674SOL     OW14920   1.030   2.492   1.040
 4674SOL    HW114921   0.948   2.499   1.098
 4674SOL    HW214922   1.047   2.580   0.996
 4675SOL     OW14923   1.981   5.629   6.637
 4675SOL    HW114924   1.883   5.610   6.643
 4675SOL    HW214925   2.022   5.573   6.565
 4676SOL     OW14926   0.385   6.234   3.988
 4676SOL    HW114927   0.409   6.306   3.923
 4676SOL    HW214928   0.469   6.195   4.027
 4677SOL     OW14929   4.277   0.266   6.610
 4677SOL    HW114930   4.179   0.282   6.605
 4677SOL    HW214931   4.323   0.348   6.646
 4678SOL     OW14932   1.914   4.712   6.462
 4678SOL    HW114933   1.923   4.774   6.541
 4678SOL    HW214934   1.859   4.633   6.489
 4679SOL     OW14935   2.866   6.650   6.056
 4679SOL    HW114936   2.889   6.630   5.961
 4679SOL    HW214937   2.917   6.589   6.116
 4680SOL     OW14938   1.824   4.633   0.015
 4680SOL    HW114939   1.810   4.593   6.945
 4680SOL    HW214940   1.751   4.699   0.034
 4681SOL     OW14941   6.411   6.046   5.299
 4681SOL    HW114942   6.487   6.064   5.238
 4681SOL    HW214943   6.346   5.984   5.255
 4682SOL     OW14944   4.077   6.510   0.465
 4682SOL    HW114945   4.030   6.470   0.544
 4682SOL    HW214946   4.051   6.459   0.383
 4683SOL     OW14947   6.844   4.201   3.523
 4683SOL    HW114948   6.843   4.106   3.492
 4683SOL    HW214949   6.764   4.218   3.581
 4684SOL     OW14950   1.539   1.065   5.176
 4684SOL    HW114951   1.452   1.017   5.177
 4684SOL    HW214952   1.572   1.076   5.270
 4685SOL     OW14953   5.079   4.651   4.994
 4685SOL    HW114954   5.090   4.737   4.944
 4685SOL    HW214955   4.982   4.637   5.017
 4686SOL     OW14956   4.948   6.029   0.492
 4686SOL    HW114957   4.880   6.051   0.422
 4686SOL    HW214958   4.955   5.930   0.502
 4687SOL     OW14959   5.376   6.738   4.585
 4687SOL    HW114960   5.452   6.742   4.520
 4687SOL    HW214961   5.308   6.673   4.553
 4688SOL     OW14962   1.020   2.204   0.169
 4688SOL    HW114963   1.100   2.190   0.111
 4688SOL    HW214964   0.952   2.259   0.119
 4689SOL     OW14965   1.523   5.181   4.720
 4689SOL    HW114966   1.590   5.160   4.791
 4689SOL    HW214967   1.528   5.279   4.697
 4690SOL     OW14968   1.589   2.802   0.395
 4690SOL    HW114969   1.669   2.848   0.432
 4690SOL    HW214970   1.535   2.763   0.470
 4691SOL     OW14971   3.881   4.437   0.348
 4691SOL    HW114972   3.929   4.518   0.315
 4691SOL    HW214973   3.788   4.462   0.373
 4692SOL     OW14974   6.902   5.322   3.350
 4692SOL    HW114975   6.853   5.356   3.270
 4692SOL    HW214976   6.988   5.281   3.321
 4693SOL     OW14977   0.398   0.815   3.968
 4693SOL    HW114978   0.472   0.791   4.031
 4693SOL    HW214979   0.358   0.732   3.930
 4694SOL     OW14980   2.432   1.009   6.268
 4694SOL    HW114981   2.396   1.102   6.262
 4694SOL    HW214982   2.356   0.944   6.277
 4695SOL     OW14983   3.308   2.968   1.666
 4695SOL    HW114984   3.362   3.029   1.607
 4695SOL    HW214985   3.271   2.893   1.610
 4696SOL     OW14986   6.014   3.333   0.618
 4696SOL    HW114987   6.087   3.401   0.617
 4696SOL    HW214988   6.031   3.265   0.689
 4697SOL     OW14989   0.561   4.914   0.298
 4697SOL    HW114990   0.643   4.972   0.300
 4697SOL    HW214991   0.557   4.867   0.210
 4698SOL     OW14992   5.753   3.231   1.677
 4698SOL    HW114993   5.805   3.314   1.698
 4698SOL    HW214994   5.751   3.171   1.757
 4699SOL     OW14995   6.340   0.428   3.633
 4699SOL    HW114996   6.305   0.400   3.544
 4699SOL    HW214997   6.303   0.518   3.656
 4700SOL     OW14998   6.072   0.035   0.838
 4700SOL    HW114999   6.126   0.056   0.756
 4700SOL    HW215000   6.133   0.018   0.915
 4701SOL     OW15001   0.565   1.112   0.357
 4701SOL    HW115002   0.524   1.166   0.283
 4701SOL    HW215003   0.495   1.054   0.398
 4702SOL     OW15004   2.917   3.774   6.827
 4702SOL    HW115005   2.867   3.696   6.866
 4702SOL    HW215006   2.855   3.852   6.820
 4703SOL     OW15007   1.547   1.448   1.702
 4703SOL    HW115008   1.499   1.360   1.695
 4703SOL    HW215009   1.538   1.484   1.794
 4704SOL     OW15010   4.399   6.808   0.387
 4704SOL    HW115011   4.461   6.865   0.441
 4704SOL    HW215012   4.313   6.795   0.437
 4705SOL     OW15013   3.570   4.154   3.956
 4705SOL    HW115014   3.484   4.104   3.948
 4705SOL    HW215015   3.613   4.132   4.043
 4706SOL     OW15016   4.876   5.510   0.770
 4706SOL    HW115017   4.844   5.461   0.689
 4706SOL    HW215018   4.828   5.597   0.778
 4707SOL     OW15019   3.310   6.292   0.947
 4707SOL    HW115020   3.259   6.282   1.032
 4707SOL    HW215021   3.374   6.369   0.956
 4708SOL     OW15022   2.018   2.364   2.266
 4708SOL    HW115023   2.001   2.312   2.182
 4708SOL    HW215024   2.003   2.305   2.345
 4709SOL     OW15025   4.122   3.830   6.515
 4709SOL    HW115026   4.081   3.882   6.589
 4709SOL    HW215027   4.212   3.796   6.544
 4710SOL     OW15028   5.357   2.077   0.800
 4710SOL    HW115029   5.361   2.141   0.877
 4710SOL    HW215030   5.448   2.043   0.779
 4711SOL     OW15031   2.893   6.821   3.055
 4711SOL    HW115032   2.925   6.728   3.039
 4711SOL    HW215033   2.811   6.839   3.001
 4712SOL     OW15034   1.187   4.669   0.233
 4712SOL    HW115035   1.184   4.581   0.281
 4712SOL    HW215036   1.233   4.737   0.291
 4713SOL     OW15037   2.680   5.539   0.942
 4713SOL    HW115038   2.693   5.590   1.027
 4713SOL    HW215039   2.675   5.602   0.865
 4714SOL     OW15040   3.246   2.824   0.701
 4714SOL    HW115041   3.269   2.916   0.732
 4714SOL    HW215042   3.163   2.793   0.747
 4715SOL     OW15043   5.546   3.903   4.474
 4715SOL    HW115044   5.501   3.814   4.469
 4715SOL    HW215045   5.642   3.894   4.451
 4716SOL     OW15046   3.274   5.635   0.435
 4716SOL    HW115047   3.233   5.544   0.446
 4716SOL    HW215048   3.256   5.669   0.343
 4717SOL     OW15049   1.206   5.645   3.570
 4717SOL    HW115050   1.228   5.710   3.498
 4717SOL    HW215051   1.181   5.557   3.530
 4718SOL     OW15052   6.157   1.066   6.416
 4718SOL    HW115053   6.125   1.161   6.418
 4718SOL    HW215054   6.257   1.065   6.417
 4719SOL     OW15055   4.338   2.943   1.452
 4719SOL    HW115056   4.298   2.891   1.527
 4719SOL    HW215057   4.332   3.041   1.472
 4720SOL     OW15058   3.141   0.580   4.059
 4720SOL    HW115059   3.074   0.652   4.043
 4720SOL    HW215060   3.173   0.544   3.972
 4721SOL     OW15061   1.153   2.151   1.353
 4721SOL    HW115062   1.145   2.173   1.451
 4721SOL    HW215063   1.166   2.236   1.302
 4722SOL     OW15064   2.788   0.249   1.685
 4722SOL    HW115065   2.831   0.335   1.656
 4722SOL    HW215066   2.731   0.214   1.611
 4723SOL     OW15067   2.967   0.020   6.748
 4723SOL    HW115068   2.933   6.969   6.687
 4723SOL    HW215069   2.896   0.090   6.759
 4724SOL     OW15070   3.778   5.132   1.916
 4724SOL    HW115071   3.834   5.066   1.866
 4724SOL    HW215072   3.725   5.084   1.986
 4725SOL     OW15073   5.677   5.004   3.362
 4725SOL    HW115074   5.690   4.943   3.440
 4725SOL    HW215075   5.595   5.059   3.377
 4726SOL     OW15076   0.777   6.064   5.997
 4726SOL    HW115077   0.734   6.011   6.070
 4726SOL    HW215078   0.861   6.019   5.969
 4727SOL     OW15079   0.186   6.667   0.527
 4727SOL    HW115080   0.170   6.702   0.619
 4727SOL    HW215081   0.271   6.705   0.490
 4728SOL     OW15082   0.220   1.452   6.838
 4728SOL    HW115083   0.124   1.470   6.855
 4728SOL    HW215084   0.231   1.362   6.796
 4729SOL     OW15085   3.093   0.632   0.767
 4729SOL    HW115086   3.192   0.643   0.783
 4729SOL    HW215087   3.079   0.580   0.683
 4730SOL     OW15088   1.667   6.900   5.194
 4730SOL    HW115089   1.572   6.867   5.192
 4730SOL    HW215090   1.668   6.999   5.201
 4731SOL     OW15091   5.622   2.085   5.803
 4731SOL    HW115092   5.650   1.990   5.820
 4731SOL    HW215093   5.688   2.129   5.743
 4732SOL     OW15094   0.277   1.685   0.816
 4732SOL    HW115095   0.345   1.616   0.792
 4732SOL    HW215096   0.291   1.766   0.759
 4733SOL     OW15097   6.682   2.913   4.303
 4733SOL    HW115098   6.585   2.892   4.292
 4733SOL    HW215099   6.716   2.870   4.387
 4734SOL     OW15100   4.379   4.564   5.848
 4734SOL    HW115101   4.476   4.563   5.825
 4734SOL    HW215102   4.366   4.526   5.940
 4735SOL     OW15103   0.373   5.025   3.624
 4735SOL    HW115104   0.367   4.926   3.630
 4735SOL    HW215105   0.394   5.063   3.714
 4736SOL     OW15106   1.407   1.014   1.449
 4736SOL    HW115107   1.410   0.959   1.533
 4736SOL    HW215108   1.457   1.099   1.462
 4737SOL     OW15109   3.180   5.410   1.549
 4737SOL    HW115110   3.153   5.447   1.638
 4737SOL    HW215111   3.276   5.382   1.552
 4738SOL     OW15112   6.980   6.508   2.588
 4738SOL    HW115113   7.011   6.571   2.659
 4738SOL    HW215114   0.034   6.446   2.564
 4739SOL     OW15115   4.711   0.601   1.425
 4739SOL    HW115116   4.811   0.604   1.421
 4739SOL    HW215117   4.682   0.509   1.453
 4740SOL     OW15118   0.979   2.255   3.875
 4740SOL    HW115119   1.071   2.219   3.892
 4740SOL    HW215120   0.942   2.293   3.960
 4741SOL     OW15121   3.786   4.413   1.122
 4741SOL    HW115122   3.700   4.400   1.170
 4741SOL    HW215123   3.853   4.457   1.182
 4742SOL     OW15124   3.599   0.959   0.527
 4742SOL    HW115125   3.580   0.868   0.563
 4742SOL    HW215126   3.596   0.956   0.427
 4743SOL     OW15127   1.669   4.562   0.976
 4743SOL    HW115128   1.642   4.497   1.046
 4743SOL    HW215129   1.588   4.599   0.931
 4744SOL     OW15130   2.432   5.898   1.525
 4744SOL    HW115131   2.517   5.948   1.537
 4744SOL    HW215132   2.450   5.812   1.477
 4745SOL     OW15133   0.568   3.965   0.105
 4745SOL    HW115134   0.561   3.989   0.008
 4745SOL    HW215135   0.545   3.869   0.118
 4746SOL     OW15136   4.421   5.852   4.208
 4746SOL    HW115137   4.383   5.900   4.288
 4746SOL    HW215138   4.519   5.837   4.222
 4747SOL     OW15139   1.706   1.379   0.012
 4747SOL    HW115140   1.722   1.474   0.037
 4747SOL    HW215141   1.771   1.320   0.060
 4748SOL     OW15142   1.728   6.530   2.002
 4748SOL    HW115143   1.751   6.502   1.909
 4748SOL    HW215144   1.629   6.536   2.012
 4749SOL     OW15145   3.284   2.060   0.225
 4749SOL    HW115146   3.365   2.101   0.266
 4749SOL    HW215147   3.222   2.031   0.298
 4750SOL     OW15148   5.081   2.880   5.745
 4750SOL    HW115149   4.982   2.888   5.757
 4750SOL    HW215150   5.114   2.955   5.689
 4751SOL     OW15151   4.567   0.443   3.204
 4751SOL    HW115152   4.661   0.442   3.240
 4751SOL    HW215153   4.505   0.478   3.275
 4752SOL     OW15154   4.905   2.177   6.505
 4752SOL    HW115155   4.809   2.195   6.528
 4752SOL    HW215156   4.964   2.233   6.564
 4753SOL     OW15157   2.776   6.081   4.560
 4753SOL    HW115158   2.857   6.050   4.511
 4753SOL    HW215159   2.804   6.114   4.651
 4754SOL     OW15160   4.621   4.345   6.272
 4754SOL    HW115161   4.666   4.423   6.316
 4754SOL    HW215162   4.628   4.265   6.332
 4755SOL     OW15163   0.668   1.236   1.675
 4755SOL    HW115164   0.762   1.271   1.681
 4755SOL    HW215165   0.666   1.155   1.616
 4756SOL     OW15166   6.367   4.005   5.755
 4756SOL    HW115167   6.439   3.943   5.786
 4756SOL    HW215168   6.381   4.026   5.658
 4757SOL     OW15169   1.788   3.503   0.681
 4757SOL    HW115170   1.859   3.541   0.622
 4757SOL    HW215171   1.724   3.576   0.707
 4758SOL     OW15172   2.324   6.206   3.188
 4758SOL    HW115173   2.279   6.201   3.277
 4758SOL    HW215174   2.260   6.178   3.117
 4759SOL     OW15175   0.006   6.201   1.545
 4759SOL    HW115176   0.016   6.259   1.465
 4759SOL    HW215177   7.020   6.258   1.627
 4760SOL     OW15178   1.287   5.802   0.566
 4760SOL    HW115179   1.344   5.739   0.512
 4760SOL    HW215180   1.308   5.896   0.539
 4761SOL     OW15181   5.796   6.496   1.779
 4761SOL    HW115182   5.728   6.567   1.798
 4761SOL    HW215183   5.794   6.428   1.853
 4762SOL     OW15184   1.693   0.627   2.386
 4762SOL    HW115185   1.791   0.617   2.400
 4762SOL    HW215186   1.656   0.540   2.352
 4763SOL     OW15187   5.621   5.176   2.256
 4763SOL    HW115188   5.554   5.221   2.315
 4763SOL    HW215189   5.622   5.221   2.167
 4764SOL     OW15190   4.877   2.676   0.440
 4764SOL    HW115191   4.896   2.587   0.398
 4764SOL    HW215192   4.892   2.670   0.538
 4765SOL     OW15193   4.034   1.449   5.203
 4765SOL    HW115194   3.961   1.397   5.159
 4765SOL    HW215195   4.087   1.389   5.262
 4766SOL     OW15196   0.811   0.595   4.588
 4766SOL    HW115197   0.732   0.580   4.529
 4766SOL    HW215198   0.795   0.676   4.645
 4767SOL     OW15199   2.222   4.052   3.247
 4767SOL    HW115200   2.233   4.151   3.236
 4767SOL    HW215201   2.207   4.011   3.157
 4768SOL     OW15202   4.584   2.900   6.314
 4768SOL    HW115203   4.655   2.831   6.306
 4768SOL    HW215204   4.561   2.914   6.411
 4769SOL     OW15205   1.980   3.557   0.496
 4769SOL    HW115206   2.060   3.617   0.502
 4769SOL    HW215207   2.008   3.470   0.456
 4770SOL     OW15208   0.315   1.537   4.109
 4770SOL    HW115209   0.367   1.601   4.052
 4770SOL    HW215210   0.224   1.576   4.128
 4771SOL     OW15211   1.710   0.001   3.920
 4771SOL    HW115212   1.698   7.004   3.823
 4771SOL    HW215213   1.621   0.015   3.963
 4772SOL     OW15214   3.306   5.251   2.140
 4772SOL    HW115215   3.227   5.284   2.088
 4772SOL    HW215216   3.281   5.244   2.237
 4773SOL     OW15217   2.693   5.262   4.713
 4773SOL    HW115218   2.730   5.197   4.646
 4773SOL    HW215219   2.657   5.212   4.791
 4774SOL     OW15220   1.116   4.229   0.558
 4774SOL    HW115221   1.029   4.181   0.555
 4774SOL    HW215222   1.183   4.179   0.504
 4775SOL     OW15223   5.870   6.253   5.577
 4775SOL    HW115224   5.891   6.157   5.562
 4775SOL    HW215225   5.832   6.292   5.493
 4776SOL     OW15226   0.184   1.066   6.108
 4776SOL    HW115227   0.257   1.008   6.071
 4776SOL    HW215228   0.218   1.117   6.186
 4777SOL     OW15229   2.201   0.118   2.567
 4777SOL    HW115230   2.102   0.102   2.565
 4777SOL    HW215231   2.243   0.058   2.635
 4778SOL     OW15232   2.096   1.035   0.085
 4778SOL    HW115233   2.150   1.119   0.077
 4778SOL    HW215234   2.107   0.997   0.177
 4779SOL     OW15235   5.189   0.257   4.791
 4779SOL    HW115236   5.233   0.266   4.701
 4779SOL    HW215237   5.248   0.299   4.860
 4780SOL     OW15238   5.193   2.620   5.617
 4780SOL    HW115239   5.117   2.557   5.627
 4780SOL    HW215240   5.183   2.696   5.682
 4781SOL     OW15241   2.493   6.334   1.856
 4781SOL    HW115242   2.448   6.287   1.780
 4781SOL    HW215243   2.530   6.266   1.920
 4782SOL     OW15244   6.578   6.946   4.583
 4782SOL    HW115245   6.611   6.904   4.498
 4782SOL    HW215246   6.523   0.006   4.560
 4783SOL     OW15247   0.084   3.446   6.045
 4783SOL    HW115248   0.049   3.486   6.130
 4783SOL    HW215249   0.135   3.515   5.995
 4784SOL     OW15250   5.215   3.170   6.872
 4784SOL    HW115251   5.314   3.162   6.856
 4784SOL    HW215252   5.180   3.082   6.904
 4785SOL     OW15253   0.113   6.883   4.965
 4785SOL    HW115254   0.183   6.871   4.895
 4785SOL    HW215255   0.137   6.961   5.023
 4786SOL     OW15256   1.051   6.053   0.525
 4786SOL    HW115257   1.056   6.112   0.605
 4786SOL    HW215258   1.101   6.095   0.449
 4787SOL     OW15259   4.122   1.685   4.077
 4787SOL    HW115260   4.139   1.587   4.068
 4787SOL    HW215261   4.202   1.730   4.116
 4788SOL     OW15262   0.025   6.263   0.382
 4788SOL    HW115263   0.027   6.200   0.460
 4788SOL    HW215264   6.958   6.257   0.336
 4789SOL     OW15265   5.765   1.010   2.630
 4789SOL    HW115266   5.676   1.029   2.671
 4789SOL    HW215267   5.782   1.074   2.555
 4790SOL     OW15268   6.837   1.926   5.042
 4790SOL    HW115269   6.811   1.878   4.958
 4790SOL    HW215270   6.928   1.965   5.032
 4791SOL     OW15271   0.870   0.323   0.651
 4791SOL    HW115272   0.824   0.331   0.739
 4791SOL    HW215273   0.907   0.412   0.624
 4792SOL     OW15274   1.962   3.603   2.410
 4792SOL    HW115275   2.015   3.529   2.451
 4792SOL    HW215276   1.947   3.584   2.313
 4793SOL     OW15277   1.067   3.439   5.544
 4793SOL    HW115278   1.107   3.380   5.474
 4793SOL    HW215279   1.091   3.535   5.525
 4794SOL     OW15280   4.456   1.983   4.495
 4794SOL    HW115281   4.377   1.967   4.435
 4794SOL    HW215282   4.429   2.043   4.570
 4795SOL     OW15283   7.019   0.837   6.524
 4795SOL    HW115284   6.938   0.866   6.575
 4795SOL    HW215285   0.056   0.780   6.582
 4796SOL     OW15286   4.549   1.349   5.400
 4796SOL    HW115287   4.640   1.381   5.374
 4796SOL    HW215288   4.521   1.392   5.486
 4797SOL     OW15289   1.557   5.173   5.502
 4797SOL    HW115290   1.597   5.086   5.474
 4797SOL    HW215291   1.560   5.181   5.601
 4798SOL     OW15292   4.060   5.593   0.073
 4798SOL    HW115293   4.094   5.551   0.157
 4798SOL    HW215294   3.982   5.541   0.039
 4799SOL     OW15295   4.484   2.524   6.656
 4799SOL    HW115296   4.433   2.511   6.571
 4799SOL    HW215297   4.426   2.569   6.723
 4800SOL     OW15298   0.411   4.383   0.131
 4800SOL    HW115299   0.442   4.311   0.192
 4800SOL    HW215300   0.370   4.457   0.185
 4801SOL     OW15301   4.815   2.503   1.749
 4801SOL    HW115302   4.724   2.517   1.790
 4801SOL    HW215303   4.820   2.552   1.662
 4802SOL     OW15304   6.459   0.162   4.526
 4802SOL    HW115305   6.373   0.116   4.502
 4802SOL    HW215306   6.442   0.260   4.538
 4803SOL     OW15307   5.057   3.955   6.128
 4803SOL    HW115308   5.072   3.975   6.225
 4803SOL    HW215309   4.983   3.889   6.118
 4804SOL     OW15310   5.361   1.884   0.454
 4804SOL    HW115311   5.265   1.887   0.482
 4804SOL    HW215312   5.366   1.886   0.354
 4805SOL     OW15313   6.221   1.750   0.102
 4805SOL    HW115314   6.260   1.695   0.176
 4805SOL    HW215315   6.254   1.844   0.109
 4806SOL     OW15316   1.248   1.321   3.564
 4806SOL    HW115317   1.200   1.253   3.508
 4806SOL    HW215318   1.338   1.339   3.524
 4807SOL     OW15319   0.120   4.144   5.680
 4807SOL    HW115320   0.190   4.208   5.713
 4807SOL    HW215321   0.029   4.179   5.703
 4808SOL     OW15322   4.010   5.916   1.554
 4808SOL    HW115323   3.992   5.819   1.574
 4808SOL    HW215324   3.966   5.973   1.623
 4809SOL     OW15325   3.037   3.902   1.766
 4809SOL    HW115326   2.983   3.820   1.784
 4809SOL    HW215327   2.978   3.972   1.724
 4810SOL     OW15328   1.432   5.421   4.129
 4810SOL    HW115329   1.500   5.434   4.057
 4810SOL    HW215330   1.466   5.354   4.195
 4811SOL     OW15331   3.242   3.607   4.155
 4811SOL    HW115332   3.174   3.644   4.218
 4811SOL    HW215333   3.263   3.512   4.180
 4812SOL     OW15334   1.338   0.528   2.980
 4812SOL    HW115335   1.296   0.569   3.061
 4812SOL    HW215336   1.400   0.593   2.937
 4813SOL     OW15337   0.238   1.625   5.742
 4813SOL    HW115338   0.169   1.574   5.691
 4813SOL    HW215339   0.310   1.656   5.680
 4814SOL     OW15340   6.222   3.753   1.477
 4814SOL    HW115341   6.134   3.795   1.456
 4814SOL    HW215342   6.258   3.791   1.562
 4815SOL     OW15343   5.943   4.449   2.166
 4815SOL    HW115344   5.856   4.488   2.198
 4815SOL    HW215345   5.970   4.375   2.226
 4816SOL     OW15346   3.278   0.825   2.584
 4816SOL    HW115347   3.313   0.877   2.662
 4816SOL    HW215348   3.200   0.874   2.544
 4817SOL     OW15349   4.060   1.688   1.012
 4817SOL    HW115350   4.034   1.630   1.089
 4817SOL    HW215351   4.152   1.723   1.025
 4818SOL     OW15352   4.408   0.032   4.992
 4818SOL    HW115353   4.337   6.993   5.028
 4818SOL    HW215354   4.379   0.068   4.903
 4819SOL     OW15355   2.996   0.864   0.621
 4819SOL    HW115356   2.971   0.813   0.539
 4819SOL    HW215357   3.036   0.802   0.688
 4820SOL     OW15358   5.702   4.070   1.817
 4820SOL    HW115359   5.628   4.010   1.848
 4820SOL    HW215360   5.703   4.071   1.717
 4821SOL     OW15361   0.142   5.434   1.629
 4821SOL    HW115362   0.168   5.411   1.722
 4821SOL    HW215363   0.077   5.510   1.630
 4822SOL     OW15364   0.609   3.959   2.034
 4822SOL    HW115365   0.700   3.954   1.994
 4822SOL    HW215366   0.569   3.868   2.041
 4823SOL     OW15367   1.752   1.391   3.838
 4823SOL    HW115368   1.776   1.296   3.815
 4823SOL    HW215369   1.653   1.402   3.834
 4824SOL     OW15370   5.511   2.678   1.480
 4824SOL    HW115371   5.417   2.711   1.481
 4824SOL    HW215372   5.573   2.755   1.501
 4825SOL     OW15373   0.093   3.137   3.485
 4825SOL    HW115374   0.185   3.169   3.462
 4825SOL    HW215375   0.089   3.116   3.583
 4826SOL     OW15376   6.833   6.137   6.746
 4826SOL    HW115377   6.818   6.209   6.813
 4826SOL    HW215378   6.877   6.174   6.665
 4827SOL     OW15379   5.763   1.279   1.231
 4827SOL    HW115380   5.751   1.194   1.283
 4827SOL    HW215381   5.855   1.281   1.192
 4828SOL     OW15382   4.975   3.366   6.910
 4828SOL    HW115383   5.069   3.331   6.909
 4828SOL    HW215384   4.912   3.291   6.888
 4829SOL     OW15385   3.600   0.102   5.054
 4829SOL    HW115386   3.623   0.179   5.113
 4829SOL    HW215387   3.525   0.128   4.993
 4830SOL     OW15388   4.109   6.129   4.882
 4830SOL    HW115389   4.057   6.187   4.944
 4830SOL    HW215390   4.177   6.184   4.834
 4831SOL     OW15391   6.595   3.594   5.778
 4831SOL    HW115392   6.665   3.665   5.785
 4831SOL    HW215393   6.559   3.591   5.685
 4832SOL     OW15394   2.274   2.504   6.179
 4832SOL    HW115395   2.201   2.440   6.155
 4832SOL    HW215396   2.360   2.472   6.140
 4833SOL     OW15397   5.726   1.593   2.924
 4833SOL    HW115398   5.683   1.668   2.872
 4833SOL    HW215399   5.821   1.582   2.894
 4834SOL     OW15400   5.519   1.022   3.134
 4834SOL    HW115401   5.481   1.113   3.147
 4834SOL    HW215402   5.526   0.976   3.222
 4835SOL     OW15403   2.253   0.837   5.673
 4835SOL    HW115404   2.295   0.751   5.705
 4835SOL    HW215405   2.154   0.829   5.676
 4836SOL     OW15406   5.372   2.769   2.170
 4836SOL    HW115407   5.342   2.860   2.196
 4836SOL    HW215408   5.327   2.742   2.085
 4837SOL     OW15409   0.413   4.057   0.829
 4837SOL    HW115410   0.477   4.055   0.907
 4837SOL    HW215411   0.463   4.081   0.746
 4838SOL     OW15412   2.622   5.695   2.417
 4838SOL    HW115413   2.594   5.629   2.487
 4838SOL    HW215414   2.687   5.653   2.355
 4839SOL     OW15415   0.644   6.921   6.867
 4839SOL    HW115416   0.644   6.935   6.768
 4839SOL    HW215417   0.704   6.845   6.891
 4840SOL     OW15418   6.430   6.580   0.107
 4840SOL    HW115419   6.493   6.622   0.042
 4840SOL    HW215420   6.339   6.572   0.066
 4841SOL     OW15421   2.458   6.105   2.674
 4841SOL    HW115422   2.453   6.048   2.756
 4841SOL    HW215423   2.514   6.060   2.606
 4842SOL     OW15424   3.617   6.466   1.238
 4842SOL    HW115425   3.548   6.473   1.310
 4842SOL    HW215426   3.599   6.535   1.167
 4843SOL     OW15427   0.692   2.881   6.699
 4843SOL    HW115428   0.747   2.810   6.655
 4843SOL    HW215429   0.685   2.862   6.797
 4844SOL     OW15430   0.492   1.294   5.728
 4844SOL    HW115431   0.396   1.268   5.742
 4844SOL    HW215432   0.509   1.383   5.769
 4845SOL     OW15433   5.954   4.947   3.768
 4845SOL    HW115434   5.936   5.023   3.705
 4845SOL    HW215435   5.905   4.866   3.738
 4846SOL     OW15436   0.715   5.410   0.483
 4846SOL    HW115437   0.782   5.472   0.524
 4846SOL    HW215438   0.623   5.448   0.495
 4847SOL     OW15439   4.925   2.411   4.434
 4847SOL    HW115440   4.879   2.419   4.523
 4847SOL    HW215441   4.915   2.317   4.400
 4848SOL     OW15442   2.852   2.064   1.996
 4848SOL    HW115443   2.786   2.011   2.050
 4848SOL    HW215444   2.875   2.148   2.045
 4849SOL     OW15445   0.883   6.696   6.655
 4849SOL    HW115446   0.891   6.793   6.632
 4849SOL    HW215447   0.958   6.646   6.614
 4850SOL     OW15448   3.599   0.556   2.435
 4850SOL    HW115449   3.680   0.497   2.427
 4850SOL    HW215450   3.547   0.530   2.516
 4851SOL     OW15451   5.609   0.770   5.466
 4851SOL    HW115452   5.673   0.788   5.391
 4851SOL    HW215453   5.516   0.779   5.432
 4852SOL     OW15454   1.917   1.998   1.166
 4852SOL    HW115455   1.870   1.979   1.252
 4852SOL    HW215456   1.927   2.097   1.154
 4853SOL     OW15457   3.136   1.674   1.741
 4853SOL    HW115458   3.105   1.766   1.714
 4853SOL    HW215459   3.228   1.681   1.779
 4854SOL     OW15460   4.074   0.132   0.119
 4854SOL    HW115461   4.016   0.159   0.196
 4854SOL    HW215462   4.030   0.157   0.034
 4855SOL     OW15463   0.018   2.432   2.607
 4855SOL    HW115464   6.944   2.410   2.631
 4855SOL    HW215465   0.031   2.531   2.609
 4856SOL     OW15466   2.186   4.315   3.340
 4856SOL    HW115467   2.107   4.260   3.365
 4856SOL    HW215468   2.155   4.399   3.294
 4857SOL     OW15469   0.480   1.504   6.180
 4857SOL    HW115470   0.410   1.447   6.137
 4857SOL    HW215471   0.457   1.519   6.276
 4858SOL     OW15472   1.256   0.966   3.945
 4858SOL    HW115473   1.158   0.983   3.933
 4858SOL    HW215474   1.303   0.979   3.858
 4859SOL     OW15475   3.090   5.146   5.604
 4859SOL    HW115476   3.176   5.113   5.645
 4859SOL    HW215477   3.111   5.207   5.528
 4860SOL     OW15478   4.539   4.410   0.585
 4860SOL    HW115479   4.502   4.323   0.550
 4860SOL    HW215480   4.560   4.400   0.682
 4861SOL     OW15481   5.091   3.685   5.695
 4861SOL    HW115482   5.011   3.638   5.733
 4861SOL    HW215483   5.165   3.686   5.762
 4862SOL     OW15484   1.199   6.577   1.730
 4862SOL    HW115485   1.241   6.519   1.661
 4862SOL    HW215486   1.155   6.655   1.686
 4863SOL     OW15487   5.504   4.332   6.684
 4863SOL    HW115488   5.600   4.313   6.705
 4863SOL    HW215489   5.446   4.285   6.750
 4864SOL     OW15490   3.161   0.552   3.787
 4864SOL    HW115491   3.188   0.645   3.764
 4864SOL    HW215492   3.065   0.538   3.763
 4865SOL     OW15493   2.164   6.409   5.086
 4865SOL    HW115494   2.254   6.444   5.115
 4865SOL    HW215495   2.098   6.484   5.089
 4866SOL     OW15496   6.301   3.973   6.478
 4866SOL    HW115497   6.226   4.037   6.497
 4866SOL    HW215498   6.262   3.885   6.449
 4867SOL     OW15499   4.677   6.840   3.093
 4867SOL    HW115500   4.747   6.835   3.164
 4867SOL    HW215501   4.720   6.858   3.005
 4868SOL     OW15502   6.794   4.637   1.615
 4868SOL    HW115503   6.741   4.601   1.691
 4868SOL    HW215504   6.799   4.737   1.622
 4869SOL     OW15505   0.850   0.658   0.484
 4869SOL    HW115506   0.869   0.756   0.478
 4869SOL    HW215507   0.918   0.608   0.430
 4870SOL     OW15508   0.429   6.101   2.107
 4870SOL    HW115509   0.446   6.070   2.013
 4870SOL    HW215510   0.465   6.194   2.118
 4871SOL     OW15511   1.726   1.782   4.042
 4871SOL    HW115512   1.767   1.869   4.015
 4871SOL    HW215513   1.705   1.784   4.140
 4872SOL     OW15514   5.618   6.300   3.131
 4872SOL    HW115515   5.609   6.399   3.129
 4872SOL    HW215516   5.599   6.266   3.223
 4873SOL     OW15517   6.268   5.604   5.452
 4873SOL    HW115518   6.171   5.624   5.442
 4873SOL    HW215519   6.299   5.548   5.375
 4874SOL     OW15520   4.905   2.905   3.193
 4874SOL    HW115521   4.989   2.951   3.165
 4874SOL    HW215522   4.927   2.833   3.260
 4875SOL     OW15523   5.494   5.983   5.368
 4875SOL    HW115524   5.534   6.022   5.452
 4875SOL    HW215525   5.566   5.943   5.312
 4876SOL     OW15526   1.394   1.088   2.428
 4876SOL    HW115527   1.357   1.102   2.336
 4876SOL    HW215528   1.452   1.006   2.428
 4877SOL     OW15529   6.839   1.450   5.420
 4877SOL    HW115530   6.795   1.367   5.454
 4877SOL    HW215531   6.854   1.442   5.322
 4878SOL     OW15532   6.855   2.666   2.274
 4878SOL    HW115533   6.891   2.573   2.273
 4878SOL    HW215534   6.891   2.717   2.196
 4879SOL     OW15535   5.511   1.037   2.725
 4879SOL    HW115536   5.515   1.108   2.795
 4879SOL    HW215537   5.511   0.947   2.769
 4880SOL     OW15538   6.516   3.183   6.418
 4880SOL    HW115539   6.494   3.091   6.450
 4880SOL    HW215540   6.560   3.178   6.329
 4881SOL     OW15541   1.860   2.391   1.404
 4881SOL    HW115542   1.888   2.438   1.488
 4881SOL    HW215543   1.940   2.381   1.344
 4882SOL     OW15544   4.265   2.086   4.308
 4882SOL    HW115545   4.234   2.136   4.389
 4882SOL    HW215546   4.349   2.128   4.274
 4883SOL     OW15547   6.097   4.334   0.828
 4883SOL    HW115548   6.059   4.273   0.898
 4883SOL    HW215549   6.095   4.288   0.740
 4884SOL     OW15550   2.063   0.124   1.222
 4884SOL    HW115551   2.069   0.212   1.175
 4884SOL    HW215552   2.073   0.137   1.320
 4885SOL     OW15553   1.402   4.265   0.216
 4885SOL    HW115554   1.470   4.290   0.285
 4885SOL    HW215555   1.448   4.241   0.130
 4886SOL     OW15556   2.553   1.420   2.050
 4886SOL    HW115557   2.567   1.506   2.099
 4886SOL    HW215558   2.466   1.423   2.001
 4887SOL     OW15559   6.105   6.572   1.269
 4887SOL    HW115560   6.178   6.638   1.288
 4887SOL    HW215561   6.133   6.513   1.193
 4888SOL     OW15562   3.731   0.025   2.862
 4888SOL    HW115563   3.740   0.011   2.961
 4888SOL    HW215564   3.786   6.978   2.814
 4889SOL     OW15565   6.750   3.063   3.731
 4889SOL    HW115566   6.675   3.068   3.665
 4889SOL    HW215567   6.717   3.021   3.816
 4890SOL     OW15568   6.436   1.594   4.732
 4890SOL    HW115569   6.530   1.576   4.762
 4890SOL    HW215570   6.373   1.576   4.808
 4891SOL     OW15571   2.830   5.354   6.183
 4891SOL    HW115572   2.831   5.262   6.145
 4891SOL    HW215573   2.902   5.409   6.140
 4892SOL     OW15574   4.886   5.774   2.908
 4892SOL    HW115575   4.836   5.845   2.957
 4892SOL    HW215576   4.826   5.733   2.839
 4893SOL     OW15577   0.909   3.492   1.382
 4893SOL    HW115578   0.994   3.496   1.436
 4893SOL    HW215579   0.855   3.575   1.400
 4894SOL     OW15580   5.237   6.821   1.959
 4894SOL    HW115581   5.142   6.789   1.964
 4894SOL    HW215582   5.293   6.754   1.911
 4895SOL     OW15583   0.187   4.477   5.081
 4895SOL    HW115584   0.256   4.443   5.146
 4895SOL    HW215585   0.158   4.403   5.021
 4896SOL     OW15586   2.152   4.953   4.620
 4896SOL    HW115587   2.185   4.973   4.712
 4896SOL    HW215588   2.084   5.021   4.594
 4897SOL     OW15589   1.909   6.569   5.353
 4897SOL    HW115590   1.919   6.625   5.271
 4897SOL    HW215591   1.831   6.507   5.341
 4898SOL     OW15592   5.051   1.567   3.595
 4898SOL    HW115593   5.063   1.646   3.534
 4898SOL    HW215594   5.110   1.492   3.564
 4899SOL     OW15595   6.739   6.645   1.842
 4899SOL    HW115596   6.726   6.553   1.806
 4899SOL    HW215597   6.799   6.641   1.923
 4900SOL     OW15598   3.896   6.063   5.639
 4900SOL    HW115599   3.854   6.153   5.632
 4900SOL    HW215600   3.962   6.062   5.714
 4901SOL     OW15601   1.479   1.214   6.240
 4901SOL    HW115602   1.490   1.115   6.227
 4901SOL    HW215603   1.410   1.231   6.310
 4902SOL     OW15604   1.998   6.681   5.596
 4902SOL    HW115605   1.943   6.693   5.678
 4902SOL    HW215606   1.939   6.654   5.520
 4903SOL     OW15607   4.774   4.062   2.509
 4903SOL    HW115608   4.764   4.054   2.608
 4903SOL    HW215609   4.791   3.972   2.470
 4904SOL     OW15610   1.313   6.792   0.701
 4904SOL    HW115611   1.373   6.822   0.775
 4904SOL    HW215612   1.369   6.759   0.625
 4905SOL     OW15613   3.029   6.175   3.257
 4905SOL    HW115614   3.100   6.238   3.228
 4905SOL    HW215615   3.012   6.187   3.355
 4906SOL     OW15616   4.946   3.429   4.830
 4906SOL    HW115617   5.016   3.492   4.796
 4906SOL    HW215618   4.896   3.471   4.905
 4907SOL     OW15619   4.591   1.800   0.081
 4907SOL    HW115620   4.493   1.809   0.097
 4907SOL    HW215621   4.633   1.891   0.078
 4908SOL     OW15622   3.990   6.936   6.903
 4908SOL    HW115623   3.890   6.934   6.893
 4908SOL    HW215624   4.022   0.010   6.904
 4909SOL     OW15625   5.088   4.758   4.569
 4909SOL    HW115626   5.117   4.689   4.503
 4909SOL    HW215627   5.019   4.817   4.528
 4910SOL     OW15628   4.632   2.309   5.899
 4910SOL    HW115629   4.657   2.404   5.918
 4910SOL    HW215630   4.692   2.248   5.950
 4911SOL     OW15631   6.509   2.247   2.281
 4911SOL    HW115632   6.502   2.346   2.299
 4911SOL    HW215633   6.417   2.209   2.269
 4912SOL     OW15634   5.741   2.836   3.781
 4912SOL    HW115635   5.658   2.839   3.836
 4912SOL    HW215636   5.783   2.746   3.788
 4913SOL     OW15637   0.763   3.873   5.641
 4913SOL    HW115638   0.841   3.876   5.578
 4913SOL    HW215639   0.678   3.883   5.588
 4914SOL     OW15640   4.405   0.660   3.304
 4914SOL    HW115641   4.451   0.659   3.393
 4914SOL    HW215642   4.308   0.639   3.317
 4915SOL     OW15643   3.314   5.076   5.714
 4915SOL    HW115644   3.363   5.023   5.645
 4915SOL    HW215645   3.379   5.126   5.771
 4916SOL     OW15646   5.672   2.695   4.121
 4916SOL    HW115647   5.585   2.711   4.073
 4916SOL    HW215648   5.662   2.722   4.216
 4917SOL     OW15649   4.328   6.654   0.188
 4917SOL    HW115650   4.234   6.678   0.167
 4917SOL    HW215651   4.363   6.713   0.261
 4918SOL     OW15652   5.942   4.894   3.143
 4918SOL    HW115653   6.014   4.933   3.086
 4918SOL    HW215654   5.855   4.938   3.121
 4919SOL     OW15655   2.988   3.907   2.136
 4919SOL    HW115656   3.075   3.945   2.105
 4919SOL    HW215657   2.916   3.975   2.122
 4920SOL     OW15658   6.740   1.453   5.996
 4920SOL    HW115659   6.673   1.521   6.024
 4920SOL    HW215660   6.824   1.464   6.049
 4921SOL     OW15661   0.171   0.194   2.585
 4921SOL    HW115662   0.212   0.184   2.676
 4921SOL    HW215663   0.243   0.216   2.518
 4922SOL     OW15664   3.438   1.912   6.016
 4922SOL    HW115665   3.423   1.831   6.074
 4922SOL    HW215666   3.373   1.984   6.043
 4923SOL     OW15667   3.749   1.550   1.819
 4923SOL    HW115668   3.735   1.454   1.844
 4923SOL    HW215669   3.734   1.608   1.899
 4924SOL     OW15670   2.682   0.616   5.372
 4924SOL    HW115671   2.768   0.582   5.334
 4924SOL    HW215672   2.688   0.715   5.385
 4925SOL     OW15673   5.897   6.479   3.754
 4925SOL    HW115674   5.797   6.473   3.762
 4925SOL    HW215675   5.933   6.390   3.724
 4926SOL     OW15676   5.171   2.794   1.052
 4926SOL    HW115677   5.089   2.822   1.101
 4926SOL    HW215678   5.224   2.875   1.028
 4927SOL     OW15679   3.674   1.410   6.360
 4927SOL    HW115680   3.642   1.434   6.269
 4927SOL    HW215681   3.725   1.324   6.357
 4928SOL     OW15682   6.989   2.708   0.977
 4928SOL    HW115683   6.974   2.782   0.911
 4928SOL    HW215684   6.994   2.747   1.069
 4929SOL     OW15685   0.822   6.128   5.206
 4929SOL    HW115686   0.791   6.221   5.187
 4929SOL    HW215687   0.804   6.069   5.128
 4930SOL     OW15688   5.010   5.950   2.030
 4930SOL    HW115689   4.920   5.916   2.005
 4930SOL    HW215690   5.023   6.041   1.990
 4931SOL     OW15691   6.722   5.383   0.220
 4931SOL    HW115692   6.769   5.359   0.305
 4931SOL    HW215693   6.634   5.426   0.242
 4932SOL     OW15694   3.604   3.360   2.023
 4932SOL    HW115695   3.568   3.303   2.097
 4932SOL    HW215696   3.590   3.314   1.935
 4933SOL     OW15697   2.121   6.361   5.446
 4933SOL    HW115698   2.066   6.431   5.399
 4933SOL    HW215699   2.060   6.304   5.501
 4934SOL     OW15700   4.020   5.496   2.377
 4934SOL    HW115701   3.933   5.521   2.419
 4934SOL    HW215702   4.011   5.408   2.331
 4935SOL     OW15703   0.531   1.099   6.243
 4935SOL    HW115704   0.487   1.042   6.174
 4935SOL    HW215705   0.629   1.082   6.242
 4936SOL     OW15706   3.838   2.695   0.711
 4936SOL    HW115707   3.750   2.678   0.756
 4936SOL    HW215708   3.859   2.619   0.650
 4937SOL     OW15709   4.647   2.769   5.152
 4937SOL    HW115710   4.578   2.739   5.086
 4937SOL    HW215711   4.737   2.766   5.109
 4938SOL     OW15712   4.106   5.178   5.831
 4938SOL    HW115713   4.197   5.140   5.812
 4938SOL    HW215714   4.066   5.212   5.746
 4939SOL     OW15715   4.778   3.344   6.084
 4939SOL    HW115716   4.869   3.315   6.113
 4939SOL    HW215717   4.722   3.263   6.063
 4940SOL     OW15718   1.648   5.888   4.289
 4940SOL    HW115719   1.665   5.861   4.195
 4940SOL    HW215720   1.610   5.811   4.340
 4941SOL     OW15721   5.373   0.435   1.082
 4941SOL    HW115722   5.467   0.447   1.113
 4941SOL    HW215723   5.372   0.391   0.992
 4942SOL     OW15724   5.046   3.361   5.649
 4942SOL    HW115725   5.041   3.361   5.749
 4942SOL    HW215726   4.953   3.373   5.611
 4943SOL     OW15727   5.184   2.468   1.569
 4943SOL    HW115728   5.168   2.550   1.514
 4943SOL    HW215729   5.185   2.492   1.666
 4944SOL     OW15730   2.349   4.574   2.161
 4944SOL    HW115731   2.279   4.541   2.225
 4944SOL    HW215732   2.438   4.572   2.206
 4945SOL     OW15733   0.255   6.214   4.803
 4945SOL    HW115734   0.228   6.134   4.856
 4945SOL    HW215735   0.266   6.292   4.864
 4946SOL     OW15736   0.201   4.328   2.380
 4946SOL    HW115737   0.195   4.427   2.389
 4946SOL    HW215738   0.224   4.304   2.286
 4947SOL     OW15739   6.805   0.124   1.617
 4947SOL    HW115740   6.837   0.054   1.552
 4947SOL    HW215741   6.716   0.158   1.586
 4948SOL     OW15742   2.057   0.961   2.248
 4948SOL    HW115743   2.018   0.886   2.195
 4948SOL    HW215744   2.156   0.963   2.233
 4949SOL     OW15745   4.988   1.743   4.750
 4949SOL    HW115746   4.993   1.702   4.659
 4949SOL    HW215747   4.942   1.832   4.745
 4950SOL     OW15748   2.809   5.449   5.348
 4950SOL    HW115749   2.775   5.380   5.411
 4950SOL    HW215750   2.741   5.465   5.276
 4951SOL     OW15751   4.783   2.019   3.950
 4951SOL    HW115752   4.737   1.958   3.886
 4951SOL    HW215753   4.789   1.975   4.040
 4952SOL     OW15754   0.256   4.728   4.959
 4952SOL    HW115755   0.242   4.642   5.008
 4952SOL    HW215756   0.176   4.746   4.901
 4953SOL     OW15757   1.896   5.596   1.706
 4953SOL    HW115758   1.968   5.639   1.652
 4953SOL    HW215759   1.865   5.660   1.776
 4954SOL     OW15760   6.513   6.248   0.326
 4954SOL    HW115761   6.479   6.342   0.327
 4954SOL    HW215762   6.532   6.218   0.419
 4955SOL     OW15763   1.365   0.322   1.910
 4955SOL    HW115764   1.425   0.250   1.945
 4955SOL    HW215765   1.363   0.397   1.976
 4956SOL     OW15766   5.877   6.509   4.621
 4956SOL    HW115767   5.954   6.479   4.677
 4956SOL    HW215768   5.910   6.544   4.533
 4957SOL     OW15769   1.649   6.480   3.402
 4957SOL    HW115770   1.696   6.514   3.483
 4957SOL    HW215771   1.641   6.381   3.407
 4958SOL     OW15772   0.439   6.211   6.532
 4958SOL    HW115773   0.486   6.195   6.444
 4958SOL    HW215774   0.475   6.295   6.574
 4959SOL     OW15775   0.657   1.079   0.703
 4959SOL    HW115776   0.568   1.038   0.684
 4959SOL    HW215777   0.726   1.039   0.643
 4960SOL     OW15778   3.905   6.247   5.013
 4960SOL    HW115779   3.922   6.263   5.110
 4960SOL    HW215780   3.807   6.257   4.994
 4961SOL     OW15781   4.347   0.774   5.672
 4961SOL    HW115782   4.364   0.682   5.635
 4961SOL    HW215783   4.401   0.841   5.621
 4962SOL     OW15784   6.144   2.496   1.627
 4962SOL    HW115785   6.169   2.535   1.715
 4962SOL    HW215786   6.053   2.527   1.602
 4963SOL     OW15787   6.851   4.342   1.757
 4963SOL    HW115788   6.948   4.345   1.734
 4963SOL    HW215789   6.834   4.396   1.839
 4964SOL     OW15790   3.461   6.453   2.812
 4964SOL    HW115791   3.436   6.392   2.888
 4964SOL    HW215792   3.379   6.502   2.780
 4965SOL     OW15793   0.205   6.740   4.491
 4965SOL    HW115794   0.152   6.691   4.421
 4965SOL    HW215795   0.286   6.781   4.449
 4966SOL     OW15796   3.564   5.444   3.990
 4966SOL    HW115797   3.478   5.424   3.942
 4966SOL    HW215798   3.601   5.360   4.029
 4967SOL     OW15799   4.836   2.125   6.016
 4967SOL    HW115800   4.879   2.195   6.072
 4967SOL    HW215801   4.898   2.098   5.943
 4968SOL     OW15802   5.625   3.990   5.804
 4968SOL    HW115803   5.650   3.984   5.901
 4968SOL    HW215804   5.550   4.055   5.794
 4969SOL     OW15805   0.478   2.155   1.292
 4969SOL    HW115806   0.465   2.231   1.229
 4969SOL    HW215807   0.470   2.069   1.241
 4970SOL     OW15808   0.938   2.902   6.008
 4970SOL    HW115809   0.891   2.857   5.933
 4970SOL    HW215810   0.939   3.001   5.993
 4971SOL     OW15811   6.750   5.697   3.524
 4971SOL    HW115812   6.782   5.617   3.574
 4971SOL    HW215813   6.658   5.679   3.488
 4972SOL     OW15814   1.596   2.115   5.400
 4972SOL    HW115815   1.691   2.146   5.402
 4972SOL    HW215816   1.577   2.066   5.315
 4973SOL     OW15817   5.755   5.790   3.188
 4973SOL    HW115818   5.692   5.757   3.259
 4973SOL    HW215819   5.731   5.748   3.101
 4974SOL     OW15820   4.270   6.550   1.732
 4974SOL    HW115821   4.239   6.624   1.672
 4974SOL    HW215822   4.325   6.589   1.807
 4975SOL     OW15823   5.445   5.794   0.026
 4975SOL    HW115824   5.371   5.731   0.048
 4975SOL    HW215825   5.446   5.870   0.091
 4976SOL     OW15826   3.773   0.801   4.442
 4976SOL    HW115827   3.806   0.840   4.529
 4976SOL    HW215828   3.714   0.867   4.396
 4977SOL     OW15829   3.275   3.697   0.173
 4977SOL    HW115830   3.369   3.730   0.183
 4977SOL    HW215831   3.215   3.774   0.150
 4978SOL     OW15832   6.220   3.405   6.186
 4978SOL    HW115833   6.281   3.449   6.120
 4978SOL    HW215834   6.125   3.412   6.154
 4979SOL     OW15835   0.896   2.658   4.072
 4979SOL    HW115836   0.968   2.640   4.005
 4979SOL    HW215837   0.937   2.667   4.163
 4980SOL     OW15838   2.950   5.486   3.078
 4980SOL    HW115839   2.878   5.417   3.077
 4980SOL    HW215840   2.929   5.555   3.148
 4981SOL     OW15841   5.250   6.347   5.599
 4981SOL    HW115842   5.212   6.260   5.631
 4981SOL    HW215843   5.320   6.379   5.664
 4982SOL     OW15844   2.554   2.177   0.011
 4982SOL    HW115845   2.608   2.195   6.950
 4982SOL    HW215846   2.519   2.264   0.047
 4983SOL     OW15847   5.559   3.020   4.855
 4983SOL    HW115848   5.644   3.019   4.802
 4983SOL    HW215849   5.504   2.940   4.829
 4984SOL     OW15850   4.659   4.238   2.350
 4984SOL    HW115851   4.692   4.163   2.409
 4984SOL    HW215852   4.559   4.236   2.346
 4985SOL     OW15853   5.336   4.331   2.872
 4985SOL    HW115854   5.262   4.300   2.932
 4985SOL    HW215855   5.309   4.416   2.827
 4986SOL     OW15856   4.722   4.575   2.822
 4986SOL    HW115857   4.796   4.624   2.774
 4986SOL    HW215858   4.711   4.485   2.780
 4987SOL     OW15859   0.389   4.128   1.294
 4987SOL    HW115860   0.339   4.214   1.296
 4987SOL    HW215861   0.324   4.052   1.284
 4988SOL     OW15862   0.958   1.941   5.545
 4988SOL    HW115863   0.908   1.863   5.508
 4988SOL    HW215864   1.056   1.930   5.528
 4989SOL     OW15865   0.320   1.038   0.423
 4989SOL    HW115866   0.247   1.102   0.445
 4989SOL    HW215867   0.299   0.990   0.338
 4990SOL     OW15868   0.514   1.894   6.044
 4990SOL    HW115869   0.441   1.828   6.059
 4990SOL    HW215870   0.521   1.915   5.946
 4991SOL     OW15871   1.985   2.332   4.989
 4991SOL    HW115872   2.071   2.302   4.948
 4991SOL    HW215873   1.988   2.430   5.005
 4992SOL     OW15874   3.944   0.485   4.692
 4992SOL    HW115875   3.981   0.392   4.687
 4992SOL    HW215876   3.848   0.482   4.720
 4993SOL     OW15877   2.204   5.910   3.868
 4993SOL    HW115878   2.139   5.986   3.863
 4993SOL    HW215879   2.217   5.871   3.777
 4994SOL     OW15880   0.189   6.772   2.408
 4994SOL    HW115881   0.202   6.816   2.497
 4994SOL    HW215882   0.091   6.752   2.395
 4995SOL     OW15883   6.377   2.903   5.782
 4995SOL    HW115884   6.381   2.954   5.696
 4995SOL    HW215885   6.304   2.836   5.778
 4996SOL     OW15886   0.169   1.194   3.926
 4996SOL    HW115887   0.183   1.137   4.007
 4996SOL    HW215888   0.238   1.266   3.923
 4997SOL     OW15889   0.338   2.480   3.689
 4997SOL    HW115890   0.417   2.419   3.695
 4997SOL    HW215891   0.254   2.426   3.690
 4998SOL     OW15892   1.011   5.464   4.921
 4998SOL    HW115893   0.986   5.535   4.987
 4998SOL    HW215894   1.055   5.388   4.970
 4999SOL     OW15895   5.862   4.489   0.899
 4999SOL    HW115896   5.924   4.522   0.970
 4999SOL    HW215897   5.895   4.518   0.809
 5000SOL     OW15898   6.877   5.917   4.193
 5000SOL    HW115899   6.836   5.827   4.211
 5000SOL    HW215900   6.954   5.906   4.130
 5001SOL     OW15901   4.544   4.563   5.143
 5001SOL    HW115902   4.537   4.484   5.204
 5001SOL    HW215903   4.455   4.580   5.100
 5002SOL     OW15904   2.087   2.070   1.435
 5002SOL    HW115905   2.010   2.122   1.399
 5002SOL    HW215906   2.060   2.023   1.519
 5003SOL     OW15907   6.522   5.346   3.500
 5003SOL    HW115908   6.604   5.367   3.553
 5003SOL    HW215909   6.447   5.325   3.562
 5004SOL     OW15910   2.883   4.990   6.728
 5004SOL    HW115911   2.901   4.953   6.637
 5004SOL    HW215912   2.812   4.935   6.772
 5005SOL     OW15913   4.271   2.388   6.968
 5005SOL    HW115914   4.341   2.325   7.004
 5005SOL    HW215915   4.315   2.474   6.941
 5006SOL     OW15916   5.716   4.253   3.176
 5006SOL    HW115917   5.727   4.167   3.126
 5006SOL    HW215918   5.795   4.269   3.234
 5007SOL     OW15919   4.239   1.520   5.025
 5007SOL    HW115920   4.158   1.479   5.068
 5007SOL    HW215921   4.321   1.469   5.051
 5008SOL     OW15922   6.575   0.976   4.152
 5008SOL    HW115923   6.641   1.025   4.095
 5008SOL    HW215924   6.620   0.898   4.195
 5009SOL     OW15925   1.665   6.221   3.343
 5009SOL    HW115926   1.624   6.132   3.361
 5009SOL    HW215927   1.764   6.211   3.332
 5010SOL     OW15928   2.956   3.261   4.619
 5010SOL    HW115929   2.914   3.202   4.549
 5010SOL    HW215930   3.043   3.222   4.647
 5011SOL     OW15931   0.685   2.974   3.418
 5011SOL    HW115932   0.758   2.910   3.395
 5011SOL    HW215933   0.657   3.023   3.336
 5012SOL     OW15934   5.472   3.515   0.038
 5012SOL    HW115935   5.416   3.435   0.058
 5012SOL    HW215936   5.569   3.493   0.053
 5013SOL     OW15937   4.826   1.504   5.757
 5013SOL    HW115938   4.912   1.493   5.706
 5013SOL    HW215939   4.847   1.523   5.853
 5014SOL     OW15940   5.954   6.708   0.015
 5014SOL    HW115941   5.868   6.670   7.004
 5014SOL    HW215942   5.998   6.757   6.960
 5015SOL     OW15943   5.436   2.147   3.501
 5015SOL    HW115944   5.530   2.116   3.488
 5015SOL    HW215945   5.378   2.111   3.428
 5016SOL     OW15946   2.244   6.891   1.934
 5016SOL    HW115947   2.250   6.820   1.864
 5016SOL    HW215948   2.156   6.938   1.927
 5017SOL     OW15949   2.341   2.315   1.655
 5017SOL    HW115950   2.439   2.297   1.649
 5017SOL    HW215951   2.323   2.377   1.731
 5018SOL     OW15952   6.503   5.302   4.248
 5018SOL    HW115953   6.468   5.350   4.168
 5018SOL    HW215954   6.514   5.367   4.323
 5019SOL     OW15955   3.190   5.325   6.253
 5019SOL    HW115956   3.288   5.335   6.273
 5019SOL    HW215957   3.177   5.255   6.183
 5020SOL     OW15958   4.840   5.154   6.252
 5020SOL    HW115959   4.894   5.229   6.215
 5020SOL    HW215960   4.849   5.151   6.351
 5021SOL     OW15961   2.539   4.901   5.706
 5021SOL    HW115962   2.520   4.804   5.721
 5021SOL    HW215963   2.522   4.925   5.610
 5022SOL     OW15964   1.502   4.727   0.366
 5022SOL    HW115965   1.531   4.798   0.430
 5022SOL    HW215966   1.503   4.763   0.273
 5023SOL     OW15967   6.841   2.451   3.422
 5023SOL    HW115968   6.897   2.515   3.476
 5023SOL    HW215969   6.749   2.489   3.410
 5024SOL     OW15970   5.846   3.555   5.644
 5024SOL    HW115971   5.921   3.532   5.706
 5024SOL    HW215972   5.796   3.473   5.620
 5025SOL     OW15973   6.321   1.282   3.576
 5025SOL    HW115974   6.251   1.233   3.629
 5025SOL    HW215975   6.392   1.219   3.548
 5026SOL     OW15976   0.632   5.974   2.919
 5026SOL    HW115977   0.676   5.969   2.830
 5026SOL    HW215978   0.700   5.958   2.991
 5027SOL     OW15979   0.805   6.259   3.590
 5027SOL    HW115980   0.713   6.267   3.552
 5027SOL    HW215981   0.872   6.268   3.516
 5028SOL     OW15982   1.473   0.731   2.856
 5028SOL    HW115983   1.543   0.733   2.785
 5028SOL    HW215984   1.383   0.736   2.813
 5029SOL     OW15985   0.430   1.000   2.976
 5029SOL    HW115986   0.420   0.956   2.886
 5029SOL    HW215987   0.516   1.051   2.978
 5030SOL     OW15988   2.033   5.548   6.911
 5030SOL    HW115989   2.015   5.548   6.812
 5030SOL    HW215990   2.119   5.501   6.929
 5031SOL     OW15991   5.905   0.771   5.422
 5031SOL    HW115992   5.895   0.684   5.470
 5031SOL    HW215993   5.905   0.846   5.488
 5032SOL     OW15994   0.652   6.303   1.143
 5032SOL    HW115995   0.688   6.338   1.229
 5032SOL    HW215996   0.591   6.226   1.161
 5033SOL     OW15997   0.269   4.378   5.774
 5033SOL    HW115998   0.366   4.399   5.768
 5033SOL    HW215999   0.219   4.460   5.803
 5034SOL     OW16000   6.961   3.894   6.831
 5034SOL    HW116001   0.024   3.859   6.790
 5034SOL    HW216002   6.938   3.838   6.911
 5035SOL     OW16003   5.714   4.417   1.278
 5035SOL    HW116004   5.628   4.466   1.270
 5035SOL    HW216005   5.727   4.386   1.372
 5036SOL     OW16006   1.582   0.793   2.600
 5036SOL    HW116007   1.486   0.804   2.575
 5036SOL    HW216008   1.627   0.732   2.534
 5037SOL     OW16009   4.622   2.629   2.565
 5037SOL    HW116010   4.637   2.673   2.654
 5037SOL    HW216011   4.539   2.574   2.569
 5038SOL     OW16012   2.657   6.056   5.571
 5038SOL    HW116013   2.619   5.975   5.615
 5038SOL    HW216014   2.684   6.122   5.641
 5039SOL     OW16015   1.220   1.844   3.370
 5039SOL    HW116016   1.187   1.842   3.276
 5039SOL    HW216017   1.319   1.831   3.372
 5040SOL     OW16018   2.623   3.706   6.171
 5040SOL    HW116019   2.711   3.686   6.127
 5040SOL    HW216020   2.573   3.773   6.115
 5041SOL     OW16021   0.903   5.569   0.572
 5041SOL    HW116022   0.927   5.620   0.489
 5041SOL    HW216023   0.981   5.511   0.598
 5042SOL     OW16024   6.408   1.880   5.968
 5042SOL    HW116025   6.389   1.970   6.008
 5042SOL    HW216026   6.470   1.830   6.028
 5043SOL     OW16027   5.114   0.410   3.250
 5043SOL    HW116028   5.200   0.362   3.233
 5043SOL    HW216029   5.057   0.406   3.168
 5044SOL     OW16030   5.192   4.538   2.698
 5044SOL    HW116031   5.111   4.575   2.653
 5044SOL    HW216032   5.201   4.578   2.789
 5045SOL     OW16033   5.986   3.609   6.152
 5045SOL    HW116034   5.912   3.600   6.220
 5045SOL    HW216035   5.977   3.536   6.084
 5046SOL     OW16036   3.192   3.111   4.626
 5046SOL    HW116037   3.279   3.130   4.582
 5046SOL    HW216038   3.206   3.048   4.703
 5047SOL     OW16039   1.144   1.393   2.286
 5047SOL    HW116040   1.051   1.428   2.273
 5047SOL    HW216041   1.141   1.294   2.300
 5048SOL     OW16042   5.913   3.598   1.512
 5048SOL    HW116043   5.879   3.542   1.588
 5048SOL    HW216044   5.909   3.544   1.427
 5049SOL     OW16045   1.133   2.028   1.801
 5049SOL    HW116046   1.132   2.081   1.886
 5049SOL    HW216047   1.040   2.008   1.773
 5050SOL     OW16048   0.909   3.627   0.597
 5050SOL    HW116049   1.007   3.615   0.584
 5050SOL    HW216050   0.859   3.579   0.525
 5051SOL     OW16051   2.120   3.769   0.550
 5051SOL    HW116052   2.208   3.805   0.582
 5051SOL    HW216053   2.086   3.825   0.475
 5052SOL     OW16054   5.514   3.567   0.611
 5052SOL    HW116055   5.587   3.552   0.544
 5052SOL    HW216056   5.546   3.629   0.682
 5053SOL     OW16057   2.126   4.591   0.432
 5053SOL    HW116058   2.101   4.587   0.529
 5053SOL    HW216059   2.225   4.602   0.424
 5054SOL     OW16060   3.671   6.000   4.620
 5054SOL    HW116061   3.676   5.932   4.692
 5054SOL    HW216062   3.576   6.018   4.596
 5055SOL     OW16063   1.670   1.762   3.561
 5055SOL    HW116064   1.651   1.856   3.533
 5055SOL    HW216065   1.645   1.750   3.657
 5056SOL     OW16066   2.577   2.487   5.198
 5056SOL    HW116067   2.615   2.403   5.158
 5056SOL    HW216068   2.481   2.495   5.173
 5057SOL     OW16069   0.456   4.549   3.166
 5057SOL    HW116070   0.388   4.493   3.214
 5057SOL    HW216071   0.538   4.557   3.223
 5058SOL     OW16072   3.359   3.183   0.488
 5058SOL    HW116073   3.314   3.220   0.569
 5058SOL    HW216074   3.454   3.213   0.486
 5059SOL     OW16075   4.302   1.734   3.049
 5059SOL    HW116076   4.313   1.671   3.126
 5059SOL    HW216077   4.352   1.699   2.969
 5060SOL     OW16078   0.338   3.347   5.232
 5060SOL    HW116079   0.299   3.316   5.318
 5060SOL    HW216080   0.349   3.446   5.234
 5061SOL     OW16081   3.700   1.971   5.574
 5061SOL    HW116082   3.630   1.991   5.506
 5061SOL    HW216083   3.732   1.877   5.561
 5062SOL     OW16084   5.199   0.874   3.636
 5062SOL    HW116085   5.141   0.888   3.555
 5062SOL    HW216086   5.263   0.799   3.618
 5063SOL     OW16087   1.059   1.340   1.469
 5063SOL    HW116088   1.032   1.245   1.455
 5063SOL    HW216089   1.005   1.399   1.410
 5064SOL     OW16090   4.806   5.306   0.972
 5064SOL    HW116091   4.827   5.385   0.914
 5064SOL    HW216092   4.876   5.236   0.959
 5065SOL     OW16093   2.136   1.278   1.945
 5065SOL    HW116094   2.101   1.247   1.857
 5065SOL    HW216095   2.063   1.274   2.014
 5066SOL     OW16096   2.009   4.721   2.551
 5066SOL    HW116097   2.094   4.687   2.591
 5066SOL    HW216098   1.962   4.780   2.617
 5067SOL     OW16099   5.820   2.559   0.960
 5067SOL    HW116100   5.794   2.469   0.925
 5067SOL    HW216101   5.756   2.628   0.926
 5068SOL     OW16102   2.399   5.734   0.925
 5068SOL    HW116103   2.371   5.785   0.843
 5068SOL    HW216104   2.385   5.636   0.910
 5069SOL     OW16105   4.097   4.947   5.305
 5069SOL    HW116106   4.080   5.041   5.276
 5069SOL    HW216107   4.060   4.933   5.397
 5070SOL     OW16108   5.885   3.772   4.972
 5070SOL    HW116109   5.808   3.716   4.942
 5070SOL    HW216110   5.875   3.865   4.937
 5071SOL     OW16111   2.799   6.747   3.560
 5071SOL    HW116112   2.740   6.797   3.624
 5071SOL    HW216113   2.781   6.649   3.568
 5072SOL     OW16114   0.805   1.267   1.208
 5072SOL    HW116115   0.764   1.326   1.278
 5072SOL    HW216116   0.840   1.184   1.252
 5073SOL     OW16117   2.821   1.192   3.184
 5073SOL    HW116118   2.912   1.169   3.152
 5073SOL    HW216119   2.815   1.291   3.200
 5074SOL     OW16120   3.485   2.170   1.774
 5074SOL    HW116121   3.558   2.189   1.839
 5074SOL    HW216122   3.418   2.244   1.776
 5075SOL     OW16123   0.056   3.642   0.143
 5075SOL    HW116124   0.085   3.654   0.237
 5075SOL    HW216125   0.133   3.663   0.081
 5076SOL     OW16126   0.162   0.249   6.319
 5076SOL    HW116127   0.077   0.290   6.285
 5076SOL    HW216128   0.240   0.286   6.268
 5077SOL     OW16129   0.957   4.346   4.048
 5077SOL    HW116130   0.964   4.302   4.138
 5077SOL    HW216131   1.046   4.345   4.004
 5078SOL     OW16132   6.989   1.668   3.786
 5078SOL    HW116133   6.892   1.681   3.768
 5078SOL    HW216134   0.001   1.742   3.845
 5079SOL     OW16135   1.836   3.067   5.376
 5079SOL    HW116136   1.752   3.121   5.373
 5079SOL    HW216137   1.899   3.099   5.305
 5080SOL     OW16138   5.744   5.791   0.558
 5080SOL    HW116139   5.729   5.888   0.578
 5080SOL    HW216140   5.658   5.750   0.529
 5081SOL     OW16141   2.482   5.364   5.238
 5081SOL    HW116142   2.537   5.325   5.312
 5081SOL    HW216143   2.542   5.390   5.162
 5082SOL     OW16144   5.188   5.850   1.411
 5082SOL    HW116145   5.213   5.758   1.441
 5082SOL    HW216146   5.267   5.911   1.422
 5083SOL     OW16147   1.839   0.271   3.891
 5083SOL    HW116148   1.910   0.275   3.961
 5083SOL    HW216149   1.791   0.184   3.898
 5084SOL     OW16150   2.714   4.205   5.573
 5084SOL    HW116151   2.703   4.182   5.476
 5084SOL    HW216152   2.762   4.130   5.620
 5085SOL     OW16153   0.353   4.197   4.787
 5085SOL    HW116154   0.387   4.213   4.879
 5085SOL    HW216155   0.413   4.131   4.741
 5086SOL     OW16156   2.130   5.644   1.513
 5086SOL    HW116157   2.157   5.665   1.419
 5086SOL    HW216158   2.168   5.556   1.540
 5087SOL     OW16159   6.669   4.513   2.553
 5087SOL    HW116160   6.729   4.439   2.585
 5087SOL    HW216161   6.591   4.473   2.505
 5088SOL     OW16162   5.130   5.734   2.136
 5088SOL    HW116163   5.076   5.697   2.212
 5088SOL    HW216164   5.077   5.804   2.089
 5089SOL     OW16165   5.368   5.870   5.755
 5089SOL    HW116166   5.467   5.857   5.760
 5089SOL    HW216167   5.339   5.866   5.659
 5090SOL     OW16168   2.780   6.579   4.906
 5090SOL    HW116169   2.798   6.527   4.990
 5090SOL    HW216170   2.704   6.538   4.857
 5091SOL     OW16171   0.069   6.591   6.197
 5091SOL    HW116172   0.053   6.613   6.100
 5091SOL    HW216173   0.145   6.646   6.231
 5092SOL     OW16174   3.553   3.236   4.161
 5092SOL    HW116175   3.557   3.187   4.073
 5092SOL    HW216176   3.541   3.334   4.144
 5093SOL     OW16177   2.859   2.187   2.730
 5093SOL    HW116178   2.844   2.210   2.634
 5093SOL    HW216179   2.880   2.270   2.782
 5094SOL     OW16180   1.233   6.163   4.972
 5094SOL    HW116181   1.233   6.183   4.873
 5094SOL    HW216182   1.173   6.229   5.018
 5095SOL     OW16183   6.722   0.779   2.966
 5095SOL    HW116184   6.754   0.764   2.873
 5095SOL    HW216185   6.746   0.701   3.023
 5096SOL     OW16186   6.031   3.256   5.172
 5096SOL    HW116187   5.950   3.277   5.227
 5096SOL    HW216188   6.030   3.160   5.146
 5097SOL     OW16189   1.382   0.671   5.918
 5097SOL    HW116190   1.348   0.599   5.979
 5097SOL    HW216191   1.472   0.645   5.882
 5098SOL     OW16192   3.549   3.434   0.498
 5098SOL    HW116193   3.482   3.418   0.424
 5098SOL    HW216194   3.557   3.532   0.516
 5099SOL     OW16195   1.646   6.833   2.103
 5099SOL    HW116196   1.662   6.735   2.100
 5099SOL    HW216197   1.606   6.863   2.016
 5100SOL     OW16198   4.906   3.646   2.227
 5100SOL    HW116199   4.869   3.705   2.156
 5100SOL    HW216200   4.918   3.554   2.191
 5101SOL     OW16201   3.896   0.467   6.114
 5101SOL    HW116202   3.903   0.481   6.016
 5101SOL    HW216203   3.831   0.531   6.154
 5102SOL     OW16204   5.390   5.229   4.343
 5102SOL    HW116205   5.426   5.315   4.307
 5102SOL    HW216206   5.306   5.246   4.394
 5103SOL     OW16207   1.375   0.939   6.742
 5103SOL    HW116208   1.276   0.939   6.753
 5103SOL    HW216209   1.400   0.992   6.661
 5104SOL     OW16210   3.959   3.510   1.804
 5104SOL    HW116211   3.923   3.418   1.787
 5104SOL    HW216212   3.893   3.562   1.858
 5105SOL     OW16213   4.631   2.980   6.617
 5105SOL    HW116214   4.596   3.074   6.611
 5105SOL    HW216215   4.726   2.979   6.586
 5106SOL     OW16216   4.090   2.381   1.105
 5106SOL    HW116217   4.007   2.353   1.055
 5106SOL    HW216218   4.118   2.472   1.075
 5107SOL     OW16219   5.252   4.374   0.266
 5107SOL    HW116220   5.169   4.387   0.320
 5107SOL    HW216221   5.234   4.394   0.170
 5108SOL     OW16222   3.785   4.774   0.505
 5108SOL    HW116223   3.756   4.869   0.495
 5108SOL    HW216224   3.858   4.768   0.573
 5109SOL     OW16225   1.132   2.920   1.697
 5109SOL    HW116226   1.223   2.897   1.664
 5109SOL    HW216227   1.082   2.835   1.718
 5110SOL     OW16228   4.644   6.963   5.659
 5110SOL    HW116229   4.614   6.958   5.754
 5110SOL    HW216230   4.565   6.974   5.598
 5111SOL     OW16231   0.603   5.530   4.890
 5111SOL    HW116232   0.661   5.452   4.915
 5111SOL    HW216233   0.605   5.543   4.791
 5112SOL     OW16234   0.198   6.697   3.016
 5112SOL    HW116235   0.264   6.652   3.075
 5112SOL    HW216236   0.184   6.791   3.047
 5113SOL     OW16237   1.728   4.062   0.287
 5113SOL    HW116238   1.685   4.148   0.314
 5113SOL    HW216239   1.772   4.073   0.198
 5114SOL     OW16240   4.481   4.730   1.566
 5114SOL    HW116241   4.426   4.694   1.642
 5114SOL    HW216242   4.420   4.751   1.489
 5115SOL     OW16243   2.117   3.503   0.938
 5115SOL    HW116244   2.037   3.444   0.943
 5115SOL    HW216245   2.165   3.488   0.852
 5116SOL     OW16246   1.368   6.817   5.792
 5116SOL    HW116247   1.383   6.906   5.834
 5116SOL    HW216248   1.419   6.747   5.843
 5117SOL     OW16249   0.281   2.234   3.404
 5117SOL    HW116250   0.380   2.234   3.416
 5117SOL    HW216251   0.243   2.149   3.442
 5118SOL     OW16252   4.308   4.994   6.876
 5118SOL    HW116253   4.406   4.984   6.894
 5118SOL    HW216254   4.265   5.039   6.955
 5119SOL     OW16255   5.833   0.855   0.663
 5119SOL    HW116256   5.795   0.808   0.584
 5119SOL    HW216257   5.769   0.848   0.740
 5120SOL     OW16258   5.264   6.470   6.568
 5120SOL    HW116259   5.234   6.487   6.474
 5120SOL    HW216260   5.363   6.484   6.574
 5121SOL     OW16261   1.166   3.045   6.126
 5121SOL    HW116262   1.184   3.043   6.027
 5121SOL    HW216263   1.084   2.990   6.145
 5122SOL     OW16264   4.899   4.600   3.944
 5122SOL    HW116265   4.908   4.577   3.847
 5122SOL    HW216266   4.837   4.678   3.954
 5123SOL     OW16267   4.909   2.979   1.825
 5123SOL    HW116268   4.821   3.003   1.866
 5123SOL    HW216269   4.982   2.999   1.890
 5124SOL     OW16270   1.873   6.226   5.486
 5124SOL    HW116271   1.827   6.313   5.503
 5124SOL    HW216272   1.805   6.153   5.479
 5125SOL     OW16273   6.236   1.748   3.529
 5125SOL    HW116274   6.310   1.723   3.466
 5125SOL    HW216275   6.177   1.815   3.485
 5126SOL     OW16276   1.853   0.607   1.506
 5126SOL    HW116277   1.803   0.597   1.592
 5126SOL    HW216278   1.787   0.617   1.430
 5127SOL     OW16279   2.430   5.696   0.238
 5127SOL    HW116280   2.342   5.648   0.243
 5127SOL    HW216281   2.483   5.661   0.161
 5128SOL     OW16282   6.210   0.294   2.270
 5128SOL    HW116283   6.136   0.310   2.205
 5128SOL    HW216284   6.258   0.210   2.245
 5129SOL     OW16285   6.541   6.859   0.399
 5129SOL    HW116286   6.452   6.815   0.393
 5129SOL    HW216287   6.609   6.793   0.430
 5130SOL     OW16288   6.535   4.388   2.967
 5130SOL    HW116289   6.567   4.468   3.017
 5130SOL    HW216290   6.605   4.359   2.902
 5131SOL     OW16291   2.498   2.533   2.775
 5131SOL    HW116292   2.441   2.605   2.736
 5131SOL    HW216293   2.479   2.524   2.872
 5132SOL     OW16294   3.032   5.939   5.165
 5132SOL    HW116295   3.003   5.917   5.072
 5132SOL    HW216296   3.065   6.033   5.169
 5133SOL     OW16297   3.690   6.192   5.437
 5133SOL    HW116298   3.629   6.218   5.361
 5133SOL    HW216299   3.719   6.098   5.425
 5134SOL     OW16300   6.374   4.601   6.405
 5134SOL    HW116301   6.355   4.597   6.503
 5134SOL    HW216302   6.309   4.662   6.361
 5135SOL     OW16303   5.550   1.697   4.164
 5135SOL    HW116304   5.490   1.625   4.199
 5135SOL    HW216305   5.517   1.786   4.195
 5136SOL     OW16306   3.750   1.143   4.667
 5136SOL    HW116307   3.757   1.167   4.570
 5136SOL    HW216308   3.775   1.047   4.679
 5137SOL     OW16309   3.517   3.824   6.687
 5137SOL    HW116310   3.604   3.847   6.732
 5137SOL    HW216311   3.484   3.736   6.721
 5138SOL     OW16312   2.355   2.903   5.921
 5138SOL    HW116313   2.298   2.977   5.886
 5138SOL    HW216314   2.304   2.852   5.991
 5139SOL     OW16315   0.459   0.259   4.090
 5139SOL    HW116316   0.392   0.264   4.164
 5139SOL    HW216317   0.463   0.347   4.043
 5140SOL     OW16318   3.859   2.881   1.683
 5140SOL    HW116319   3.946   2.913   1.721
 5140SOL    HW216320   3.813   2.823   1.751
 5141SOL     OW16321   0.009   3.735   5.692
 5141SOL    HW116322   0.016   3.811   5.628
 5141SOL    HW216323   0.098   3.719   5.735
 5142SOL     OW16324   5.552   3.456   3.361
 5142SOL    HW116325   5.547   3.497   3.452
 5142SOL    HW216326   5.627   3.390   3.357
 5143SOL     OW16327   0.040   5.235   4.565
 5143SOL    HW116328   0.028   5.324   4.608
 5143SOL    HW216329   6.980   5.179   4.583
 5144SOL     OW16330   2.176   0.936   4.453
 5144SOL    HW116331   2.125   1.001   4.509
 5144SOL    HW216332   2.147   0.945   4.357
 5145SOL     OW16333   3.392   6.116   5.647
 5145SOL    HW116334   3.490   6.093   5.648
 5145SOL    HW216335   3.340   6.038   5.611
 5146SOL     OW16336   2.634   4.491   0.221
 5146SOL    HW116337   2.709   4.552   0.194
 5146SOL    HW216338   2.617   4.424   0.148
 5147SOL     OW16339   6.426   4.956   6.623
 5147SOL    HW116340   6.434   5.055   6.634
 5147SOL    HW216341   6.350   4.922   6.678
 5148SOL     OW16342   0.502   6.800   1.848
 5148SOL    HW116343   0.463   6.715   1.813
 5148SOL    HW216344   0.522   6.790   1.945
 5149SOL     OW16345   6.600   1.099   6.098
 5149SOL    HW116346   6.686   1.146   6.079
 5149SOL    HW216347   6.605   1.005   6.065
 5150SOL     OW16348   1.461   4.925   3.766
 5150SOL    HW116349   1.401   4.986   3.818
 5150SOL    HW216350   1.557   4.952   3.779
 5151SOL     OW16351   5.118   1.182   6.460
 5151SOL    HW116352   5.072   1.268   6.437
 5151SOL    HW216353   5.212   1.201   6.489
 5152SOL     OW16354   0.793   5.138   0.651
 5152SOL    HW116355   0.743   5.204   0.594
 5152SOL    HW216356   0.755   5.047   0.638
 5153SOL     OW16357   1.955   1.906   0.907
 5153SOL    HW116358   2.052   1.932   0.909
 5153SOL    HW216359   1.917   1.915   0.999
 5154SOL     OW16360   2.019   3.358   4.798
 5154SOL    HW116361   2.001   3.456   4.788
 5154SOL    HW216362   1.948   3.306   4.749
 5155SOL     OW16363   3.480   0.771   2.125
 5155SOL    HW116364   3.436   0.728   2.204
 5155SOL    HW216365   3.535   0.849   2.156
 5156SOL     OW16366   5.899   3.119   5.753
 5156SOL    HW116367   5.950   3.130   5.838
 5156SOL    HW216368   5.962   3.120   5.676
 5157SOL     OW16369   5.960   2.824   4.247
 5157SOL    HW116370   6.039   2.868   4.205
 5157SOL    HW216371   5.924   2.754   4.185
 5158SOL     OW16372   4.065   1.203   0.720
 5158SOL    HW116373   4.024   1.207   0.811
 5158SOL    HW216374   4.145   1.263   0.718
 5159SOL     OW16375   1.580   3.073   4.579
 5159SOL    HW116376   1.665   3.030   4.610
 5159SOL    HW216377   1.502   3.020   4.611
 5160SOL     OW16378   1.905   2.832   4.198
 5160SOL    HW116379   1.916   2.865   4.105
 5160SOL    HW216380   1.816   2.861   4.234
 5161SOL     OW16381   1.414   3.510   6.186
 5161SOL    HW116382   1.406   3.518   6.286
 5161SOL    HW216383   1.414   3.414   6.160
 5162SOL     OW16384   6.076   5.949   4.793
 5162SOL    HW116385   6.059   5.933   4.890
 5162SOL    HW216386   6.171   5.924   4.771
 5163SOL     OW16387   5.051   3.518   1.248
 5163SOL    HW116388   5.091   3.532   1.339
 5163SOL    HW216389   5.123   3.497   1.182
 5164SOL     OW16390   5.991   5.386   5.500
 5164SOL    HW116391   6.089   5.378   5.481
 5164SOL    HW216392   5.973   5.476   5.541
 5165SOL     OW16393   6.343   4.032   4.064
 5165SOL    HW116394   6.387   3.985   3.988
 5165SOL    HW216395   6.406   4.100   4.102
 5166SOL     OW16396   1.689   0.493   1.709
 5166SOL    HW116397   1.661   0.548   1.788
 5166SOL    HW216398   1.617   0.427   1.688
 5167SOL     OW16399   1.344   7.004   5.544
 5167SOL    HW116400   1.442   7.014   5.525
 5167SOL    HW216401   1.330   6.935   5.615
 5168SOL     OW16402   3.629   1.890   3.173
 5168SOL    HW116403   3.640   1.925   3.266
 5168SOL    HW216404   3.550   1.828   3.170
 5169SOL     OW16405   3.902   4.196   6.453
 5169SOL    HW116406   3.906   4.122   6.386
 5169SOL    HW216407   3.935   4.162   6.542
 5170SOL     OW16408   4.804   4.681   4.395
 5170SOL    HW116409   4.836   4.590   4.368
 5170SOL    HW216410   4.850   4.750   4.340
 5171SOL     OW16411   2.646   4.655   4.850
 5171SOL    HW116412   2.573   4.600   4.890
 5171SOL    HW216413   2.728   4.648   4.906
 5172SOL     OW16414   1.936   4.747   0.320
 5172SOL    HW116415   1.942   4.746   0.220
 5172SOL    HW216416   2.007   4.687   0.358
 5173SOL     OW16417   6.348   3.855   6.046
 5173SOL    HW116418   6.253   3.825   6.032
 5173SOL    HW216419   6.348   3.948   6.084
 5174SOL     OW16420   1.489   4.445   5.993
 5174SOL    HW116421   1.390   4.435   6.006
 5174SOL    HW216422   1.527   4.357   5.963
 5175SOL     OW16423   0.384   5.258   6.283
 5175SOL    HW116424   0.323   5.335   6.262
 5175SOL    HW216425   0.362   5.222   6.374
 5176SOL     OW16426   5.719   3.665   6.633
 5176SOL    HW116427   5.696   3.569   6.646
 5176SOL    HW216428   5.657   3.722   6.686
 5177SOL     OW16429   5.145   6.362   6.777
 5177SOL    HW116430   5.048   6.383   6.777
 5177SOL    HW216431   5.187   6.395   6.693
 5178SOL     OW16432   2.897   2.338   1.541
 5178SOL    HW116433   2.810   2.304   1.574
 5178SOL    HW216434   2.897   2.341   1.441
 5179SOL     OW16435   2.949   5.883   5.426
 5179SOL    HW116436   2.977   5.930   5.342
 5179SOL    HW216437   2.872   5.932   5.467
 5180SOL     OW16438   3.264   2.517   0.535
 5180SOL    HW116439   3.239   2.422   0.519
 5180SOL    HW216440   3.184   2.576   0.518
 5181SOL     OW16441   2.933   5.313   2.228
 5181SOL    HW116442   2.991   5.338   2.151
 5181SOL    HW216443   2.973   5.233   2.274
 5182SOL     OW16444   4.620   4.474   1.504
 5182SOL    HW116445   4.571   4.554   1.539
 5182SOL    HW216446   4.612   4.399   1.570
 5183SOL     OW16447   3.877   0.747   2.738
 5183SOL    HW116448   3.948   0.704   2.793
 5183SOL    HW216449   3.788   0.707   2.760
 5184SOL     OW16450   1.063   1.887   2.879
 5184SOL    HW116451   1.003   1.953   2.924
 5184SOL    HW216452   1.009   1.810   2.846
 5185SOL     OW16453   3.368   0.492   2.087
 5185SOL    HW116454   3.277   0.532   2.100
 5185SOL    HW216455   3.430   0.527   2.158
 5186SOL     OW16456   6.047   4.467   0.204
 5186SOL    HW116457   6.012   4.557   0.228
 5186SOL    HW216458   5.974   4.412   0.164
 5187SOL     OW16459   5.180   2.007   4.484
 5187SOL    HW116460   5.130   2.026   4.399
 5187SOL    HW216461   5.192   1.908   4.494
 5188SOL     OW16462   0.851   3.068   4.692
 5188SOL    HW116463   0.949   3.050   4.699
 5188SOL    HW216464   0.827   3.147   4.748
 5189SOL     OW16465   4.343   5.208   6.374
 5189SOL    HW116466   4.359   5.170   6.465
 5189SOL    HW216467   4.414   5.175   6.312
 5190SOL     OW16468   1.800   2.413   3.525
 5190SOL    HW116469   1.856   2.474   3.469
 5190SOL    HW216470   1.730   2.371   3.468
 5191SOL     OW16471   4.380   0.625   1.650
 5191SOL    HW116472   4.364   0.595   1.556
 5191SOL    HW216473   4.305   0.594   1.709
 5192SOL     OW16474   5.743   4.319   1.954
 5192SOL    HW116475   5.773   4.289   2.045
 5192SOL    HW216476   5.712   4.239   1.902
 5193SOL     OW16477   4.886   3.198   2.551
 5193SOL    HW116478   4.868   3.219   2.647
 5193SOL    HW216479   4.937   3.112   2.545
 5194SOL     OW16480   5.686   1.816   6.396
 5194SOL    HW116481   5.640   1.752   6.335
 5194SOL    HW216482   5.630   1.831   6.477
 5195SOL     OW16483   6.133   6.359   5.556
 5195SOL    HW116484   6.035   6.339   5.565
 5195SOL    HW216485   6.179   6.343   5.643
 5196SOL     OW16486   0.686   3.556   1.736
 5196SOL    HW116487   0.754   3.485   1.758
 5196SOL    HW216488   0.615   3.516   1.677
 5197SOL     OW16489   3.620   6.169   5.006
 5197SOL    HW116490   3.604   6.200   5.100
 5197SOL    HW216491   3.533   6.149   4.962
 5198SOL     OW16492   4.457   0.476   5.678
 5198SOL    HW116493   4.408   0.462   5.764
 5198SOL    HW216494   4.556   0.470   5.695
 5199SOL     OW16495   0.264   5.107   1.870
 5199SOL    HW116496   0.273   5.019   1.823
 5199SOL    HW216497   0.170   5.140   1.861
 5200SOL     OW16498   0.505   0.062   5.334
 5200SOL    HW116499   0.580   0.043   5.271
 5200SOL    HW216500   0.532   0.036   5.427
 5201SOL     OW16501   5.777   4.246   4.754
 5201SOL    HW116502   5.725   4.240   4.669
 5201SOL    HW216503   5.733   4.312   4.815
 5202SOL     OW16504   3.639   3.283   5.641
 5202SOL    HW116505   3.629   3.289   5.542
 5202SOL    HW216506   3.568   3.221   5.677
 5203SOL     OW16507   1.806   0.134   6.388
 5203SOL    HW116508   1.792   0.205   6.457
 5203SOL    HW216509   1.833   0.177   6.301
 5204SOL     OW16510   2.699   1.274   0.705
 5204SOL    HW116511   2.644   1.229   0.635
 5204SOL    HW216512   2.764   1.209   0.743
 5205SOL     OW16513   6.811   6.424   0.874
 5205SOL    HW116514   6.810   6.399   0.777
 5205SOL    HW216515   6.794   6.522   0.883
 5206SOL     OW16516   1.461   4.965   3.499
 5206SOL    HW116517   1.377   5.016   3.480
 5206SOL    HW216518   1.469   4.949   3.597
 5207SOL     OW16519   6.252   6.476   4.375
 5207SOL    HW116520   6.156   6.499   4.358
 5207SOL    HW216521   6.282   6.519   4.460
 5208SOL     OW16522   6.058   1.841   0.608
 5208SOL    HW116523   6.063   1.813   0.704
 5208SOL    HW216524   5.983   1.792   0.563
 5209SOL     OW16525   5.577   6.273   3.390
 5209SOL    HW116526   5.573   6.370   3.415
 5209SOL    HW216527   5.487   6.232   3.401
 5210SOL     OW16528   5.649   4.653   0.952
 5210SOL    HW116529   5.723   4.589   0.933
 5210SOL    HW216530   5.663   4.695   1.041
 5211SOL     OW16531   5.213   2.434   4.999
 5211SOL    HW116532   5.160   2.447   4.915
 5211SOL    HW216533   5.206   2.338   5.028
 5212SOL     OW16534   0.214   3.735   6.958
 5212SOL    HW116535   0.268   3.653   6.976
 5212SOL    HW216536   0.274   3.815   6.950
 5213SOL     OW16537   3.758   3.415   3.108
 5213SOL    HW116538   3.766   3.514   3.098
 5213SOL    HW216539   3.671   3.384   3.069
 5214SOL     OW16540   5.656   3.635   4.980
 5214SOL    HW116541   5.634   3.561   4.916
 5214SOL    HW216542   5.664   3.599   5.073
 5215SOL     OW16543   0.432   4.462   4.698
 5215SOL    HW116544   0.404   4.386   4.757
 5215SOL    HW216545   0.505   4.431   4.637
 5216SOL     OW16546   5.223   4.957   1.408
 5216SOL    HW116547   5.251   4.952   1.312
 5216SOL    HW216548   5.127   4.987   1.413
 5217SOL     OW16549   5.011   6.257   3.030
 5217SOL    HW116550   5.026   6.188   2.960
 5217SOL    HW216551   4.919   6.296   3.019
 5218SOL     OW16552   6.409   0.272   0.230
 5218SOL    HW116553   6.416   0.357   0.283
 5218SOL    HW216554   6.481   0.271   0.160
 5219SOL     OW16555   3.481   0.847   5.617
 5219SOL    HW116556   3.433   0.762   5.596
 5219SOL    HW216557   3.438   0.892   5.695
 5220SOL     OW16558   2.174   5.138   4.382
 5220SOL    HW116559   2.272   5.119   4.373
 5220SOL    HW216560   2.160   5.201   4.459
 5221SOL     OW16561   5.786   5.499   1.663
 5221SOL    HW116562   5.826   5.478   1.574
 5221SOL    HW216563   5.836   5.449   1.735
 5222SOL     OW16564   6.810   3.546   1.504
 5222SOL    HW116565   6.715   3.552   1.473
 5222SOL    HW216566   6.813   3.506   1.596
 5223SOL     OW16567   6.632   2.921   0.676
 5223SOL    HW116568   6.565   2.850   0.696
 5223SOL    HW216569   6.719   2.898   0.719
 5224SOL     OW16570   0.495   1.428   5.212
 5224SOL    HW116571   0.499   1.354   5.278
 5224SOL    HW216572   0.576   1.486   5.222
 5225SOL     OW16573   6.919   1.404   4.421
 5225SOL    HW116574   6.945   1.501   4.425
 5225SOL    HW216575   6.978   1.351   4.482
 5226SOL     OW16576   0.474   6.436   3.817
 5226SOL    HW116577   0.481   6.504   3.744
 5226SOL    HW216578   0.564   6.396   3.834
 5227SOL     OW16579   0.473   4.117   5.710
 5227SOL    HW116580   0.385   4.116   5.758
 5227SOL    HW216581   0.493   4.210   5.680
 5228SOL     OW16582   0.760   1.771   5.491
 5228SOL    HW116583   0.786   1.684   5.533
 5228SOL    HW216584   0.708   1.826   5.556
 5229SOL     OW16585   3.426   1.709   6.213
 5229SOL    HW116586   3.336   1.667   6.200
 5229SOL    HW216587   3.450   1.706   6.310
 5230SOL     OW16588   6.736   0.108   2.046
 5230SOL    HW116589   6.668   0.171   2.009
 5230SOL    HW216590   6.823   0.122   1.998
 5231SOL     OW16591   6.450   3.357   2.171
 5231SOL    HW116592   6.421   3.377   2.077
 5231SOL    HW216593   6.482   3.442   2.214
 5232SOL     OW16594   1.863   2.449   5.694
 5232SOL    HW116595   1.793   2.500   5.645
 5232SOL    HW216596   1.925   2.405   5.629
 5233SOL     OW16597   3.029   6.429   2.635
 5233SOL    HW116598   3.125   6.446   2.656
 5233SOL    HW216599   2.990   6.510   2.590
 5234SOL     OW16600   3.155   2.130   6.314
 5234SOL    HW116601   3.243   2.173   6.296
 5234SOL    HW216602   3.107   2.115   6.227
 5235SOL     OW16603   2.528   1.915   1.454
 5235SOL    HW116604   2.459   1.946   1.518
 5235SOL    HW216605   2.585   1.993   1.426
 5236SOL     OW16606   3.528   5.226   1.506
 5236SOL    HW116607   3.474   5.189   1.430
 5236SOL    HW216608   3.476   5.218   1.591
 5237SOL     OW16609   1.833   2.004   2.358
 5237SOL    HW116610   1.867   1.971   2.445
 5237SOL    HW216611   1.907   2.048   2.307
 5238SOL     OW16612   0.365   0.114   2.824
 5238SOL    HW116613   0.393   0.021   2.845
 5238SOL    HW216614   0.430   0.179   2.864
 5239SOL     OW16615   2.635   3.939   0.693
 5239SOL    HW116616   2.730   3.911   0.682
 5239SOL    HW216617   2.628   4.038   0.685
 5240SOL     OW16618   2.418   4.124   5.651
 5240SOL    HW116619   2.489   4.189   5.621
 5240SOL    HW216620   2.389   4.069   5.573
 5241SOL     OW16621   1.295   6.567   2.446
 5241SOL    HW116622   1.375   6.517   2.477
 5241SOL    HW216623   1.320   6.663   2.429
 5242SOL     OW16624   4.517   0.469   6.436
 5242SOL    HW116625   4.568   0.541   6.390
 5242SOL    HW216626   4.514   0.488   6.534
 5243SOL     OW16627   2.375   6.335   2.414
 5243SOL    HW116628   2.341   6.280   2.339
 5243SOL    HW216629   2.475   6.339   2.411
 5244SOL     OW16630   4.898   1.272   0.373
 5244SOL    HW116631   4.813   1.235   0.336
 5244SOL    HW216632   4.894   1.372   0.373
 5245SOL     OW16633   3.111   4.296   1.339
 5245SOL    HW116634   3.114   4.197   1.329
 5245SOL    HW216635   3.180   4.325   1.406
 5246SOL     OW16636   5.981   3.933   6.360
 5246SOL    HW116637   5.911   3.992   6.319
 5246SOL    HW216638   5.950   3.899   6.448
 5247SOL     OW16639   4.315   1.803   6.760
 5247SOL    HW116640   4.229   1.813   6.710
 5247SOL    HW216641   4.345   1.892   6.793
 5248SOL     OW16642   5.194   1.221   3.930
 5248SOL    HW116643   5.164   1.316   3.916
 5248SOL    HW216644   5.271   1.219   3.993
 5249SOL     OW16645   0.478   5.002   0.801
 5249SOL    HW116646   0.508   4.973   0.891
 5249SOL    HW216647   0.432   5.091   0.807
 5250SOL     OW16648   2.613   5.460   1.265
 5250SOL    HW116649   2.639   5.535   1.204
 5250SOL    HW216650   2.695   5.407   1.289
 5251SOL     OW16651   0.318   4.783   0.695
 5251SOL    HW116652   0.398   4.754   0.642
 5251SOL    HW216653   0.339   4.869   0.742
 5252SOL     OW16654   3.692   5.751   2.215
 5252SOL    HW116655   3.660   5.788   2.128
 5252SOL    HW216656   3.631   5.678   2.246
 5253SOL     OW16657   6.617   6.169   4.861
 5253SOL    HW116658   6.650   6.256   4.823
 5253SOL    HW216659   6.625   6.098   4.792
 5254SOL     OW16660   5.173   6.082   3.527
 5254SOL    HW116661   5.241   6.107   3.597
 5254SOL    HW216662   5.186   5.986   3.501
 5255SOL     OW16663   6.472   1.496   5.267
 5255SOL    HW116664   6.375   1.489   5.243
 5255SOL    HW216665   6.489   1.447   5.352
 5256SOL     OW16666   6.878   1.660   2.179
 5256SOL    HW116667   6.954   1.622   2.126
 5256SOL    HW216668   6.803   1.685   2.117
 5257SOL     OW16669   4.533   1.538   6.161
 5257SOL    HW116670   4.481   1.528   6.246
 5257SOL    HW216671   4.592   1.619   6.167
 5258SOL     OW16672   5.095   1.327   4.262
 5258SOL    HW116673   5.098   1.401   4.195
 5258SOL    HW216674   5.128   1.360   4.350
 5259SOL     OW16675   6.207   4.918   3.452
 5259SOL    HW116676   6.225   4.929   3.550
 5259SOL    HW216677   6.143   4.842   3.438
 5260SOL     OW16678   1.788   0.155   0.823
 5260SOL    HW116679   1.806   0.093   0.747
 5260SOL    HW216680   1.866   0.217   0.835
 5261SOL     OW16681   5.323   4.194   6.839
 5261SOL    HW116682   5.264   4.218   6.917
 5261SOL    HW216683   5.330   4.095   6.832
 5262SOL     OW16684   1.803   1.310   1.884
 5262SOL    HW116685   1.738   1.241   1.851
 5262SOL    HW216686   1.778   1.338   1.977
 5263SOL     OW16687   1.300   6.137   2.222
 5263SOL    HW116688   1.391   6.099   2.239
 5263SOL    HW216689   1.252   6.079   2.156
 5264SOL     OW16690   6.306   2.052   1.341
 5264SOL    HW116691   6.223   2.025   1.293
 5264SOL    HW216692   6.282   2.085   1.433
 5265SOL     OW16693   6.798   5.461   5.563
 5265SOL    HW116694   6.715   5.447   5.509
 5265SOL    HW216695   6.806   5.390   5.632
 5266SOL     OW16696   1.515   0.300   6.611
 5266SOL    HW116697   1.519   0.384   6.664
 5266SOL    HW216698   1.533   0.319   6.515
 5267SOL     OW16699   5.391   2.616   4.191
 5267SOL    HW116700   5.396   2.577   4.099
 5267SOL    HW216701   5.350   2.708   4.186
 5268SOL     OW16702   5.581   0.426   5.826
 5268SOL    HW116703   5.531   0.470   5.900
 5268SOL    HW216704   5.655   0.370   5.864
 5269SOL     OW16705   0.538   7.011   4.092
 5269SOL    HW116706   0.504   6.984   4.182
 5269SOL    HW216707   0.492   0.074   4.063
 5270SOL     OW16708   1.015   1.706   6.377
 5270SOL    HW116709   1.004   1.649   6.295
 5270SOL    HW216710   1.088   1.772   6.362
 5271SOL     OW16711   1.204   5.090   3.079
 5271SOL    HW116712   1.161   5.083   2.990
 5271SOL    HW216713   1.195   5.004   3.129
 5272SOL     OW16714   4.271   0.444   6.972
 5272SOL    HW116715   4.256   0.522   0.012
 5272SOL    HW216716   4.224   0.364   7.009
 5273SOL     OW16717   2.579   1.567   2.510
 5273SOL    HW116718   2.596   1.569   2.609
 5273SOL    HW216719   2.648   1.511   2.465
 5274SOL     OW16720   5.412   5.149   1.430
 5274SOL    HW116721   5.440   5.178   1.339
 5274SOL    HW216722   5.354   5.068   1.423
 5275SOL     OW16723   4.524   1.635   6.746
 5275SOL    HW116724   4.498   1.569   6.817
 5275SOL    HW216725   4.487   1.725   6.768
 5276SOL     OW16726   4.175   6.626   2.126
 5276SOL    HW116727   4.220   6.631   2.037
 5276SOL    HW216728   4.112   6.703   2.136
 5277SOL     OW16729   2.017   2.868   2.106
 5277SOL    HW116730   2.007   2.964   2.077
 5277SOL    HW216731   2.101   2.858   2.158
 5278SOL     OW16732   4.010   3.722   1.641
 5278SOL    HW116733   4.103   3.757   1.653
 5278SOL    HW216734   3.997   3.643   1.700
 5279SOL     OW16735   1.996   6.305   1.994
 5279SOL    HW116736   1.905   6.316   1.954
 5279SOL    HW216737   1.990   6.244   2.073
 5280SOL     OW16738   4.336   0.415   5.122
 5280SOL    HW116739   4.410   0.404   5.055
 5280SOL    HW216740   4.374   0.428   5.213
 5281SOL     OW16741   0.118   2.640   3.210
 5281SOL    HW116742   0.144   2.585   3.290
 5281SOL    HW216743   0.178   2.617   3.133
 5282SOL     OW16744   4.925   1.329   1.657
 5282SOL    HW116745   4.869   1.409   1.677
 5282SOL    HW216746   4.877   1.246   1.687
 5283SOL     OW16747   5.399   5.420   5.711
 5283SOL    HW116748   5.476   5.403   5.773
 5283SOL    HW216749   5.369   5.333   5.671
 5284SOL     OW16750   4.912   2.662   3.376
 5284SOL    HW116751   4.817   2.650   3.404
 5284SOL    HW216752   4.954   2.573   3.357
 5285SOL     OW16753   4.189   6.207   2.498
 5285SOL    HW116754   4.119   6.161   2.553
 5285SOL    HW216755   4.203   6.156   2.413
 5286SOL     OW16756   2.667   5.243   2.182
 5286SOL    HW116757   2.618   5.212   2.264
 5286SOL    HW216758   2.759   5.272   2.208
 5287SOL     OW16759   0.533   1.550   1.870
 5287SOL    HW116760   0.476   1.632   1.874
 5287SOL    HW216761   0.474   1.469   1.875
 5288SOL     OW16762   4.362   0.942   0.610
 5288SOL    HW116763   4.295   0.877   0.573
 5288SOL    HW216764   4.376   0.924   0.707
 5289SOL     OW16765   2.441   6.188   1.022
 5289SOL    HW116766   2.348   6.154   1.002
 5289SOL    HW216767   2.435   6.266   1.084
 5290SOL     OW16768   5.315   5.997   0.659
 5290SOL    HW116769   5.240   6.062   0.659
 5290SOL    HW216770   5.324   5.956   0.568
 5291SOL     OW16771   1.259   5.133   6.610
 5291SOL    HW116772   1.191   5.070   6.572
 5291SOL    HW216773   1.328   5.153   6.541
 5292SOL     OW16774   5.403   1.926   0.184
 5292SOL    HW116775   5.500   1.907   0.169
 5292SOL    HW216776   5.389   2.025   0.193
 5293SOL     OW16777   1.509   1.786   3.344
 5293SOL    HW116778   1.538   1.744   3.430
 5293SOL    HW216779   1.529   1.884   3.346
 5294SOL     OW16780   4.528   2.626   5.373
 5294SOL    HW116781   4.586   2.683   5.314
 5294SOL    HW216782   4.432   2.652   5.361
 5295SOL     OW16783   5.910   0.833   2.338
 5295SOL    HW116784   5.815   0.861   2.325
 5295SOL    HW216785   5.958   0.901   2.394
 5296SOL     OW16786   0.220   3.366   0.284
 5296SOL    HW116787   0.206   3.463   0.263
 5296SOL    HW216788   0.286   3.327   0.220
 5297SOL     OW16789   1.491   3.016   2.450
 5297SOL    HW116790   1.471   2.921   2.426
 5297SOL    HW216791   1.415   3.055   2.501
 5298SOL     OW16792   1.188   5.244   1.638
 5298SOL    HW116793   1.089   5.249   1.651
 5298SOL    HW216794   1.214   5.300   1.560
 5299SOL     OW16795   3.353   0.348   1.291
 5299SOL    HW116796   3.281   0.412   1.265
 5299SOL    HW216797   3.406   0.386   1.367
 5300SOL     OW16798   6.805   5.539   3.999
 5300SOL    HW116799   6.804   5.457   4.057
 5300SOL    HW216800   6.868   5.525   3.923
 5301SOL     OW16801   5.007   0.670   0.800
 5301SOL    HW116802   4.987   0.610   0.878
 5301SOL    HW216803   5.036   0.760   0.834
 5302SOL     OW16804   6.386   4.259   3.594
 5302SOL    HW116805   6.351   4.176   3.552
 5302SOL    HW216806   6.358   4.339   3.540
 5303SOL     OW16807   0.748   5.557   3.098
 5303SOL    HW116808   0.707   5.537   3.009
 5303SOL    HW216809   0.781   5.472   3.139
 5304SOL     OW16810   4.701   1.956   5.358
 5304SOL    HW116811   4.761   2.014   5.413
 5304SOL    HW216812   4.605   1.975   5.382
 5305SOL     OW16813   3.004   1.061   3.467
 5305SOL    HW116814   2.984   0.965   3.487
 5305SOL    HW216815   2.997   1.115   3.551
 5306SOL     OW16816   2.933   6.581   4.480
 5306SOL    HW116817   2.968   6.647   4.413
 5306SOL    HW216818   2.979   6.493   4.467
 5307SOL     OW16819   4.383   0.091   6.774
 5307SOL    HW116820   4.341   0.001   6.760
 5307SOL    HW216821   4.340   0.157   6.712
 5308SOL     OW16822   6.816   1.282   2.087
 5308SOL    HW116823   6.805   1.261   2.184
 5308SOL    HW216824   6.904   1.247   2.054
 5309SOL     OW16825   3.591   3.843   4.597
 5309SOL    HW116826   3.684   3.860   4.566
 5309SOL    HW216827   3.589   3.763   4.657
 5310SOL     OW16828   5.478   2.921   0.117
 5310SOL    HW116829   5.389   2.919   0.164
 5310SOL    HW216830   5.515   2.828   0.113
 5311SOL     OW16831   1.043   6.193   6.369
 5311SOL    HW116832   0.952   6.162   6.397
 5311SOL    HW216833   1.108   6.117   6.380
 5312SOL     OW16834   0.407   3.333   1.831
 5312SOL    HW116835   0.505   3.313   1.822
 5312SOL    HW216836   0.393   3.393   1.910
 5313SOL     OW16837   1.253   6.613   0.026
 5313SOL    HW116838   1.158   6.614   0.056
 5313SOL    HW216839   1.291   6.521   0.039
 5314SOL     OW16840   3.672   4.951   0.969
 5314SOL    HW116841   3.663   4.884   0.896
 5314SOL    HW216842   3.768   4.981   0.975
 5315SOL     OW16843   5.328   2.392   1.933
 5315SOL    HW116844   5.253   2.362   1.991
 5315SOL    HW216845   5.313   2.487   1.906
 5316SOL     OW16846   5.692   5.284   4.479
 5316SOL    HW116847   5.723   5.193   4.450
 5316SOL    HW216848   5.670   5.282   4.577
 5317SOL     OW16849   6.165   5.453   2.897
 5317SOL    HW116850   6.088   5.445   2.960
 5317SOL    HW216851   6.168   5.545   2.858
 5318SOL     OW16852   0.572   2.058   4.150
 5318SOL    HW116853   0.581   2.073   4.249
 5318SOL    HW216854   0.576   2.145   4.102
 5319SOL     OW16855   3.800   0.077   1.315
 5319SOL    HW116856   3.897   0.058   1.322
 5319SOL    HW216857   3.761   0.089   1.406
 5320SOL     OW16858   6.191   3.795   5.638
 5320SOL    HW116859   6.280   3.840   5.648
 5320SOL    HW216860   6.189   3.742   5.553
 5321SOL     OW16861   2.023   5.061   5.875
 5321SOL    HW116862   2.091   5.133   5.861
 5321SOL    HW216863   1.976   5.042   5.789
 5322SOL     OW16864   2.350   6.367   0.818
 5322SOL    HW116865   2.372   6.296   0.885
 5322SOL    HW216866   2.272   6.421   0.851
 5323SOL     OW16867   5.370   3.615   0.329
 5323SOL    HW116868   5.440   3.591   0.397
 5323SOL    HW216869   5.413   3.667   0.255
 5324SOL     OW16870   3.888   3.485   1.310
 5324SOL    HW116871   3.793   3.503   1.338
 5324SOL    HW216872   3.926   3.411   1.366
 5325SOL     OW16873   4.424   5.963   4.655
 5325SOL    HW116874   4.392   5.972   4.750
 5325SOL    HW216875   4.518   5.929   4.655
 5326SOL     OW16876   0.378   0.449   2.511
 5326SOL    HW116877   0.313   0.465   2.437
 5326SOL    HW216878   0.342   0.488   2.595
 5327SOL     OW16879   0.007   0.208   4.217
 5327SOL    HW116880   6.980   0.295   4.228
 5327SOL    HW216881   0.049   0.204   4.126
 5328SOL     OW16882   3.735   5.085   0.149
 5328SOL    HW116883   3.714   5.159   0.085
 5328SOL    HW216884   3.816   5.108   0.202
 5329SOL     OW16885   6.924   5.845   0.338
 5329SOL    HW116886   7.018   5.873   0.358
 5329SOL    HW216887   6.905   5.758   0.385
 5330SOL     OW16888   3.358   4.171   0.282
 5330SOL    HW116889   3.383   4.265   0.256
 5330SOL    HW216890   3.320   4.171   0.374
 5331SOL     OW16891   5.520   1.828   6.613
 5331SOL    HW116892   5.482   1.912   6.575
 5331SOL    HW216893   5.472   1.805   6.697
 5332SOL     OW16894   5.267   3.366   0.052
 5332SOL    HW116895   5.259   3.303   6.996
 5332SOL    HW216896   5.225   3.325   0.133
 5333SOL     OW16897   1.865   1.364   4.539
 5333SOL    HW116898   1.792   1.351   4.472
 5333SOL    HW216899   1.825   1.391   4.626
 5334SOL     OW16900   3.389   6.247   1.795
 5334SOL    HW116901   3.364   6.246   1.698
 5334SOL    HW216902   3.321   6.196   1.848
 5335SOL     OW16903   0.282   4.810   1.819
 5335SOL    HW116904   0.382   4.810   1.819
 5335SOL    HW216905   0.249   4.755   1.742
 5336SOL     OW16906   1.564   3.170   5.336
 5336SOL    HW116907   1.557   3.223   5.252
 5336SOL    HW216908   1.514   3.216   5.410
 5337SOL     OW16909   7.020   3.970   0.904
 5337SOL    HW116910   7.015   4.062   0.943
 5337SOL    HW216911   6.951   3.912   0.948
 5338SOL     OW16912   6.637   3.745   0.653
 5338SOL    HW116913   6.550   3.767   0.610
 5338SOL    HW216914   6.711   3.758   0.587
 5339SOL     OW16915   5.529   2.956   1.969
 5339SOL    HW116916   5.492   2.904   1.892
 5339SOL    HW216917   5.490   3.048   1.970
 5340SOL     OW16918   4.323   3.560   1.485
 5340SOL    HW116919   4.387   3.633   1.464
 5340SOL    HW216920   4.257   3.593   1.553
 5341SOL     OW16921   4.883   4.525   3.312
 5341SOL    HW116922   4.881   4.563   3.220
 5341SOL    HW216923   4.817   4.450   3.318
 5342SOL     OW16924   6.313   5.831   5.054
 5342SOL    HW116925   6.335   5.886   4.974
 5342SOL    HW216926   6.227   5.782   5.040
 5343SOL     OW16927   3.858   3.331   6.400
 5343SOL    HW116928   3.888   3.425   6.416
 5343SOL    HW216929   3.775   3.313   6.453
 5344SOL     OW16930   6.979   1.515   6.813
 5344SOL    HW116931   6.908   1.570   6.857
 5344SOL    HW216932   6.937   1.434   6.772
 5345SOL     OW16933   5.065   1.237   6.766
 5345SOL    HW116934   5.055   1.217   6.668
 5345SOL    HW216935   5.125   1.169   6.808
 5346SOL     OW16936   3.136   5.919   3.251
 5346SOL    HW116937   3.114   5.831   3.210
 5346SOL    HW216938   3.059   5.982   3.240
 5347SOL     OW16939   5.301   1.666   4.484
 5347SOL    HW116940   5.261   1.575   4.494
 5347SOL    HW216941   5.387   1.671   4.535
 5348SOL     OW16942   4.880   2.841   4.997
 5348SOL    HW116943   4.846   2.935   4.990
 5348SOL    HW216944   4.942   2.822   4.921
 5349SOL     OW16945   0.655   3.653   1.391
 5349SOL    HW116946   0.597   3.593   1.336
 5349SOL    HW216947   0.614   3.744   1.396
 5350SOL     OW16948   0.860   0.071   6.951
 5350SOL    HW116949   0.791   0.006   6.920
 5350SOL    HW216950   0.936   0.074   6.885
 5351SOL     OW16951   6.892   5.676   3.177
 5351SOL    HW116952   6.828   5.654   3.103
 5351SOL    HW216953   6.959   5.602   3.186
 5352SOL     OW16954   1.604   2.700   5.839
 5352SOL    HW116955   1.556   2.620   5.803
 5352SOL    HW216956   1.644   2.751   5.763
 5353SOL     OW16957   3.866   5.359   3.821
 5353SOL    HW116958   3.847   5.456   3.833
 5353SOL    HW216959   3.946   5.347   3.762
 5354SOL     OW16960   3.898   5.689   1.047
 5354SOL    HW116961   3.926   5.594   1.061
 5354SOL    HW216962   3.941   5.725   0.965
 5355SOL     OW16963   4.808   5.834   5.171
 5355SOL    HW116964   4.756   5.781   5.104
 5355SOL    HW216965   4.875   5.891   5.124
 5356SOL     OW16966   1.083   6.219   0.787
 5356SOL    HW116967   1.000   6.162   0.783
 5356SOL    HW216968   1.060   6.308   0.825
 5357SOL     OW16969   6.606   3.318   2.609
 5357SOL    HW116970   6.645   3.331   2.518
 5357SOL    HW216971   6.676   3.332   2.678
 5358SOL     OW16972   5.935   0.558   6.598
 5358SOL    HW116973   5.991   0.593   6.673
 5358SOL    HW216974   5.992   0.547   6.516
 5359SOL     OW16975   3.014   2.748   6.863
 5359SOL    HW116976   3.033   2.786   6.954
 5359SOL    HW216977   3.062   2.802   6.794
 5360SOL     OW16978   5.413   5.320   3.937
 5360SOL    HW116979   5.340   5.372   3.982
 5360SOL    HW216980   5.488   5.381   3.913
 5361SOL     OW16981   1.648   4.557   3.076
 5361SOL    HW116982   1.746   4.579   3.066
 5361SOL    HW216983   1.597   4.642   3.090
 5362SOL     OW16984   6.293   1.268   2.930
 5362SOL    HW116985   6.264   1.173   2.941
 5362SOL    HW216986   6.299   1.290   2.832
 5363SOL     OW16987   5.422   5.210   3.477
 5363SOL    HW116988   5.336   5.217   3.528
 5363SOL    HW216989   5.497   5.242   3.535
 5364SOL     OW16990   4.271   2.277   2.301
 5364SOL    HW116991   4.173   2.264   2.283
 5364SOL    HW216992   4.286   2.288   2.399
 5365SOL     OW16993   2.895   3.999   5.187
 5365SOL    HW116994   2.956   3.936   5.234
 5365SOL    HW216995   2.873   3.964   5.096
 5366SOL     OW16996   6.191   5.892   3.145
 5366SOL    HW116997   6.199   5.980   3.190
 5366SOL    HW216998   6.098   5.880   3.111
 5367SOL     OW16999   6.079   6.117   1.504
 5367SOL    HW117000   6.120   6.026   1.507
 5367SOL    HW217001   5.980   6.108   1.501
 5368SOL     OW17002   0.263   6.189   4.543
 5368SOL    HW117003   0.187   6.143   4.498
 5368SOL    HW217004   0.245   6.197   4.641
 5369SOL     OW17005   4.626   6.223   2.562
 5369SOL    HW117006   4.620   6.137   2.613
 5369SOL    HW217007   4.589   6.210   2.470
 5370SOL     OW17008   1.794   2.725   0.096
 5370SOL    HW117009   1.793   2.653   0.166
 5370SOL    HW217010   1.712   2.781   0.104
 5371SOL     OW17011   6.173   5.648   4.672
 5371SOL    HW117012   6.237   5.721   4.648
 5371SOL    HW217013   6.098   5.645   4.605
 5372SOL     OW17014   2.146   6.849   3.156
 5372SOL    HW117015   2.218   6.909   3.191
 5372SOL    HW217016   2.120   6.879   3.064
 5373SOL     OW17017   2.968   1.107   6.409
 5373SOL    HW117018   2.996   1.157   6.327
 5373SOL    HW217019   2.868   1.112   6.418
 5374SOL     OW17020   1.069   3.760   1.516
 5374SOL    HW117021   1.163   3.729   1.502
 5374SOL    HW217022   1.062   3.858   1.494
 5375SOL     OW17023   2.480   4.562   5.091
 5375SOL    HW117024   2.434   4.487   5.139
 5375SOL    HW217025   2.453   4.649   5.132
 5376SOL     OW17026   1.181   0.389   0.646
 5376SOL    HW117027   1.125   0.307   0.654
 5376SOL    HW217028   1.201   0.424   0.737
 5377SOL     OW17029   1.450   1.963   2.524
 5377SOL    HW117030   1.392   1.929   2.598
 5377SOL    HW217031   1.415   1.930   2.436
 5378SOL     OW17032   4.871   6.505   2.819
 5378SOL    HW117033   4.794   6.566   2.801
 5378SOL    HW217034   4.838   6.411   2.823
 5379SOL     OW17035   2.383   2.023   3.354
 5379SOL    HW117036   2.469   2.073   3.344
 5379SOL    HW217037   2.334   2.056   3.434
 5380SOL     OW17038   4.663   6.152   1.033
 5380SOL    HW117039   4.654   6.079   1.101
 5380SOL    HW217040   4.742   6.209   1.055
 5381SOL     OW17041   3.583   1.439   3.177
 5381SOL    HW117042   3.496   1.391   3.173
 5381SOL    HW217043   3.620   1.433   3.270
 5382SOL     OW17044   3.924   1.280   2.704
 5382SOL    HW117045   3.888   1.194   2.741
 5382SOL    HW217046   4.019   1.290   2.731
 5383SOL     OW17047   1.895   3.097   4.714
 5383SOL    HW117048   1.857   3.024   4.770
 5383SOL    HW217049   1.980   3.066   4.671
 5384SOL     OW17050   5.113   6.152   6.326
 5384SOL    HW117051   5.165   6.085   6.379
 5384SOL    HW217052   5.161   6.240   6.328
 5385SOL     OW17053   4.387   3.713   0.187
 5385SOL    HW117054   4.312   3.707   0.121
 5385SOL    HW217055   4.352   3.694   0.279
 5386SOL     OW17056   4.535   5.127   4.219
 5386SOL    HW117057   4.551   5.113   4.121
 5386SOL    HW217058   4.490   5.214   4.234
 5387SOL     OW17059   0.930   2.300   4.326
 5387SOL    HW117060   1.021   2.311   4.367
 5387SOL    HW217061   0.863   2.284   4.398
 5388SOL     OW17062   6.666   6.587   4.437
 5388SOL    HW117063   6.717   6.655   4.489
 5388SOL    HW217064   6.694   6.590   4.341
 5389SOL     OW17065   5.491   1.464   4.595
 5389SOL    HW117066   5.490   1.370   4.563
 5389SOL    HW217067   5.577   1.508   4.568
 5390SOL     OW17068   6.146   3.830   2.931
 5390SOL    HW117069   6.198   3.801   3.011
 5390SOL    HW217070   6.114   3.750   2.880
 5391SOL     OW17071   3.386   2.522   0.962
 5391SOL    HW117072   3.455   2.523   1.034
 5391SOL    HW217073   3.394   2.605   0.907
 5392SOL     OW17074   5.338   0.424   4.629
 5392SOL    HW117075   5.411   0.455   4.690
 5392SOL    HW217076   5.301   0.502   4.579
 5393SOL     OW17077   4.079   1.203   3.926
 5393SOL    HW117078   3.999   1.147   3.948
 5393SOL    HW217079   4.091   1.271   3.998
 5394SOL     OW17080   6.787   2.691   1.729
 5394SOL    HW117081   6.714   2.641   1.775
 5394SOL    HW217082   6.845   2.627   1.678
 5395SOL     OW17083   0.509   1.383   0.911
 5395SOL    HW117084   0.590   1.326   0.914
 5395SOL    HW217085   0.502   1.428   0.822
 5396SOL     OW17086   3.346   3.081   0.815
 5396SOL    HW117087   3.352   3.092   0.914
 5396SOL    HW217088   3.437   3.088   0.776
 5397SOL     OW17089   6.906   0.227   2.307
 5397SOL    HW117090   6.938   0.297   2.371
 5397SOL    HW217091   6.829   0.177   2.348
 5398SOL     OW17092   6.836   2.430   3.112
 5398SOL    HW117093   6.742   2.405   3.135
 5398SOL    HW217094   6.891   2.434   3.196
 5399SOL     OW17095   2.028   3.119   1.084
 5399SOL    HW117096   2.085   3.049   1.040
 5399SOL    HW217097   2.004   3.189   1.017
 5400SOL     OW17098   4.634   2.901   1.404
 5400SOL    HW117099   4.697   2.970   1.370
 5400SOL    HW217100   4.541   2.924   1.375
 5401SOL     OW17101   5.164   3.144   1.170
 5401SOL    HW117102   5.130   3.146   1.264
 5401SOL    HW217103   5.202   3.233   1.146
 5402SOL     OW17104   0.938   6.548   1.908
 5402SOL    HW117105   0.981   6.575   1.994
 5402SOL    HW217106   1.003   6.495   1.854
 5403SOL     OW17107   4.910   2.279   6.229
 5403SOL    HW117108   4.857   2.363   6.233
 5403SOL    HW217109   4.923   2.243   6.321
 5404SOL     OW17110   5.143   6.887   0.135
 5404SOL    HW117111   5.084   6.837   0.199
 5404SOL    HW217112   5.149   6.982   0.163
 5405SOL     OW17113   0.231   5.204   6.976
 5405SOL    HW117114   0.187   5.216   6.887
 5405SOL    HW217115   0.161   5.183   0.024
 5406SOL     OW17116   3.110   1.157   5.807
 5406SOL    HW117117   3.012   1.174   5.819
 5406SOL    HW217118   3.161   1.242   5.820
 5407SOL     OW17119   0.956   6.613   3.859
 5407SOL    HW117120   0.917   6.573   3.776
 5407SOL    HW217121   0.987   6.706   3.840
 5408SOL     OW17122   2.439   2.090   4.508
 5408SOL    HW117123   2.361   2.052   4.557
 5408SOL    HW217124   2.487   2.017   4.459
 5409SOL     OW17125   0.772   2.653   2.562
 5409SOL    HW117126   0.786   2.583   2.492
 5409SOL    HW217127   0.764   2.609   2.651
 5410SOL     OW17128   6.772   2.707   0.470
 5410SOL    HW117129   6.731   2.788   0.512
 5410SOL    HW217130   6.788   2.725   0.373
 5411SOL     OW17131   3.800   5.360   0.679
 5411SOL    HW117132   3.733   5.421   0.720
 5411SOL    HW217133   3.826   5.395   0.589
 5412SOL     OW17134   1.448   2.410   4.745
 5412SOL    HW117135   1.370   2.470   4.728
 5412SOL    HW217136   1.458   2.346   4.670
 5413SOL     OW17137   0.488   5.002   5.229
 5413SOL    HW117138   0.449   5.066   5.163
 5413SOL    HW217139   0.459   5.028   5.321
 5414SOL     OW17140   5.566   4.553   5.421
 5414SOL    HW117141   5.573   4.493   5.500
 5414SOL    HW217142   5.507   4.511   5.352
 5415SOL     OW17143   2.397   1.464   6.796
 5415SOL    HW117144   2.423   1.530   6.725
 5415SOL    HW217145   2.448   1.483   6.880
 5416SOL     OW17146   3.418   5.605   7.003
 5416SOL    HW117147   3.347   5.627   6.936
 5416SOL    HW217148   3.488   5.548   6.959
 5417SOL     OW17149   5.767   0.255   3.148
 5417SOL    HW117150   5.682   0.274   3.195
 5417SOL    HW217151   5.780   0.322   3.074
 5418SOL     OW17152   0.187   3.654   5.897
 5418SOL    HW117153   0.206   3.720   5.969
 5418SOL    HW217154   0.269   3.641   5.841
 5419SOL     OW17155   3.926   1.884   6.664
 5419SOL    HW117156   3.843   1.846   6.624
 5419SOL    HW217157   3.989   1.912   6.591
 5420SOL     OW17158   1.388   2.180   1.717
 5420SOL    HW117159   1.301   2.135   1.735
 5420SOL    HW217160   1.455   2.151   1.786
 5421SOL     OW17161   4.018   5.429   1.625
 5421SOL    HW117162   4.043   5.368   1.700
 5421SOL    HW217163   4.095   5.490   1.605
 5422SOL     OW17164   2.374   5.346   3.651
 5422SOL    HW117165   2.401   5.259   3.692
 5422SOL    HW217166   2.275   5.346   3.635
 5423SOL     OW17167   4.786   6.660   1.472
 5423SOL    HW117168   4.698   6.696   1.442
 5423SOL    HW217169   4.772   6.574   1.522
 5424SOL     OW17170   4.191   3.702   5.497
 5424SOL    HW117171   4.159   3.660   5.413
 5424SOL    HW217172   4.291   3.694   5.503
 5425SOL     OW17173   1.262   5.073   6.216
 5425SOL    HW117174   1.338   5.091   6.278
 5425SOL    HW217175   1.291   5.009   6.145
 5426SOL     OW17176   6.656   4.638   1.315
 5426SOL    HW117177   6.632   4.586   1.397
 5426SOL    HW217178   6.598   4.718   1.307
 5427SOL     OW17179   4.612   2.778   0.377
 5427SOL    HW117180   4.685   2.730   0.328
 5427SOL    HW217181   4.643   2.801   0.469
 5428SOL     OW17182   4.769   5.185   3.377
 5428SOL    HW117183   4.825   5.250   3.326
 5428SOL    HW217184   4.673   5.200   3.355
 5429SOL     OW17185   2.886   0.113   4.177
 5429SOL    HW117186   2.982   0.135   4.159
 5429SOL    HW217187   2.848   0.062   4.100
 5430SOL     OW17188   2.022   3.767   5.725
 5430SOL    HW117189   2.089   3.784   5.797
 5430SOL    HW217190   2.018   3.846   5.663
 5431SOL     OW17191   4.275   4.666   0.033
 5431SOL    HW117192   4.309   4.631   6.967
 5431SOL    HW217193   4.286   4.596   0.104
 5432SOL     OW17194   0.031   5.111   6.447
 5432SOL    HW117195   0.129   5.131   6.455
 5432SOL    HW217196   7.019   5.070   6.532
 5433SOL     OW17197   3.680   6.943   1.132
 5433SOL    HW117198   3.722   6.852   1.136
 5433SOL    HW217199   3.722   7.001   1.203
 5434SOL     OW17200   5.110   6.814   4.261
 5434SOL    HW117201   5.036   6.845   4.320
 5434SOL    HW217202   5.094   6.719   4.234
 5435SOL     OW17203   0.016   4.948   6.683
 5435SOL    HW117204   0.010   5.003   6.766
 5435SOL    HW217205   6.945   4.915   6.658
 5436SOL     OW17206   2.029   4.739   2.280
 5436SOL    HW117207   1.998   4.724   2.374
 5436SOL    HW217208   2.011   4.834   2.254
 5437SOL     OW17209   3.493   6.535   0.981
 5437SOL    HW117210   3.548   6.538   0.897
 5437SOL    HW217211   3.452   6.625   0.997
 5438SOL     OW17212   3.960   6.200   2.095
 5438SOL    HW117213   4.042   6.255   2.115
 5438SOL    HW217214   3.987   6.117   2.047
 5439SOL     OW17215   1.362   4.280   0.788
 5439SOL    HW117216   1.356   4.310   0.883
 5439SOL    HW217217   1.278   4.232   0.763
 5440SOL     OW17218   5.739   6.861   3.541
 5440SOL    HW117219   5.728   6.898   3.634
 5440SOL    HW217220   5.824   6.896   3.502
 5441SOL     OW17221   5.646   2.480   4.735
 5441SOL    HW117222   5.555   2.460   4.772
 5441SOL    HW217223   5.706   2.401   4.749
 5442SOL     OW17224   2.820   0.464   6.658
 5442SOL    HW117225   2.896   0.517   6.697
 5442SOL    HW217226   2.806   0.491   6.563
 5443SOL     OW17227   5.899   1.278   3.001
 5443SOL    HW117228   5.813   1.325   3.021
 5443SOL    HW217229   5.975   1.331   3.039
 5444SOL     OW17230   0.772   1.666   6.178
 5444SOL    HW117231   0.705   1.729   6.218
 5444SOL    HW217232   0.741   1.638   6.087
 5445SOL     OW17233   5.753   6.247   5.339
 5445SOL    HW117234   5.671   6.238   5.283
 5445SOL    HW217235   5.828   6.281   5.283
 5446SOL     OW17236   1.183   4.321   5.901
 5446SOL    HW117237   1.185   4.290   5.996
 5446SOL    HW217238   1.156   4.418   5.898
 5447SOL     OW17239   6.525   1.806   1.831
 5447SOL    HW117240   6.537   1.905   1.837
 5447SOL    HW217241   6.438   1.786   1.785
 5448SOL     OW17242   6.010   5.072   2.191
 5448SOL    HW117243   5.930   5.128   2.213
 5448SOL    HW217244   6.036   5.018   2.272
 5449SOL     OW17245   1.958   0.903   1.727
 5449SOL    HW117246   1.923   0.900   1.633
 5449SOL    HW217247   1.968   0.998   1.756
 5450SOL     OW17248   4.503   5.698   1.862
 5450SOL    HW117249   4.521   5.789   1.827
 5450SOL    HW217250   4.572   5.634   1.827
 5451SOL     OW17251   6.940   6.525   3.636
 5451SOL    HW117252   7.015   6.527   3.702
 5451SOL    HW217253   6.883   6.445   3.654
 5452SOL     OW17254   2.357   4.298   2.385
 5452SOL    HW117255   2.414   4.315   2.465
 5452SOL    HW217256   2.310   4.383   2.359
 5453SOL     OW17257   6.506   4.248   4.180
 5453SOL    HW117258   6.591   4.290   4.211
 5453SOL    HW217259   6.437   4.318   4.166
 5454SOL     OW17260   5.750   3.788   2.766
 5454SOL    HW117261   5.780   3.851   2.838
 5454SOL    HW217262   5.661   3.816   2.732
 5455SOL     OW17263   2.767   1.964   3.634
 5455SOL    HW117264   2.812   1.875   3.643
 5455SOL    HW217265   2.774   2.014   3.720
 5456SOL     OW17266   6.114   2.293   0.159
 5456SOL    HW117267   6.176   2.222   0.192
 5456SOL    HW217268   6.031   2.292   0.215
 5457SOL     OW17269   6.437   1.276   0.092
 5457SOL    HW117270   6.521   1.272   0.037
 5457SOL    HW217271   6.360   1.302   0.034
 5458SOL     OW17272   4.894   4.573   6.283
 5458SOL    HW117273   4.854   4.598   6.195
 5458SOL    HW217274   4.939   4.484   6.275
 5459SOL     OW17275   2.192   2.878   5.224
 5459SOL    HW117276   2.205   2.827   5.309
 5459SOL    HW217277   2.281   2.909   5.190
 5460SOL     OW17278   0.391   0.617   1.499
 5460SOL    HW117279   0.341   0.532   1.513
 5460SOL    HW217280   0.349   0.689   1.554
 5461SOL     OW17281   6.089   1.617   6.323
 5461SOL    HW117282   6.148   1.611   6.242
 5461SOL    HW217283   6.096   1.533   6.376
 5462SOL     OW17284   5.442   5.086   5.816
 5462SOL    HW117285   5.414   5.007   5.870
 5462SOL    HW217286   5.360   5.135   5.786
 5463SOL     OW17287   1.362   4.087   5.847
 5463SOL    HW117288   1.458   4.105   5.868
 5463SOL    HW217289   1.322   4.166   5.800
 5464SOL     OW17290   1.934   5.351   4.792
 5464SOL    HW117291   1.924   5.447   4.766
 5464SOL    HW217292   1.873   5.330   4.868
 5465SOL     OW17293   0.984   0.035   5.326
 5465SOL    HW117294   1.019   7.005   5.247
 5465SOL    HW217295   0.935   6.992   5.386
 5466SOL     OW17296   5.460   1.681   4.767
 5466SOL    HW117297   5.483   1.588   4.740
 5466SOL    HW217298   5.482   1.744   4.692
 5467SOL     OW17299   4.883   3.209   4.506
 5467SOL    HW117300   4.931   3.224   4.592
 5467SOL    HW217301   4.907   3.281   4.441
 5468SOL     OW17302   6.684   2.203   1.292
 5468SOL    HW117303   6.780   2.185   1.308
 5468SOL    HW217304   6.634   2.202   1.379
 5469SOL     OW17305   3.154   1.123   4.447
 5469SOL    HW117306   3.224   1.059   4.414
 5469SOL    HW217307   3.197   1.211   4.468
 5470SOL     OW17308   4.171   5.358   4.012
 5470SOL    HW117309   4.191   5.433   4.075
 5470SOL    HW217310   4.157   5.274   4.064
 5471SOL     OW17311   5.006   0.122   2.465
 5471SOL    HW117312   4.996   0.093   2.370
 5471SOL    HW217313   5.004   0.221   2.470
 5472SOL     OW17314   2.556   3.638   0.653
 5472SOL    HW117315   2.586   3.733   0.656
 5472SOL    HW217316   2.503   3.617   0.735
 5473SOL     OW17317   3.119   4.704   1.874
 5473SOL    HW117318   3.124   4.731   1.970
 5473SOL    HW217319   3.037   4.648   1.860
 5474SOL     OW17320   1.546   4.913   2.372
 5474SOL    HW117321   1.447   4.919   2.365
 5474SOL    HW217322   1.585   4.896   2.282
 5475SOL     OW17323   1.249   1.133   5.176
 5475SOL    HW117324   1.205   1.222   5.167
 5475SOL    HW217325   1.243   1.102   5.271
 5476SOL     OW17326   1.939   6.735   4.822
 5476SOL    HW117327   1.867   6.732   4.753
 5476SOL    HW217328   1.955   6.830   4.850
 5477SOL     OW17329   1.906   3.312   3.696
 5477SOL    HW117330   1.932   3.226   3.651
 5477SOL    HW217331   1.922   3.388   3.633
 5478SOL     OW17332   5.034   4.902   5.832
 5478SOL    HW117333   5.036   4.918   5.931
 5478SOL    HW217334   5.018   4.989   5.785
 5479SOL     OW17335   5.388   2.708   4.553
 5479SOL    HW117336   5.290   2.724   4.541
 5479SOL    HW217337   5.406   2.610   4.560
 5480SOL     OW17338   1.359   3.213   4.154
 5480SOL    HW117339   1.351   3.159   4.070
 5480SOL    HW217340   1.441   3.185   4.204
 5481SOL     OW17341   4.105   1.468   6.521
 5481SOL    HW117342   4.012   1.497   6.544
 5481SOL    HW217343   4.131   1.391   6.579
 5482SOL     OW17344   5.437   3.238   1.936
 5482SOL    HW117345   5.359   3.286   1.975
 5482SOL    HW217346   5.518   3.298   1.938
 5483SOL     OW17347   6.888   2.936   0.002
 5483SOL    HW117348   6.868   3.033   7.010
 5483SOL    HW217349   6.851   2.884   6.946
 5484SOL     OW17350   6.464   0.042   5.197
 5484SOL    HW117351   6.364   0.042   5.191
 5484SOL    HW217352   6.494   0.126   5.241
 5485SOL     OW17353   3.829   0.112   4.666
 5485SOL    HW117354   3.860   0.038   4.727
 5485SOL    HW217355   3.742   0.086   4.624
 5486SOL     OW17356   0.911   0.982   4.110
 5486SOL    HW117357   0.923   0.968   4.012
 5486SOL    HW217358   0.953   1.069   4.136
 5487SOL     OW17359   4.523   5.128   0.354
 5487SOL    HW117360   4.537   5.039   0.398
 5487SOL    HW217361   4.474   5.189   0.417
 5488SOL     OW17362   5.411   1.209   6.200
 5488SOL    HW117363   5.332   1.155   6.172
 5488SOL    HW217364   5.451   1.253   6.119
 5489SOL     OW17365   6.890   4.261   3.109
 5489SOL    HW117366   6.965   4.210   3.152
 5489SOL    HW217367   6.804   4.239   3.154
 5490SOL     OW17368   2.094   2.076   6.640
 5490SOL    HW117369   2.125   2.150   6.700
 5490SOL    HW217370   2.129   2.091   6.547
 5491SOL     OW17371   0.259   6.105   1.512
 5491SOL    HW117372   0.171   6.151   1.524
 5491SOL    HW217373   0.254   6.043   1.434
 5492SOL     OW17374   1.764   1.075   4.780
 5492SOL    HW117375   1.694   1.011   4.748
 5492SOL    HW217376   1.746   1.166   4.743
 5493SOL     OW17377   3.423   2.637   0.354
 5493SOL    HW117378   3.368   2.584   0.419
 5493SOL    HW217379   3.417   2.734   0.377
 5494SOL     OW17380   6.046   3.062   2.188
 5494SOL    HW117381   6.091   3.021   2.267
 5494SOL    HW217382   6.011   2.990   2.128
 5495SOL     OW17383   3.543   2.860   3.112
 5495SOL    HW117384   3.566   2.955   3.132
 5495SOL    HW217385   3.582   2.834   3.023
 5496SOL     OW17386   3.778   5.047   1.453
 5496SOL    HW117387   3.709   5.089   1.511
 5496SOL    HW217388   3.849   5.114   1.431
 5497SOL     OW17389   6.247   0.118   1.935
 5497SOL    HW117390   6.335   0.166   1.929
 5497SOL    HW217391   6.230   0.093   2.030
 5498SOL     OW17392   4.573   0.204   5.135
 5498SOL    HW117393   4.517   0.151   5.071
 5498SOL    HW217394   4.665   0.164   5.140
 5499SOL     OW17395   0.315   1.541   5.373
 5499SOL    HW117396   0.390   1.513   5.314
 5499SOL    HW217397   0.253   1.602   5.322
 5500SOL     OW17398   2.271   5.353   1.022
 5500SOL    HW117399   2.365   5.323   1.009
 5500SOL    HW217400   2.211   5.272   1.023
 5501SOL     OW17401   2.357   0.363   2.802
 5501SOL    HW117402   2.416   0.360   2.721
 5501SOL    HW217403   2.369   0.278   2.854
 5502SOL     OW17404   4.630   3.585   0.449
 5502SOL    HW117405   4.607   3.613   0.355
 5502SOL    HW217406   4.694   3.508   0.446
 5503SOL     OW17407   0.524   6.608   4.308
 5503SOL    HW117408   0.468   6.625   4.226
 5503SOL    HW217409   0.492   6.526   4.354
 5504SOL     OW17410   3.565   1.967   4.353
 5504SOL    HW117411   3.557   1.939   4.448
 5504SOL    HW217412   3.662   1.977   4.329
 5505SOL     OW17413   3.454   4.617   6.041
 5505SOL    HW117414   3.528   4.681   6.063
 5505SOL    HW217415   3.425   4.570   6.124
 5506SOL     OW17416   0.384   6.778   5.668
 5506SOL    HW117417   0.305   6.837   5.686
 5506SOL    HW217418   0.423   6.748   5.755
 5507SOL     OW17419   3.874   5.907   4.483
 5507SOL    HW117420   3.879   5.958   4.397
 5507SOL    HW217421   3.798   5.942   4.538
 5508SOL     OW17422   2.496   0.672   6.003
 5508SOL    HW117423   2.436   0.726   6.062
 5508SOL    HW217424   2.471   0.576   6.009
 5509SOL     OW17425   6.130   6.337   0.054
 5509SOL    HW117426   6.090   6.402   0.118
 5509SOL    HW217427   6.170   6.387   6.998
 5510SOL     OW17428   5.777   0.218   6.391
 5510SOL    HW117429   5.874   0.236   6.380
 5510SOL    HW217430   5.758   0.122   6.366
 5511SOL     OW17431   0.132   2.147   1.568
 5511SOL    HW117432   0.212   2.094   1.538
 5511SOL    HW217433   0.141   2.241   1.536
 5512SOL     OW17434   0.500   0.436   1.014
 5512SOL    HW117435   0.436   0.364   1.041
 5512SOL    HW217436   0.454   0.498   0.950
 5513SOL     OW17437   3.423   5.199   4.839
 5513SOL    HW117438   3.386   5.279   4.885
 5513SOL    HW217439   3.348   5.140   4.808
 5514SOL     OW17440   6.320   5.274   3.690
 5514SOL    HW117441   6.238   5.331   3.684
 5514SOL    HW217442   6.295   5.178   3.682
 5515SOL     OW17443   6.760   2.744   2.550
 5515SOL    HW117444   6.707   2.829   2.553
 5515SOL    HW217445   6.835   2.753   2.485
 5516SOL     OW17446   1.405   3.267   6.104
 5516SOL    HW117447   1.346   3.192   6.134
 5516SOL    HW217448   1.470   3.233   6.036
 5517SOL     OW17449   2.177   1.583   1.622
 5517SOL    HW117450   2.239   1.545   1.553
 5517SOL    HW217451   2.195   1.539   1.710
 5518SOL     OW17452   5.124   5.351   4.999
 5518SOL    HW117453   5.208   5.302   4.977
 5518SOL    HW217454   5.051   5.285   5.019
 5519SOL     OW17455   5.422   3.698   3.285
 5519SOL    HW117456   5.444   3.600   3.287
 5519SOL    HW217457   5.324   3.710   3.298
 5520SOL     OW17458   1.616   3.354   0.999
 5520SOL    HW117459   1.598   3.260   0.970
 5520SOL    HW217460   1.598   3.416   0.923
 5521SOL     OW17461   4.558   5.676   1.338
 5521SOL    HW117462   4.514   5.603   1.286
 5521SOL    HW217463   4.599   5.638   1.421
 5522SOL     OW17464   2.103   3.371   2.469
 5522SOL    HW117465   2.023   3.312   2.465
 5522SOL    HW217466   2.181   3.326   2.425
 5523SOL     OW17467   3.233   0.873   1.518
 5523SOL    HW117468   3.182   0.888   1.433
 5523SOL    HW217469   3.239   0.775   1.537
 5524SOL     OW17470   6.341   5.729   6.302
 5524SOL    HW117471   6.245   5.708   6.282
 5524SOL    HW217472   6.398   5.653   6.269
 5525SOL     OW17473   6.620   6.124   4.393
 5525SOL    HW117474   6.588   6.216   4.371
 5525SOL    HW217475   6.717   6.116   4.373
 5526SOL     OW17476   5.334   3.146   4.721
 5526SOL    HW117477   5.386   3.147   4.806
 5526SOL    HW217478   5.390   3.185   4.648
 5527SOL     OW17479   2.515   3.429   0.912
 5527SOL    HW117480   2.442   3.495   0.896
 5527SOL    HW217481   2.486   3.363   0.981
 5528SOL     OW17482   0.268   3.138   2.867
 5528SOL    HW117483   0.185   3.083   2.863
 5528SOL    HW217484   0.244   3.234   2.854
 5529SOL     OW17485   1.904   1.256   5.158
 5529SOL    HW117486   1.891   1.299   5.068
 5529SOL    HW217487   1.836   1.184   5.170
 5530SOL     OW17488   0.714   3.031   0.728
 5530SOL    HW117489   0.799   2.988   0.697
 5530SOL    HW217490   0.649   3.036   0.652
 5531SOL     OW17491   1.868   2.758   5.940
 5531SOL    HW117492   1.944   2.787   5.881
 5531SOL    HW217493   1.786   2.743   5.884
 5532SOL     OW17494   2.402   1.949   1.128
 5532SOL    HW117495   2.434   2.000   1.208
 5532SOL    HW217496   2.480   1.917   1.075
 5533SOL     OW17497   4.198   0.234   0.454
 5533SOL    HW117498   4.254   0.162   0.496
 5533SOL    HW217499   4.107   0.198   0.435
 5534SOL     OW17500   6.848   4.778   5.299
 5534SOL    HW117501   6.847   4.868   5.254
 5534SOL    HW217502   6.925   4.725   5.263
 5535SOL     OW17503   5.821   3.751   3.380
 5535SOL    HW117504   5.726   3.782   3.376
 5535SOL    HW217505   5.876   3.801   3.313
 5536SOL     OW17506   2.091   0.457   3.903
 5536SOL    HW117507   2.087   0.527   3.974
 5536SOL    HW217508   2.043   0.489   3.821
 5537SOL     OW17509   4.650   1.520   4.772
 5537SOL    HW117510   4.679   1.614   4.753
 5537SOL    HW217511   4.681   1.492   4.863
 5538SOL     OW17512   5.683   2.207   1.608
 5538SOL    HW117513   5.634   2.209   1.696
 5538SOL    HW217514   5.781   2.207   1.625
 5539SOL     OW17515   2.836   6.393   0.276
 5539SOL    HW117516   2.908   6.408   0.344
 5539SOL    HW217517   2.777   6.474   0.272
 5540SOL     OW17518   5.159   0.706   0.014
 5540SOL    HW117519   5.084   0.705   6.969
 5540SOL    HW217520   5.219   0.628   7.019
 5541SOL     OW17521   4.611   3.416   6.328
 5541SOL    HW117522   4.655   3.392   6.241
 5541SOL    HW217523   4.660   3.373   6.403
 5542SOL     OW17524   4.061   4.499   6.943
 5542SOL    HW117525   4.145   4.537   6.983
 5542SOL    HW217526   4.011   4.572   6.896
 5543SOL     OW17527   1.932   0.458   0.360
 5543SOL    HW117528   1.833   0.452   0.368
 5543SOL    HW217529   1.961   0.417   0.273
 5544SOL     OW17530   3.754   5.613   6.333
 5544SOL    HW117531   3.670   5.618   6.278
 5544SOL    HW217532   3.830   5.583   6.276
 5545SOL     OW17533   4.636   0.667   2.867
 5545SOL    HW117534   4.570   0.690   2.937
 5545SOL    HW217535   4.605   0.702   2.778
 5546SOL     OW17536   0.294   5.183   4.439
 5546SOL    HW117537   0.215   5.165   4.497
 5546SOL    HW217538   0.376   5.196   4.496
 5547SOL     OW17539   5.190   1.416   4.788
 5547SOL    HW117540   5.192   1.383   4.882
 5547SOL    HW217541   5.217   1.512   4.786
 5548SOL     OW17542   0.225   4.626   4.279
 5548SOL    HW117543   0.256   4.598   4.370
 5548SOL    HW217544   0.292   4.688   4.238
 5549SOL     OW17545   4.163   2.955   0.513
 5549SOL    HW117546   4.066   2.971   0.531
 5549SOL    HW217547   4.182   2.857   0.514
 5550SOL     OW17548   1.852   4.205   1.684
 5550SOL    HW117549   1.816   4.111   1.680
 5550SOL    HW217550   1.776   4.269   1.694
 5551SOL     OW17551   1.775   5.539   3.288
 5551SOL    HW117552   1.873   5.522   3.278
 5551SOL    HW217553   1.736   5.563   3.199
 5552SOL     OW17554   0.166   6.645   6.924
 5552SOL    HW117555   0.248   6.588   6.929
 5552SOL    HW217556   0.092   6.600   6.974
 5553SOL     OW17557   5.060   0.314   6.913
 5553SOL    HW117558   4.988   0.363   6.962
 5553SOL    HW217559   5.018   0.250   6.848
 5554SOL     OW17560   5.742   1.960   1.481
 5554SOL    HW117561   5.795   1.887   1.524
 5554SOL    HW217562   5.710   2.024   1.551
 5555SOL     OW17563   2.012   5.064   2.612
 5555SOL    HW117564   1.930   5.032   2.563
 5555SOL    HW217565   2.029   5.004   2.690
 5556SOL     OW17566   0.309   1.102   4.618
 5556SOL    HW117567   0.231   1.165   4.614
 5556SOL    HW217568   0.284   1.015   4.576
 5557SOL     OW17569   3.412   5.755   3.123
 5557SOL    HW117570   3.404   5.854   3.131
 5557SOL    HW217571   3.321   5.713   3.128
 5558SOL     OW17572   4.080   4.229   6.888
 5558SOL    HW117573   4.060   4.326   6.875
 5558SOL    HW217574   4.179   4.216   6.893
 5559SOL     OW17575   2.515   0.978   2.741
 5559SOL    HW117576   2.438   0.982   2.805
 5559SOL    HW217577   2.601   0.987   2.791
 5560SOL     OW17578   0.747   6.388   3.273
 5560SOL    HW117579   0.676   6.385   3.202
 5560SOL    HW217580   0.826   6.334   3.243
 5561SOL     OW17581   3.598   6.714   3.381
 5561SOL    HW117582   3.571   6.777   3.308
 5561SOL    HW217583   3.603   6.621   3.345
 5562SOL     OW17584   3.785   4.383   0.676
 5562SOL    HW117585   3.767   4.284   0.674
 5562SOL    HW217586   3.842   4.405   0.754
 5563SOL     OW17587   2.463   4.424   2.680
 5563SOL    HW117588   2.515   4.475   2.611
 5563SOL    HW217589   2.496   4.448   2.771
 5564SOL     OW17590   5.406   0.845   5.801
 5564SOL    HW117591   5.311   0.818   5.821
 5564SOL    HW217592   5.460   0.764   5.781
 5565SOL     OW17593   3.401   2.252   6.241
 5565SOL    HW117594   3.398   2.352   6.236
 5565SOL    HW217595   3.496   2.221   6.230
 5566SOL     OW17596   1.466   3.775   6.565
 5566SOL    HW117597   1.368   3.788   6.550
 5566SOL    HW217598   1.515   3.860   6.545
 5567SOL     OW17599   0.004   4.275   1.372
 5567SOL    HW117600   7.006   4.189   1.419
 5567SOL    HW217601   6.963   4.286   1.294
 5568SOL     OW17602   4.522   5.344   1.366
 5568SOL    HW117603   4.550   5.277   1.435
 5568SOL    HW217604   4.603   5.383   1.322
 5569SOL     OW17605   2.218   2.983   3.690
 5569SOL    HW117606   2.207   3.065   3.746
 5569SOL    HW217607   2.127   2.949   3.663
 5570SOL     OW17608   0.483   3.596   2.658
 5570SOL    HW117609   0.477   3.530   2.733
 5570SOL    HW217610   0.394   3.606   2.615
 5571SOL     OW17611   6.025   4.677   2.022
 5571SOL    HW117612   5.937   4.719   1.999
 5571SOL    HW217613   6.010   4.596   2.078
 5572SOL     OW17614   1.688   4.170   4.994
 5572SOL    HW117615   1.752   4.120   4.936
 5572SOL    HW217616   1.599   4.124   4.993
 5573SOL     OW17617   2.731   5.234   3.368
 5573SOL    HW117618   2.712   5.139   3.394
 5573SOL    HW217619   2.786   5.277   3.439
 5574SOL     OW17620   0.855   2.707   6.538
 5574SOL    HW117621   0.827   2.611   6.538
 5574SOL    HW217622   0.813   2.755   6.461
 5575SOL     OW17623   0.262   6.929   1.927
 5575SOL    HW117624   0.334   6.867   1.897
 5575SOL    HW217625   0.283   6.963   2.019
 5576SOL     OW17626   1.499   4.725   3.364
 5576SOL    HW117627   1.462   4.806   3.409
 5576SOL    HW217628   1.554   4.673   3.429
 5577SOL     OW17629   1.710   2.638   5.576
 5577SOL    HW117630   1.740   2.730   5.550
 5577SOL    HW217631   1.617   2.623   5.543
 5578SOL     OW17632   3.716   3.664   3.516
 5578SOL    HW117633   3.661   3.740   3.549
 5578SOL    HW217634   3.789   3.645   3.582
 5579SOL     OW17635   0.380   3.698   1.510
 5579SOL    HW117636   0.303   3.668   1.454
 5579SOL    HW217637   0.416   3.784   1.475
 5580SOL     OW17638   5.275   1.792   5.346
 5580SOL    HW117639   5.187   1.789   5.394
 5580SOL    HW217640   5.287   1.707   5.294
 5581SOL     OW17641   1.159   2.192   6.680
 5581SOL    HW117642   1.252   2.196   6.644
 5581SOL    HW217643   1.116   2.106   6.653
 5582SOL     OW17644   2.527   2.477   6.025
 5582SOL    HW117645   2.589   2.398   6.018
 5582SOL    HW217646   2.577   2.560   6.000
 5583SOL     OW17647   5.634   0.863   2.287
 5583SOL    HW117648   5.583   0.919   2.352
 5583SOL    HW217649   5.607   0.767   2.297
 5584SOL     OW17650   1.150   3.604   4.946
 5584SOL    HW117651   1.200   3.671   4.891
 5584SOL    HW217652   1.058   3.593   4.909
 5585SOL     OW17653   4.655   4.831   2.500
 5585SOL    HW117654   4.675   4.734   2.486
 5585SOL    HW217655   4.624   4.871   2.414
 5586SOL     OW17656   6.247   3.369   6.846
 5586SOL    HW117657   6.344   3.354   6.825
 5586SOL    HW217658   6.208   3.432   6.778
 5587SOL     OW17659   5.862   1.115   6.331
 5587SOL    HW117660   5.845   1.048   6.259
 5587SOL    HW217661   5.959   1.117   6.354
 5588SOL     OW17662   3.315   6.790   1.046
 5588SOL    HW117663   3.362   6.845   1.115
 5588SOL    HW217664   3.245   6.734   1.091
 5589SOL     OW17665   5.664   4.776   5.688
 5589SOL    HW117666   5.719   4.784   5.772
 5589SOL    HW217667   5.693   4.695   5.637
 5590SOL     OW17668   5.795   5.595   3.929
 5590SOL    HW117669   5.736   5.628   4.002
 5590SOL    HW217670   5.834   5.673   3.879
 5591SOL     OW17671   5.863   1.064   1.722
 5591SOL    HW117672   5.946   1.058   1.777
 5591SOL    HW217673   5.887   1.058   1.625
 5592SOL     OW17674   0.628   3.762   3.057
 5592SOL    HW117675   0.615   3.665   3.038
 5592SOL    HW217676   0.724   3.779   3.079
 5593SOL     OW17677   0.034   3.162   0.369
 5593SOL    HW117678   0.094   3.241   0.352
 5593SOL    HW217679   0.055   3.090   0.304
 5594SOL     OW17680   5.776   2.455   5.537
 5594SOL    HW117681   5.684   2.416   5.530
 5594SOL    HW217682   5.794   2.513   5.458
 5595SOL     OW17683   0.674   2.156   5.347
 5595SOL    HW117684   0.596   2.213   5.372
 5595SOL    HW217685   0.743   2.212   5.301
 5596SOL     OW17686   3.817   6.556   3.151
 5596SOL    HW117687   3.843   6.530   3.058
 5596SOL    HW217688   3.837   6.653   3.165
 5597SOL     OW17689   5.444   3.329   2.908
 5597SOL    HW117690   5.467   3.404   2.847
 5597SOL    HW217691   5.462   3.242   2.862
 5598SOL     OW17692   5.605   2.069   5.447
 5598SOL    HW117693   5.586   2.042   5.353
 5598SOL    HW217694   5.570   2.162   5.462
 5599SOL     OW17695   0.612   1.181   3.799
 5599SOL    HW117696   0.686   1.214   3.858
 5599SOL    HW217697   0.524   1.210   3.837
 5600SOL     OW17698   1.359   2.375   4.296
 5600SOL    HW117699   1.447   2.404   4.332
 5600SOL    HW217700   1.372   2.299   4.232
 5601SOL     OW17701   2.840   0.908   5.609
 5601SOL    HW117702   2.800   0.890   5.699
 5601SOL    HW217703   2.772   0.890   5.538
 5602SOL     OW17704   1.471   1.905   0.801
 5602SOL    HW117705   1.495   1.861   0.715
 5602SOL    HW217706   1.400   1.974   0.785
 5603SOL     OW17707   5.874   2.930   6.543
 5603SOL    HW117708   5.894   2.973   6.455
 5603SOL    HW217709   5.892   2.831   6.537
 5604SOL     OW17710   6.720   1.968   6.117
 5604SOL    HW117711   6.697   1.887   6.171
 5604SOL    HW217712   6.650   2.038   6.131
 5605SOL     OW17713   0.300   2.118   4.951
 5605SOL    HW117714   0.377   2.136   5.012
 5605SOL    HW217715   0.324   2.146   4.858
 5606SOL     OW17716   4.656   6.988   2.200
 5606SOL    HW117717   4.718   6.982   2.122
 5606SOL    HW217718   4.677   0.049   2.254
 5607SOL     OW17719   5.795   0.714   2.027
 5607SOL    HW117720   5.749   0.802   2.040
 5607SOL    HW217721   5.820   0.676   2.116
 5608SOL     OW17722   3.953   6.416   5.263
 5608SOL    HW117723   3.894   6.366   5.327
 5608SOL    HW217724   4.046   6.420   5.299
 5609SOL     OW17725   2.484   6.388   5.869
 5609SOL    HW117726   2.464   6.340   5.955
 5609SOL    HW217727   2.408   6.374   5.805
 5610SOL     OW17728   4.914   0.700   6.897
 5610SOL    HW117729   4.870   0.708   6.808
 5610SOL    HW217730   4.875   0.767   6.960
 5611SOL     OW17731   1.771   5.131   3.154
 5611SOL    HW117732   1.757   5.048   3.207
 5611SOL    HW217733   1.688   5.187   3.158
 5612SOL     OW17734   2.577   0.118   5.411
 5612SOL    HW117735   2.583   0.018   5.403
 5612SOL    HW217736   2.631   0.147   5.490
 5613SOL     OW17737   4.034   4.705   1.848
 5613SOL    HW117738   4.127   4.740   1.861
 5613SOL    HW217739   3.975   4.742   1.920
 5614SOL     OW17740   4.547   2.141   2.958
 5614SOL    HW117741   4.448   2.156   2.950
 5614SOL    HW217742   4.564   2.052   3.000
 5615SOL     OW17743   1.220   1.278   1.159
 5615SOL    HW117744   1.166   1.361   1.173
 5615SOL    HW217745   1.282   1.291   1.082
 5616SOL     OW17746   2.456   0.593   4.385
 5616SOL    HW117747   2.464   0.578   4.287
 5616SOL    HW217748   2.360   0.595   4.411
 5617SOL     OW17749   1.703   0.916   5.032
 5617SOL    HW117750   1.738   0.948   4.944
 5617SOL    HW217751   1.627   0.974   5.061
 5618SOL     OW17752   6.799   4.351   2.853
 5618SOL    HW117753   6.851   4.436   2.845
 5618SOL    HW217754   6.818   4.308   2.941
 5619SOL     OW17755   2.159   3.598   5.164
 5619SOL    HW117756   2.217   3.516   5.170
 5619SOL    HW217757   2.065   3.571   5.144
 5620SOL     OW17758   3.788   1.806   5.830
 5620SOL    HW117759   3.828   1.856   5.753
 5620SOL    HW217760   3.822   1.844   5.916
 5621SOL     OW17761   2.262   2.728   5.444
 5621SOL    HW117762   2.345   2.743   5.389
 5621SOL    HW217763   2.289   2.700   5.537
 5622SOL     OW17764   6.249   0.473   6.032
 5622SOL    HW117765   6.335   0.510   6.067
 5622SOL    HW217766   6.222   0.525   5.951
 5623SOL     OW17767   0.793   5.883   0.142
 5623SOL    HW117768   0.715   5.859   0.200
 5623SOL    HW217769   0.777   5.852   0.049
 5624SOL     OW17770   0.931   4.220   3.260
 5624SOL    HW117771   1.026   4.211   3.232
 5624SOL    HW217772   0.871   4.199   3.183
 5625SOL     OW17773   6.569   2.307   5.301
 5625SOL    HW117774   6.652   2.256   5.275
 5625SOL    HW217775   6.491   2.274   5.248
 5626SOL     OW17776   4.067   6.901   4.400
 5626SOL    HW117777   4.091   6.842   4.477
 5626SOL    HW217778   4.147   6.954   4.372
 5627SOL     OW17779   1.365   6.131   0.835
 5627SOL    HW117780   1.272   6.167   0.827
 5627SOL    HW217781   1.386   6.074   0.756
 5628SOL     OW17782   2.042   1.110   4.640
 5628SOL    HW117783   2.020   1.203   4.610
 5628SOL    HW217784   1.971   1.078   4.702
 5629SOL     OW17785   3.696   3.762   2.522
 5629SOL    HW117786   3.773   3.825   2.507
 5629SOL    HW217787   3.672   3.717   2.436
 5630SOL     OW17788   0.468   4.506   1.954
 5630SOL    HW117789   0.428   4.590   1.918
 5630SOL    HW217790   0.566   4.505   1.937
 5631SOL     OW17791   5.078   0.761   0.410
 5631SOL    HW117792   5.146   0.694   0.441
 5631SOL    HW217793   5.043   0.811   0.489
 5632SOL     OW17794   4.005   3.718   0.175
 5632SOL    HW117795   3.928   3.713   0.238
 5632SOL    HW217796   4.060   3.635   0.183
 5633SOL     OW17797   6.246   2.514   4.455
 5633SOL    HW117798   6.262   2.467   4.369
 5633SOL    HW217799   6.150   2.505   4.481
 5634SOL     OW17800   4.308   5.997   4.408
 5634SOL    HW117801   4.224   6.047   4.427
 5634SOL    HW217802   4.359   5.982   4.493
 5635SOL     OW17803   3.302   2.104   5.029
 5635SOL    HW117804   3.234   2.057   4.973
 5635SOL    HW217805   3.262   2.188   5.067
 5636SOL     OW17806   3.952   5.608   3.642
 5636SOL    HW117807   3.928   5.688   3.696
 5636SOL    HW217808   4.048   5.586   3.654
 5637SOL     OW17809   5.587   0.293   3.326
 5637SOL    HW117810   5.615   0.339   3.411
 5637SOL    HW217811   5.502   0.242   3.343
 5638SOL     OW17812   5.550   3.133   6.224
 5638SOL    HW117813   5.522   3.153   6.317
 5638SOL    HW217814   5.561   3.218   6.173
 5639SOL     OW17815   3.035   1.171   6.139
 5639SOL    HW117816   3.010   1.263   6.111
 5639SOL    HW217817   2.981   1.104   6.087
 5640SOL     OW17818   2.476   0.072   3.557
 5640SOL    HW117819   2.377   0.062   3.547
 5640SOL    HW217820   2.522   7.017   3.512
 5641SOL     OW17821   5.518   5.408   4.978
 5641SOL    HW117822   5.568   5.333   5.020
 5641SOL    HW217823   5.542   5.494   5.023
 5642SOL     OW17824   1.465   1.883   6.475
 5642SOL    HW117825   1.474   1.851   6.569
 5642SOL    HW217826   1.543   1.942   6.452
 5643SOL     OW17827   5.843   2.672   4.736
 5643SOL    HW117828   5.895   2.629   4.662
 5643SOL    HW217829   5.757   2.622   4.749
 5644SOL     OW17830   3.547   0.136   6.358
 5644SOL    HW117831   3.567   0.234   6.364
 5644SOL    HW217832   3.551   0.107   6.262
 5645SOL     OW17833   5.061   2.712   4.744
 5645SOL    HW117834   5.026   2.622   4.772
 5645SOL    HW217835   5.096   2.706   4.651
 5646SOL     OW17836   1.843   4.517   2.444
 5646SOL    HW117837   1.869   4.421   2.456
 5646SOL    HW217838   1.876   4.571   2.522
 5647SOL     OW17839   6.725   6.008   2.523
 5647SOL    HW117840   6.809   6.056   2.547
 5647SOL    HW217841   6.739   5.957   2.438
 5648SOL     OW17842   4.429   6.664   3.316
 5648SOL    HW117843   4.338   6.696   3.343
 5648SOL    HW217844   4.419   6.593   3.246
 5649SOL     OW17845   1.006   6.239   4.304
 5649SOL    HW117846   0.932   6.305   4.291
 5649SOL    HW217847   1.090   6.289   4.327
 5650SOL     OW17848   6.712   4.418   6.777
 5650SOL    HW117849   6.805   4.393   6.750
 5650SOL    HW217850   6.663   4.336   6.806
 5651SOL     OW17851   2.195   0.768   1.719
 5651SOL    HW117852   2.105   0.813   1.711
 5651SOL    HW217853   2.196   0.711   1.801
 5652SOL     OW17854   1.358   5.647   1.418
 5652SOL    HW117855   1.285   5.670   1.354
 5652SOL    HW217856   1.427   5.720   1.419
 5653SOL     OW17857   7.021   6.803   1.100
 5653SOL    HW117858   0.019   6.897   1.127
 5653SOL    HW217859   0.083   6.748   1.109
 5654SOL     OW17860   3.227   5.189   4.318
 5654SOL    HW117861   3.312   5.142   4.340
 5654SOL    HW217862   3.216   5.195   4.219
 5655SOL     OW17863   6.171   2.798   4.877
 5655SOL    HW117864   6.134   2.811   4.785
 5655SOL    HW217865   6.102   2.752   4.933
 5656SOL     OW17866   6.925   3.435   0.026
 5656SOL    HW117867   6.851   3.499   0.008
 5656SOL    HW217868   7.003   3.485   0.067
 5657SOL     OW17869   4.882   5.936   5.429
 5657SOL    HW117870   4.846   5.900   5.343
 5657SOL    HW217871   4.934   6.019   5.411
 5658SOL     OW17872   2.586   2.822   6.048
 5658SOL    HW117873   2.579   2.797   6.145
 5658SOL    HW217874   2.494   2.842   6.013
 5659SOL     OW17875   3.740   3.630   6.611
 5659SOL    HW117876   3.676   3.664   6.542
 5659SOL    HW217877   3.689   3.599   6.691
 5660SOL     OW17878   4.782   0.836   6.248
 5660SOL    HW117879   4.861   0.798   6.200
 5660SOL    HW217880   4.810   0.915   6.302
 5661SOL     OW17881   1.220   5.063   5.059
 5661SOL    HW117882   1.154   4.988   5.061
 5661SOL    HW217883   1.251   5.077   4.965
 5662SOL     OW17884   2.448   6.503   2.589
 5662SOL    HW117885   2.404   6.490   2.678
 5662SOL    HW217886   2.408   6.440   2.522
 5663SOL     OW17887   1.419   3.025   6.279
 5663SOL    HW117888   1.429   3.101   6.343
 5663SOL    HW217889   1.324   3.018   6.249
 5664SOL     OW17890   4.829   4.957   4.770
 5664SOL    HW117891   4.799   4.865   4.796
 5664SOL    HW217892   4.835   4.963   4.670
 5665SOL     OW17893   2.057   2.134   0.607
 5665SOL    HW117894   2.147   2.132   0.652
 5665SOL    HW217895   2.028   2.229   0.595
 5666SOL     OW17896   5.505   1.338   4.885
 5666SOL    HW117897   5.501   1.263   4.819
 5666SOL    HW217898   5.424   1.396   4.874
 5667SOL     OW17899   2.438   5.079   4.342
 5667SOL    HW117900   2.425   5.014   4.416
 5667SOL    HW217901   2.518   5.052   4.288
 5668SOL     OW17902   5.198   3.633   3.693
 5668SOL    HW117903   5.239   3.593   3.611
 5668SOL    HW217904   5.113   3.584   3.714
 5669SOL     OW17905   6.035   4.593   5.793
 5669SOL    HW117906   5.967   4.607   5.865
 5669SOL    HW217907   6.089   4.512   5.814
 5670SOL     OW17908   0.662   1.887   2.986
 5670SOL    HW117909   0.590   1.955   2.972
 5670SOL    HW217910   0.750   1.933   2.994
 5671SOL     OW17911   0.109   6.518   3.427
 5671SOL    HW117912   0.129   6.607   3.386
 5671SOL    HW217913   0.052   6.530   3.508
 5672SOL     OW17914   4.987   2.925   5.342
 5672SOL    HW117915   5.058   2.856   5.359
 5672SOL    HW217916   4.963   2.925   5.245
 5673SOL     OW17917   0.748   1.163   0.972
 5673SOL    HW117918   0.688   1.083   0.983
 5673SOL    HW217919   0.769   1.201   1.062
 5674SOL     OW17920   2.170   5.004   5.392
 5674SOL    HW117921   2.104   4.929   5.401
 5674SOL    HW217922   2.166   5.041   5.300
 5675SOL     OW17923   2.689   2.375   0.830
 5675SOL    HW117924   2.659   2.280   0.820
 5675SOL    HW217925   2.780   2.377   0.872
 5676SOL     OW17926   2.615   1.976   2.133
 5676SOL    HW117927   2.609   1.915   2.212
 5676SOL    HW217928   2.553   1.943   2.061
 5677SOL     OW17929   6.446   1.151   0.866
 5677SOL    HW117930   6.517   1.221   0.870
 5677SOL    HW217931   6.488   1.063   0.844
 5678SOL     OW17932   3.087   2.032   1.860
 5678SOL    HW117933   3.094   2.118   1.809
 5678SOL    HW217934   3.007   2.036   1.919
 5679SOL     OW17935   6.036   3.587   4.861
 5679SOL    HW117936   5.984   3.655   4.912
 5679SOL    HW217937   6.015   3.594   4.764
 5680SOL     OW17938   1.323   5.943   5.228
 5680SOL    HW117939   1.350   5.895   5.312
 5680SOL    HW217940   1.227   5.968   5.234
 5681SOL     OW17941   1.181   3.423   4.270
 5681SOL    HW117942   1.141   3.495   4.213
 5681SOL    HW217943   1.232   3.359   4.211
 5682SOL     OW17944   2.018   4.537   1.844
 5682SOL    HW117945   1.991   4.528   1.940
 5682SOL    HW217946   2.070   4.457   1.816
 5683SOL     OW17947   6.896   1.170   6.095
 5683SOL    HW117948   6.921   1.256   6.141
 5683SOL    HW217949   6.927   1.093   6.150
 5684SOL     OW17950   2.156   2.271   4.784
 5684SOL    HW117951   2.164   2.192   4.724
 5684SOL    HW217952   2.242   2.322   4.783
 5685SOL     OW17953   2.493   1.991   2.441
 5685SOL    HW117954   2.485   2.008   2.540
 5685SOL    HW217955   2.575   1.937   2.423
 5686SOL     OW17956   4.058   5.347   6.044
 5686SOL    HW117957   3.969   5.391   6.043
 5686SOL    HW217958   4.062   5.277   5.972
 5687SOL     OW17959   2.010   6.682   6.957
 5687SOL    HW117960   2.080   6.632   6.905
 5687SOL    HW217961   2.024   6.780   6.945
 5688SOL     OW17962   1.978   1.868   3.451
 5688SOL    HW117963   2.009   1.848   3.544
 5688SOL    HW217964   1.938   1.785   3.412
 5689SOL     OW17965   0.545   2.906   1.674
 5689SOL    HW117966   0.507   2.980   1.619
 5689SOL    HW217967   0.471   2.843   1.700
 5690SOL     OW17968   1.789   4.968   0.277
 5690SOL    HW117969   1.831   4.883   0.308
 5690SOL    HW217970   1.835   5.046   0.321
 5691SOL     OW17971   3.484   1.181   2.718
 5691SOL    HW117972   3.445   1.185   2.626
 5691SOL    HW217973   3.561   1.117   2.719
 5692SOL     OW17974   4.537   4.931   2.270
 5692SOL    HW117975   4.572   4.884   2.189
 5692SOL    HW217976   4.570   5.026   2.271
 5693SOL     OW17977   4.588   0.970   1.145
 5693SOL    HW117978   4.574   1.050   1.204
 5693SOL    HW217979   4.620   1.001   1.056
 5694SOL     OW17980   0.642   6.178   1.646
 5694SOL    HW117981   0.720   6.192   1.708
 5694SOL    HW217982   0.621   6.080   1.640
 5695SOL     OW17983   1.973   0.496   1.071
 5695SOL    HW117984   2.043   0.559   1.104
 5695SOL    HW217985   1.936   0.443   1.147
 5696SOL     OW17986   1.361   0.440   4.109
 5696SOL    HW117987   1.408   0.422   4.196
 5696SOL    HW217988   1.336   0.537   4.105
 5697SOL     OW17989   6.467   3.394   0.908
 5697SOL    HW117990   6.490   3.318   0.847
 5697SOL    HW217991   6.456   3.361   1.002
 5698SOL     OW17992   2.708   2.397   3.801
 5698SOL    HW117993   2.690   2.410   3.704
 5698SOL    HW217994   2.640   2.448   3.854
 5699SOL     OW17995   1.708   2.995   2.811
 5699SOL    HW117996   1.611   2.980   2.792
 5699SOL    HW217997   1.731   2.955   2.899
 5700SOL     OW17998   6.206   0.349   2.960
 5700SOL    HW117999   6.280   0.282   2.948
 5700SOL    HW218000   6.128   0.323   2.904
 5701SOL     OW18001   0.393   0.754   1.229
 5701SOL    HW118002   0.423   0.659   1.236
 5701SOL    HW218003   0.383   0.792   1.321
 5702SOL     OW18004   2.728   6.740   4.438
 5702SOL    HW118005   2.746   6.655   4.487
 5702SOL    HW218006   2.629   6.754   4.432
 5703SOL     OW18007   6.734   3.077   6.283
 5703SOL    HW118008   6.732   2.978   6.271
 5703SOL    HW218009   6.826   3.111   6.266
 5704SOL     OW18010   4.353   5.335   4.274
 5704SOL    HW118011   4.265   5.287   4.266
 5704SOL    HW218012   4.338   5.426   4.312
 5705SOL     OW18013   6.179   6.985   5.358
 5705SOL    HW118014   6.172   0.023   5.278
 5705SOL    HW218015   6.199   6.891   5.329
 5706SOL     OW18016   5.048   2.044   6.877
 5706SOL    HW118017   4.954   2.056   6.845
 5706SOL    HW218018   5.071   1.946   6.877
 5707SOL     OW18019   5.275   5.822   1.760
 5707SOL    HW118020   5.297   5.918   1.777
 5707SOL    HW218021   5.177   5.813   1.742
 5708SOL     OW18022   4.608   6.012   2.750
 5708SOL    HW118023   4.521   5.983   2.711
 5708SOL    HW218024   4.668   5.932   2.762
 5709SOL     OW18025   0.045   1.986   2.344
 5709SOL    HW118026   6.994   2.033   2.292
 5709SOL    HW218027   0.054   2.028   2.434
 5710SOL     OW18028   3.382   1.721   1.238
 5710SOL    HW118029   3.464   1.714   1.294
 5710SOL    HW218030   3.302   1.692   1.291
 5711SOL     OW18031   5.176   1.693   2.674
 5711SOL    HW118032   5.241   1.649   2.613
 5711SOL    HW218033   5.128   1.766   2.626
 5712SOL     OW18034   6.117   0.230   1.092
 5712SOL    HW118035   6.195   0.289   1.114
 5712SOL    HW218036   6.079   0.258   1.004
 5713SOL     OW18037   2.514   0.452   0.695
 5713SOL    HW118038   2.485   0.492   0.782
 5713SOL    HW218039   2.610   0.477   0.678
 5714SOL     OW18040   6.388   0.059   1.232
 5714SOL    HW118041   6.476   0.049   1.186
 5714SOL    HW218042   6.397   0.126   1.306
 5715SOL     OW18043   0.236   0.405   1.508
 5715SOL    HW118044   0.145   0.397   1.549
 5715SOL    HW218045   0.296   0.335   1.547
 5716SOL     OW18046   6.168   4.860   4.856
 5716SOL    HW118047   6.101   4.807   4.803
 5716SOL    HW218048   6.226   4.797   4.908
 5717SOL     OW18049   1.571   5.356   3.052
 5717SOL    HW118050   1.526   5.346   3.141
 5717SOL    HW218051   1.520   5.422   2.997
 5718SOL     OW18052   0.883   3.192   0.174
 5718SOL    HW118053   0.945   3.145   0.236
 5718SOL    HW218054   0.935   3.254   0.114
 5719SOL     OW18055   2.217   3.383   0.696
 5719SOL    HW118056   2.126   3.362   0.659
 5719SOL    HW218057   2.255   3.301   0.738
 5720SOL     OW18058   2.772   5.099   6.077
 5720SOL    HW118059   2.696   5.110   6.014
 5720SOL    HW218060   2.811   5.007   6.067
 5721SOL     OW18061   2.073   3.320   0.435
 5721SOL    HW118062   2.023   3.244   0.393
 5721SOL    HW218063   2.171   3.308   0.418
 5722SOL     OW18064   1.705   0.894   6.323
 5722SOL    HW118065   1.639   0.823   6.349
 5722SOL    HW218066   1.714   0.960   6.397
 5723SOL     OW18067   4.092   3.192   1.048
 5723SOL    HW118068   4.092   3.287   1.017
 5723SOL    HW218069   4.011   3.146   1.014
 5724SOL     OW18070   5.368   2.031   5.249
 5724SOL    HW118071   5.350   1.946   5.299
 5724SOL    HW218072   5.282   2.077   5.230
 5725SOL     OW18073   6.765   3.929   4.450
 5725SOL    HW118074   6.838   3.862   4.468
 5725SOL    HW218075   6.805   4.016   4.422
 5726SOL     OW18076   5.428   4.311   2.291
 5726SOL    HW118077   5.338   4.343   2.259
 5726SOL    HW218078   5.422   4.288   2.388
 5727SOL     OW18079   0.575   1.905   5.125
 5727SOL    HW118080   0.540   1.940   5.038
 5727SOL    HW218081   0.498   1.889   5.187
 5728SOL     OW18082   4.663   6.660   5.178
 5728SOL    HW118083   4.747   6.670   5.231
 5728SOL    HW218084   4.654   6.737   5.115
 5729SOL     OW18085   2.246   1.885   5.046
 5729SOL    HW118086   2.263   1.973   5.002
 5729SOL    HW218087   2.156   1.850   5.020
 5730SOL     OW18088   6.875   3.941   4.878
 5730SOL    HW118089   6.909   3.923   4.970
 5730SOL    HW218090   6.946   3.986   4.824
 5731SOL     OW18091   0.734   6.908   2.635
 5731SOL    HW118092   0.756   6.989   2.581
 5731SOL    HW218093   0.819   6.862   2.663
 5732SOL     OW18094   0.447   0.031   3.669
 5732SOL    HW118095   0.496   0.115   3.692
 5732SOL    HW218096   0.476   6.978   3.730
 5733SOL     OW18097   3.158   6.911   5.847
 5733SOL    HW118098   3.088   6.864   5.793
 5733SOL    HW218099   3.114   6.982   5.902
 5734SOL     OW18100   1.928   6.083   3.317
 5734SOL    HW118101   1.953   5.994   3.280
 5734SOL    HW218102   2.008   6.126   3.360
 5735SOL     OW18103   3.003   1.200   1.480
 5735SOL    HW118104   2.944   1.278   1.457
 5735SOL    HW218105   2.976   1.121   1.425
 5736SOL     OW18106   1.310   5.343   6.779
 5736SOL    HW118107   1.288   5.271   6.713
 5736SOL    HW218108   1.237   5.411   6.779
 5737SOL     OW18109   5.352   4.220   0.691
 5737SOL    HW118110   5.418   4.275   0.742
 5737SOL    HW218111   5.385   4.126   0.683
 5738SOL     OW18112   1.288   4.154   6.120
 5738SOL    HW118113   1.208   4.097   6.131
 5738SOL    HW218114   1.326   4.142   6.028
 5739SOL     OW18115   1.148   1.549   1.622
 5739SOL    HW118116   1.243   1.576   1.612
 5739SOL    HW218117   1.131   1.466   1.568
 5740SOL     OW18118   4.048   5.766   6.226
 5740SOL    HW118119   4.006   5.683   6.188
 5740SOL    HW218120   4.006   5.787   6.314
 5741SOL     OW18121   6.901   4.586   2.880
 5741SOL    HW118122   6.947   4.609   2.794
 5741SOL    HW218123   6.903   4.666   2.940
 5742SOL     OW18124   6.778   6.410   5.072
 5742SOL    HW118125   6.741   6.503   5.071
 5742SOL    HW218126   6.719   6.350   5.017
 5743SOL     OW18127   1.779   6.740   4.043
 5743SOL    HW118128   1.685   6.709   4.052
 5743SOL    HW218129   1.780   6.836   4.014
 5744SOL     OW18130   5.381   6.713   1.526
 5744SOL    HW118131   5.454   6.774   1.557
 5744SOL    HW218132   5.394   6.622   1.565
 5745SOL     OW18133   1.159   1.935   3.627
 5745SOL    HW118134   1.192   1.891   3.544
 5745SOL    HW218135   1.099   2.011   3.603
 5746SOL     OW18136   6.328   4.466   0.042
 5746SOL    HW118137   6.361   4.372   0.045
 5746SOL    HW218138   6.272   4.485   0.123
 5747SOL     OW18139   0.558   6.329   3.091
 5747SOL    HW118140   0.509   6.245   3.113
 5747SOL    HW218141   0.592   6.324   2.997
 5748SOL     OW18142   2.065   6.502   3.255
 5748SOL    HW118143   2.002   6.434   3.292
 5748SOL    HW218144   2.098   6.471   3.165
 5749SOL     OW18145   2.353   1.555   3.027
 5749SOL    HW118146   2.445   1.593   3.030
 5749SOL    HW218147   2.286   1.626   3.050
 5750SOL     OW18148   6.249   5.381   2.645
 5750SOL    HW118149   6.216   5.465   2.602
 5750SOL    HW218150   6.212   5.375   2.738
 5751SOL     OW18151   1.782   2.963   6.083
 5751SOL    HW118152   1.867   3.013   6.101
 5751SOL    HW218153   1.803   2.873   6.046
 5752SOL     OW18154   0.233   1.336   0.308
 5752SOL    HW118155   0.276   1.349   0.219
 5752SOL    HW218156   0.134   1.330   0.297
 5753SOL     OW18157   4.552   2.123   0.543
 5753SOL    HW118158   4.640   2.115   0.496
 5753SOL    HW218159   4.493   2.047   0.515
 5754SOL     OW18160   6.195   4.786   0.639
 5754SOL    HW118161   6.244   4.835   0.711
 5754SOL    HW218162   6.248   4.707   0.609
 5755SOL     OW18163   3.290   3.536   1.420
 5755SOL    HW118164   3.376   3.557   1.466
 5755SOL    HW218165   3.220   3.517   1.489
 5756SOL     OW18166   6.825   6.754   4.557
 5756SOL    HW118167   6.899   6.819   4.537
 5756SOL    HW218168   6.834   6.722   4.651
 5757SOL     OW18169   0.318   6.090   1.772
 5757SOL    HW118170   0.355   6.002   1.802
 5757SOL    HW218171   0.302   6.088   1.673
 5758SOL     OW18172   1.812   1.424   6.009
 5758SOL    HW118173   1.787   1.460   6.099
 5758SOL    HW218174   1.780   1.330   6.001
 5759SOL     OW18175   6.056   1.705   5.380
 5759SOL    HW118176   6.087   1.743   5.468
 5759SOL    HW218177   5.964   1.666   5.391
 5760SOL     OW18178   1.519   5.433   1.513
 5760SOL    HW118179   1.449   5.504   1.499
 5760SOL    HW218180   1.485   5.365   1.578
 5761SOL     OW18181   5.429   1.009   4.974
 5761SOL    HW118182   5.445   1.091   5.029
 5761SOL    HW218183   5.353   0.957   5.014
 5762SOL     OW18184   5.800   6.084   1.499
 5762SOL    HW118185   5.790   6.081   1.400
 5762SOL    HW218186   5.774   6.174   1.533
 5763SOL     OW18187   1.424   1.559   1.254
 5763SOL    HW118188   1.485   1.486   1.224
 5763SOL    HW218189   1.378   1.600   1.175
 5764SOL     OW18190   4.591   3.095   5.800
 5764SOL    HW118191   4.544   3.154   5.866
 5764SOL    HW218192   4.584   3.134   5.708
 5765SOL     OW18193   6.037   5.163   0.341
 5765SOL    HW118194   5.941   5.146   0.360
 5765SOL    HW218195   6.072   5.232   0.405
 5766SOL     OW18196   2.733   0.809   3.456
 5766SOL    HW118197   2.826   0.779   3.433
 5766SOL    HW218198   2.708   0.775   3.546
 5767SOL     OW18199   6.667   0.270   0.821
 5767SOL    HW118200   6.649   0.172   0.833
 5767SOL    HW218201   6.584   0.321   0.843
 5768SOL     OW18202   5.999   0.319   2.773
 5768SOL    HW118203   5.950   0.399   2.806
 5768SOL    HW218204   6.038   0.338   2.683
 5769SOL     OW18205   2.042   5.789   3.345
 5769SOL    HW118206   2.070   5.698   3.312
 5769SOL    HW218207   2.078   5.804   3.436
 5770SOL     OW18208   6.000   1.444   1.615
 5770SOL    HW118209   5.930   1.437   1.686
 5770SOL    HW218210   6.073   1.378   1.633
 5771SOL     OW18211   0.431   1.267   2.090
 5771SOL    HW118212   0.413   1.235   2.183
 5771SOL    HW218213   0.484   1.198   2.041
 5772SOL     OW18214   6.948   4.334   6.661
 5772SOL    HW118215   6.957   4.243   6.619
 5772SOL    HW218216   6.979   4.403   6.596
 5773SOL     OW18217   5.216   6.148   4.642
 5773SOL    HW118218   5.277   6.092   4.586
 5773SOL    HW218219   5.260   6.236   4.660
 5774SOL     OW18220   2.949   4.789   2.631
 5774SOL    HW118221   2.849   4.794   2.635
 5774SOL    HW218222   2.980   4.810   2.539
 5775SOL     OW18223   1.134   0.513   0.388
 5775SOL    HW118224   1.168   0.463   0.468
 5775SOL    HW218225   1.109   0.447   0.316
 5776SOL     OW18226   5.117   1.393   6.118
 5776SOL    HW118227   5.182   1.382   6.043
 5776SOL    HW218228   5.161   1.442   6.193
 5777SOL     OW18229   5.882   0.972   5.638
 5777SOL    HW118230   5.923   1.061   5.619
 5777SOL    HW218231   5.816   0.980   5.713
 5778SOL     OW18232   2.399   6.846   3.946
 5778SOL    HW118233   2.423   6.758   3.988
 5778SOL    HW218234   2.408   6.918   4.015
 5779SOL     OW18235   4.245   0.849   1.550
 5779SOL    HW118236   4.188   0.770   1.528
 5779SOL    HW218237   4.311   0.823   1.620
 5780SOL     OW18238   5.795   3.334   1.319
 5780SOL    HW118239   5.781   3.360   1.223
 5780SOL    HW218240   5.706   3.321   1.363
 5781SOL     OW18241   2.810   4.784   5.260
 5781SOL    HW118242   2.751   4.725   5.316
 5781SOL    HW218243   2.811   4.751   5.166
 5782SOL     OW18244   3.919   1.517   3.411
 5782SOL    HW118245   3.919   1.485   3.316
 5782SOL    HW218246   4.008   1.500   3.452
 5783SOL     OW18247   2.636   6.467   1.509
 5783SOL    HW118248   2.611   6.562   1.488
 5783SOL    HW218249   2.584   6.405   1.449
 5784SOL     OW18250   1.134   5.288   0.429
 5784SOL    HW118251   1.148   5.317   0.334
 5784SOL    HW218252   1.087   5.200   0.430
 5785SOL     OW18253   2.954   1.287   0.206
 5785SOL    HW118254   2.917   1.380   0.202
 5785SOL    HW218255   2.949   1.245   0.115
 5786SOL     OW18256   0.615   3.300   6.868
 5786SOL    HW118257   0.547   3.228   6.857
 5786SOL    HW218258   0.690   3.285   6.802
 5787SOL     OW18259   0.229   3.229   5.451
 5787SOL    HW118260   0.148   3.196   5.401
 5787SOL    HW218261   0.200   3.267   5.539
 5788SOL     OW18262   1.811   2.554   2.342
 5788SOL    HW118263   1.889   2.507   2.300
 5788SOL    HW218264   1.733   2.493   2.345
 5789SOL     OW18265   2.841   4.930   0.148
 5789SOL    HW118266   2.933   4.954   0.179
 5789SOL    HW218267   2.798   5.011   0.107
 5790SOL     OW18268   6.602   6.169   2.958
 5790SOL    HW118269   6.659   6.223   3.020
 5790SOL    HW218270   6.509   6.164   2.994
 5791SOL     OW18271   4.236   1.372   1.020
 5791SOL    HW118272   4.182   1.319   1.086
 5791SOL    HW218273   4.300   1.431   1.069
 5792SOL     OW18274   4.142   2.218   3.158
 5792SOL    HW118275   4.103   2.245   3.070
 5792SOL    HW218276   4.225   2.270   3.175
 5793SOL     OW18277   3.977   2.544   6.714
 5793SOL    HW118278   3.982   2.499   6.803
 5793SOL    HW218279   4.013   2.483   6.643
 5794SOL     OW18280   3.595   5.819   0.012
 5794SOL    HW118281   3.533   5.742   7.019
 5794SOL    HW218282   3.646   5.837   6.948
 5795SOL     OW18283   2.078   6.826   1.636
 5795SOL    HW118284   2.025   6.909   1.648
 5795SOL    HW218285   2.044   6.755   1.699
 5796SOL     OW18286   5.262   0.782   6.696
 5796SOL    HW118287   5.262   0.683   6.710
 5796SOL    HW218288   5.182   0.808   6.641
 5797SOL     OW18289   0.380   3.019   0.660
 5797SOL    HW118290   0.284   3.042   0.643
 5797SOL    HW218291   0.385   2.932   0.710
 5798SOL     OW18292   1.855   3.212   4.166
 5798SOL    HW118293   1.894   3.262   4.089
 5798SOL    HW218294   1.927   3.187   4.231
 5799SOL     OW18295   2.844   0.154   3.289
 5799SOL    HW118296   2.887   0.098   3.217
 5799SOL    HW218297   2.898   0.146   3.373
 5800SOL     OW18298   1.041   0.099   2.126
 5800SOL    HW118299   1.092   0.036   2.067
 5800SOL    HW218300   1.025   0.055   2.214
 5801SOL     OW18301   1.920   1.230   2.471
 5801SOL    HW118302   1.966   1.142   2.478
 5801SOL    HW218303   1.822   1.218   2.486
 5802SOL     OW18304   0.912   0.154   2.929
 5802SOL    HW118305   0.970   0.085   2.886
 5802SOL    HW218306   0.822   0.115   2.950
 5803SOL     OW18307   0.359   6.427   4.463
 5803SOL    HW118308   0.323   6.335   4.480
 5803SOL    HW218309   0.287   6.484   4.425
 5804SOL     OW18310   6.396   1.933   3.161
 5804SOL    HW118311   6.302   1.926   3.128
 5804SOL    HW218312   6.456   1.960   3.086
 5805SOL     OW18313   1.292   2.899   2.125
 5805SOL    HW118314   1.224   2.972   2.126
 5805SOL    HW218315   1.251   2.816   2.089
 5806SOL     OW18316   6.765   3.692   2.406
 5806SOL    HW118317   6.829   3.742   2.465
 5806SOL    HW218318   6.672   3.711   2.436
 5807SOL     OW18319   1.284   1.098   2.168
 5807SOL    HW118320   1.317   1.050   2.086
 5807SOL    HW218321   1.190   1.068   2.188
 5808SOL     OW18322   0.385   0.592   5.723
 5808SOL    HW118323   0.404   0.504   5.678
 5808SOL    HW218324   0.288   0.614   5.713
 5809SOL     OW18325   0.436   3.398   4.969
 5809SOL    HW118326   0.524   3.384   5.013
 5809SOL    HW218327   0.373   3.442   5.033
 5810SOL     OW18328   2.610   6.044   5.031
 5810SOL    HW118329   2.620   6.027   5.129
 5810SOL    HW218330   2.628   6.140   5.011
 5811SOL     OW18331   3.885   4.407   6.647
 5811SOL    HW118332   3.877   4.354   6.563
 5811SOL    HW218333   3.803   4.463   6.659
 5812SOL     OW18334   5.668   2.863   6.317
 5812SOL    HW118335   5.740   2.919   6.278
 5812SOL    HW218336   5.630   2.803   6.246
 5813SOL     OW18337   5.035   5.109   0.867
 5813SOL    HW118338   5.031   5.015   0.901
 5813SOL    HW218339   5.026   5.109   0.768
 5814SOL     OW18340   6.126   0.851   2.147
 5814SOL    HW118341   6.038   0.847   2.195
 5814SOL    HW218342   6.150   0.947   2.131
 5815SOL     OW18343   6.096   3.183   4.508
 5815SOL    HW118344   6.160   3.171   4.584
 5815SOL    HW218345   6.054   3.095   4.486
 5816SOL     OW18346   6.959   3.855   2.008
 5816SOL    HW118347   0.021   3.887   1.961
 5816SOL    HW218348   6.879   3.874   1.952
 5817SOL     OW18349   6.301   2.998   3.193
 5817SOL    HW118350   6.208   3.019   3.162
 5817SOL    HW218351   6.337   3.075   3.245
 5818SOL     OW18352   2.323   0.373   4.794
 5818SOL    HW118353   2.281   0.305   4.734
 5818SOL    HW218354   2.419   0.386   4.769
 5819SOL     OW18355   3.783   3.735   0.327
 5819SOL    HW118356   3.749   3.814   0.276
 5819SOL    HW218357   3.727   3.723   0.409
 5820SOL     OW18358   6.563   0.242   3.165
 5820SOL    HW118359   6.658   0.221   3.188
 5820SOL    HW218360   6.536   0.189   3.085
 5821SOL     OW18361   6.619   6.876   1.859
 5821SOL    HW118362   6.669   6.953   1.819
 5821SOL    HW218363   6.673   6.793   1.848
 5822SOL     OW18364   0.848   4.160   2.658
 5822SOL    HW118365   0.795   4.118   2.584
 5822SOL    HW218366   0.943   4.171   2.628
 5823SOL     OW18367   2.533   6.917   4.198
 5823SOL    HW118368   2.449   6.899   4.249
 5823SOL    HW218369   2.564   7.010   4.217
 5824SOL     OW18370   1.675   6.977   2.332
 5824SOL    HW118371   1.663   6.915   2.254
 5824SOL    HW218372   1.768   7.014   2.330
 5825SOL     OW18373   4.775   1.659   4.072
 5825SOL    HW118374   4.845   1.634   4.005
 5825SOL    HW218375   4.698   1.596   4.065
 5826SOL     OW18376   1.474   6.353   4.915
 5826SOL    HW118377   1.421   6.276   4.950
 5826SOL    HW218378   1.571   6.339   4.938
 5827SOL     OW18379   2.018   3.652   3.373
 5827SOL    HW118380   2.078   3.726   3.403
 5827SOL    HW218381   1.990   3.669   3.279
 5828SOL     OW18382   4.747   0.741   5.613
 5828SOL    HW118383   4.834   0.740   5.563
 5828SOL    HW218384   4.674   0.770   5.551
 5829SOL     OW18385   2.182   0.730   3.190
 5829SOL    HW118386   2.119   0.793   3.145
 5829SOL    HW218387   2.198   0.761   3.284
 5830SOL     OW18388   4.130   5.055   4.462
 5830SOL    HW118389   4.229   5.064   4.471
 5830SOL    HW218390   4.101   4.967   4.501
 5831SOL     OW18391   2.426   2.399   4.704
 5831SOL    HW118392   2.501   2.333   4.704
 5831SOL    HW218393   2.447   2.472   4.769
 5832SOL     OW18394   3.087   5.490   2.665
 5832SOL    HW118395   3.086   5.513   2.568
 5832SOL    HW218396   3.175   5.518   2.704
 5833SOL     OW18397   3.911   5.503   0.436
 5833SOL    HW118398   3.849   5.582   0.440
 5833SOL    HW218399   4.006   5.536   0.440
 5834SOL     OW18400   6.749   3.365   5.785
 5834SOL    HW118401   6.762   3.341   5.882
 5834SOL    HW218402   6.697   3.450   5.778
 5835SOL     OW18403   4.345   1.509   3.227
 5835SOL    HW118404   4.380   1.464   3.310
 5835SOL    HW218405   4.294   1.442   3.173
 5836SOL     OW18406   4.590   6.179   1.762
 5836SOL    HW118407   4.654   6.182   1.685
 5836SOL    HW218408   4.564   6.272   1.788
 5837SOL     OW18409   3.131   4.438   6.415
 5837SOL    HW118410   3.096   4.414   6.325
 5837SOL    HW218411   3.056   4.440   6.481
 5838SOL     OW18412   3.473   3.298   0.138
 5838SOL    HW118413   3.411   3.348   0.198
 5838SOL    HW218414   3.530   3.236   0.193
 5839SOL     OW18415   2.039   1.850   0.519
 5839SOL    HW118416   1.960   1.823   0.573
 5839SOL    HW218417   2.084   1.929   0.562
 5840SOL     OW18418   0.759   3.749   3.367
 5840SOL    HW118419   0.786   3.818   3.434
 5840SOL    HW218420   0.768   3.786   3.275
 5841SOL     OW18421   5.606   1.648   0.255
 5841SOL    HW118422   5.618   1.735   0.208
 5841SOL    HW218423   5.524   1.602   0.221
 5842SOL     OW18424   3.379   1.924   1.494
 5842SOL    HW118425   3.473   1.948   1.516
 5842SOL    HW218426   3.332   1.891   1.576
 5843SOL     OW18427   3.814   3.256   0.068
 5843SOL    HW118428   3.785   3.338   0.116
 5843SOL    HW218429   3.875   3.280   7.014
 5844SOL     OW18430   0.405   5.492   5.289
 5844SOL    HW118431   0.393   5.577   5.238
 5844SOL    HW218432   0.379   5.414   5.231
 5845SOL     OW18433   1.868   0.171   2.567
 5845SOL    HW118434   1.828   0.093   2.614
 5845SOL    HW218435   1.872   0.250   2.629
 5846SOL     OW18436   0.807   4.500   4.951
 5846SOL    HW118437   0.776   4.405   4.957
 5846SOL    HW218438   0.877   4.508   4.880
 5847SOL     OW18439   1.603   4.040   6.543
 5847SOL    HW118440   1.631   4.056   6.448
 5847SOL    HW218441   1.538   4.111   6.571
 5848SOL     OW18442   2.376   6.218   1.657
 5848SOL    HW118443   2.361   6.123   1.684
 5848SOL    HW218444   2.309   6.243   1.586
 5849SOL     OW18445   3.088   5.407   6.647
 5849SOL    HW118446   3.183   5.432   6.631
 5849SOL    HW218447   3.047   5.472   6.712
 5850SOL     OW18448   0.317   1.792   1.458
 5850SOL    HW118449   0.377   1.821   1.383
 5850SOL    HW218450   0.333   1.695   1.477
 5851SOL     OW18451   6.705   3.492   4.475
 5851SOL    HW118452   6.655   3.496   4.562
 5851SOL    HW218453   6.649   3.446   4.407
 5852SOL     OW18454   4.725   4.390   2.107
 5852SOL    HW118455   4.651   4.368   2.044
 5852SOL    HW218456   4.720   4.330   2.187
 5853SOL     OW18457   4.465   4.671   6.651
 5853SOL    HW118458   4.397   4.726   6.602
 5853SOL    HW218459   4.420   4.622   6.726
 5854SOL     OW18460   3.054   4.762   5.447
 5854SOL    HW118461   3.110   4.680   5.435
 5854SOL    HW218462   2.967   4.750   5.399
 5855SOL     OW18463   2.290   2.502   3.353
 5855SOL    HW118464   2.356   2.544   3.415
 5855SOL    HW218465   2.320   2.409   3.329
 5856SOL     OW18466   0.786   6.527   2.911
 5856SOL    HW118467   0.806   6.511   2.814
 5856SOL    HW218468   0.844   6.601   2.945
 5857SOL     OW18469   5.489   4.610   6.611
 5857SOL    HW118470   5.522   4.672   6.682
 5857SOL    HW218471   5.513   4.516   6.635
 5858SOL     OW18472   2.377   1.382   2.573
 5858SOL    HW118473   2.434   1.464   2.569
 5858SOL    HW218474   2.281   1.409   2.577
 5859SOL     OW18475   5.455   5.694   1.876
 5859SOL    HW118476   5.374   5.742   1.842
 5859SOL    HW218477   5.470   5.717   1.972
 5860SOL     OW18478   0.630   4.336   2.733
 5860SOL    HW118479   0.539   4.323   2.693
 5860SOL    HW218480   0.686   4.256   2.714
 5861SOL     OW18481   5.030   0.791   6.142
 5861SOL    HW118482   5.062   0.873   6.188
 5861SOL    HW218483   5.009   0.811   6.047
 5862SOL     OW18484   6.946   5.154   3.639
 5862SOL    HW118485   6.893   5.134   3.721
 5862SOL    HW218486   6.901   5.226   3.587
 5863SOL     OW18487   4.241   7.009   6.211
 5863SOL    HW118488   4.292   0.004   6.295
 5863SOL    HW218489   4.255   6.915   6.180
 5864SOL     OW18490   3.861   3.360   2.443
 5864SOL    HW118491   3.913   3.278   2.421
 5864SOL    HW218492   3.769   3.335   2.472
 5865SOL     OW18493   6.608   0.356   0.046
 5865SOL    HW118494   6.682   0.387   0.106
 5865SOL    HW218495   6.587   0.428   7.001
 5866SOL     OW18496   3.054   3.031   2.553
 5866SOL    HW118497   3.139   3.068   2.590
 5866SOL    HW218498   3.065   3.016   2.454
 5867SOL     OW18499   3.274   1.526   1.549
 5867SOL    HW118500   3.284   1.430   1.522
 5867SOL    HW218501   3.190   1.537   1.602
 5868SOL     OW18502   1.001   0.622   0.843
 5868SOL    HW118503   0.976   0.711   0.880
 5868SOL    HW218504   0.921   0.561   0.844
 5869SOL     OW18505   1.289   5.772   3.143
 5869SOL    HW118506   1.289   5.801   3.238
 5869SOL    HW218507   1.198   5.783   3.104
 5870SOL     OW18508   4.162   0.330   3.976
 5870SOL    HW118509   4.128   0.424   3.976
 5870SOL    HW218510   4.144   0.287   4.065
 5871SOL     OW18511   4.166   3.416   3.862
 5871SOL    HW118512   4.130   3.323   3.858
 5871SOL    HW218513   4.266   3.414   3.857
 5872SOL     OW18514   4.348   6.402   0.352
 5872SOL    HW118515   4.280   6.434   0.418
 5872SOL    HW218516   4.373   6.477   0.290
 5873SOL     OW18517   3.697   5.903   1.554
 5873SOL    HW118518   3.745   5.958   1.485
 5873SOL    HW218519   3.742   5.815   1.563
 5874SOL     OW18520   1.185   4.164   5.250
 5874SOL    HW118521   1.124   4.228   5.298
 5874SOL    HW218522   1.165   4.070   5.281
 5875SOL     OW18523   3.783   1.712   1.303
 5875SOL    HW118524   3.699   1.761   1.326
 5875SOL    HW218525   3.860   1.776   1.305
 5876SOL     OW18526   3.065   3.654   2.052
 5876SOL    HW118527   3.041   3.740   2.098
 5876SOL    HW218528   3.097   3.588   2.120
 5877SOL     OW18529   5.503   4.819   1.709
 5877SOL    HW118530   5.417   4.788   1.668
 5877SOL    HW218531   5.575   4.753   1.687
 5878SOL     OW18532   1.763   3.686   2.634
 5878SOL    HW118533   1.803   3.765   2.680
 5878SOL    HW218534   1.826   3.652   2.564
 5879SOL     OW18535   1.226   4.387   3.621
 5879SOL    HW118536   1.300   4.348   3.566
 5879SOL    HW218537   1.252   4.479   3.652
 5880SOL     OW18538   3.685   6.084   0.098
 5880SOL    HW118539   3.710   5.995   0.059
 5880SOL    HW218540   3.736   6.099   0.183
 5881SOL     OW18541   0.855   6.011   4.319
 5881SOL    HW118542   0.879   5.974   4.229
 5881SOL    HW218543   0.891   6.104   4.328
 5882SOL     OW18544   4.696   0.427   2.775
 5882SOL    HW118545   4.698   0.515   2.822
 5882SOL    HW218546   4.709   0.353   2.842
 5883SOL     OW18547   0.639   3.566   5.348
 5883SOL    HW118548   0.639   3.467   5.366
 5883SOL    HW218549   0.721   3.607   5.389
 5884SOL     OW18550   0.898   0.755   3.707
 5884SOL    HW118551   0.878   0.796   3.618
 5884SOL    HW218552   0.829   0.686   3.728
 5885SOL     OW18553   6.099   6.382   1.503
 5885SOL    HW118554   6.086   6.288   1.473
 5885SOL    HW218555   6.046   6.444   1.444
 5886SOL     OW18556   0.128   1.144   6.559
 5886SOL    HW118557   0.080   1.124   6.473
 5886SOL    HW218558   0.226   1.145   6.543
 5887SOL     OW18559   3.773   5.902   2.880
 5887SOL    HW118560   3.713   5.961   2.934
 5887SOL    HW218561   3.757   5.917   2.783
 5888SOL     OW18562   0.792   1.012   2.847
 5888SOL    HW118563   0.723   1.066   2.799
 5888SOL    HW218564   0.870   0.997   2.787
 5889SOL     OW18565   2.399   6.757   6.669
 5889SOL    HW118566   2.418   6.740   6.572
 5889SOL    HW218567   2.303   6.734   6.688
 5890SOL     OW18568   3.469   4.408   5.664
 5890SOL    HW118569   3.397   4.476   5.653
 5890SOL    HW218570   3.441   4.322   5.622
 5891SOL     OW18571   2.104   3.719   6.695
 5891SOL    HW118572   2.022   3.687   6.647
 5891SOL    HW218573   2.083   3.732   6.792
 5892SOL     OW18574   2.290   6.404   2.019
 5892SOL    HW118575   2.195   6.378   2.000
 5892SOL    HW218576   2.345   6.389   1.937
 5893SOL     OW18577   2.162   1.006   3.408
 5893SOL    HW118578   2.247   0.993   3.460
 5893SOL    HW218579   2.174   1.082   3.344
 5894SOL     OW18580   0.779   3.223   3.637
 5894SOL    HW118581   0.829   3.260   3.559
 5894SOL    HW218582   0.736   3.136   3.611
 5895SOL     OW18583   5.644   3.962   3.379
 5895SOL    HW118584   5.716   4.005   3.435
 5895SOL    HW218585   5.641   4.006   3.289
 5896SOL     OW18586   4.804   2.999   5.555
 5896SOL    HW118587   4.860   2.965   5.480
 5896SOL    HW218588   4.814   3.098   5.562
 5897SOL     OW18589   4.356   6.322   1.573
 5897SOL    HW118590   4.283   6.255   1.570
 5897SOL    HW218591   4.327   6.401   1.628
 5898SOL     OW18592   2.666   6.534   3.008
 5898SOL    HW118593   2.691   6.546   2.912
 5898SOL    HW218594   2.570   6.507   3.014
 5899SOL     OW18595   5.667   0.668   3.391
 5899SOL    HW118596   5.743   0.700   3.334
 5899SOL    HW218597   5.658   0.569   3.382
 5900SOL     OW18598   3.786   4.951   2.425
 5900SOL    HW118599   3.776   5.046   2.396
 5900SOL    HW218600   3.695   4.913   2.445
 5901SOL     OW18601   3.174   6.425   4.410
 5901SOL    HW118602   3.248   6.491   4.402
 5901SOL    HW218603   3.123   6.420   4.324
 5902SOL     OW18604   5.967   1.946   6.990
 5902SOL    HW118605   5.893   2.004   6.957
 5902SOL    HW218606   5.996   1.884   6.917
 5903SOL     OW18607   6.928   3.823   6.551
 5903SOL    HW118608   6.924   3.742   6.609
 5903SOL    HW218609   6.836   3.848   6.521
 5904SOL     OW18610   0.598   3.707   2.106
 5904SOL    HW118611   0.546   3.637   2.154
 5904SOL    HW218612   0.688   3.671   2.081
 5905SOL     OW18613   6.504   4.858   2.256
 5905SOL    HW118614   6.456   4.790   2.201
 5905SOL    HW218615   6.595   4.823   2.280
 5906SOL     OW18616   0.618   1.073   3.556
 5906SOL    HW118617   0.541   1.131   3.529
 5906SOL    HW218618   0.647   1.098   3.649
 5907SOL     OW18619   2.121   0.493   2.184
 5907SOL    HW118620   2.069   0.411   2.209
 5907SOL    HW218621   2.209   0.493   2.231
 5908SOL     OW18622   0.357   2.595   6.111
 5908SOL    HW118623   0.419   2.637   6.178
 5908SOL    HW218624   0.410   2.537   6.049
 5909SOL     OW18625   6.637   4.168   0.726
 5909SOL    HW118626   6.686   4.116   0.656
 5909SOL    HW218627   6.702   4.205   0.792
 5910SOL     OW18628   1.976   1.487   3.752
 5910SOL    HW118629   1.888   1.450   3.780
 5910SOL    HW218630   2.004   1.446   3.665
 5911SOL     OW18631   6.302   6.043   6.821
 5911SOL    HW118632   6.268   6.060   6.913
 5911SOL    HW218633   6.226   6.017   6.761
 5912SOL     OW18634   0.692   0.357   4.211
 5912SOL    HW118635   0.757   0.291   4.248
 5912SOL    HW218636   0.633   0.311   4.144
 5913SOL     OW18637   6.193   1.869   0.399
 5913SOL    HW118638   6.142   1.860   0.485
 5913SOL    HW218639   6.142   1.928   0.337
 5914SOL     OW18640   1.131   6.240   0.078
 5914SOL    HW118641   1.199   6.314   0.084
 5914SOL    HW218642   1.172   6.161   0.034
 5915SOL     OW18643   3.613   1.554   5.790
 5915SOL    HW118644   3.653   1.473   5.746
 5915SOL    HW218645   3.674   1.632   5.780
 5916SOL     OW18646   0.825   6.763   1.726
 5916SOL    HW118647   0.849   6.681   1.778
 5916SOL    HW218648   0.728   6.758   1.700
 5917SOL     OW18649   3.492   4.055   0.016
 5917SOL    HW118650   3.552   4.108   6.977
 5917SOL    HW218651   3.436   4.118   0.072
 5918SOL     OW18652   2.979   6.666   4.753
 5918SOL    HW118653   2.949   6.641   4.661
 5918SOL    HW218654   2.918   6.626   4.820
 5919SOL     OW18655   3.450   3.222   4.554
 5919SOL    HW118656   3.463   3.274   4.469
 5919SOL    HW218657   3.464   3.282   4.632
 5920SOL     OW18658   6.755   0.305   5.762
 5920SOL    HW118659   6.791   0.216   5.788
 5920SOL    HW218660   6.696   0.295   5.681
 5921SOL     OW18661   2.419   4.197   6.620
 5921SOL    HW118662   2.381   4.114   6.580
 5921SOL    HW218663   2.445   4.179   6.715
 5922SOL     OW18664   5.263   2.891   2.591
 5922SOL    HW118665   5.337   2.896   2.658
 5922SOL    HW218666   5.271   2.807   2.538
 5923SOL     OW18667   5.579   1.326   3.555
 5923SOL    HW118668   5.614   1.396   3.492
 5923SOL    HW218669   5.645   1.313   3.630
 5924SOL     OW18670   5.164   6.827   3.626
 5924SOL    HW118671   5.214   6.826   3.539
 5924SOL    HW218672   5.072   6.863   3.610
 5925SOL     OW18673   4.666   1.323   1.033
 5925SOL    HW118674   4.624   1.306   1.122
 5925SOL    HW218675   4.689   1.420   1.025
 5926SOL     OW18676   5.527   4.367   3.342
 5926SOL    HW118677   5.509   4.314   3.425
 5926SOL    HW218678   5.597   4.322   3.287
 5927SOL     OW18679   0.216   5.424   2.117
 5927SOL    HW118680   0.293   5.363   2.098
 5927SOL    HW218681   0.236   5.477   2.200
 5928SOL     OW18682   2.842   6.795   7.000
 5928SOL    HW118683   2.827   6.894   7.003
 5928SOL    HW218684   2.774   6.753   6.940
 5929SOL     OW18685   1.641   0.838   0.152
 5929SOL    HW118686   1.710   0.811   0.219
 5929SOL    HW218687   1.676   0.826   0.060
 5930SOL     OW18688   1.889   4.054   2.522
 5930SOL    HW118689   1.792   4.055   2.545
 5930SOL    HW218690   1.900   4.048   2.423
 5931SOL     OW18691   5.014   6.476   2.567
 5931SOL    HW118692   4.959   6.491   2.485
 5931SOL    HW218693   4.966   6.513   2.646
 5932SOL     OW18694   3.003   0.315   7.006
 5932SOL    HW118695   3.044   0.393   0.033
 5932SOL    HW218696   3.051   0.298   6.920
 5933SOL     OW18697   5.933   6.187   4.617
 5933SOL    HW118698   5.916   6.202   4.714
 5933SOL    HW218699   6.015   6.237   4.589
 5934SOL     OW18700   2.464   3.555   0.016
 5934SOL    HW118701   2.558   3.522   0.027
 5934SOL    HW218702   2.427   3.581   0.105
 5935SOL     OW18703   1.027   5.942   5.941
 5935SOL    HW118704   1.093   5.912   6.010
 5935SOL    HW218705   1.043   5.892   5.856
 5936SOL     OW18706   4.037   3.153   2.404
 5936SOL    HW118707   4.137   3.154   2.393
 5936SOL    HW218708   3.997   3.091   2.338
 5937SOL     OW18709   0.292   3.160   1.219
 5937SOL    HW118710   0.285   3.253   1.185
 5937SOL    HW218711   0.389   3.135   1.226
 5938SOL     OW18712   0.561   4.514   3.843
 5938SOL    HW118713   0.543   4.516   3.942
 5938SOL    HW218714   0.660   4.517   3.827
 5939SOL     OW18715   3.693   1.141   5.418
 5939SOL    HW118716   3.646   1.227   5.438
 5939SOL    HW218717   3.766   1.157   5.351
 5940SOL     OW18718   4.854   5.556   1.718
 5940SOL    HW118719   4.907   5.568   1.634
 5940SOL    HW218720   4.917   5.548   1.796
 5941SOL     OW18721   0.206   2.386   2.804
 5941SOL    HW118722   0.169   2.446   2.733
 5941SOL    HW218723   0.132   2.333   2.845
 5942SOL     OW18724   4.963   2.875   6.195
 5942SOL    HW118725   5.032   2.860   6.124
 5942SOL    HW218726   4.994   2.948   6.256
 5943SOL     OW18727   2.595   4.317   1.612
 5943SOL    HW118728   2.534   4.318   1.692
 5943SOL    HW218729   2.566   4.388   1.547
 5944SOL     OW18730   6.354   3.083   5.566
 5944SOL    HW118731   6.365   3.069   5.468
 5944SOL    HW218732   6.437   3.122   5.604
 5945SOL     OW18733   6.702   6.682   4.963
 5945SOL    HW118734   6.636   6.718   5.029
 5945SOL    HW218735   6.660   6.676   4.873
 5946SOL     OW18736   2.231   4.014   6.806
 5946SOL    HW118737   2.256   3.995   6.711
 5946SOL    HW218738   2.155   4.079   6.808
 5947SOL     OW18739   3.998   3.311   4.392
 5947SOL    HW118740   4.051   3.387   4.353
 5947SOL    HW218741   3.951   3.263   4.318
 5948SOL     OW18742   4.916   3.549   1.936
 5948SOL    HW118743   4.931   3.644   1.963
 5948SOL    HW218744   4.884   3.545   1.841
 5949SOL     OW18745   0.462   4.741   2.971
 5949SOL    HW118746   0.471   4.660   3.029
 5949SOL    HW218747   0.437   4.820   3.028
 5950SOL     OW18748   4.046   0.177   4.486
 5950SOL    HW118749   4.129   0.171   4.540
 5950SOL    HW218750   3.967   0.161   4.544
 5951SOL     OW18751   0.121   4.086   0.080
 5951SOL    HW118752   0.136   4.163   0.019
 5951SOL    HW218753   0.142   4.000   0.033
 5952SOL     OW18754   4.301   4.594   1.204
 5952SOL    HW118755   4.300   4.670   1.269
 5952SOL    HW218756   4.361   4.522   1.237
 5953SOL     OW18757   6.743   2.925   5.009
 5953SOL    HW118758   6.740   2.887   4.916
 5953SOL    HW218759   6.679   2.874   5.067
 5954SOL     OW18760   1.608   6.161   4.207
 5954SOL    HW118761   1.510   6.164   4.227
 5954SOL    HW218762   1.643   6.069   4.221
 5955SOL     OW18763   5.119   3.499   0.339
 5955SOL    HW118764   5.201   3.550   0.366
 5955SOL    HW218765   5.038   3.549   0.370
 5956SOL     OW18766   5.142   2.684   5.333
 5956SOL    HW118767   5.181   2.650   5.419
 5956SOL    HW218768   5.081   2.615   5.295
 5957SOL     OW18769   6.984   1.367   3.537
 5957SOL    HW118770   0.029   1.436   3.566
 5957SOL    HW218771   0.003   1.276   3.550
 5958SOL     OW18772   2.677   6.676   3.256
 5958SOL    HW118773   2.703   6.621   3.335
 5958SOL    HW218774   2.693   6.625   3.172
 5959SOL     OW18775   5.112   2.320   3.729
 5959SOL    HW118776   5.072   2.386   3.792
 5959SOL    HW218777   5.038   2.270   3.683
 5960SOL     OW18778   4.692   0.475   6.020
 5960SOL    HW118779   4.647   0.389   6.045
 5960SOL    HW218780   4.704   0.478   5.921
 5961SOL     OW18781   2.939   2.178   3.419
 5961SOL    HW118782   2.979   2.190   3.328
 5961SOL    HW218783   2.840   2.171   3.411
 5962SOL     OW18784   5.038   5.647   0.305
 5962SOL    HW118785   5.051   5.560   0.354
 5962SOL    HW218786   4.968   5.701   0.351
 5963SOL     OW18787   2.723   3.978   0.263
 5963SOL    HW118788   2.683   3.908   0.322
 5963SOL    HW218789   2.689   3.968   0.170
 5964SOL     OW18790   2.236   6.670   2.160
 5964SOL    HW118791   2.250   6.587   2.105
 5964SOL    HW218792   2.236   6.750   2.100
 5965SOL     OW18793   2.662   0.090   0.624
 5965SOL    HW118794   2.690   0.089   0.720
 5965SOL    HW218795   2.743   0.090   0.565
 5966SOL     OW18796   3.115   1.605   5.006
 5966SOL    HW118797   3.078   1.563   4.923
 5966SOL    HW218798   3.213   1.621   4.993
 5967SOL     OW18799   4.289   2.293   4.701
 5967SOL    HW118800   4.354   2.316   4.774
 5967SOL    HW218801   4.279   2.194   4.695
 5968SOL     OW18802   5.666   2.530   1.635
 5968SOL    HW118803   5.748   2.542   1.580
 5968SOL    HW218804   5.589   2.576   1.589
 5969SOL     OW18805   5.559   0.300   0.561
 5969SOL    HW118806   5.591   0.210   0.532
 5969SOL    HW218807   5.509   0.343   0.485
 5970SOL     OW18808   0.044   3.813   0.362
 5970SOL    HW118809   0.006   3.900   0.333
 5970SOL    HW218810   0.138   3.804   0.327
 5971SOL     OW18811   6.620   6.510   4.077
 5971SOL    HW118812   6.655   6.603   4.086
 5971SOL    HW218813   6.678   6.448   4.129
 5972SOL     OW18814   5.522   5.264   0.557
 5972SOL    HW118815   5.567   5.296   0.474
 5972SOL    HW218816   5.558   5.174   0.582
 5973SOL     OW18817   3.072   1.395   2.487
 5973SOL    HW118818   3.082   1.347   2.400
 5973SOL    HW218819   3.108   1.487   2.479
 5974SOL     OW18820   5.622   1.666   5.339
 5974SOL    HW118821   5.649   1.756   5.307
 5974SOL    HW218822   5.586   1.673   5.432
 5975SOL     OW18823   4.506   4.408   1.118
 5975SOL    HW118824   4.597   4.420   1.158
 5975SOL    HW218825   4.495   4.469   1.040
 5976SOL     OW18826   2.230   3.466   5.618
 5976SOL    HW118827   2.197   3.467   5.712
 5976SOL    HW218828   2.159   3.505   5.558
 5977SOL     OW18829   6.739   4.431   0.540
 5977SOL    HW118830   6.780   4.340   0.547
 5977SOL    HW218831   6.646   4.428   0.576
 5978SOL     OW18832   2.643   3.862   6.537
 5978SOL    HW118833   2.556   3.813   6.539
 5978SOL    HW218834   2.652   3.908   6.448
 5979SOL     OW18835   5.965   0.368   2.110
 5979SOL    HW118836   5.888   0.304   2.116
 5979SOL    HW218837   5.949   0.446   2.170
 5980SOL     OW18838   2.944   3.033   1.129
 5980SOL    HW118839   2.912   3.071   1.043
 5980SOL    HW218840   2.919   2.936   1.134
 5981SOL     OW18841   3.093   1.916   0.383
 5981SOL    HW118842   3.027   1.943   0.313
 5981SOL    HW218843   3.059   1.941   0.473
 5982SOL     OW18844   4.764   3.060   0.853
 5982SOL    HW118845   4.859   3.071   0.880
 5982SOL    HW218846   4.724   3.149   0.831
 5983SOL     OW18847   6.907   0.824   3.730
 5983SOL    HW118848   6.903   0.740   3.675
 5983SOL    HW218849   6.820   0.873   3.723
 5984SOL     OW18850   5.719   6.950   4.243
 5984SOL    HW118851   5.799   6.996   4.280
 5984SOL    HW218852   5.747   6.879   4.179
 5985SOL     OW18853   6.329   3.137   2.293
 5985SOL    HW118854   6.374   3.049   2.276
 5985SOL    HW218855   6.370   3.207   2.234
 5986SOL     OW18856   3.729   3.437   4.297
 5986SOL    HW118857   3.790   3.443   4.218
 5986SOL    HW218858   3.677   3.352   4.293
 5987SOL     OW18859   0.210   6.237   5.297
 5987SOL    HW118860   0.185   6.232   5.394
 5987SOL    HW218861   0.271   6.315   5.282
 5988SOL     OW18862   0.907   2.430   6.343
 5988SOL    HW118863   0.888   2.510   6.285
 5988SOL    HW218864   0.868   2.349   6.300
 5989SOL     OW18865   0.505   6.469   6.085
 5989SOL    HW118866   0.491   6.371   6.100
 5989SOL    HW218867   0.499   6.517   6.172
 5990SOL     OW18868   2.701   4.803   1.914
 5990SOL    HW118869   2.742   4.732   1.970
 5990SOL    HW218870   2.602   4.788   1.908
 5991SOL     OW18871   4.734   0.767   0.640
 5991SOL    HW118872   4.825   0.808   0.645
 5991SOL    HW218873   4.687   0.777   0.727
 5992SOL     OW18874   3.541   6.043   2.365
 5992SOL    HW118875   3.622   6.030   2.307
 5992SOL    HW218876   3.490   5.957   2.370
 5993SOL     OW18877   5.668   1.896   0.147
 5993SOL    HW118878   5.734   1.877   0.075
 5993SOL    HW218879   5.686   1.987   0.185
 5994SOL     OW18880   0.126   3.175   6.965
 5994SOL    HW118881   0.192   3.103   6.943
 5994SOL    HW218882   0.096   3.164   0.039
 5995SOL     OW18883   4.737   3.738   1.441
 5995SOL    HW118884   4.811   3.723   1.375
 5995SOL    HW218885   4.776   3.768   1.528
 5996SOL     OW18886   2.719   5.997   1.538
 5996SOL    HW118887   2.793   6.063   1.554
 5996SOL    HW218888   2.755   5.921   1.484
 5997SOL     OW18889   6.308   0.337   4.213
 5997SOL    HW118890   6.288   0.426   4.255
 5997SOL    HW218891   6.349   0.351   4.123
 5998SOL     OW18892   6.346   5.878   0.190
 5998SOL    HW118893   6.419   5.853   0.127
 5998SOL    HW218894   6.371   5.849   0.283
 5999SOL     OW18895   4.965   3.253   1.613
 5999SOL    HW118896   4.885   3.248   1.673
 5999SOL    HW218897   5.040   3.299   1.662
 6000SOL     OW18898   0.260   4.215   0.983
 6000SOL    HW118899   0.324   4.290   0.967
 6000SOL    HW218900   0.291   4.134   0.934
 6001SOL     OW18901   6.323   5.646   5.775
 6001SOL    HW118902   6.268   5.704   5.715
 6001SOL    HW218903   6.285   5.648   5.868
 6002SOL     OW18904   5.775   4.811   5.085
 6002SOL    HW118905   5.799   4.857   5.000
 6002SOL    HW218906   5.680   4.832   5.109
 6003SOL     OW18907   2.113   2.562   4.712
 6003SOL    HW118908   2.096   2.464   4.703
 6003SOL    HW218909   2.167   2.594   4.635
 6004SOL     OW18910   5.341   2.450   4.551
 6004SOL    HW118911   5.373   2.355   4.553
 6004SOL    HW218912   5.282   2.463   4.471
 6005SOL     OW18913   4.183   4.420   6.624
 6005SOL    HW118914   4.086   4.409   6.646
 6005SOL    HW218915   4.197   4.506   6.575
 6006SOL     OW18916   3.391   6.155   6.786
 6006SOL    HW118917   3.417   6.194   6.698
 6006SOL    HW218918   3.462   6.092   6.817
 6007SOL     OW18919   2.376   6.053   5.651
 6007SOL    HW118920   2.446   6.079   5.584
 6007SOL    HW218921   2.288   6.042   5.604
 6008SOL     OW18922   3.055   4.021   6.543
 6008SOL    HW118923   3.011   4.052   6.458
 6008SOL    HW218924   3.154   4.037   6.537
 6009SOL     OW18925   4.065   5.463   2.872
 6009SOL    HW118926   4.029   5.410   2.796
 6009SOL    HW218927   4.086   5.402   2.948
 6010SOL     OW18928   0.391   4.775   4.133
 6010SOL    HW118929   0.457   4.705   4.105
 6010SOL    HW218930   0.416   4.862   4.089
 6011SOL     OW18931   6.131   1.649   2.625
 6011SOL    HW118932   6.207   1.655   2.560
 6011SOL    HW218933   6.085   1.561   2.616
 6012SOL     OW18934   6.972   0.410   6.226
 6012SOL    HW118935   6.918   0.409   6.142
 6012SOL    HW218936   6.954   0.494   6.277
 6013SOL     OW18937   6.204   1.127   2.046
 6013SOL    HW118938   6.202   1.082   1.956
 6013SOL    HW218939   6.145   1.208   2.044
 6014SOL     OW18940   3.024   3.797   3.854
 6014SOL    HW118941   3.011   3.704   3.890
 6014SOL    HW218942   3.055   3.857   3.927
 6015SOL     OW18943   6.095   0.588   4.172
 6015SOL    HW118944   6.068   0.573   4.267
 6015SOL    HW218945   6.134   0.679   4.162
 6016SOL     OW18946   4.753   1.899   4.195
 6016SOL    HW118947   4.736   1.807   4.158
 6016SOL    HW218948   4.744   1.895   4.295
 6017SOL     OW18949   0.976   1.219   5.791
 6017SOL    HW118950   0.949   1.222   5.695
 6017SOL    HW218951   0.920   1.153   5.840
 6018SOL     OW18952   2.923   1.287   4.511
 6018SOL    HW118953   2.878   1.369   4.478
 6018SOL    HW218954   2.932   1.221   4.437
 6019SOL     OW18955   6.421   4.538   6.692
 6019SOL    HW118956   6.366   4.605   6.741
 6019SOL    HW218957   6.513   4.537   6.729
 6020SOL     OW18958   1.134   4.871   5.834
 6020SOL    HW118959   1.145   4.847   5.738
 6020SOL    HW218960   1.038   4.858   5.860
 6021SOL     OW18961   6.010   6.914   3.771
 6021SOL    HW118962   6.010   7.011   3.748
 6021SOL    HW218963   6.105   6.881   3.774
 6022SOL     OW18964   6.623   2.470   1.146
 6022SOL    HW118965   6.633   2.379   1.185
 6022SOL    HW218966   6.573   2.464   1.059
 6023SOL     OW18967   3.921   0.253   1.564
 6023SOL    HW118968   4.001   0.276   1.508
 6023SOL    HW218969   3.842   0.304   1.530
 6024SOL     OW18970   1.310   6.041   7.012
 6024SOL    HW118971   1.360   6.089   6.940
 6024SOL    HW218972   1.374   5.998   0.055
 6025SOL     OW18973   2.975   0.403   4.781
 6025SOL    HW118974   3.037   0.333   4.818
 6025SOL    HW218975   2.893   0.406   4.837
 6026SOL     OW18976   5.562   5.915   4.759
 6026SOL    HW118977   5.572   5.817   4.742
 6026SOL    HW218978   5.650   5.961   4.742
 6027SOL     OW18979   5.238   4.643   6.468
 6027SOL    HW118980   5.328   4.639   6.512
 6027SOL    HW218981   5.179   4.704   6.521
 6028SOL     OW18982   5.972   5.225   5.915
 6028SOL    HW118983   6.055   5.174   5.893
 6028SOL    HW218984   5.906   5.213   5.841
 6029SOL     OW18985   3.010   1.025   2.795
 6029SOL    HW118986   3.109   1.015   2.805
 6029SOL    HW218987   2.991   1.089   2.721
 6030SOL     OW18988   5.795   3.055   4.307
 6030SOL    HW118989   5.835   2.980   4.361
 6030SOL    HW218990   5.836   3.056   4.216
 6031SOL     OW18991   0.117   6.009   5.205
 6031SOL    HW118992   0.137   6.105   5.226
 6031SOL    HW218993   0.158   5.950   5.275
 6032SOL     OW18994   3.636   6.194   3.259
 6032SOL    HW118995   3.641   6.144   3.345
 6032SOL    HW218996   3.619   6.291   3.277
 6033SOL     OW18997   1.395   1.429   2.371
 6033SOL    HW118998   1.315   1.408   2.315
 6033SOL    HW218999   1.372   1.502   2.436
 6034SOL     OW19000   0.850   6.538   1.166
 6034SOL    HW119001   0.840   6.482   1.248
 6034SOL    HW219002   0.884   6.629   1.192
 6035SOL     OW19003   2.529   0.376   2.611
 6035SOL    HW119004   2.622   0.371   2.646
 6035SOL    HW219005   2.495   0.470   2.619
 6036SOL     OW19006   6.451   3.360   1.176
 6036SOL    HW119007   6.491   3.452   1.168
 6036SOL    HW219008   6.524   3.292   1.181
 6037SOL     OW19009   5.154   1.784   6.649
 6037SOL    HW119010   5.091   1.767   6.725
 6037SOL    HW219011   5.210   1.703   6.632
 6038SOL     OW19012   1.548   1.679   6.055
 6038SOL    HW119013   1.497   1.666   6.140
 6038SOL    HW219014   1.566   1.590   6.013
 6039SOL     OW19015   4.098   3.551   3.624
 6039SOL    HW119016   4.140   3.521   3.709
 6039SOL    HW219017   4.096   3.475   3.559
 6040SOL     OW19018   0.505   1.522   0.675
 6040SOL    HW119019   0.549   1.450   0.622
 6040SOL    HW219020   0.548   1.610   0.653
 6041SOL     OW19021   2.651   3.790   5.631
 6041SOL    HW119022   2.731   3.739   5.599
 6041SOL    HW219023   2.668   3.888   5.620
 6042SOL     OW19024   3.357   5.612   3.578
 6042SOL    HW119025   3.427   5.683   3.585
 6042SOL    HW219026   3.266   5.653   3.588
 6043SOL     OW19027   2.512   0.459   3.127
 6043SOL    HW119028   2.584   0.447   3.196
 6043SOL    HW219029   2.552   0.451   3.036
 6044SOL     OW19030   0.960   3.347   1.119
 6044SOL    HW119031   1.059   3.338   1.106
 6044SOL    HW219032   0.941   3.399   1.202
 6045SOL     OW19033   5.267   2.042   3.300
 6045SOL    HW119034   5.305   1.957   3.265
 6045SOL    HW219035   5.239   2.100   3.223
 6046SOL     OW19036   3.609   2.889   2.812
 6046SOL    HW119037   3.581   2.830   2.735
 6046SOL    HW219038   3.645   2.975   2.777
 6047SOL     OW19039   0.007   1.820   0.824
 6047SOL    HW119040   0.098   1.799   0.859
 6047SOL    HW219041   0.010   1.909   0.778
 6048SOL     OW19042   5.885   5.849   3.843
 6048SOL    HW119043   5.856   5.935   3.801
 6048SOL    HW219044   5.907   5.865   3.939
 6049SOL     OW19045   4.470   4.932   5.980
 6049SOL    HW119046   4.540   4.882   6.031
 6049SOL    HW219047   4.380   4.909   6.017
 6050SOL     OW19048   2.907   6.108   2.212
 6050SOL    HW119049   2.913   6.180   2.142
 6050SOL    HW219050   2.918   6.149   2.303
 6051SOL     OW19051   0.665   1.239   3.051
 6051SOL    HW119052   0.606   1.303   3.001
 6051SOL    HW219053   0.692   1.281   3.138
 6052SOL     OW19054   4.679   5.805   0.361
 6052SOL    HW119055   4.635   5.889   0.393
 6052SOL    HW219056   4.744   5.826   0.288
 6053SOL     OW19057   3.924   2.487   5.907
 6053SOL    HW119058   3.873   2.549   5.847
 6053SOL    HW219059   3.944   2.533   5.993
 6054SOL     OW19060   3.764   4.057   0.638
 6054SOL    HW119061   3.849   4.017   0.603
 6054SOL    HW219062   3.746   4.021   0.730
 6055SOL     OW19063   2.926   3.980   0.975
 6055SOL    HW119064   2.857   3.940   1.036
 6055SOL    HW219065   2.999   3.914   0.959
 6056SOL     OW19066   5.201   5.873   3.854
 6056SOL    HW119067   5.238   5.960   3.822
 6056SOL    HW219068   5.140   5.889   3.931
 6057SOL     OW19069   4.995   0.701   4.423
 6057SOL    HW119070   5.014   0.604   4.439
 6057SOL    HW219071   4.935   0.710   4.343
 6058SOL     OW19072   6.431   2.621   5.563
 6058SOL    HW119073   6.440   2.588   5.470
 6058SOL    HW219074   6.516   2.604   5.613
 6059SOL     OW19075   4.384   2.755   0.142
 6059SOL    HW119076   4.299   2.768   0.194
 6059SOL    HW219077   4.444   2.833   0.158
 6060SOL     OW19078   2.218   3.223   0.014
 6060SOL    HW119079   2.271   3.245   6.952
 6060SOL    HW219080   2.145   3.291   0.025
 6061SOL     OW19081   2.988   4.582   6.988
 6061SOL    HW119082   3.033   4.614   0.051
 6061SOL    HW219083   3.046   4.603   6.909
 6062SOL     OW19084   1.970   1.944   6.881
 6062SOL    HW119085   2.012   1.957   6.791
 6062SOL    HW219086   2.038   1.965   6.952
 6063SOL     OW19087   4.607   4.105   6.433
 6063SOL    HW119088   4.538   4.154   6.486
 6063SOL    HW219089   4.658   4.044   6.493
 6064SOL     OW19090   6.462   5.180   1.091
 6064SOL    HW119091   6.534   5.120   1.127
 6064SOL    HW219092   6.446   5.255   1.155
 6065SOL     OW19093   1.565   0.191   2.458
 6065SOL    HW119094   1.531   0.150   2.543
 6065SOL    HW219095   1.653   0.151   2.435
 6066SOL     OW19096   5.369   5.705   3.696
 6066SOL    HW119097   5.407   5.752   3.616
 6066SOL    HW219098   5.288   5.755   3.728
 6067SOL     OW19099   6.303   6.569   6.631
 6067SOL    HW119100   6.263   6.635   6.567
 6067SOL    HW219101   6.402   6.580   6.632
 6068SOL     OW19102   4.763   2.417   4.129
 6068SOL    HW119103   4.743   2.358   4.207
 6068SOL    HW219104   4.806   2.502   4.161
 6069SOL     OW19105   0.108   4.392   6.002
 6069SOL    HW119106   0.026   4.365   5.951
 6069SOL    HW219107   0.172   4.315   6.004
 6070SOL     OW19108   2.392   1.107   0.292
 6070SOL    HW119109   2.420   1.060   0.209
 6070SOL    HW219110   2.465   1.101   0.360
 6071SOL     OW19111   5.960   1.245   5.538
 6071SOL    HW119112   5.957   1.263   5.636
 6071SOL    HW219113   5.928   1.326   5.489
 6072SOL     OW19114   0.375   2.736   0.390
 6072SOL    HW119115   0.388   2.638   0.374
 6072SOL    HW219116   0.294   2.750   0.448
 6073SOL     OW19117   4.991   3.049   0.120
 6073SOL    HW119118   5.054   3.125   0.139
 6073SOL    HW219119   4.971   3.001   0.205
 6074SOL     OW19120   0.791   6.505   2.361
 6074SOL    HW119121   0.735   6.586   2.378
 6074SOL    HW219122   0.817   6.463   2.448
 6075SOL     OW19123   5.512   0.346   6.812
 6075SOL    HW119124   5.586   0.397   6.768
 6075SOL    HW219125   5.430   0.350   6.755
 6076SOL     OW19126   0.795   5.991   2.696
 6076SOL    HW119127   0.741   6.070   2.665
 6076SOL    HW219128   0.867   5.971   2.629
 6077SOL     OW19129   5.485   7.015   2.788
 6077SOL    HW119130   5.565   0.027   2.838
 6077SOL    HW219131   5.433   6.951   2.845
 6078SOL     OW19132   4.401   4.207   0.495
 6078SOL    HW119133   4.457   4.159   0.428
 6078SOL    HW219134   4.309   4.220   0.458
 6079SOL     OW19135   2.776   3.022   0.583
 6079SOL    HW119136   2.680   3.037   0.561
 6079SOL    HW219137   2.783   2.963   0.664
 6080SOL     OW19138   6.813   4.661   6.376
 6080SOL    HW119139   6.741   4.597   6.400
 6080SOL    HW219140   6.896   4.639   6.427
 6081SOL     OW19141   1.364   4.062   3.530
 6081SOL    HW119142   1.293   4.057   3.601
 6081SOL    HW219143   1.379   4.157   3.504
 6082SOL     OW19144   5.120   1.194   1.377
 6082SOL    HW119145   5.079   1.154   1.294
 6082SOL    HW219146   5.048   1.227   1.437
 6083SOL     OW19147   4.819   0.771   6.668
 6083SOL    HW119148   4.804   0.866   6.696
 6083SOL    HW219149   4.752   0.747   6.597
 6084SOL     OW19150   6.981   6.154   2.552
 6084SOL    HW119151   7.000   6.105   2.468
 6084SOL    HW219152   0.032   6.222   2.569
 6085SOL     OW19153   0.369   6.817   0.680
 6085SOL    HW119154   0.315   6.900   0.665
 6085SOL    HW219155   0.420   6.795   0.597
 6086SOL     OW19156   3.676   4.236   6.915
 6086SOL    HW119157   3.718   4.296   6.983
 6086SOL    HW219158   3.746   4.197   6.857
 6087SOL     OW19159   5.142   0.083   0.792
 6087SOL    HW119160   5.101   0.124   0.873
 6087SOL    HW219161   5.234   0.049   0.815
 6088SOL     OW19162   5.230   5.756   3.383
 6088SOL    HW119163   5.311   5.778   3.329
 6088SOL    HW219164   5.158   5.823   3.365
 6089SOL     OW19165   6.338   3.699   3.942
 6089SOL    HW119166   6.245   3.719   3.909
 6089SOL    HW219167   6.333   3.632   4.017
 6090SOL     OW19168   4.065   5.807   3.991
 6090SOL    HW119169   4.007   5.749   4.048
 6090SOL    HW219170   4.160   5.777   3.998
 6091SOL     OW19171   1.480   1.527   1.971
 6091SOL    HW119172   1.381   1.542   1.968
 6091SOL    HW219173   1.503   1.473   2.052
 6092SOL     OW19174   2.647   6.340   0.931
 6092SOL    HW119175   2.669   6.310   0.838
 6092SOL    HW219176   2.576   6.281   0.969
 6093SOL     OW19177   2.462   2.395   2.533
 6093SOL    HW119178   2.473   2.459   2.608
 6093SOL    HW219179   2.398   2.322   2.559
 6094SOL     OW19180   0.741   6.019   4.969
 6094SOL    HW119181   0.686   6.094   4.932
 6094SOL    HW219182   0.794   5.977   4.895
 6095SOL     OW19183   4.700   4.836   2.057
 6095SOL    HW119184   4.755   4.915   2.027
 6095SOL    HW219185   4.759   4.771   2.105
 6096SOL     OW19186   5.501   6.055   3.117
 6096SOL    HW119187   5.435   6.087   3.184
 6096SOL    HW219188   5.569   6.126   3.100
 6097SOL     OW19189   1.628   5.103   1.872
 6097SOL    HW119190   1.619   5.008   1.844
 6097SOL    HW219191   1.722   5.121   1.900
 6098SOL     OW19192   6.932   0.340   5.006
 6098SOL    HW119193   6.967   0.428   5.039
 6098SOL    HW219194   6.912   0.346   4.908
 6099SOL     OW19195   3.692   0.688   5.967
 6099SOL    HW119196   3.768   0.680   5.902
 6099SOL    HW219197   3.627   0.614   5.951
 6100SOL     OW19198   0.139   5.971   4.892
 6100SOL    HW119199   0.145   5.924   4.980
 6100SOL    HW219200   0.209   5.934   4.831
 6101SOL     OW19201   0.052   3.607   1.764
 6101SOL    HW119202   0.105   3.628   1.847
 6101SOL    HW219203   0.064   3.681   1.698
 6102SOL     OW19204   3.812   0.424   2.674
 6102SOL    HW119205   3.907   0.403   2.697
 6102SOL    HW219206   3.753   0.348   2.701
 6103SOL     OW19207   6.377   1.698   2.144
 6103SOL    HW119208   6.477   1.707   2.145
 6103SOL    HW219209   6.352   1.609   2.183
 6104SOL     OW19210   0.006   0.949   4.635
 6104SOL    HW119211   0.069   0.909   4.568
 6104SOL    HW219212   6.941   0.973   4.589
 6105SOL     OW19213   2.807   4.517   5.807
 6105SOL    HW119214   2.795   4.617   5.808
 6105SOL    HW219215   2.756   4.479   5.730
 6106SOL     OW19216   6.026   4.836   5.184
 6106SOL    HW119217   6.000   4.840   5.280
 6106SOL    HW219218   5.944   4.824   5.128
 6107SOL     OW19219   5.266   5.932   5.509
 6107SOL    HW119220   5.242   5.835   5.497
 6107SOL    HW219221   5.343   5.955   5.450
 6108SOL     OW19222   2.195   1.293   0.045
 6108SOL    HW119223   2.168   1.387   0.066
 6108SOL    HW219224   2.277   1.294   7.008
 6109SOL     OW19225   6.698   0.092   3.743
 6109SOL    HW119226   6.600   0.112   3.745
 6109SOL    HW219227   6.729   0.071   3.836
 6110SOL     OW19228   1.497   1.354   4.609
 6110SOL    HW119229   1.398   1.368   4.598
 6110SOL    HW219230   1.537   1.335   4.519
 6111SOL     OW19231   1.786   4.349   0.846
 6111SOL    HW119232   1.810   4.291   0.924
 6111SOL    HW219233   1.742   4.433   0.878
 6112SOL     OW19234   4.750   6.317   3.019
 6112SOL    HW119235   4.749   6.414   3.045
 6112SOL    HW219236   4.659   6.291   2.987
 6113SOL     OW19237   3.167   5.299   0.699
 6113SOL    HW119238   3.086   5.333   0.651
 6113SOL    HW219239   3.139   5.242   0.776
 6114SOL     OW19240   5.586   2.383   0.223
 6114SOL    HW119241   5.514   2.373   0.292
 6114SOL    HW219242   5.544   2.407   0.135
 6115SOL     OW19243   1.037   0.486   5.770
 6115SOL    HW119244   0.951   0.452   5.731
 6115SOL    HW219245   1.097   0.517   5.696
 6116SOL     OW19246   5.776   2.235   6.425
 6116SOL    HW119247   5.711   2.205   6.494
 6116SOL    HW219248   5.750   2.326   6.392
 6117SOL     OW19249   1.799   2.025   1.396
 6117SOL    HW119250   1.714   2.065   1.429
 6117SOL    HW219251   1.830   1.954   1.459
 6118SOL     OW19252   5.855   0.579   1.304
 6118SOL    HW119253   5.924   0.560   1.234
 6118SOL    HW219254   5.858   0.676   1.328
 6119SOL     OW19255   0.180   1.705   6.709
 6119SOL    HW119256   0.218   1.628   6.760
 6119SOL    HW219257   0.253   1.751   6.659
 6120SOL     OW19258   2.611   0.915   4.735
 6120SOL    HW119259   2.628   1.014   4.740
 6120SOL    HW219260   2.532   0.898   4.676
 6121SOL     OW19261   0.569   2.497   5.412
 6121SOL    HW119262   0.628   2.550   5.473
 6121SOL    HW219263   0.477   2.536   5.411
 6122SOL     OW19264   5.015   4.668   5.655
 6122SOL    HW119265   5.033   4.730   5.732
 6122SOL    HW219266   5.081   4.686   5.582
 6123SOL     OW19267   5.234   1.514   5.304
 6123SOL    HW119268   5.180   1.442   5.260
 6123SOL    HW219269   5.330   1.488   5.306
 6124SOL     OW19270   2.474   5.939   4.028
 6124SOL    HW119271   2.385   5.906   3.996
 6124SOL    HW219272   2.542   5.926   3.956
 6125SOL     OW19273   2.687   2.038   6.675
 6125SOL    HW119274   2.664   2.127   6.716
 6125SOL    HW219275   2.786   2.034   6.659
 6126SOL     OW19276   5.791   3.318   5.329
 6126SOL    HW119277   5.787   3.309   5.428
 6126SOL    HW219278   5.750   3.405   5.302
 6127SOL     OW19279   4.345   1.981   1.921
 6127SOL    HW119280   4.306   2.056   1.869
 6127SOL    HW219281   4.292   1.967   2.005
 6128SOL     OW19282   5.275   5.501   0.193
 6128SOL    HW119283   5.214   5.543   0.126
 6128SOL    HW219284   5.368   5.533   0.178
 6129SOL     OW19285   1.583   5.777   2.170
 6129SOL    HW119286   1.499   5.785   2.117
 6129SOL    HW219287   1.573   5.702   2.237
 6130SOL     OW19288   6.180   2.358   6.908
 6130SOL    HW119289   6.156   2.316   6.995
 6130SOL    HW219290   6.189   2.457   6.920
 6131SOL     OW19291   6.552   1.262   2.976
 6131SOL    HW119292   6.583   1.176   3.017
 6131SOL    HW219293   6.458   1.253   2.945
 6132SOL     OW19294   3.784   1.680   6.229
 6132SOL    HW119295   3.742   1.701   6.317
 6132SOL    HW219296   3.735   1.605   6.186
 6133SOL     OW19297   1.357   2.048   3.192
 6133SOL    HW119298   1.442   2.030   3.241
 6133SOL    HW219299   1.355   2.144   3.164
 6134SOL     OW19300   6.387   6.834   6.255
 6134SOL    HW119301   6.428   6.919   6.220
 6134SOL    HW219302   6.315   6.804   6.194
 6135SOL     OW19303   6.749   6.984   6.788
 6135SOL    HW119304   6.674   0.004   6.840
 6135SOL    HW219305   6.835   6.999   6.836
 6136SOL     OW19306   0.985   2.787   2.151
 6136SOL    HW119307   1.049   2.730   2.203
 6136SOL    HW219308   0.951   2.861   2.209
 6137SOL     OW19309   6.412   4.135   2.045
 6137SOL    HW119310   6.470   4.099   2.118
 6137SOL    HW219311   6.468   4.153   1.963
 6138SOL     OW19312   4.102   0.140   2.038
 6138SOL    HW119313   4.088   0.042   2.049
 6138SOL    HW219314   4.094   0.165   1.941
 6139SOL     OW19315   1.325   0.512   5.617
 6139SOL    HW119316   1.400   0.451   5.590
 6139SOL    HW219317   1.253   0.508   5.548
 6140SOL     OW19318   1.376   0.104   3.253
 6140SOL    HW119319   1.282   0.071   3.258
 6140SOL    HW219320   1.439   0.026   3.252
 6141SOL     OW19321   0.690   1.147   5.917
 6141SOL    HW119322   0.648   1.170   5.829
 6141SOL    HW219323   0.689   1.227   5.977
 6142SOL     OW19324   7.000   0.719   1.510
 6142SOL    HW119325   0.025   0.677   1.589
 6142SOL    HW219326   7.019   0.664   1.429
 6143SOL     OW19327   0.055   3.932   5.517
 6143SOL    HW119328   0.092   3.985   5.594
 6143SOL    HW219329   6.996   3.978   5.479
 6144SOL     OW19330   3.981   5.109   2.937
 6144SOL    HW119331   3.935   5.024   2.911
 6144SOL    HW219332   4.006   5.160   2.855
 6145SOL     OW19333   4.925   3.688   3.899
 6145SOL    HW119334   4.876   3.759   3.950
 6145SOL    HW219335   4.935   3.607   3.957
 6146SOL     OW19336   5.308   6.901   5.150
 6146SOL    HW119337   5.309   6.858   5.240
 6146SOL    HW219338   5.216   6.897   5.112
 6147SOL     OW19339   1.598   2.483   4.364
 6147SOL    HW119340   1.660   2.422   4.412
 6147SOL    HW219341   1.648   2.534   4.294
 6148SOL     OW19342   3.225   5.713   0.175
 6148SOL    HW119343   3.234   5.808   0.206
 6148SOL    HW219344   3.306   5.687   0.122
 6149SOL     OW19345   2.744   0.934   1.201
 6149SOL    HW119346   2.719   0.855   1.146
 6149SOL    HW219347   2.678   1.008   1.186
 6150SOL     OW19348   0.943   3.944   5.416
 6150SOL    HW119349   0.896   4.032   5.411
 6150SOL    HW219350   1.037   3.958   5.447
 6151SOL     OW19351   4.465   5.456   4.017
 6151SOL    HW119352   4.396   5.383   4.016
 6151SOL    HW219353   4.524   5.446   3.937
 6152SOL     OW19354   1.447   4.651   4.041
 6152SOL    HW119355   1.476   4.679   4.132
 6152SOL    HW219356   1.513   4.686   3.973
 6153SOL     OW19357   5.510   5.255   1.190
 6153SOL    HW119358   5.512   5.315   1.111
 6153SOL    HW219359   5.561   5.297   1.265
 6154SOL     OW19360   4.951   3.365   2.244
 6154SOL    HW119361   4.955   3.418   2.329
 6154SOL    HW219362   4.936   3.269   2.266
 6155SOL     OW19363   2.039   1.337   3.077
 6155SOL    HW119364   2.055   1.321   2.980
 6155SOL    HW219365   1.969   1.275   3.111
 6156SOL     OW19366   4.872   5.267   1.515
 6156SOL    HW119367   4.932   5.212   1.574
 6156SOL    HW219368   4.888   5.364   1.533
 6157SOL     OW19369   1.419   2.508   2.209
 6157SOL    HW119370   1.321   2.505   2.229
 6157SOL    HW219371   1.433   2.548   2.118
 6158SOL     OW19372   2.831   2.268   4.665
 6158SOL    HW119373   2.819   2.355   4.616
 6158SOL    HW219374   2.865   2.199   4.601
 6159SOL     OW19375   6.601   2.957   1.004
 6159SOL    HW119376   6.651   2.958   1.090
 6159SOL    HW219377   6.646   3.019   0.939
 6160SOL     OW19378   1.376   0.720   0.726
 6160SOL    HW119379   1.468   0.758   0.731
 6160SOL    HW219380   1.352   0.703   0.631
 6161SOL     OW19381   4.541   3.236   6.701
 6161SOL    HW119382   4.452   3.230   6.745
 6161SOL    HW219383   4.558   3.331   6.673
 6162SOL     OW19384   6.148   5.016   3.026
 6162SOL    HW119385   6.206   4.936   3.010
 6162SOL    HW219386   6.203   5.090   3.065
 6163SOL     OW19387   5.606   6.101   4.075
 6163SOL    HW119388   5.518   6.054   4.078
 6163SOL    HW219389   5.602   6.183   4.133
 6164SOL     OW19390   2.949   3.746   4.755
 6164SOL    HW119391   2.964   3.664   4.699
 6164SOL    HW219392   2.877   3.802   4.713
 6165SOL     OW19393   4.024   1.373   0.295
 6165SOL    HW119394   4.088   1.449   0.286
 6165SOL    HW219395   4.075   1.286   0.289
 6166SOL     OW19396   1.670   3.095   6.568
 6166SOL    HW119397   1.736   3.073   6.641
 6166SOL    HW219398   1.694   3.046   6.485
 6167SOL     OW19399   1.761   3.901   3.170
 6167SOL    HW119400   1.799   3.813   3.141
 6167SOL    HW219401   1.685   3.885   3.233
 6168SOL     OW19402   0.640   4.100   3.776
 6168SOL    HW119403   0.599   4.030   3.835
 6168SOL    HW219404   0.579   4.179   3.772
 6169SOL     OW19405   2.512   0.223   6.917
 6169SOL    HW119406   2.556   0.293   6.973
 6169SOL    HW219407   2.537   0.236   6.821
 6170SOL     OW19408   3.189   3.703   6.819
 6170SOL    HW119409   3.090   3.718   6.825
 6170SOL    HW219410   3.237   3.790   6.832
 6171SOL     OW19411   2.275   4.129   2.195
 6171SOL    HW119412   2.210   4.205   2.194
 6171SOL    HW219413   2.359   4.157   2.242
 6172SOL     OW19414   1.814   6.342   2.482
 6172SOL    HW119415   1.786   6.248   2.463
 6172SOL    HW219416   1.789   6.367   2.576
 6173SOL     OW19417   1.133   5.972   2.097
 6173SOL    HW119418   1.104   5.973   2.001
 6173SOL    HW219419   1.112   5.883   2.137
 6174SOL     OW19420   5.352   5.213   2.757
 6174SOL    HW119421   5.401   5.295   2.727
 6174SOL    HW219422   5.266   5.239   2.800
 6175SOL     OW19423   4.992   0.419   3.004
 6175SOL    HW119424   4.967   0.513   2.984
 6175SOL    HW219425   4.912   0.360   2.992
 6176SOL     OW19426   6.871   3.514   5.556
 6176SOL    HW119427   6.925   3.592   5.588
 6176SOL    HW219428   6.868   3.444   5.628
 6177SOL     OW19429   6.501   2.498   0.251
 6177SOL    HW119430   6.507   2.585   0.298
 6177SOL    HW219431   6.405   2.479   0.229
 6178SOL     OW19432   5.967   3.141   1.363
 6178SOL    HW119433   5.899   3.213   1.351
 6178SOL    HW219434   6.046   3.159   1.303
 6179SOL     OW19435   0.553   1.568   5.784
 6179SOL    HW119436   0.481   1.594   5.849
 6179SOL    HW219437   0.557   1.636   5.711
 6180SOL     OW19438   3.411   0.170   6.844
 6180SOL    HW119439   3.450   0.205   6.759
 6180SOL    HW219440   3.333   0.111   6.823
 6181SOL     OW19441   5.266   6.525   6.962
 6181SOL    HW119442   5.254   6.479   0.030
 6181SOL    HW219443   5.267   6.457   6.889
 6182SOL     OW19444   4.803   5.984   6.592
 6182SOL    HW119445   4.718   5.941   6.624
 6182SOL    HW219446   4.785   6.079   6.567
 6183SOL     OW19447   3.566   0.545   3.102
 6183SOL    HW119448   3.625   0.500   3.036
 6183SOL    HW219449   3.481   0.575   3.057
 6184SOL     OW19450   0.403   0.093   6.835
 6184SOL    HW119451   0.377   0.121   6.927
 6184SOL    HW219452   0.486   0.039   6.839
 6185SOL     OW19453   0.622   3.546   6.217
 6185SOL    HW119454   0.685   3.479   6.255
 6185SOL    HW219455   0.566   3.585   6.290
 6186SOL     OW19456   5.622   0.121   4.820
 6186SOL    HW119457   5.614   0.175   4.736
 6186SOL    HW219458   5.531   0.104   4.858
 6187SOL     OW19459   3.998   4.860   4.225
 6187SOL    HW119460   4.042   4.949   4.210
 6187SOL    HW219461   4.062   4.799   4.271
 6188SOL     OW19462   2.995   6.325   1.353
 6188SOL    HW119463   3.002   6.358   1.447
 6188SOL    HW219464   2.935   6.245   1.350
 6189SOL     OW19465   5.945   4.566   3.088
 6189SOL    HW119466   5.981   4.656   3.064
 6189SOL    HW219467   6.016   4.515   3.137
 6190SOL     OW19468   5.878   2.356   6.847
 6190SOL    HW119469   5.843   2.419   6.778
 6190SOL    HW219470   5.966   2.390   6.882
 6191SOL     OW19471   6.677   2.379   0.065
 6191SOL    HW119472   6.632   2.446   0.124
 6191SOL    HW219473   6.773   2.405   0.051
 6192SOL     OW19474   3.118   2.960   6.706
 6192SOL    HW119475   3.195   3.012   6.744
 6192SOL    HW219476   3.120   2.968   6.606
 6193SOL     OW19477   5.921   0.217   1.349
 6193SOL    HW119478   5.984   0.174   1.284
 6193SOL    HW219479   5.973   0.256   1.425
 6194SOL     OW19480   2.051   0.775   0.602
 6194SOL    HW119481   2.099   0.805   0.519
 6194SOL    HW219482   1.955   0.799   0.595
 6195SOL     OW19483   3.743   0.431   6.388
 6195SOL    HW119484   3.725   0.523   6.424
 6195SOL    HW219485   3.841   0.416   6.384
 6196SOL     OW19486   0.721   1.376   6.415
 6196SOL    HW119487   0.649   1.307   6.413
 6196SOL    HW219488   0.730   1.413   6.508
 6197SOL     OW19489   2.347   3.560   0.507
 6197SOL    HW119490   2.429   3.596   0.553
 6197SOL    HW219491   2.303   3.491   0.564
 6198SOL     OW19492   3.910   4.831   2.650
 6198SOL    HW119493   3.986   4.781   2.608
 6198SOL    HW219494   3.847   4.863   2.579
 6199SOL     OW19495   1.515   6.809   6.157
 6199SOL    HW119496   1.472   6.753   6.086
 6199SOL    HW219497   1.466   6.797   6.243
 6200SOL     OW19498   4.307   0.240   6.109
 6200SOL    HW119499   4.353   0.304   6.170
 6200SOL    HW219500   4.271   0.164   6.163
 6201SOL     OW19501   2.155   4.712   5.240
 6201SOL    HW119502   2.168   4.628   5.187
 6201SOL    HW219503   2.088   4.696   5.311
 6202SOL     OW19504   3.120   1.616   1.274
 6202SOL    HW119505   3.108   1.618   1.373
 6202SOL    HW219506   3.175   1.536   1.249
 6203SOL     OW19507   4.167   1.795   4.937
 6203SOL    HW119508   4.193   1.837   5.023
 6203SOL    HW219509   4.164   1.695   4.948
 6204SOL     OW19510   1.782   6.518   5.768
 6204SOL    HW119511   1.702   6.527   5.709
 6204SOL    HW219512   1.752   6.504   5.863
 6205SOL     OW19513   5.594   6.265   6.850
 6205SOL    HW119514   5.654   6.187   6.867
 6205SOL    HW219515   5.510   6.255   6.904
 6206SOL     OW19516   5.028   0.103   2.864
 6206SOL    HW119517   5.026   0.150   2.776
 6206SOL    HW219518   5.121   0.108   2.902
 6207SOL     OW19519   1.569   4.106   4.703
 6207SOL    HW119520   1.515   4.182   4.666
 6207SOL    HW219521   1.656   4.141   4.737
 6208SOL     OW19522   6.065   6.787   5.662
 6208SOL    HW119523   6.099   6.872   5.701
 6208SOL    HW219524   5.979   6.762   5.707
 6209SOL     OW19525   3.975   4.942   0.997
 6209SOL    HW119526   4.024   4.855   0.991
 6209SOL    HW219527   4.028   5.007   1.051
 6210SOL     OW19528   5.949   4.204   3.711
 6210SOL    HW119529   6.039   4.247   3.704
 6210SOL    HW219530   5.930   4.151   3.628
 6211SOL     OW19531   3.084   6.886   4.874
 6211SOL    HW119532   3.055   6.798   4.835
 6211SOL    HW219533   3.120   6.944   4.802
 6212SOL     OW19534   6.800   6.298   3.720
 6212SOL    HW119535   6.707   6.331   3.740
 6212SOL    HW219536   6.796   6.223   3.654
 6213SOL     OW19537   0.167   6.544   6.496
 6213SOL    HW119538   0.204   6.596   6.419
 6213SOL    HW219539   0.137   6.607   6.567
 6214SOL     OW19540   6.116   4.591   2.507
 6214SOL    HW119541   6.082   4.657   2.439
 6214SOL    HW219542   6.097   4.626   2.599
 6215SOL     OW19543   3.287   3.570   0.732
 6215SOL    HW119544   3.252   3.481   0.702
 6215SOL    HW219545   3.215   3.638   0.724
 6216SOL     OW19546   5.427   1.621   2.520
 6216SOL    HW119547   5.455   1.709   2.558
 6216SOL    HW219548   5.504   1.580   2.471
 6217SOL     OW19549   5.166   2.976   1.615
 6217SOL    HW119550   5.067   2.973   1.601
 6217SOL    HW219551   5.197   3.071   1.615
 6218SOL     OW19552   3.251   5.300   5.381
 6218SOL    HW119553   3.332   5.292   5.439
 6218SOL    HW219554   3.229   5.210   5.343
 6219SOL     OW19555   0.747   1.879   4.882
 6219SOL    HW119556   0.764   1.804   4.818
 6219SOL    HW219557   0.707   1.842   4.966
 6220SOL     OW19558   1.952   4.254   5.215
 6220SOL    HW119559   2.044   4.225   5.244
 6220SOL    HW219560   1.923   4.200   5.136
 6221SOL     OW19561   3.652   5.242   4.702
 6221SOL    HW119562   3.561   5.252   4.742
 6221SOL    HW219563   3.699   5.164   4.744
 6222SOL     OW19564   6.963   1.209   0.980
 6222SOL    HW119565   6.939   1.304   0.995
 6222SOL    HW219566   0.034   1.192   1.016
 6223SOL     OW19567   4.858   2.981   4.655
 6223SOL    HW119568   4.935   3.020   4.705
 6223SOL    HW219569   4.813   3.053   4.602
 6224SOL     OW19570   3.038   1.167   5.224
 6224SOL    HW119571   3.051   1.113   5.141
 6224SOL    HW219572   3.040   1.265   5.201
 6225SOL     OW19573   3.666   2.716   7.012
 6225SOL    HW119574   3.763   2.729   0.014
 6225SOL    HW219575   3.620   2.805   7.010
 6226SOL     OW19576   5.584   0.502   4.801
 6226SOL    HW119577   5.598   0.600   4.815
 6226SOL    HW219578   5.649   0.469   4.733
 6227SOL     OW19579   3.067   4.650   6.059
 6227SOL    HW119580   3.043   4.556   6.084
 6227SOL    HW219581   3.143   4.681   6.117
 6228SOL     OW19582   6.612   0.492   3.725
 6228SOL    HW119583   6.678   0.445   3.666
 6228SOL    HW219584   6.520   0.480   3.688
 6229SOL     OW19585   2.336   2.758   2.041
 6229SOL    HW119586   2.384   2.671   2.043
 6229SOL    HW219587   2.300   2.775   1.949
 6230SOL     OW19588   2.436   2.173   3.611
 6230SOL    HW119589   2.368   2.244   3.596
 6230SOL    HW219590   2.409   2.117   3.690
 6231SOL     OW19591   0.125   4.731   1.597
 6231SOL    HW119592   0.060   4.806   1.588
 6231SOL    HW219593   0.082   4.646   1.566
 6232SOL     OW19594   1.082   0.986   6.586
 6232SOL    HW119595   1.050   1.076   6.614
 6232SOL    HW219596   1.142   0.996   6.506
 6233SOL     OW19597   4.684   2.268   6.908
 6233SOL    HW119598   4.755   2.335   6.929
 6233SOL    HW219599   4.727   2.184   6.876
 6234SOL     OW19600   2.202   2.384   3.644
 6234SOL    HW119601   2.165   2.314   3.583
 6234SOL    HW219602   2.151   2.468   3.634
 6235SOL     OW19603   2.304   6.608   3.353
 6235SOL    HW119604   2.220   6.578   3.307
 6235SOL    HW219605   2.287   6.694   3.400
 6236SOL     OW19606   6.803   4.102   0.517
 6236SOL    HW119607   6.894   4.082   0.554
 6236SOL    HW219608   6.807   4.105   0.417
 6237SOL     OW19609   4.358   0.097   0.624
 6237SOL    HW119610   4.349   7.020   0.642
 6237SOL    HW219611   4.453   0.125   0.640
 6238SOL     OW19612   4.832   4.851   1.200
 6238SOL    HW119613   4.904   4.830   1.134
 6238SOL    HW219614   4.750   4.879   1.151
 6239SOL     OW19615   2.699   0.132   3.754
 6239SOL    HW119616   2.776   0.163   3.698
 6239SOL    HW219617   2.614   0.140   3.701
 6240SOL     OW19618   1.872   4.044   0.586
 6240SOL    HW119619   1.798   4.025   0.521
 6240SOL    HW219620   1.889   4.143   0.589
 6241SOL     OW19621   4.400   0.298   1.417
 6241SOL    HW119622   4.390   0.284   1.318
 6241SOL    HW219623   4.496   0.313   1.440
 6242SOL     OW19624   4.648   2.278   3.520
 6242SOL    HW119625   4.603   2.333   3.450
 6242SOL    HW219626   4.607   2.187   3.523
 6243SOL     OW19627   6.132   5.986   3.730
 6243SOL    HW119628   6.089   5.937   3.806
 6243SOL    HW219629   6.217   6.028   3.760
 6244SOL     OW19630   2.785   1.449   2.381
 6244SOL    HW119631   2.873   1.430   2.425
 6244SOL    HW219632   2.784   1.407   2.290
 6245SOL     OW19633   2.959   4.212   0.512
 6245SOL    HW119634   2.867   4.245   0.490
 6245SOL    HW219635   2.989   4.150   0.440
 6246SOL     OW19636   2.864   0.954   5.975
 6246SOL    HW119637   2.845   0.885   5.905
 6246SOL    HW219638   2.860   1.045   5.934
 6247SOL     OW19639   0.313   6.171   2.744
 6247SOL    HW119640   0.240   6.148   2.809
 6247SOL    HW219641   0.348   6.087   2.702
 6248SOL     OW19642   0.326   4.870   1.428
 6248SOL    HW119643   0.407   4.812   1.433
 6248SOL    HW219644   0.252   4.828   1.479
 6249SOL     OW19645   5.647   4.131   6.490
 6249SOL    HW119646   5.566   4.185   6.468
 6249SOL    HW219647   5.694   4.172   6.568
 6250SOL     OW19648   5.694   6.002   6.876
 6250SOL    HW119649   5.708   5.918   6.825
 6250SOL    HW219650   5.783   6.043   6.899
 6251SOL     OW19651   4.363   1.647   0.716
 6251SOL    HW119652   4.396   1.621   0.625
 6251SOL    HW219653   4.283   1.592   0.740
 6252SOL     OW19654   2.561   6.075   5.300
 6252SOL    HW119655   2.463   6.070   5.281
 6252SOL    HW219656   2.578   6.051   5.395
 6253SOL     OW19657   1.640   4.013   1.424
 6253SOL    HW119658   1.557   3.997   1.370
 6253SOL    HW219659   1.688   4.093   1.388
 6254SOL     OW19660   5.288   0.583   0.519
 6254SOL    HW119661   5.341   0.510   0.476
 6254SOL    HW219662   5.203   0.545   0.555
 6255SOL     OW19663   0.745   1.297   2.202
 6255SOL    HW119664   0.695   1.215   2.228
 6255SOL    HW219665   0.745   1.306   2.102
 6256SOL     OW19666   3.082   4.964   2.790
 6256SOL    HW119667   2.993   4.982   2.832
 6256SOL    HW219668   3.072   4.897   2.717
 6257SOL     OW19669   5.486   2.536   6.527
 6257SOL    HW119670   5.394   2.520   6.492
 6257SOL    HW219671   5.506   2.471   6.601
 6258SOL     OW19672   5.009   1.841   2.512
 6258SOL    HW119673   4.985   1.897   2.433
 6258SOL    HW219674   4.963   1.753   2.506
 6259SOL     OW19675   2.885   2.554   1.694
 6259SOL    HW119676   2.898   2.481   1.627
 6259SOL    HW219677   2.849   2.515   1.779
 6260SOL     OW19678   3.654   3.645   6.980
 6260SOL    HW119679   3.673   3.579   0.032
 6260SOL    HW219680   3.739   3.672   6.935
 6261SOL     OW19681   4.319   1.241   0.458
 6261SOL    HW119682   4.253   1.292   0.514
 6261SOL    HW219683   4.382   1.191   0.518
 6262SOL     OW19684   0.486   5.178   6.045
 6262SOL    HW119685   0.541   5.239   5.988
 6262SOL    HW219686   0.457   5.227   6.127
 6263SOL     OW19687   6.374   0.359   0.854
 6263SOL    HW119688   6.422   0.351   0.767
 6263SOL    HW219689   6.277   0.376   0.838
 6264SOL     OW19690   2.634   1.587   0.278
 6264SOL    HW119691   2.628   1.618   0.373
 6264SOL    HW219692   2.566   1.517   0.261
 6265SOL     OW19693   3.555   2.807   1.320
 6265SOL    HW119694   3.645   2.820   1.361
 6265SOL    HW219695   3.545   2.713   1.289
 6266SOL     OW19696   2.371   0.225   3.092
 6266SOL    HW119697   2.393   0.316   3.128
 6266SOL    HW219698   2.440   0.198   3.026
 6267SOL     OW19699   3.298   7.000   6.402
 6267SOL    HW119700   3.329   6.905   6.402
 6267SOL    HW219701   3.377   0.040   6.396
 6268SOL     OW19702   3.461   5.137   2.580
 6268SOL    HW119703   3.383   5.170   2.634
 6268SOL    HW219704   3.545   5.147   2.634
 6269SOL     OW19705   6.230   4.666   1.172
 6269SOL    HW119706   6.306   4.605   1.195
 6269SOL    HW219707   6.182   4.631   1.092
 6270SOL     OW19708   0.541   0.634   4.742
 6270SOL    HW119709   0.547   0.705   4.671
 6270SOL    HW219710   0.561   0.674   4.831
 6271SOL     OW19711   5.665   1.413   0.645
 6271SOL    HW119712   5.642   1.484   0.578
 6271SOL    HW219713   5.750   1.368   0.617
 6272SOL     OW19714   1.556   2.039   3.418
 6272SOL    HW119715   1.525   2.126   3.458
 6272SOL    HW219716   1.633   2.056   3.356
 6273SOL     OW19717   3.448   0.802   1.806
 6273SOL    HW119718   3.488   0.783   1.896
 6273SOL    HW219719   3.357   0.760   1.801
 6274SOL     OW19720   4.002   6.798   6.319
 6274SOL    HW119721   4.029   6.881   6.367
 6274SOL    HW219722   3.920   6.760   6.361
 6275SOL     OW19723   2.327   0.896   4.678
 6275SOL    HW119724   2.300   0.823   4.741
 6275SOL    HW219725   2.258   0.905   4.606
 6276SOL     OW19726   1.141   5.701   4.052
 6276SOL    HW119727   1.079   5.659   4.118
 6276SOL    HW219728   1.232   5.709   4.092
 6277SOL     OW19729   5.574   3.492   2.734
 6277SOL    HW119730   5.514   3.518   2.659
 6277SOL    HW219731   5.654   3.552   2.735
 6278SOL     OW19732   5.259   0.683   4.530
 6278SOL    HW119733   5.166   0.717   4.515
 6278SOL    HW219734   5.294   0.719   4.616
 6279SOL     OW19735   4.956   2.009   0.276
 6279SOL    HW119736   4.986   1.943   0.207
 6279SOL    HW219737   4.997   1.985   0.364
 6280SOL     OW19738   0.660   4.669   5.721
 6280SOL    HW119739   0.576   4.713   5.688
 6280SOL    HW219740   0.737   4.697   5.663
 6281SOL     OW19741   2.600   6.881   5.333
 6281SOL    HW119742   2.514   6.833   5.351
 6281SOL    HW219743   2.644   6.841   5.253
 6282SOL     OW19744   1.513   6.927   4.124
 6282SOL    HW119745   1.484   6.996   4.190
 6282SOL    HW219746   1.444   6.917   4.053
 6283SOL     OW19747   6.980   2.481   5.187
 6283SOL    HW119748   6.940   2.560   5.139
 6283SOL    HW219749   6.919   2.402   5.177
 6284SOL     OW19750   2.100   4.331   6.061
 6284SOL    HW119751   2.178   4.303   6.116
 6284SOL    HW219752   2.120   4.418   6.015
 6285SOL     OW19753   1.675   4.542   2.205
 6285SOL    HW119754   1.741   4.537   2.279
 6285SOL    HW219755   1.608   4.467   2.214
 6286SOL     OW19756   5.824   1.098   4.191
 6286SOL    HW119757   5.912   1.101   4.144
 6286SOL    HW219758   5.755   1.145   4.136
 6287SOL     OW19759   4.662   4.289   1.742
 6287SOL    HW119760   4.577   4.246   1.770
 6287SOL    HW219761   4.713   4.319   1.823
 6288SOL     OW19762   5.320   3.388   0.741
 6288SOL    HW119763   5.366   3.454   0.681
 6288SOL    HW219764   5.254   3.336   0.687
 6289SOL     OW19765   1.548   1.083   3.507
 6289SOL    HW119766   1.608   1.053   3.433
 6289SOL    HW219767   1.514   1.175   3.488
 6290SOL     OW19768   5.650   3.742   3.121
 6290SOL    HW119769   5.563   3.725   3.167
 6290SOL    HW219770   5.683   3.657   3.079
 6291SOL     OW19771   3.652   4.133   3.147
 6291SOL    HW119772   3.713   4.066   3.105
 6291SOL    HW219773   3.579   4.156   3.084
 6292SOL     OW19774   1.214   2.198   2.007
 6292SOL    HW119775   1.311   2.197   2.031
 6292SOL    HW219776   1.159   2.175   2.087
 6293SOL     OW19777   4.610   0.221   0.683
 6293SOL    HW119778   4.631   0.275   0.601
 6293SOL    HW219779   4.620   0.278   0.764
 6294SOL     OW19780   4.329   5.191   2.672
 6294SOL    HW119781   4.285   5.104   2.697
 6294SOL    HW219782   4.326   5.202   2.573
 6295SOL     OW19783   6.205   6.743   6.444
 6295SOL    HW119784   6.128   6.792   6.483
 6295SOL    HW219785   6.274   6.808   6.412
 6296SOL     OW19786   6.177   1.079   3.648
 6296SOL    HW119787   6.242   1.003   3.641
 6296SOL    HW219788   6.084   1.042   3.650
 6297SOL     OW19789   5.484   0.062   5.680
 6297SOL    HW119790   5.419   7.020   5.638
 6297SOL    HW219791   5.444   0.153   5.686
 6298SOL     OW19792   1.300   1.944   4.854
 6298SOL    HW119793   1.222   1.961   4.795
 6298SOL    HW219794   1.273   1.884   4.929
 6299SOL     OW19795   6.027   3.163   0.381
 6299SOL    HW119796   6.002   3.066   0.384
 6299SOL    HW219797   6.002   3.206   0.468
 6300SOL     OW19798   5.359   0.225   3.572
 6300SOL    HW119799   5.406   0.162   3.634
 6300SOL    HW219800   5.283   0.269   3.620
 6301SOL     OW19801   3.089   6.800   0.608
 6301SOL    HW119802   3.115   6.885   0.653
 6301SOL    HW219803   3.080   6.727   0.677
 6302SOL     OW19804   1.244   0.727   3.547
 6302SOL    HW119805   1.153   0.687   3.532
 6302SOL    HW219806   1.313   0.666   3.510
 6303SOL     OW19807   1.670   6.005   5.418
 6303SOL    HW119808   1.588   5.967   5.376
 6303SOL    HW219809   1.749   5.984   5.361
 6304SOL     OW19810   3.215   1.432   6.491
 6304SOL    HW119811   3.116   1.440   6.483
 6304SOL    HW219812   3.254   1.407   6.403
 6305SOL     OW19813   5.959   0.938   1.488
 6305SOL    HW119814   6.042   0.972   1.444
 6305SOL    HW219815   5.880   0.956   1.430
 6306SOL     OW19816   6.308   2.854   4.104
 6306SOL    HW119817   6.313   2.754   4.104
 6306SOL    HW219818   6.240   2.884   4.037
 6307SOL     OW19819   2.879   4.741   0.925
 6307SOL    HW119820   2.815   4.745   1.001
 6307SOL    HW219821   2.845   4.795   0.849
 6308SOL     OW19822   2.898   2.315   5.221
 6308SOL    HW119823   2.887   2.410   5.249
 6308SOL    HW219824   2.989   2.301   5.183
 6309SOL     OW19825   5.843   2.094   4.442
 6309SOL    HW119826   5.910   2.089   4.516
 6309SOL    HW219827   5.790   2.009   4.439
 6310SOL     OW19828   1.602   4.715   5.074
 6310SOL    HW119829   1.699   4.689   5.071
 6310SOL    HW219830   1.566   4.720   4.980
 6311SOL     OW19831   5.954   0.520   4.948
 6311SOL    HW119832   6.043   0.476   4.953
 6311SOL    HW219833   5.912   0.524   5.039
 6312SOL     OW19834   4.349   5.054   5.735
 6312SOL    HW119835   4.386   4.962   5.720
 6312SOL    HW219836   4.398   5.097   5.811
 6313SOL     OW19837   2.472   5.291   2.991
 6313SOL    HW119838   2.414   5.210   2.989
 6313SOL    HW219839   2.471   5.335   2.901
 6314SOL     OW19840   3.377   6.014   3.196
 6314SOL    HW119841   3.288   5.976   3.219
 6314SOL    HW219842   3.412   6.066   3.274
 6315SOL     OW19843   3.053   3.260   0.313
 6315SOL    HW119844   3.032   3.252   0.411
 6315SOL    HW219845   3.052   3.357   0.287
 6316SOL     OW19846   5.623   1.689   6.073
 6316SOL    HW119847   5.669   1.745   6.004
 6316SOL    HW219848   5.563   1.747   6.128
 6317SOL     OW19849   6.352   6.055   4.462
 6317SOL    HW119850   6.448   6.068   4.435
 6317SOL    HW219851   6.292   6.099   4.396
 6318SOL     OW19852   2.555   1.746   4.661
 6318SOL    HW119853   2.542   1.735   4.760
 6318SOL    HW219854   2.627   1.685   4.629
 6319SOL     OW19855   0.450   1.694   3.068
 6319SOL    HW119856   0.525   1.732   3.123
 6319SOL    HW219857   0.429   1.757   2.993
 6320SOL     OW19858   6.406   2.826   3.725
 6320SOL    HW119859   6.432   2.732   3.705
 6320SOL    HW219860   6.452   2.857   3.808
 6321SOL     OW19861   2.325   3.883   0.666
 6321SOL    HW119862   2.275   3.948   0.608
 6321SOL    HW219863   2.415   3.920   0.688
 6322SOL     OW19864   1.178   1.230   6.895
 6322SOL    HW119865   1.195   1.151   6.955
 6322SOL    HW219866   1.247   1.300   6.911
 6323SOL     OW19867   3.640   2.479   0.734
 6323SOL    HW119868   3.653   2.510   0.828
 6323SOL    HW219869   3.607   2.555   0.678
 6324SOL     OW19870   4.676   1.170   6.579
 6324SOL    HW119871   4.643   1.263   6.593
 6324SOL    HW219872   4.669   1.147   6.482
 6325SOL     OW19873   1.262   2.235   2.366
 6325SOL    HW119874   1.284   2.332   2.373
 6325SOL    HW219875   1.304   2.196   2.284
 6326SOL     OW19876   4.997   6.056   0.942
 6326SOL    HW119877   5.012   6.031   1.038
 6326SOL    HW219878   4.927   5.997   0.903
 6327SOL     OW19879   4.899   5.365   6.059
 6327SOL    HW119880   4.938   5.395   6.146
 6327SOL    HW219881   4.958   5.393   5.984
 6328SOL     OW19882   2.685   4.262   6.574
 6328SOL    HW119883   2.595   4.219   6.578
 6328SOL    HW219884   2.741   4.230   6.650
 6329SOL     OW19885   1.001   1.479   3.088
 6329SOL    HW119886   0.981   1.391   3.131
 6329SOL    HW219887   1.100   1.491   3.083
 6330SOL     OW19888   3.607   1.688   0.346
 6330SOL    HW119889   3.623   1.778   0.388
 6330SOL    HW219890   3.674   1.673   0.273
 6331SOL     OW19891   6.389   3.090   1.370
 6331SOL    HW119892   6.367   3.050   1.281
 6331SOL    HW219893   6.411   3.187   1.358
 6332SOL     OW19894   5.481   6.484   1.673
 6332SOL    HW119895   5.448   6.405   1.725
 6332SOL    HW219896   5.565   6.460   1.626
 6333SOL     OW19897   2.656   4.832   2.706
 6333SOL    HW119898   2.587   4.856   2.774
 6333SOL    HW219899   2.631   4.872   2.618
 6334SOL     OW19900   2.505   1.781   2.868
 6334SOL    HW119901   2.500   1.865   2.815
 6334SOL    HW219902   2.590   1.732   2.846
 6335SOL     OW19903   6.707   1.549   0.099
 6335SOL    HW119904   6.693   1.636   0.051
 6335SOL    HW219905   6.707   1.565   0.197
 6336SOL     OW19906   0.514   2.548   5.114
 6336SOL    HW119907   0.546   2.482   5.181
 6336SOL    HW219908   0.414   2.555   5.118
 6337SOL     OW19909   6.311   4.497   5.365
 6337SOL    HW119910   6.291   4.586   5.406
 6337SOL    HW219911   6.227   4.458   5.328
 6338SOL     OW19912   3.981   1.064   3.307
 6338SOL    HW119913   3.932   1.089   3.224
 6338SOL    HW219914   4.075   1.039   3.284
 6339SOL     OW19915   6.466   2.149   4.631
 6339SOL    HW119916   6.517   2.151   4.716
 6339SOL    HW219917   6.384   2.206   4.639
 6340SOL     OW19918   1.835   5.445   4.071
 6340SOL    HW119919   1.898   5.377   4.033
 6340SOL    HW219920   1.746   5.437   4.027
 6341SOL     OW19921   0.287   4.134   3.070
 6341SOL    HW119922   0.344   4.202   3.023
 6341SOL    HW219923   0.345   4.058   3.100
 6342SOL     OW19924   1.521   2.887   0.789
 6342SOL    HW119925   1.539   2.969   0.844
 6342SOL    HW219926   1.531   2.806   0.847
 6343SOL     OW19927   4.114   1.417   6.855
 6343SOL    HW119928   4.125   1.332   6.803
 6343SOL    HW219929   4.034   1.410   6.913
 6344SOL     OW19930   0.882   4.067   4.309
 6344SOL    HW119931   0.926   3.989   4.264
 6344SOL    HW219932   0.786   4.046   4.326
 6345SOL     OW19933   3.596   1.775   2.209
 6345SOL    HW119934   3.543   1.814   2.134
 6345SOL    HW219935   3.633   1.849   2.265
 6346SOL     OW19936   1.172   4.830   3.511
 6346SOL    HW119937   1.210   4.770   3.581
 6346SOL    HW219938   1.073   4.819   3.507
 6347SOL     OW19939   3.470   0.461   1.523
 6347SOL    HW119940   3.486   0.407   1.605
 6347SOL    HW219941   3.533   0.539   1.521
 6348SOL     OW19942   1.379   3.077   3.848
 6348SOL    HW119943   1.411   2.997   3.796
 6348SOL    HW219944   1.410   3.160   3.803
 6349SOL     OW19945   2.590   0.180   0.300
 6349SOL    HW119946   2.607   0.082   0.298
 6349SOL    HW219947   2.492   0.197   0.292
 6350SOL     OW19948   1.238   6.367   1.940
 6350SOL    HW119949   1.265   6.394   2.032
 6350SOL    HW219950   1.228   6.448   1.883
 6351SOL     OW19951   0.116   1.054   3.042
 6351SOL    HW119952   0.210   1.027   3.065
 6351SOL    HW219953   0.076   0.984   2.982
 6352SOL     OW19954   0.307   5.598   1.913
 6352SOL    HW119955   0.228   5.632   1.862
 6352SOL    HW219956   0.276   5.547   1.993
 6353SOL     OW19957   0.010   6.798   1.778
 6353SOL    HW119958   6.987   6.783   1.867
 6353SOL    HW219959   0.104   6.828   1.791
 6354SOL     OW19960   0.511   6.850   3.845
 6354SOL    HW119961   0.586   6.808   3.795
 6354SOL    HW219962   0.545   6.888   3.931
 6355SOL     OW19963   2.111   2.527   3.166
 6355SOL    HW119964   2.185   2.519   3.232
 6355SOL    HW219965   2.148   2.521   3.073
 6356SOL     OW19966   3.339   3.626   1.147
 6356SOL    HW119967   3.435   3.604   1.135
 6356SOL    HW219968   3.308   3.592   1.236
 6357SOL     OW19969   4.486   2.279   0.063
 6357SOL    HW119970   4.553   2.262   7.012
 6357SOL    HW219971   4.500   2.371   0.100
 6358SOL     OW19972   0.178   2.282   3.739
 6358SOL    HW119973   0.190   2.210   3.672
 6358SOL    HW219974   0.082   2.310   3.742
 6359SOL     OW19975   0.200   1.057   0.060
 6359SOL    HW119976   0.144   1.109   0.124
 6359SOL    HW219977   0.167   1.072   6.987
 6360SOL     OW19978   3.252   5.660   3.930
 6360SOL    HW119979   3.238   5.566   3.900
 6360SOL    HW219980   3.311   5.661   4.011
 6361SOL     OW19981   3.776   6.069   6.228
 6361SOL    HW119982   3.869   6.098   6.204
 6361SOL    HW219983   3.780   6.002   6.301
 6362SOL     OW19984   6.308   5.055   6.370
 6362SOL    HW119985   6.352   5.122   6.310
 6362SOL    HW219986   6.364   4.972   6.373
 6363SOL     OW19987   0.939   5.855   3.796
 6363SOL    HW119988   1.039   5.861   3.805
 6363SOL    HW219989   0.897   5.904   3.872
 6364SOL     OW19990   2.767   2.330   6.011
 6364SOL    HW119991   2.818   2.276   5.944
 6364SOL    HW219992   2.797   2.425   6.007
 6365SOL     OW19993   5.397   6.165   2.414
 6365SOL    HW119994   5.302   6.133   2.409
 6365SOL    HW219995   5.405   6.233   2.487
 6366SOL     OW19996   0.254   4.885   5.854
 6366SOL    HW119997   0.238   4.952   5.782
 6366SOL    HW219998   0.168   4.840   5.878
 6367SOL     OW19999   5.660   6.101   3.812
 6367SOL    HW120000   5.649   6.095   3.911
 6367SOL    HW220001   5.755   6.126   3.791
 6368SOL     OW20002   2.409   0.292   4.050
 6368SOL    HW120003   2.388   0.255   3.960
 6368SOL    HW220004   2.329   0.284   4.110
 6369SOL     OW20005   2.408   5.353   4.321
 6369SOL    HW120006   2.425   5.256   4.334
 6369SOL    HW220007   2.455   5.405   4.393
 6370SOL     OW20008   5.955   2.816   1.681
 6370SOL    HW120009   5.920   2.782   1.594
 6370SOL    HW220010   6.025   2.886   1.663
 6371SOL     OW20011   4.923   2.143   3.259
 6371SOL    HW120012   4.956   2.223   3.209
 6371SOL    HW220013   4.903   2.168   3.353
 6372SOL     OW20014   2.888   6.272   2.475
 6372SOL    HW120015   2.812   6.250   2.537
 6372SOL    HW220016   2.955   6.328   2.524
 6373SOL     OW20017   3.407   4.658   0.145
 6373SOL    HW120018   3.312   4.655   0.114
 6373SOL    HW220019   3.424   4.582   0.208
 6374SOL     OW20020   3.156   2.940   2.282
 6374SOL    HW120021   3.109   2.854   2.300
 6374SOL    HW220022   3.138   2.969   2.188
 6375SOL     OW20023   1.703   6.722   2.539
 6375SOL    HW120024   1.701   6.660   2.617
 6375SOL    HW220025   1.767   6.688   2.471
 6376SOL     OW20026   0.091   2.159   5.543
 6376SOL    HW120027   0.089   2.139   5.641
 6376SOL    HW220028   0.114   2.255   5.530
 6377SOL     OW20029   0.856   0.728   4.205
 6377SOL    HW120030   0.927   0.696   4.267
 6377SOL    HW220031   0.868   0.826   4.188
 6378SOL     OW20032   4.667   4.235   3.661
 6378SOL    HW120033   4.656   4.247   3.759
 6378SOL    HW220034   4.600   4.290   3.612
 6379SOL     OW20035   2.568   4.512   3.053
 6379SOL    HW120036   2.648   4.558   3.014
 6379SOL    HW220037   2.580   4.501   3.151
 6380SOL     OW20038   0.698   0.845   6.174
 6380SOL    HW120039   0.677   0.834   6.271
 6380SOL    HW220040   0.678   0.759   6.126
 6381SOL     OW20041   3.048   3.888   2.647
 6381SOL    HW120042   3.125   3.942   2.612
 6381SOL    HW220043   2.988   3.862   2.571
 6382SOL     OW20044   1.182   3.978   5.592
 6382SOL    HW120045   1.155   3.894   5.638
 6382SOL    HW220046   1.262   3.959   5.534
 6383SOL     OW20047   3.533   1.274   3.870
 6383SOL    HW120048   3.503   1.359   3.827
 6383SOL    HW220049   3.504   1.197   3.814
 6384SOL     OW20050   6.241   4.703   3.141
 6384SOL    HW120051   6.178   4.728   3.214
 6384SOL    HW220052   6.319   4.766   3.140
 6385SOL     OW20053   0.326   5.832   4.715
 6385SOL    HW120054   0.415   5.799   4.746
 6385SOL    HW220055   0.302   5.787   4.629
 6386SOL     OW20056   2.822   5.285   1.254
 6386SOL    HW120057   2.870   5.306   1.169
 6386SOL    HW220058   2.873   5.216   1.305
 6387SOL     OW20059   6.427   0.946   5.536
 6387SOL    HW120060   6.342   0.936   5.588
 6387SOL    HW220061   6.411   1.006   5.458
 6388SOL     OW20062   2.546   4.604   2.467
 6388SOL    HW120063   2.600   4.593   2.384
 6388SOL    HW220064   2.497   4.691   2.465
 6389SOL     OW20065   1.175   4.953   2.654
 6389SOL    HW120066   1.080   4.942   2.684
 6389SOL    HW220067   1.182   4.936   2.556
 6390SOL     OW20068   0.467   3.309   3.714
 6390SOL    HW120069   0.557   3.296   3.674
 6390SOL    HW220070   0.471   3.294   3.813
 6391SOL     OW20071   3.207   1.080   0.128
 6391SOL    HW120072   3.135   1.083   0.059
 6391SOL    HW220073   3.203   1.163   0.184
 6392SOL     OW20074   1.272   6.907   3.839
 6392SOL    HW120075   1.258   6.845   3.916
 6392SOL    HW220076   1.253   7.001   3.869
 6393SOL     OW20077   5.784   0.423   0.594
 6393SOL    HW120078   5.699   0.373   0.584
 6393SOL    HW220079   5.792   0.457   0.688
 6394SOL     OW20080   3.107   4.844   0.963
 6394SOL    HW120081   3.021   4.802   0.935
 6394SOL    HW220082   3.171   4.774   0.992
 6395SOL     OW20083   5.828   1.738   1.041
 6395SOL    HW120084   5.824   1.652   1.091
 6395SOL    HW220085   5.762   1.737   0.966
 6396SOL     OW20086   5.371   4.454   5.243
 6396SOL    HW120087   5.286   4.413   5.275
 6396SOL    HW220088   5.424   4.387   5.191
 6397SOL     OW20089   0.252   1.142   0.925
 6397SOL    HW120090   0.305   1.212   0.974
 6397SOL    HW220091   0.263   1.055   0.972
 6398SOL     OW20092   3.575   1.651   1.473
 6398SOL    HW120093   3.526   1.712   1.535
 6398SOL    HW220094   3.549   1.556   1.493
 6399SOL     OW20095   2.303   5.476   6.840
 6399SOL    HW120096   2.316   5.575   6.845
 6399SOL    HW220097   2.392   5.431   6.847
 6400SOL     OW20098   2.631   5.801   3.832
 6400SOL    HW120099   2.609   5.704   3.828
 6400SOL    HW220100   2.728   5.814   3.809
 6401SOL     OW20101   0.895   5.165   3.888
 6401SOL    HW120102   0.903   5.075   3.932
 6401SOL    HW220103   0.975   5.220   3.911
 6402SOL     OW20104   2.204   1.857   3.193
 6402SOL    HW120105   2.264   1.901   3.259
 6402SOL    HW220106   2.139   1.798   3.241
 6403SOL     OW20107   0.150   6.153   0.777
 6403SOL    HW120108   0.139   6.247   0.747
 6403SOL    HW220109   0.245   6.138   0.807
 6404SOL     OW20110   5.266   0.636   2.929
 6404SOL    HW120111   5.268   0.536   2.930
 6404SOL    HW220112   5.266   0.670   3.023
 6405SOL     OW20113   2.905   1.098   2.297
 6405SOL    HW120114   2.832   1.151   2.340
 6405SOL    HW220115   2.895   1.102   2.198
 6406SOL     OW20116   2.801   1.720   3.986
 6406SOL    HW120117   2.822   1.772   4.069
 6406SOL    HW220118   2.727   1.656   4.005
 6407SOL     OW20119   3.890   5.624   6.040
 6407SOL    HW120120   3.933   5.595   5.954
 6407SOL    HW220121   3.844   5.712   6.026
 6408SOL     OW20122   6.485   2.062   0.224
 6408SOL    HW120123   6.482   1.970   0.262
 6408SOL    HW220124   6.403   2.078   0.169
 6409SOL     OW20125   1.154   4.858   2.376
 6409SOL    HW120126   1.173   4.772   2.329
 6409SOL    HW220127   1.062   4.890   2.353
 6410SOL     OW20128   0.891   1.536   1.346
 6410SOL    HW120129   0.880   1.626   1.304
 6410SOL    HW220130   0.805   1.507   1.386
 6411SOL     OW20131   1.433   0.737   3.829
 6411SOL    HW120132   1.386   0.815   3.787
 6411SOL    HW220133   1.455   0.758   3.924
 6412SOL     OW20134   0.108   2.045   4.679
 6412SOL    HW120135   0.091   1.971   4.744
 6412SOL    HW220136   0.026   2.061   4.624
 6413SOL     OW20137   6.732   4.713   0.531
 6413SOL    HW120138   6.744   4.622   0.570
 6413SOL    HW220139   6.653   4.712   0.470
 6414SOL     OW20140   5.702   6.914   2.292
 6414SOL    HW120141   5.643   6.895   2.370
 6414SOL    HW220142   5.790   6.868   2.305
 6415SOL     OW20143   1.568   1.783   1.916
 6415SOL    HW120144   1.550   1.686   1.936
 6415SOL    HW220145   1.549   1.838   1.998
 6416SOL     OW20146   1.745   0.161   6.825
 6416SOL    HW120147   1.652   0.190   6.800
 6416SOL    HW220148   1.756   0.064   6.804
 6417SOL     OW20149   1.105   6.982   2.764
 6417SOL    HW120150   1.159   0.034   2.724
 6417SOL    HW220151   1.068   6.924   2.692
 6418SOL     OW20152   6.051   6.287   2.133
 6418SOL    HW120153   6.116   6.293   2.208
 6418SOL    HW220154   6.100   6.297   2.046
 6419SOL     OW20155   3.105   4.812   1.507
 6419SOL    HW120156   3.126   4.716   1.522
 6419SOL    HW220157   3.064   4.824   1.417
 6420SOL     OW20158   1.250   3.627   6.772
 6420SOL    HW120159   1.330   3.658   6.721
 6420SOL    HW220160   1.174   3.611   6.709
 6421SOL     OW20161   5.550   1.858   1.069
 6421SOL    HW120162   5.534   1.876   1.166
 6421SOL    HW220163   5.559   1.944   1.020
 6422SOL     OW20164   5.897   1.844   3.097
 6422SOL    HW120165   5.908   1.755   3.051
 6422SOL    HW220166   5.808   1.883   3.073
 6423SOL     OW20167   4.913   4.207   0.204
 6423SOL    HW120168   4.815   4.188   0.214
 6423SOL    HW220169   4.932   4.298   0.239
 6424SOL     OW20170   6.811   5.318   4.942
 6424SOL    HW120171   6.871   5.241   4.963
 6424SOL    HW220172   6.758   5.342   5.024
 6425SOL     OW20173   0.556   4.791   1.841
 6425SOL    HW120174   0.595   4.745   1.762
 6425SOL    HW220175   0.624   4.799   1.913
 6426SOL     OW20176   6.545   3.052   3.577
 6426SOL    HW120177   6.545   3.054   3.477
 6426SOL    HW220178   6.490   2.974   3.609
 6427SOL     OW20179   1.853   3.411   4.999
 6427SOL    HW120180   1.910   3.365   4.931
 6427SOL    HW220181   1.883   3.384   5.091
 6428SOL     OW20182   6.418   2.835   2.524
 6428SOL    HW120183   6.429   2.905   2.596
 6428SOL    HW220184   6.375   2.754   2.563
 6429SOL     OW20185   0.908   0.865   4.530
 6429SOL    HW120186   0.942   0.782   4.485
 6429SOL    HW220187   0.883   0.844   4.624
 6430SOL     OW20188   5.878   3.650   0.800
 6430SOL    HW120189   5.903   3.634   0.896
 6430SOL    HW220190   5.914   3.738   0.770
 6431SOL     OW20191   5.374   0.125   3.046
 6431SOL    HW120192   5.470   0.101   3.031
 6431SOL    HW220193   5.362   0.158   3.140
 6432SOL     OW20194   5.742   3.222   0.485
 6432SOL    HW120195   5.659   3.174   0.455
 6432SOL    HW220196   5.719   3.316   0.510
 6433SOL     OW20197   2.482   3.839   1.662
 6433SOL    HW120198   2.413   3.884   1.606
 6433SOL    HW220199   2.470   3.740   1.659
 6434SOL     OW20200   1.447   4.775   1.057
 6434SOL    HW120201   1.430   4.722   0.974
 6434SOL    HW220202   1.471   4.869   1.032
 6435SOL     OW20203   4.890   4.395   6.902
 6435SOL    HW120204   4.926   4.446   6.824
 6435SOL    HW220205   4.797   4.365   6.882
 6436SOL     OW20206   1.445   2.950   2.758
 6436SOL    HW120207   1.362   2.979   2.710
 6436SOL    HW220208   1.420   2.889   2.833
 6437SOL     OW20209   1.104   0.877   6.845
 6437SOL    HW120210   1.036   0.811   6.879
 6437SOL    HW220211   1.065   0.927   6.768
 6438SOL     OW20212   1.521   3.425   3.143
 6438SOL    HW120213   1.569   3.438   3.229
 6438SOL    HW220214   1.582   3.450   3.067
 6439SOL     OW20215   0.567   0.409   1.860
 6439SOL    HW120216   0.579   0.366   1.949
 6439SOL    HW220217   0.639   0.478   1.846
 6440SOL     OW20218   0.945   1.274   2.543
 6440SOL    HW120219   0.873   1.297   2.478
 6440SOL    HW220220   0.978   1.182   2.526
 6441SOL     OW20221   3.312   1.468   3.496
 6441SOL    HW120222   3.361   1.386   3.469
 6441SOL    HW220223   3.249   1.495   3.423
 6442SOL     OW20224   3.305   0.871   3.442
 6442SOL    HW120225   3.381   0.806   3.438
 6442SOL    HW220226   3.317   0.941   3.371
 6443SOL     OW20227   2.934   1.111   0.426
 6443SOL    HW120228   3.014   1.102   0.485
 6443SOL    HW220229   2.950   1.184   0.359
 6444SOL     OW20230   0.584   0.707   3.407
 6444SOL    HW120231   0.589   0.650   3.325
 6444SOL    HW220232   0.584   0.803   3.381
 6445SOL     OW20233   3.978   3.177   5.001
 6445SOL    HW120234   3.909   3.193   4.931
 6445SOL    HW220235   3.934   3.142   5.084
 6446SOL     OW20236   6.377   1.637   0.562
 6446SOL    HW120237   6.374   1.549   0.608
 6446SOL    HW220238   6.287   1.681   0.568
 6447SOL     OW20239   1.837   0.588   3.056
 6447SOL    HW120240   1.786   0.522   3.000
 6447SOL    HW220241   1.926   0.549   3.079
 6448SOL     OW20242   5.798   2.235   2.943
 6448SOL    HW120243   5.878   2.214   2.886
 6448SOL    HW220244   5.721   2.261   2.884
 6449SOL     OW20245   3.495   2.940   1.089
 6449SOL    HW120246   3.526   2.908   1.179
 6449SOL    HW220247   3.442   3.024   1.101
 6450SOL     OW20248   6.799   3.179   0.010
 6450SOL    HW120249   6.869   3.250   0.022
 6450SOL    HW220250   6.725   3.215   6.975
 6451SOL     OW20251   2.274   6.869   4.312
 6451SOL    HW120252   2.269   6.781   4.265
 6451SOL    HW220253   2.197   6.878   4.375
 6452SOL     OW20254   4.349   6.481   3.091
 6452SOL    HW120255   4.264   6.495   3.042
 6452SOL    HW220256   4.345   6.394   3.141
 6453SOL     OW20257   1.805   5.437   6.386
 6453SOL    HW120258   1.745   5.377   6.439
 6453SOL    HW220259   1.848   5.384   6.312
 6454SOL     OW20260   3.252   1.407   4.480
 6454SOL    HW120261   3.236   1.491   4.531
 6454SOL    HW220262   3.350   1.393   4.468
 6455SOL     OW20263   6.402   2.952   4.949
 6455SOL    HW120264   6.395   2.906   5.038
 6455SOL    HW220265   6.334   2.915   4.887
 6456SOL     OW20266   6.804   1.016   4.510
 6456SOL    HW120267   6.807   1.115   4.495
 6456SOL    HW220268   6.709   0.985   4.506
 6457SOL     OW20269   6.835   2.904   1.507
 6457SOL    HW120270   6.853   3.001   1.526
 6457SOL    HW220271   6.878   2.848   1.578
 6458SOL     OW20272   1.156   5.674   2.499
 6458SOL    HW120273   1.091   5.602   2.524
 6458SOL    HW220274   1.243   5.659   2.548
 6459SOL     OW20275   5.407   4.700   0.413
 6459SOL    HW120276   5.405   4.764   0.490
 6459SOL    HW220277   5.318   4.700   0.367
 6460SOL     OW20278   3.432   5.005   6.167
 6460SOL    HW120279   3.502   4.946   6.127
 6460SOL    HW220280   3.438   5.000   6.267
 6461SOL     OW20281   3.529   5.696   4.543
 6461SOL    HW120282   3.472   5.615   4.557
 6461SOL    HW220283   3.619   5.681   4.584
 6462SOL     OW20284   1.968   3.331   3.946
 6462SOL    HW120285   2.051   3.276   3.959
 6462SOL    HW220286   1.932   3.316   3.854
 6463SOL     OW20287   1.463   4.436   5.350
 6463SOL    HW120288   1.431   4.388   5.269
 6463SOL    HW220289   1.418   4.398   5.431
 6464SOL     OW20290   0.804   5.272   3.182
 6464SOL    HW120291   0.740   5.259   3.258
 6464SOL    HW220292   0.884   5.213   3.195
 6465SOL     OW20293   6.225   0.588   3.150
 6465SOL    HW120294   6.199   0.614   3.057
 6465SOL    HW220295   6.168   0.512   3.180
 6466SOL     OW20296   6.792   2.322   5.011
 6466SOL    HW120297   6.784   2.279   4.921
 6466SOL    HW220298   6.774   2.420   5.003
 6467SOL     OW20299   2.580   0.807   6.556
 6467SOL    HW120300   2.589   0.744   6.478
 6467SOL    HW220301   2.506   0.775   6.615
 6468SOL     OW20302   4.803   4.722   0.846
 6468SOL    HW120303   4.856   4.710   0.762
 6468SOL    HW220304   4.750   4.807   0.840
 6469SOL     OW20305   0.171   1.264   5.755
 6469SOL    HW120306   0.160   1.352   5.709
 6469SOL    HW220307   0.082   1.231   5.786
 6470SOL     OW20308   6.553   6.339   5.901
 6470SOL    HW120309   6.465   6.381   5.880
 6470SOL    HW220310   6.538   6.257   5.956
 6471SOL     OW20311   5.647   4.945   5.443
 6471SOL    HW120312   5.646   4.911   5.537
 6471SOL    HW220313   5.593   4.884   5.385
 6472SOL     OW20314   1.287   5.777   0.844
 6472SOL    HW120315   1.290   5.797   0.746
 6472SOL    HW220316   1.268   5.680   0.858
 6473SOL     OW20317   2.698   1.649   5.805
 6473SOL    HW120318   2.793   1.678   5.797
 6473SOL    HW220319   2.649   1.712   5.866
 6474SOL     OW20320   1.953   3.363   5.250
 6474SOL    HW120321   2.046   3.330   5.265
 6474SOL    HW220322   1.896   3.338   5.329
 6475SOL     OW20323   4.284   6.436   3.936
 6475SOL    HW120324   4.357   6.376   3.903
 6475SOL    HW220325   4.212   6.444   3.867
 6476SOL     OW20326   4.588   5.588   3.025
 6476SOL    HW120327   4.665   5.527   3.042
 6476SOL    HW220328   4.599   5.630   2.935
 6477SOL     OW20329   6.996   5.851   6.833
 6477SOL    HW120330   6.990   5.902   6.918
 6477SOL    HW220331   7.004   5.914   6.756
 6478SOL     OW20332   4.821   6.604   1.027
 6478SOL    HW120333   4.888   6.580   0.957
 6478SOL    HW220334   4.771   6.522   1.055
 6479SOL     OW20335   3.719   5.137   2.702
 6479SOL    HW120336   3.817   5.145   2.681
 6479SOL    HW220337   3.688   5.220   2.748
 6480SOL     OW20338   3.123   2.219   6.809
 6480SOL    HW120339   3.032   2.177   6.807
 6480SOL    HW220340   3.115   2.316   6.783
 6481SOL     OW20341   4.990   0.698   1.345
 6481SOL    HW120342   4.957   0.762   1.275
 6481SOL    HW220343   5.046   0.747   1.411
 6482SOL     OW20344   0.449   0.453   6.998
 6482SOL    HW120345   0.420   0.411   6.913
 6482SOL    HW220346   0.393   0.534   7.016
 6483SOL     OW20347   1.843   6.572   2.304
 6483SOL    HW120348   1.879   6.486   2.340
 6483SOL    HW220349   1.807   6.557   2.212
 6484SOL     OW20350   5.601   6.398   3.751
 6484SOL    HW120351   5.625   6.301   3.763
 6484SOL    HW220352   5.584   6.416   3.655
 6485SOL     OW20353   1.518   2.558   3.065
 6485SOL    HW120354   1.602   2.608   3.048
 6485SOL    HW220355   1.520   2.470   3.018
 6486SOL     OW20356   1.795   2.858   3.052
 6486SOL    HW120357   1.726   2.860   3.124
 6486SOL    HW220358   1.788   2.772   3.002
 6487SOL     OW20359   5.939   6.165   3.793
 6487SOL    HW120360   6.006   6.105   3.749
 6487SOL    HW220361   5.974   6.194   3.882
 6488SOL     OW20362   3.333   5.709   5.877
 6488SOL    HW120363   3.358   5.639   5.944
 6488SOL    HW220364   3.299   5.665   5.794
 6489SOL     OW20365   1.993   1.605   5.516
 6489SOL    HW120366   2.071   1.634   5.570
 6489SOL    HW220367   1.944   1.532   5.564
 6490SOL     OW20368   3.327   0.886   0.400
 6490SOL    HW120369   3.361   0.924   0.314
 6490SOL    HW220370   3.298   0.960   0.460
 6491SOL     OW20371   3.675   1.788   6.469
 6491SOL    HW120372   3.665   1.879   6.429
 6491SOL    HW220373   3.586   1.754   6.499
 6492SOL     OW20374   6.146   5.683   0.167
 6492SOL    HW120375   6.206   5.762   0.180
 6492SOL    HW220376   6.055   5.703   0.203
 6493SOL     OW20377   0.753   6.344   5.901
 6493SOL    HW120378   0.681   6.358   5.833
 6493SOL    HW220379   0.758   6.247   5.924
 6494SOL     OW20380   1.508   0.198   4.008
 6494SOL    HW120381   1.514   0.293   4.038
 6494SOL    HW220382   1.415   0.178   3.978
 6495SOL     OW20383   5.170   4.880   2.830
 6495SOL    HW120384   5.182   4.791   2.875
 6495SOL    HW220385   5.224   4.948   2.879
 6496SOL     OW20386   2.195   6.965   2.335
 6496SOL    HW120387   2.255   6.995   2.410
 6496SOL    HW220388   2.129   6.899   2.370
 6497SOL     OW20389   0.903   4.358   6.726
 6497SOL    HW120390   1.003   4.354   6.733
 6497SOL    HW220391   0.877   4.438   6.673
 6498SOL     OW20392   1.728   4.430   4.176
 6498SOL    HW120393   1.800   4.381   4.224
 6498SOL    HW220394   1.756   4.447   4.082
 6499SOL     OW20395   6.168   1.319   4.200
 6499SOL    HW120396   6.172   1.308   4.101
 6499SOL    HW220397   6.224   1.397   4.228
 6500SOL     OW20398   5.560   4.582   3.741
 6500SOL    HW120399   5.618   4.501   3.740
 6500SOL    HW220400   5.497   4.579   3.664
 6501SOL     OW20401   0.202   3.923   1.333
 6501SOL    HW120402   0.127   3.879   1.381
 6501SOL    HW220403   0.248   3.855   1.274
 6502SOL     OW20404   1.164   5.682   2.794
 6502SOL    HW120405   1.099   5.634   2.736
 6502SOL    HW220406   1.114   5.746   2.854
 6503SOL     OW20407   4.750   0.205   4.645
 6503SOL    HW120408   4.686   0.134   4.615
 6503SOL    HW220409   4.843   0.176   4.626
 6504SOL     OW20410   2.842   1.041   0.771
 6504SOL    HW120411   2.890   0.983   0.705
 6504SOL    HW220412   2.903   1.063   0.847
 6505SOL     OW20413   5.667   4.896   0.825
 6505SOL    HW120414   5.657   4.961   0.900
 6505SOL    HW220415   5.654   4.803   0.859
 6506SOL     OW20416   2.277   2.378   0.679
 6506SOL    HW120417   2.268   2.339   0.588
 6506SOL    HW220418   2.237   2.470   0.680
 6507SOL     OW20419   2.538   1.056   2.084
 6507SOL    HW120420   2.524   1.149   2.118
 6507SOL    HW220421   2.524   1.055   1.985
 6508SOL     OW20422   1.852   1.733   2.588
 6508SOL    HW120423   1.940   1.715   2.544
 6508SOL    HW220424   1.797   1.649   2.589
 6509SOL     OW20425   0.353   2.317   4.338
 6509SOL    HW120426   0.319   2.350   4.426
 6509SOL    HW220427   0.453   2.321   4.337
 6510SOL     OW20428   5.610   4.910   6.065
 6510SOL    HW120429   5.657   4.998   6.066
 6510SOL    HW220430   5.527   4.917   6.009
 6511SOL     OW20431   6.211   5.923   5.920
 6511SOL    HW120432   6.133   5.860   5.926
 6511SOL    HW220433   6.188   6.009   5.965
 6512SOL     OW20434   4.901   6.577   3.707
 6512SOL    HW120435   4.915   6.674   3.725
 6512SOL    HW220436   4.808   6.562   3.673
 6513SOL     OW20437   3.102   0.068   2.791
 6513SOL    HW120438   3.069   0.037   2.702
 6513SOL    HW220439   3.080   0.165   2.802
 6514SOL     OW20440   3.400   7.005   3.505
 6514SOL    HW120441   3.437   0.077   3.513
 6514SOL    HW220442   3.356   6.996   3.416
 6515SOL     OW20443   1.379   0.694   4.983
 6515SOL    HW120444   1.361   0.790   4.964
 6515SOL    HW220445   1.416   0.650   4.901
 6516SOL     OW20446   1.285   1.355   5.809
 6516SOL    HW120447   1.284   1.389   5.715
 6516SOL    HW220448   1.300   1.256   5.808
 6517SOL     OW20449   1.123   1.844   6.929
 6517SOL    HW120450   1.060   1.902   6.876
 6517SOL    HW220451   1.117   1.870   0.005
 6518SOL     OW20452   6.301   5.920   1.043
 6518SOL    HW120453   6.391   5.892   1.077
 6518SOL    HW220454   6.275   6.007   1.084
 6519SOL     OW20455   2.506   1.818   3.674
 6519SOL    HW120456   2.461   1.899   3.711
 6519SOL    HW220457   2.602   1.838   3.655
 6520SOL     OW20458   5.485   5.616   1.406
 6520SOL    HW120459   5.509   5.655   1.495
 6520SOL    HW220460   5.568   5.600   1.353
 6521SOL     OW20461   1.233   1.862   5.513
 6521SOL    HW120462   1.209   1.766   5.528
 6521SOL    HW220463   1.261   1.903   5.600
 6522SOL     OW20464   2.261   5.220   5.505
 6522SOL    HW120465   2.228   5.146   5.447
 6522SOL    HW220466   2.308   5.288   5.449
 6523SOL     OW20467   1.697   2.042   6.445
 6523SOL    HW120468   1.729   2.115   6.507
 6523SOL    HW220469   1.728   2.062   6.352
 6524SOL     OW20470   3.345   3.891   4.158
 6524SOL    HW120471   3.354   3.908   4.256
 6524SOL    HW220472   3.309   3.799   4.143
 6525SOL     OW20473   0.213   2.637   3.957
 6525SOL    HW120474   0.182   2.624   4.051
 6525SOL    HW220475   0.312   2.619   3.951
 6526SOL     OW20476   1.517   6.278   4.609
 6526SOL    HW120477   1.519   6.249   4.705
 6526SOL    HW220478   1.593   6.238   4.559
 6527SOL     OW20479   1.631   1.304   4.389
 6527SOL    HW120480   1.621   1.213   4.348
 6527SOL    HW220481   1.607   1.373   4.321
 6528SOL     OW20482   6.302   0.564   3.959
 6528SOL    HW120483   6.254   0.580   4.046
 6528SOL    HW220484   6.383   0.622   3.955
 6529SOL     OW20485   6.843   2.406   2.041
 6529SOL    HW120486   6.847   2.347   2.122
 6529SOL    HW220487   6.898   2.366   1.968
 6530SOL     OW20488   6.983   2.462   0.559
 6530SOL    HW120489   6.943   2.450   0.649
 6530SOL    HW220490   0.041   2.523   0.565
 6531SOL     OW20491   4.786   3.001   4.319
 6531SOL    HW120492   4.810   3.081   4.373
 6531SOL    HW220493   4.862   2.977   4.259
 6532SOL     OW20494   0.487   1.735   6.643
 6532SOL    HW120495   0.521   1.746   6.736
 6532SOL    HW220496   0.499   1.820   6.593
 6533SOL     OW20497   4.910   0.921   1.169
 6533SOL    HW120498   4.815   0.936   1.195
 6533SOL    HW220499   4.916   0.899   1.071
 6534SOL     OW20500   2.097   3.751   1.071
 6534SOL    HW120501   2.103   3.828   1.009
 6534SOL    HW220502   2.131   3.668   1.025
 6535SOL     OW20503   1.738   3.779   5.622
 6535SOL    HW120504   1.687   3.864   5.605
 6535SOL    HW220505   1.831   3.802   5.650
 6536SOL     OW20506   0.244   2.471   7.013
 6536SOL    HW120507   0.157   2.486   6.967
 6536SOL    HW220508   0.251   2.374   0.019
 6537SOL     OW20509   0.939   0.133   0.439
 6537SOL    HW120510   0.970   0.200   0.371
 6537SOL    HW220511   0.909   0.180   0.522
 6538SOL     OW20512   1.967   3.187   6.179
 6538SOL    HW120513   1.990   3.132   6.260
 6538SOL    HW220514   1.918   3.269   6.208
 6539SOL     OW20515   2.559   1.519   6.998
 6539SOL    HW120516   2.658   1.502   7.001
 6539SOL    HW220517   2.516   1.476   0.056
 6540SOL     OW20518   3.361   0.887   3.858
 6540SOL    HW120519   3.281   0.861   3.805
 6540SOL    HW220520   3.333   0.942   3.937
 6541SOL     OW20521   2.223   2.239   5.730
 6541SOL    HW120522   2.254   2.182   5.654
 6541SOL    HW220523   2.223   2.185   5.815
 6542SOL     OW20524   6.129   4.401   3.162
 6542SOL    HW120525   6.149   4.382   3.066
 6542SOL    HW220526   6.211   4.384   3.217
 6543SOL     OW20527   6.950   5.959   0.084
 6543SOL    HW120528   6.965   5.896   0.160
 6543SOL    HW220529   6.852   5.968   0.067
 6544SOL     OW20530   6.506   6.376   4.352
 6544SOL    HW120531   6.415   6.415   4.340
 6544SOL    HW220532   6.564   6.442   4.401
 6545SOL     OW20533   5.311   2.321   5.701
 6545SOL    HW120534   5.256   2.380   5.760
 6545SOL    HW220535   5.348   2.245   5.755
 6546SOL     OW20536   2.896   4.218   6.378
 6546SOL    HW120537   2.861   4.246   6.468
 6546SOL    HW220538   2.823   4.224   6.311
 6547SOL     OW20539   4.610   2.171   6.571
 6547SOL    HW120540   4.573   2.253   6.526
 6547SOL    HW220541   4.574   2.090   6.526
 6548SOL     OW20542   6.679   5.292   5.180
 6548SOL    HW120543   6.599   5.291   5.119
 6548SOL    HW220544   6.655   5.341   5.264
 6549SOL     OW20545   3.592   1.461   1.194
 6549SOL    HW120546   3.639   1.541   1.233
 6549SOL    HW220547   3.504   1.449   1.239
 6550SOL     OW20548   0.898   5.504   3.593
 6550SOL    HW120549   0.874   5.522   3.497
 6550SOL    HW220550   0.977   5.443   3.597
 6551SOL     OW20551   2.256   5.220   2.227
 6551SOL    HW120552   2.289   5.184   2.139
 6551SOL    HW220553   2.301   5.171   2.302
 6552SOL     OW20554   3.639   4.905   5.992
 6552SOL    HW120555   3.715   4.968   5.977
 6552SOL    HW220556   3.674   4.815   6.020
 6553SOL     OW20557   0.096   2.721   2.615
 6553SOL    HW120558   0.113   2.774   2.532
 6553SOL    HW220559   0.141   2.765   2.693
 6554SOL     OW20560   0.405   2.815   5.296
 6554SOL    HW120561   0.471   2.835   5.368
 6554SOL    HW220562   0.394   2.897   5.238
 6555SOL     OW20563   0.212   1.544   2.258
 6555SOL    HW120564   0.248   1.482   2.188
 6555SOL    HW220565   0.168   1.622   2.213
 6556SOL     OW20566   3.847   7.009   4.266
 6556SOL    HW120567   3.851   6.954   4.183
 6556SOL    HW220568   3.929   6.992   4.321
 6557SOL     OW20569   6.570   5.693   0.884
 6557SOL    HW120570   6.557   5.692   0.983
 6557SOL    HW220571   6.660   5.731   0.862
 6558SOL     OW20572   6.460   5.238   6.679
 6558SOL    HW120573   6.365   5.262   6.700
 6558SOL    HW220574   6.498   5.303   6.614
 6559SOL     OW20575   3.490   3.400   0.805
 6559SOL    HW120576   3.474   3.353   0.718
 6559SOL    HW220577   3.427   3.476   0.814
 6560SOL     OW20578   3.966   2.266   0.155
 6560SOL    HW120579   4.048   2.263   0.212
 6560SOL    HW220580   3.909   2.187   0.176
 6561SOL     OW20581   3.858   3.826   4.478
 6561SOL    HW120582   3.925   3.835   4.405
 6561SOL    HW220583   3.829   3.731   4.486
 6562SOL     OW20584   5.948   3.959   5.708
 6562SOL    HW120585   6.016   3.892   5.678
 6562SOL    HW220586   5.905   3.926   5.793
 6563SOL     OW20587   1.833   5.350   2.029
 6563SOL    HW120588   1.848   5.253   2.010
 6563SOL    HW220589   1.781   5.391   1.953
 6564SOL     OW20590   0.943   5.561   2.667
 6564SOL    HW120591   0.877   5.589   2.736
 6564SOL    HW220592   0.976   5.468   2.688
 6565SOL     OW20593   6.359   3.109   5.278
 6565SOL    HW120594   6.279   3.075   5.229
 6565SOL    HW220595   6.425   3.146   5.213
 6566SOL     OW20596   3.532   6.903   0.352
 6566SOL    HW120597   3.459   6.953   0.304
 6566SOL    HW220598   3.568   6.961   0.425
 6567SOL     OW20599   5.634   2.942   1.431
 6567SOL    HW120600   5.718   2.897   1.403
 6567SOL    HW220601   5.590   2.983   1.350
 6568SOL     OW20602   4.002   4.537   1.267
 6568SOL    HW120603   4.016   4.488   1.354
 6568SOL    HW220604   4.090   4.544   1.219
 6569SOL     OW20605   0.399   4.543   6.390
 6569SOL    HW120606   0.485   4.590   6.372
 6569SOL    HW220607   0.329   4.609   6.417
 6570SOL     OW20608   6.432   2.729   0.745
 6570SOL    HW120609   6.357   2.710   0.682
 6570SOL    HW220610   6.395   2.760   0.833
 6571SOL     OW20611   2.571   5.961   3.592
 6571SOL    HW120612   2.648   6.023   3.575
 6571SOL    HW220613   2.603   5.880   3.641
 6572SOL     OW20614   1.004   3.735   6.341
 6572SOL    HW120615   1.069   3.786   6.285
 6572SOL    HW220616   0.934   3.797   6.376
 6573SOL     OW20617   2.146   1.953   2.606
 6573SOL    HW120618   2.171   1.906   2.690
 6573SOL    HW220619   2.108   1.887   2.541
 6574SOL     OW20620   2.645   4.937   3.052
 6574SOL    HW120621   2.564   4.944   2.994
 6574SOL    HW220622   2.687   4.847   3.039
 6575SOL     OW20623   0.973   1.197   3.074
 6575SOL    HW120624   0.999   1.169   2.982
 6575SOL    HW220625   0.874   1.214   3.076
 6576SOL     OW20626   0.870   6.086   5.554
 6576SOL    HW120627   0.942   6.087   5.623
 6576SOL    HW220628   0.910   6.071   5.463
 6577SOL     OW20629   6.249   1.767   4.209
 6577SOL    HW120630   6.284   1.816   4.289
 6577SOL    HW220631   6.151   1.785   4.200
 6578SOL     OW20632   6.197   5.225   3.370
 6578SOL    HW120633   6.188   5.130   3.401
 6578SOL    HW220634   6.197   5.286   3.449
 6579SOL     OW20635   0.541   3.497   2.338
 6579SOL    HW120636   0.474   3.565   2.368
 6579SOL    HW220637   0.537   3.418   2.398
 6580SOL     OW20638   6.230   2.708   1.352
 6580SOL    HW120639   6.171   2.748   1.282
 6580SOL    HW220640   6.201   2.614   1.371
 6581SOL     OW20641   2.578   2.147   5.495
 6581SOL    HW120642   2.628   2.060   5.504
 6581SOL    HW220643   2.480   2.130   5.506
 6582SOL     OW20644   6.931   0.092   2.673
 6582SOL    HW120645   6.845   0.068   2.629
 6582SOL    HW220646   6.990   0.140   2.607
 6583SOL     OW20647   6.154   1.813   5.613
 6583SOL    HW120648   6.131   1.910   5.625
 6583SOL    HW220649   6.253   1.802   5.618
 6584SOL     OW20650   5.973   1.404   6.660
 6584SOL    HW120651   5.959   1.371   6.754
 6584SOL    HW220652   6.066   1.441   6.651
 6585SOL     OW20653   1.885   1.239   0.189
 6585SOL    HW120654   1.930   1.156   0.156
 6585SOL    HW220655   1.790   1.217   0.212
 6586SOL     OW20656   6.818   2.551   6.400
 6586SOL    HW120657   6.865   2.596   6.476
 6586SOL    HW220658   6.885   2.521   6.332
 6587SOL     OW20659   1.964   6.832   2.374
 6587SOL    HW120660   1.921   6.744   2.353
 6587SOL    HW220661   1.909   6.906   2.336
 6588SOL     OW20662   2.375   2.938   6.743
 6588SOL    HW120663   2.453   2.988   6.704
 6588SOL    HW220664   2.309   2.918   6.671
 6589SOL     OW20665   4.589   1.596   5.652
 6589SOL    HW120666   4.542   1.639   5.729
 6589SOL    HW220667   4.672   1.551   5.684
 6590SOL     OW20668   6.686   1.235   5.496
 6590SOL    HW120669   6.681   1.283   5.583
 6590SOL    HW220670   6.720   1.142   5.511
 6591SOL     OW20671   5.483   1.038   2.436
 6591SOL    HW120672   5.488   1.057   2.534
 6591SOL    HW220673   5.497   1.122   2.385
 6592SOL     OW20674   4.903   5.822   4.413
 6592SOL    HW120675   4.903   5.731   4.454
 6592SOL    HW220676   4.997   5.853   4.398
 6593SOL     OW20677   3.940   0.925   2.277
 6593SOL    HW120678   3.901   0.973   2.199
 6593SOL    HW220679   3.952   0.988   2.354
 6594SOL     OW20680   5.844   0.739   6.199
 6594SOL    HW120681   5.803   0.728   6.289
 6594SOL    HW220682   5.827   0.832   6.165
 6595SOL     OW20683   1.003   3.931   0.856
 6595SOL    HW120684   1.009   3.917   0.758
 6595SOL    HW220685   1.063   3.865   0.903
 6596SOL     OW20686   3.890   6.902   4.766
 6596SOL    HW120687   3.986   6.895   4.739
 6596SOL    HW220688   3.833   6.855   4.699
 6597SOL     OW20689   0.078   4.521   5.487
 6597SOL    HW120690   0.176   4.519   5.472
 6597SOL    HW220691   0.038   4.597   5.437
 6598SOL     OW20692   1.880   5.642   5.650
 6598SOL    HW120693   1.971   5.602   5.661
 6598SOL    HW220694   1.817   5.572   5.614
 6599SOL     OW20695   4.340   4.205   5.922
 6599SOL    HW120696   4.263   4.260   5.890
 6599SOL    HW220697   4.421   4.264   5.930
 6600SOL     OW20698   4.690   6.061   4.567
 6600SOL    HW120699   4.656   6.094   4.479
 6600SOL    HW220700   4.787   6.037   4.558
 6601SOL     OW20701   1.609   0.046   1.288
 6601SOL    HW120702   1.691   7.014   1.267
 6601SOL    HW220703   1.580   0.096   1.207
 6602SOL     OW20704   6.475   1.593   1.453
 6602SOL    HW120705   6.569   1.614   1.427
 6602SOL    HW220706   6.475   1.545   1.540
 6603SOL     OW20707   2.087   3.160   3.301
 6603SOL    HW120708   2.054   3.133   3.211
 6603SOL    HW220709   2.156   3.094   3.332
 6604SOL     OW20710   3.603   6.094   3.018
 6604SOL    HW120711   3.618   6.144   3.104
 6604SOL    HW220712   3.505   6.087   3.001
 6605SOL     OW20713   5.835   6.491   0.473
 6605SOL    HW120714   5.749   6.467   0.517
 6605SOL    HW220715   5.878   6.568   0.521
 6606SOL     OW20716   5.140   1.280   2.996
 6606SOL    HW120717   5.189   1.365   2.976
 6606SOL    HW220718   5.162   1.250   3.089
 6607SOL     OW20719   1.045   2.621   3.237
 6607SOL    HW120720   1.034   2.523   3.256
 6607SOL    HW220721   1.061   2.634   3.139
 6608SOL     OW20722   5.965   3.613   4.606
 6608SOL    HW120723   5.945   3.516   4.591
 6608SOL    HW220724   6.007   3.651   4.525
 6609SOL     OW20725   6.224   1.804   6.710
 6609SOL    HW120726   6.222   1.824   6.612
 6609SOL    HW220727   6.136   1.830   6.750
 6610SOL     OW20728   2.994   0.903   0.207
 6610SOL    HW120729   3.089   0.928   0.226
 6610SOL    HW220730   2.936   0.983   0.218
 6611SOL     OW20731   5.718   2.755   3.205
 6611SOL    HW120732   5.766   2.679   3.249
 6611SOL    HW220733   5.760   2.841   3.233
 6612SOL     OW20734   1.300   6.088   6.616
 6612SOL    HW120735   1.308   6.008   6.557
 6612SOL    HW220736   1.204   6.099   6.644
 6613SOL     OW20737   4.616   5.248   1.636
 6613SOL    HW120738   4.711   5.275   1.656
 6613SOL    HW220739   4.616   5.158   1.593
 6614SOL     OW20740   5.549   6.105   6.124
 6614SOL    HW120741   5.506   6.166   6.191
 6614SOL    HW220742   5.504   6.016   6.126
 6615SOL     OW20743   1.242   3.827   5.108
 6615SOL    HW120744   1.194   3.747   5.144
 6615SOL    HW220745   1.246   3.821   5.009
 6616SOL     OW20746   4.773   0.443   4.797
 6616SOL    HW120747   4.772   0.369   4.729
 6616SOL    HW220748   4.764   0.531   4.751
 6617SOL     OW20749   4.286   6.836   5.102
 6617SOL    HW120750   4.201   6.813   5.149
 6617SOL    HW220751   4.362   6.836   5.168
 6618SOL     OW20752   0.915   4.216   1.621
 6618SOL    HW120753   0.930   4.288   1.554
 6618SOL    HW220754   0.999   4.162   1.632
 6619SOL     OW20755   5.229   5.633   2.548
 6619SOL    HW120756   5.236   5.715   2.491
 6619SOL    HW220757   5.320   5.600   2.570
 6620SOL     OW20758   2.468   2.896   5.677
 6620SOL    HW120759   2.485   2.799   5.658
 6620SOL    HW220760   2.423   2.904   5.766
 6621SOL     OW20761   2.705   4.444   6.812
 6621SOL    HW120762   2.638   4.401   6.872
 6621SOL    HW220763   2.797   4.430   6.850
 6622SOL     OW20764   6.524   0.082   0.523
 6622SOL    HW120765   6.458   0.068   0.597
 6622SOL    HW220766   6.546   7.014   0.481
 6623SOL     OW20767   3.557   3.914   1.885
 6623SOL    HW120768   3.470   3.870   1.866
 6623SOL    HW220769   3.542   4.005   1.923
 6624SOL     OW20770   4.201   4.715   4.310
 6624SOL    HW120771   4.251   4.634   4.343
 6624SOL    HW220772   4.266   4.790   4.297
 6625SOL     OW20773   6.456   0.361   0.593
 6625SOL    HW120774   6.447   0.436   0.527
 6625SOL    HW220775   6.508   0.286   0.551
 6626SOL     OW20776   3.107   4.860   3.441
 6626SOL    HW120777   3.199   4.821   3.434
 6626SOL    HW220778   3.112   4.959   3.445
 6627SOL     OW20779   2.142   6.106   1.406
 6627SOL    HW120780   2.083   6.035   1.368
 6627SOL    HW220781   2.231   6.103   1.360
 6628SOL     OW20782   3.961   6.151   3.102
 6628SOL    HW120783   3.887   6.215   3.083
 6628SOL    HW220784   3.934   6.058   3.075
 6629SOL     OW20785   3.132   4.240   0.149
 6629SOL    HW120786   3.184   4.166   0.190
 6629SOL    HW220787   3.141   4.322   0.206
 6630SOL     OW20788   3.050   2.148   6.051
 6630SOL    HW120789   3.035   2.237   6.008
 6630SOL    HW220790   3.082   2.082   5.982
 6631SOL     OW20791   4.115   0.635   2.050
 6631SOL    HW120792   4.122   0.563   2.120
 6631SOL    HW220793   4.200   0.688   2.049
 6632SOL     OW20794   0.197   2.289   2.184
 6632SOL    HW120795   0.110   2.244   2.163
 6632SOL    HW220796   0.273   2.229   2.157
 6633SOL     OW20797   0.512   0.084   1.214
 6633SOL    HW120798   0.501   7.017   1.168
 6633SOL    HW220799   0.456   0.084   1.298
 6634SOL     OW20800   6.746   2.923   5.710
 6634SOL    HW120801   6.682   2.891   5.780
 6634SOL    HW220802   6.840   2.911   5.742
 6635SOL     OW20803   4.487   4.460   3.574
 6635SOL    HW120804   4.489   4.532   3.505
 6635SOL    HW220805   4.405   4.470   3.631
 6636SOL     OW20806   1.438   2.716   4.511
 6636SOL    HW120807   1.516   2.653   4.508
 6636SOL    HW220808   1.369   2.687   4.446
 6637SOL     OW20809   6.306   1.256   1.414
 6637SOL    HW120810   6.406   1.252   1.425
 6637SOL    HW220811   6.284   1.316   1.336
 6638SOL     OW20812   1.707   5.855   5.691
 6638SOL    HW120813   1.705   5.918   5.613
 6638SOL    HW220814   1.771   5.780   5.671
 6639SOL     OW20815   5.597   5.525   0.169
 6639SOL    HW120816   5.687   5.526   0.215
 6639SOL    HW220817   5.600   5.585   0.089
 6640SOL     OW20818   5.970   3.340   3.332
 6640SOL    HW120819   6.041   3.391   3.379
 6640SOL    HW220820   5.965   3.370   3.237
 6641SOL     OW20821   1.835   4.330   6.534
 6641SOL    HW120822   1.818   4.304   6.439
 6641SOL    HW220823   1.886   4.256   6.580
 6642SOL     OW20824   0.298   6.341   0.419
 6642SOL    HW120825   0.281   6.341   0.518
 6642SOL    HW220826   0.214   6.314   0.372
 6643SOL     OW20827   4.401   5.126   6.639
 6643SOL    HW120828   4.363   5.080   6.719
 6643SOL    HW220829   4.431   5.218   6.664
 6644SOL     OW20830   2.972   4.822   2.111
 6644SOL    HW120831   2.919   4.907   2.107
 6644SOL    HW220832   2.911   4.745   2.090
 6645SOL     OW20833   0.439   5.002   5.499
 6645SOL    HW120834   0.388   5.056   5.565
 6645SOL    HW220835   0.537   5.009   5.519
 6646SOL     OW20836   1.916   5.869   3.613
 6646SOL    HW120837   2.014   5.882   3.632
 6646SOL    HW220838   1.902   5.865   3.515
 6647SOL     OW20839   3.198   1.946   2.241
 6647SOL    HW120840   3.151   2.034   2.250
 6647SOL    HW220841   3.297   1.960   2.249
 6648SOL     OW20842   4.885   5.638   2.590
 6648SOL    HW120843   4.833   5.637   2.504
 6648SOL    HW220844   4.969   5.585   2.579
 6649SOL     OW20845   3.737   2.678   6.294
 6649SOL    HW120846   3.646   2.680   6.252
 6649SOL    HW220847   3.737   2.613   6.370
 6650SOL     OW20848   3.084   2.184   3.165
 6650SOL    HW120849   3.168   2.151   3.208
 6650SOL    HW220850   3.079   2.150   3.071
 6651SOL     OW20851   0.946   2.380   6.614
 6651SOL    HW120852   1.032   2.336   6.639
 6651SOL    HW220853   0.938   2.384   6.515
 6652SOL     OW20854   6.692   5.358   3.122
 6652SOL    HW120855   6.709   5.440   3.068
 6652SOL    HW220856   6.612   5.371   3.180
 6653SOL     OW20857   3.377   3.515   3.453
 6653SOL    HW120858   3.407   3.579   3.524
 6653SOL    HW220859   3.439   3.520   3.375
 6654SOL     OW20860   2.052   3.415   1.783
 6654SOL    HW120861   2.088   3.450   1.870
 6654SOL    HW220862   2.121   3.357   1.740
 6655SOL     OW20863   2.436   0.033   1.153
 6655SOL    HW120864   2.369   0.071   1.089
 6655SOL    HW220865   2.462   0.103   1.219
 6656SOL     OW20866   5.901   2.557   1.510
 6656SOL    HW120867   5.883   2.596   1.419
 6656SOL    HW220868   5.916   2.458   1.501
 6657SOL     OW20869   2.823   6.171   6.097
 6657SOL    HW120870   2.917   6.164   6.064
 6657SOL    HW220871   2.807   6.262   6.135
 6658SOL     OW20872   4.920   0.800   5.862
 6658SOL    HW120873   4.847   0.755   5.811
 6658SOL    HW220874   4.918   0.898   5.843
 6659SOL     OW20875   1.406   3.150   6.543
 6659SOL    HW120876   1.506   3.152   6.546
 6659SOL    HW220877   1.373   3.076   6.601
 6660SOL     OW20878   6.856   6.732   2.945
 6660SOL    HW120879   6.780   6.793   2.920
 6660SOL    HW220880   6.923   6.730   2.871
 6661SOL     OW20881   6.986   6.030   3.550
 6661SOL    HW120882   0.013   6.118   3.548
 6661SOL    HW220883   6.962   6.003   3.457
 6662SOL     OW20884   0.878   3.427   6.531
 6662SOL    HW120885   0.970   3.464   6.519
 6662SOL    HW220886   0.869   3.390   6.623
 6663SOL     OW20887   0.423   5.865   1.876
 6663SOL    HW120888   0.504   5.851   1.933
 6663SOL    HW220889   0.356   5.793   1.893
 6664SOL     OW20890   1.273   1.493   3.081
 6664SOL    HW120891   1.306   1.469   2.990
 6664SOL    HW220892   1.276   1.593   3.092
 6665SOL     OW20893   2.676   6.538   2.744
 6665SOL    HW120894   2.770   6.523   2.715
 6665SOL    HW220895   2.613   6.497   2.678
 6666SOL     OW20896   6.789   0.400   0.245
 6666SOL    HW120897   6.754   0.319   0.292
 6666SOL    HW220898   6.766   0.481   0.299
 6667SOL     OW20899   6.715   5.267   4.681
 6667SOL    HW120900   6.786   5.199   4.663
 6667SOL    HW220901   6.728   5.305   4.773
 6668SOL     OW20902   0.727   5.443   1.528
 6668SOL    HW120903   0.639   5.397   1.539
 6668SOL    HW220904   0.716   5.521   1.466
 6669SOL     OW20905   2.212   6.011   2.420
 6669SOL    HW120906   2.273   5.934   2.399
 6669SOL    HW220907   2.210   6.073   2.342
 6670SOL     OW20908   3.613   4.663   6.981
 6670SOL    HW120909   3.692   4.712   7.018
 6670SOL    HW220910   3.546   4.646   0.033
 6671SOL     OW20911   0.339   2.431   4.828
 6671SOL    HW120912   0.264   2.495   4.843
 6671SOL    HW220913   0.360   2.383   4.913
 6672SOL     OW20914   2.037   0.886   5.294
 6672SOL    HW120915   2.115   0.824   5.303
 6672SOL    HW220916   2.065   0.979   5.314
 6673SOL     OW20917   4.619   4.919   1.036
 6673SOL    HW120918   4.620   4.967   0.948
 6673SOL    HW220919   4.526   4.885   1.054
 6674SOL     OW20920   0.845   0.147   4.368
 6674SOL    HW120921   0.784   0.098   4.306
 6674SOL    HW220922   0.858   0.094   4.452
 6675SOL     OW20923   6.070   5.619   0.519
 6675SOL    HW120924   6.072   5.694   0.585
 6675SOL    HW220925   6.048   5.655   0.428
 6676SOL     OW20926   0.667   2.502   5.870
 6676SOL    HW120927   0.592   2.447   5.907
 6676SOL    HW220928   0.739   2.510   5.939
 6677SOL     OW20929   0.287   3.776   0.248
 6677SOL    HW120930   0.325   3.838   0.316
 6677SOL    HW220931   0.362   3.738   0.193
 6678SOL     OW20932   1.228   3.015   5.445
 6678SOL    HW120933   1.305   2.957   5.472
 6678SOL    HW220934   1.171   3.033   5.525
 6679SOL     OW20935   1.266   1.956   4.511
 6679SOL    HW120936   1.211   1.970   4.429
 6679SOL    HW220937   1.304   1.863   4.510
 6680SOL     OW20938   2.808   6.853   6.593
 6680SOL    HW120939   2.764   6.798   6.663
 6680SOL    HW220940   2.891   6.807   6.561
 6681SOL     OW20941   5.539   5.148   0.171
 6681SOL    HW120942   5.637   5.169   0.165
 6681SOL    HW220943   5.527   5.051   0.195
 6682SOL     OW20944   6.774   6.179   2.243
 6682SOL    HW120945   6.721   6.181   2.328
 6682SOL    HW220946   6.821   6.267   2.231
 6683SOL     OW20947   5.518   2.017   4.212
 6683SOL    HW120948   5.441   2.050   4.158
 6683SOL    HW220949   5.534   2.079   4.289
 6684SOL     OW20950   1.945   0.064   2.248
 6684SOL    HW120951   1.941   0.163   2.266
 6684SOL    HW220952   2.038   0.032   2.267
 6685SOL     OW20953   4.976   3.481   6.460
 6685SOL    HW120954   5.073   3.462   6.450
 6685SOL    HW220955   4.940   3.520   6.376
 6686SOL     OW20956   6.061   3.733   3.876
 6686SOL    HW120957   6.015   3.684   3.950
 6686SOL    HW220958   5.997   3.746   3.800
 6687SOL     OW20959   1.729   1.655   0.106
 6687SOL    HW120960   1.635   1.634   0.134
 6687SOL    HW220961   1.756   1.743   0.145
 6688SOL     OW20962   0.372   4.935   3.131
 6688SOL    HW120963   0.280   4.958   3.165
 6688SOL    HW220964   0.430   4.907   3.208
 6689SOL     OW20965   4.321   4.424   0.229
 6689SOL    HW120966   4.397   4.399   0.288
 6689SOL    HW220967   4.261   4.345   0.216
 6690SOL     OW20968   1.893   2.445   0.908
 6690SOL    HW120969   1.828   2.420   0.980
 6690SOL    HW220970   1.981   2.402   0.926
 6691SOL     OW20971   1.713   4.563   1.525
 6691SOL    HW120972   1.700   4.639   1.461
 6691SOL    HW220973   1.810   4.552   1.546
 6692SOL     OW20974   3.210   3.924   5.926
 6692SOL    HW120975   3.286   3.982   5.955
 6692SOL    HW220976   3.130   3.942   5.983
 6693SOL     OW20977   4.102   3.444   4.894
 6693SOL    HW120978   4.139   3.352   4.905
 6693SOL    HW220979   4.084   3.462   4.797
 6694SOL     OW20980   2.842   6.471   0.632
 6694SOL    HW120981   2.879   6.471   0.539
 6694SOL    HW220982   2.798   6.383   0.651
 6695SOL     OW20983   1.788   1.930   0.176
 6695SOL    HW120984   1.884   1.922   0.150
 6695SOL    HW220985   1.782   1.957   0.272
 6696SOL     OW20986   2.074   3.190   2.093
 6696SOL    HW120987   1.982   3.192   2.132
 6696SOL    HW220988   2.119   3.279   2.108
 6697SOL     OW20989   4.997   1.285   3.269
 6697SOL    HW120990   4.908   1.279   3.315
 6697SOL    HW220991   5.002   1.370   3.216
 6698SOL     OW20992   3.720   3.463   0.197
 6698SOL    HW120993   3.784   3.526   0.242
 6698SOL    HW220994   3.672   3.410   0.267
 6699SOL     OW20995   1.037   3.702   6.977
 6699SOL    HW120996   0.972   3.650   6.922
 6699SOL    HW220997   1.130   3.673   6.955
 6700SOL     OW20998   6.812   6.257   0.258
 6700SOL    HW120999   6.808   6.287   0.162
 6700SOL    HW221000   6.724   6.216   0.283
 6701SOL     OW21001   0.937   1.754   0.918
 6701SOL    HW121002   1.031   1.766   0.951
 6701SOL    HW221003   0.935   1.681   0.850
 6702SOL     OW21004   2.417   2.388   0.906
 6702SOL    HW121005   2.511   2.422   0.897
 6702SOL    HW221006   2.376   2.380   0.815
 6703SOL     OW21007   0.467   2.287   6.751
 6703SOL    HW121008   0.384   2.333   6.721
 6703SOL    HW221009   0.443   2.207   6.806
 6704SOL     OW21010   5.283   1.735   2.932
 6704SOL    HW121011   5.214   1.799   2.965
 6704SOL    HW221012   5.247   1.687   2.851
 6705SOL     OW21013   5.929   1.378   0.495
 6705SOL    HW121014   5.955   1.302   0.554
 6705SOL    HW221015   5.982   1.374   0.410
 6706SOL     OW21016   0.462   4.802   6.429
 6706SOL    HW121017   0.497   4.778   6.519
 6706SOL    HW221018   0.383   4.863   6.438
 6707SOL     OW21019   1.548   6.442   2.430
 6707SOL    HW121020   1.611   6.513   2.399
 6707SOL    HW221021   1.593   6.353   2.426
 6708SOL     OW21022   2.372   6.062   1.301
 6708SOL    HW121023   2.356   6.001   1.378
 6708SOL    HW221024   2.397   6.009   1.220
 6709SOL     OW21025   4.717   1.451   2.830
 6709SOL    HW121026   4.734   1.542   2.867
 6709SOL    HW221027   4.789   1.389   2.860
 6710SOL     OW21028   2.522   2.721   0.951
 6710SOL    HW121029   2.541   2.786   1.025
 6710SOL    HW221030   2.454   2.655   0.981
 6711SOL     OW21031   3.679   3.728   0.862
 6711SOL    HW121032   3.715   3.674   0.939
 6711SOL    HW221033   3.639   3.812   0.896
 6712SOL     OW21034   3.238   5.855   0.644
 6712SOL    HW121035   3.228   5.794   0.566
 6712SOL    HW221036   3.323   5.834   0.692
 6713SOL     OW21037   2.149   1.776   2.200
 6713SOL    HW121038   2.236   1.730   2.220
 6713SOL    HW221039   2.161   1.875   2.208
 6714SOL     OW21040   6.569   0.222   4.089
 6714SOL    HW121041   6.640   0.288   4.066
 6714SOL    HW221042   6.593   0.176   4.175
 6715SOL     OW21043   0.952   1.835   1.254
 6715SOL    HW121044   0.936   1.904   1.183
 6715SOL    HW221045   1.050   1.832   1.276
 6716SOL     OW21046   2.318   5.874   0.695
 6716SOL    HW121047   2.301   5.973   0.699
 6716SOL    HW221048   2.340   5.848   0.601
 6717SOL     OW21049   3.837   1.562   6.541
 6717SOL    HW121050   3.781   1.644   6.528
 6717SOL    HW221051   3.796   1.486   6.491
 6718SOL     OW21052   3.658   0.172   7.007
 6718SOL    HW121053   3.571   0.151   6.962
 6718SOL    HW221054   3.653   0.262   0.028
 6719SOL     OW21055   0.815   0.336   5.724
 6719SOL    HW121056   0.871   0.285   5.658
 6719SOL    HW221057   0.722   0.298   5.725
 6720SOL     OW21058   1.784   4.660   1.815
 6720SOL    HW121059   1.866   4.617   1.854
 6720SOL    HW221060   1.745   4.599   1.746
 6721SOL     OW21061   6.416   6.841   3.853
 6721SOL    HW121062   6.359   6.899   3.794
 6721SOL    HW221063   6.455   6.767   3.800
 6722SOL     OW21064   4.657   3.868   6.942
 6722SOL    HW121065   4.717   3.944   6.915
 6722SOL    HW221066   4.652   3.865   0.021
 6723SOL     OW21067   3.619   6.689   1.751
 6723SOL    HW121068   3.641   6.770   1.807
 6723SOL    HW221069   3.650   6.607   1.799
 6724SOL     OW21070   3.447   4.614   5.296
 6724SOL    HW121071   3.383   4.639   5.369
 6724SOL    HW221072   3.541   4.633   5.326
 6725SOL     OW21073   0.473   4.718   2.707
 6725SOL    HW121074   0.480   4.733   2.806
 6725SOL    HW221075   0.561   4.690   2.671
 6726SOL     OW21076   2.473   2.385   2.260
 6726SOL    HW121077   2.461   2.427   2.350
 6726SOL    HW221078   2.569   2.361   2.247
 6727SOL     OW21079   3.921   4.049   0.008
 6727SOL    HW121080   3.962   3.999   0.085
 6727SOL    HW221081   3.974   4.131   7.011
 6728SOL     OW21082   4.859   0.966   4.048
 6728SOL    HW121083   4.807   1.047   4.074
 6728SOL    HW221084   4.922   0.990   3.973
 6729SOL     OW21085   5.983   0.015   2.946
 6729SOL    HW121086   6.048   0.051   2.879
 6729SOL    HW221087   6.027   0.011   3.036
 6730SOL     OW21088   1.597   0.283   0.703
 6730SOL    HW121089   1.587   0.243   0.612
 6730SOL    HW221090   1.668   0.234   0.753
 6731SOL     OW21091   2.423   4.736   1.939
 6731SOL    HW121092   2.369   4.715   2.020
 6731SOL    HW221093   2.362   4.767   1.866
 6732SOL     OW21094   1.887   4.312   0.584
 6732SOL    HW121095   1.854   4.390   0.531
 6732SOL    HW221096   1.889   4.336   0.681
 6733SOL     OW21097   5.400   5.885   6.045
 6733SOL    HW121098   5.335   5.836   6.103
 6733SOL    HW221099   5.384   5.862   5.949
 6734SOL     OW21100   2.428   3.687   5.507
 6734SOL    HW121101   2.372   3.612   5.542
 6734SOL    HW221102   2.517   3.687   5.552
 6735SOL     OW21103   0.033   4.991   6.201
 6735SOL    HW121104   0.112   5.028   6.152
 6735SOL    HW221105   0.017   5.046   6.283
 6736SOL     OW21106   2.160   3.785   2.479
 6736SOL    HW121107   2.087   3.730   2.439
 6736SOL    HW221108   2.181   3.750   2.571
 6737SOL     OW21109   1.727   1.085   0.872
 6737SOL    HW121110   1.702   1.090   0.776
 6737SOL    HW221111   1.728   0.990   0.902
 6738SOL     OW21112   3.854   1.670   2.145
 6738SOL    HW121113   3.760   1.680   2.176
 6738SOL    HW221114   3.909   1.629   2.218
 6739SOL     OW21115   3.846   6.548   5.050
 6739SOL    HW121116   3.881   6.508   4.965
 6739SOL    HW221117   3.883   6.497   5.128
 6740SOL     OW21118   6.198   2.741   4.607
 6740SOL    HW121119   6.282   2.791   4.628
 6740SOL    HW221120   6.220   2.660   4.553
 6741SOL     OW21121   6.988   6.911   6.177
 6741SOL    HW121122   7.005   6.843   6.106
 6741SOL    HW221123   0.048   6.970   6.185
 6742SOL     OW21124   6.466   5.888   5.819
 6742SOL    HW121125   6.387   5.923   5.870
 6742SOL    HW221126   6.454   5.790   5.803
 6743SOL     OW21127   4.833   3.397   0.741
 6743SOL    HW121128   4.738   3.392   0.772
 6743SOL    HW221129   4.837   3.447   0.655
 6744SOL     OW21130   5.546   5.647   5.784
 6744SOL    HW121131   5.619   5.594   5.827
 6744SOL    HW221132   5.473   5.585   5.754
 6745SOL     OW21133   0.062   4.025   3.749
 6745SOL    HW121134   0.098   3.933   3.736
 6745SOL    HW221135   6.998   4.021   3.802
 6746SOL     OW21136   6.929   1.498   0.998
 6746SOL    HW121137   6.855   1.563   1.013
 6746SOL    HW221138   7.015   1.537   1.031
 6747SOL     OW21139   5.455   6.334   6.349
 6747SOL    HW121140   5.394   6.364   6.276
 6747SOL    HW221141   5.535   6.394   6.353
 6748SOL     OW21142   6.754   6.989   2.306
 6748SOL    HW121143   6.675   6.928   2.292
 6748SOL    HW221144   6.756   0.037   2.234
 6749SOL     OW21145   3.480   6.045   0.935
 6749SOL    HW121146   3.568   6.083   0.908
 6749SOL    HW221147   3.410   6.116   0.927
 6750SOL     OW21148   2.655   3.245   5.332
 6750SOL    HW121149   2.585   3.290   5.389
 6750SOL    HW221150   2.617   3.162   5.292
 6751SOL     OW21151   3.129   2.189   5.563
 6751SOL    HW121152   3.080   2.264   5.608
 6751SOL    HW221153   3.202   2.227   5.505
 6752SOL     OW21154   6.289   2.049   0.628
 6752SOL    HW121155   6.219   2.009   0.569
 6752SOL    HW221156   6.295   2.147   0.611
 6753SOL     OW21157   5.266   1.962   6.033
 6753SOL    HW121158   5.219   1.894   5.976
 6753SOL    HW221159   5.202   1.999   6.101
 6754SOL     OW21160   5.580   1.028   0.431
 6754SOL    HW121161   5.522   0.947   0.420
 6754SOL    HW221162   5.560   1.093   0.358
 6755SOL     OW21163   5.510   1.612   3.203
 6755SOL    HW121164   5.590   1.666   3.176
 6755SOL    HW221165   5.434   1.673   3.223
 6756SOL     OW21166   5.090   4.280   4.166
 6756SOL    HW121167   5.143   4.278   4.251
 6756SOL    HW221168   5.148   4.312   4.092
 6757SOL     OW21169   5.090   4.743   2.026
 6757SOL    HW121170   5.039   4.828   2.013
 6757SOL    HW221171   5.104   4.727   2.123
 6758SOL     OW21172   5.697   1.963   2.983
 6758SOL    HW121173   5.630   1.916   2.925
 6758SOL    HW221174   5.712   2.055   2.947
 6759SOL     OW21175   0.712   4.638   3.254
 6759SOL    HW121176   0.777   4.608   3.323
 6759SOL    HW221177   0.751   4.623   3.163
 6760SOL     OW21178   0.086   4.195   4.998
 6760SOL    HW121179   0.158   4.138   5.038
 6760SOL    HW221180   0.032   4.140   4.935
 6761SOL     OW21181   5.660   3.397   6.521
 6761SOL    HW121182   5.715   3.333   6.574
 6761SOL    HW221183   5.575   3.352   6.492
 6762SOL     OW21184   5.440   4.729   3.476
 6762SOL    HW121185   5.499   4.680   3.412
 6762SOL    HW221186   5.345   4.717   3.449
 6763SOL     OW21187   5.463   6.433   5.784
 6763SOL    HW121188   5.531   6.429   5.711
 6763SOL    HW221189   5.431   6.341   5.806
 6764SOL     OW21190   2.306   3.661   0.240
 6764SOL    HW121191   2.216   3.689   0.207
 6764SOL    HW221192   2.299   3.632   0.336
 6765SOL     OW21193   5.096   5.275   2.842
 6765SOL    HW121194   5.054   5.207   2.902
 6765SOL    HW221195   5.035   5.354   2.835
 6766SOL     OW21196   1.339   1.418   5.547
 6766SOL    HW121197   1.358   1.325   5.514
 6766SOL    HW221198   1.424   1.470   5.551
 6767SOL     OW21199   1.069   2.599   5.530
 6767SOL    HW121200   1.122   2.583   5.447
 6767SOL    HW221201   1.025   2.688   5.526
 6768SOL     OW21202   0.405   0.320   5.596
 6768SOL    HW121203   0.313   0.288   5.574
 6768SOL    HW221204   0.461   0.244   5.628
 6769SOL     OW21205   1.322   2.938   6.727
 6769SOL    HW121206   1.277   2.866   6.675
 6769SOL    HW221207   1.396   2.898   6.782
 6770SOL     OW21208   6.742   1.271   4.259
 6770SOL    HW121209   6.819   1.318   4.301
 6770SOL    HW221210   6.766   1.244   4.166
 6771SOL     OW21211   4.157   1.690   1.972
 6771SOL    HW121212   4.256   1.678   1.971
 6771SOL    HW221213   4.116   1.622   2.033
 6772SOL     OW21214   0.365   0.906   1.506
 6772SOL    HW121215   0.274   0.945   1.493
 6772SOL    HW221216   0.379   0.885   1.603
 6773SOL     OW21217   1.158   0.870   2.108
 6773SOL    HW121218   1.119   0.820   2.185
 6773SOL    HW221219   1.109   0.844   2.024
 6774SOL     OW21220   3.203   0.979   5.365
 6774SOL    HW121221   3.153   1.061   5.338
 6774SOL    HW221222   3.292   0.978   5.319
 6775SOL     OW21223   0.689   3.082   5.036
 6775SOL    HW121224   0.723   3.155   4.976
 6775SOL    HW221225   0.766   3.036   5.079
 6776SOL     OW21226   3.443   3.859   3.229
 6776SOL    HW121227   3.358   3.840   3.181
 6776SOL    HW221228   3.427   3.925   3.302
 6777SOL     OW21229   6.840   6.456   6.783
 6777SOL    HW121230   6.927   6.413   6.759
 6777SOL    HW221231   6.845   6.554   6.764
 6778SOL     OW21232   5.884   6.096   2.231
 6778SOL    HW121233   5.827   6.094   2.149
 6778SOL    HW221234   5.961   6.158   2.216
 6779SOL     OW21235   4.998   4.288   6.212
 6779SOL    HW121236   4.992   4.213   6.277
 6779SOL    HW221237   4.946   4.267   6.130
 6780SOL     OW21238   3.956   1.391   1.977
 6780SOL    HW121239   4.038   1.387   2.035
 6780SOL    HW221240   3.877   1.416   2.033
 6781SOL     OW21241   6.230   2.564   3.022
 6781SOL    HW121242   6.328   2.586   3.027
 6781SOL    HW221243   6.214   2.476   3.066
 6782SOL     OW21244   0.024   1.584   3.383
 6782SOL    HW121245   7.019   1.492   3.412
 6782SOL    HW221246   0.120   1.585   3.357
 6783SOL     OW21247   0.505   6.025   5.888
 6783SOL    HW121248   0.594   6.036   5.932
 6783SOL    HW221249   0.516   6.029   5.788
 6784SOL     OW21250   1.264   4.538   1.311
 6784SOL    HW121251   1.292   4.555   1.406
 6784SOL    HW221252   1.251   4.625   1.264
 6785SOL     OW21253   5.185   4.700   3.418
 6785SOL    HW121254   5.110   4.734   3.362
 6785SOL    HW221255   5.182   4.600   3.422
 6786SOL     OW21256   6.577   2.265   5.882
 6786SOL    HW121257   6.479   2.277   5.864
 6786SOL    HW221258   6.592   2.260   5.981
 6787SOL     OW21259   3.209   1.510   0.647
 6787SOL    HW121260   3.308   1.494   0.649
 6787SOL    HW221261   3.189   1.592   0.594
 6788SOL     OW21262   0.635   4.343   1.329
 6788SOL    HW121263   0.550   4.383   1.365
 6788SOL    HW221264   0.640   4.247   1.356
 6789SOL     OW21265   5.768   4.623   2.560
 6789SOL    HW121266   5.741   4.537   2.603
 6789SOL    HW221267   5.686   4.676   2.537
 6790SOL     OW21268   0.434   6.120   0.793
 6790SOL    HW121269   0.477   6.059   0.726
 6790SOL    HW221270   0.500   6.144   0.864
 6791SOL     OW21271   2.172   6.171   3.431
 6791SOL    HW121272   2.120   6.248   3.468
 6791SOL    HW221273   2.253   6.155   3.488
 6792SOL     OW21274   3.597   6.665   6.072
 6792SOL    HW121275   3.669   6.731   6.050
 6792SOL    HW221276   3.508   6.703   6.048
 6793SOL     OW21277   2.219   3.285   6.038
 6793SOL    HW121278   2.259   3.351   6.101
 6793SOL    HW221279   2.136   3.245   6.079
 6794SOL     OW21280   4.997   2.500   5.216
 6794SOL    HW121281   4.898   2.487   5.229
 6794SOL    HW221282   5.020   2.482   5.121
 6795SOL     OW21283   0.737   0.833   1.830
 6795SOL    HW121284   0.824   0.799   1.864
 6795SOL    HW221285   0.749   0.923   1.788
 6796SOL     OW21286   6.895   1.892   2.678
 6796SOL    HW121287   6.812   1.879   2.731
 6796SOL    HW221288   6.921   1.988   2.680
 6797SOL     OW21289   1.197   2.996   0.725
 6797SOL    HW121290   1.197   2.901   0.757
 6797SOL    HW221291   1.284   3.015   0.680
 6798SOL     OW21292   4.907   1.080   1.776
 6798SOL    HW121293   4.836   1.040   1.718
 6798SOL    HW221294   4.875   1.083   1.871
 6799SOL     OW21295   6.984   0.058   2.929
 6799SOL    HW121296   6.899   0.049   2.980
 6799SOL    HW221297   6.964   0.092   2.837
 6800SOL     OW21298   6.605   2.902   1.689
 6800SOL    HW121299   6.687   2.848   1.668
 6800SOL    HW221300   6.532   2.878   1.624
 6801SOL     OW21301   1.217   5.793   6.065
 6801SOL    HW121302   1.211   5.729   6.141
 6801SOL    HW221303   1.308   5.836   6.065
 6802SOL     OW21304   2.804   4.644   1.664
 6802SOL    HW121305   2.822   4.742   1.649
 6802SOL    HW221306   2.823   4.621   1.760
 6803SOL     OW21307   5.358   5.243   6.580
 6803SOL    HW121308   5.379   5.265   6.485
 6803SOL    HW221309   5.261   5.260   6.598
 6804SOL     OW21310   3.542   5.394   1.896
 6804SOL    HW121311   3.464   5.439   1.852
 6804SOL    HW221312   3.606   5.362   1.826
 6805SOL     OW21313   0.912   3.964   3.992
 6805SOL    HW121314   0.941   4.060   3.991
 6805SOL    HW221315   0.916   3.928   3.899
 6806SOL     OW21316   5.819   3.417   2.300
 6806SOL    HW121317   5.785   3.325   2.318
 6806SOL    HW221318   5.909   3.412   2.258
 6807SOL     OW21319   3.187   4.086   2.514
 6807SOL    HW121320   3.206   4.096   2.416
 6807SOL    HW221321   3.114   4.149   2.540
 6808SOL     OW21322   3.655   0.304   3.569
 6808SOL    HW121323   3.579   0.352   3.611
 6808SOL    HW221324   3.740   0.352   3.588
 6809SOL     OW21325   5.819   2.682   0.663
 6809SOL    HW121326   5.745   2.620   0.688
 6809SOL    HW221327   5.886   2.634   0.606
 6810SOL     OW21328   2.871   0.680   5.146
 6810SOL    HW121329   2.869   0.754   5.079
 6810SOL    HW221330   2.938   0.701   5.216
 6811SOL     OW21331   6.477   1.828   1.252
 6811SOL    HW121332   6.478   1.775   1.337
 6811SOL    HW221333   6.418   1.908   1.263
 6812SOL     OW21334   3.144   4.543   5.354
 6812SOL    HW121335   3.162   4.460   5.406
 6812SOL    HW221336   3.066   4.528   5.293
 6813SOL     OW21337   0.027   3.997   2.320
 6813SOL    HW121338   0.081   3.930   2.269
 6813SOL    HW221339   6.992   4.051   2.256
 6814SOL     OW21340   5.732   1.459   1.027
 6814SOL    HW121341   5.647   1.508   1.006
 6814SOL    HW221342   5.718   1.400   1.106
 6815SOL     OW21343   0.657   6.060   6.750
 6815SOL    HW121344   0.604   6.134   6.792
 6815SOL    HW221345   0.665   5.984   6.813
 6816SOL     OW21346   6.522   6.674   4.697
 6816SOL    HW121347   6.578   6.658   4.616
 6816SOL    HW221348   6.482   6.765   4.693
 6817SOL     OW21349   5.076   2.160   1.626
 6817SOL    HW121350   5.087   2.242   1.571
 6817SOL    HW221351   5.008   2.177   1.697
 6818SOL     OW21352   0.782   6.879   5.421
 6818SOL    HW121353   0.837   6.847   5.498
 6818SOL    HW221354   0.695   6.915   5.454
 6819SOL     OW21355   4.892   4.528   1.655
 6819SOL    HW121356   4.862   4.599   1.592
 6819SOL    HW221357   4.838   4.445   1.641
 6820SOL     OW21358   3.041   5.215   1.444
 6820SOL    HW121359   3.098   5.149   1.395
 6820SOL    HW221360   3.093   5.299   1.459
 6821SOL     OW21361   3.138   2.889   5.934
 6821SOL    HW121362   3.093   2.919   6.018
 6821SOL    HW221363   3.105   2.944   5.857
 6822SOL     OW21364   5.863   3.715   5.411
 6822SOL    HW121365   5.868   3.665   5.497
 6822SOL    HW221366   5.843   3.812   5.429
 6823SOL     OW21367   0.456   2.361   6.004
 6823SOL    HW121368   0.467   2.315   5.916
 6823SOL    HW221369   0.483   2.299   6.077
 6824SOL     OW21370   1.410   0.611   5.242
 6824SOL    HW121371   1.406   0.619   5.142
 6824SOL    HW221372   1.423   0.515   5.267
 6825SOL     OW21373   4.269   4.201   1.246
 6825SOL    HW121374   4.170   4.195   1.230
 6825SOL    HW221375   4.286   4.205   1.344
 6826SOL     OW21376   5.689   0.410   3.562
 6826SOL    HW121377   5.681   0.376   3.656
 6826SOL    HW221378   5.782   0.396   3.529
 6827SOL     OW21379   4.497   5.796   5.225
 6827SOL    HW121380   4.457   5.878   5.266
 6827SOL    HW221381   4.596   5.804   5.224
 6828SOL     OW21382   3.449   2.006   2.081
 6828SOL    HW121383   3.415   1.974   1.993
 6828SOL    HW221384   3.496   2.093   2.069
 6829SOL     OW21385   4.464   6.910   3.748
 6829SOL    HW121386   4.393   6.853   3.707
 6829SOL    HW221387   4.538   6.852   3.782
 6830SOL     OW21388   3.972   5.363   1.962
 6830SOL    HW121389   3.958   5.457   1.993
 6830SOL    HW221390   3.900   5.305   2.000
 6831SOL     OW21391   1.962   1.216   6.582
 6831SOL    HW121392   1.961   1.249   6.677
 6831SOL    HW221393   2.037   1.261   6.533
 6832SOL     OW21394   2.851   2.423   6.716
 6832SOL    HW121395   2.870   2.483   6.793
 6832SOL    HW221396   2.848   2.476   6.631
 6833SOL     OW21397   3.879   5.062   5.950
 6833SOL    HW121398   3.823   5.135   5.988
 6833SOL    HW221399   3.959   5.101   5.905
 6834SOL     OW21400   6.220   6.361   6.455
 6834SOL    HW121401   6.299   6.368   6.394
 6834SOL    HW221402   6.241   6.402   6.543
 6835SOL     OW21403   3.737   0.946   3.760
 6835SOL    HW121404   3.770   0.851   3.756
 6835SOL    HW221405   3.802   1.005   3.712
 6836SOL     OW21406   0.540   4.168   6.026
 6836SOL    HW121407   0.631   4.188   6.064
 6836SOL    HW221408   0.471   4.219   6.076
 6837SOL     OW21409   6.250   0.643   2.228
 6837SOL    HW121410   6.213   0.735   2.212
 6837SOL    HW221411   6.175   0.581   2.251
 6838SOL     OW21412   2.878   3.681   6.079
 6838SOL    HW121413   2.868   3.776   6.050
 6838SOL    HW221414   2.932   3.630   6.012
 6839SOL     OW21415   5.678   3.222   4.650
 6839SOL    HW121416   5.678   3.289   4.724
 6839SOL    HW221417   5.721   3.138   4.682
 6840SOL     OW21418   2.398   6.296   4.428
 6840SOL    HW121419   2.482   6.251   4.397
 6840SOL    HW221420   2.420   6.382   4.473
 6841SOL     OW21421   4.632   6.784   1.096
 6841SOL    HW121422   4.626   6.786   1.195
 6841SOL    HW221423   4.679   6.700   1.067
 6842SOL     OW21424   0.594   4.023   4.377
 6842SOL    HW121425   0.612   4.026   4.475
 6842SOL    HW221426   0.497   4.043   4.360
 6843SOL     OW21427   4.543   2.841   1.703
 6843SOL    HW121428   4.570   2.906   1.774
 6843SOL    HW221429   4.577   2.872   1.615
 6844SOL     OW21430   3.283   5.851   4.211
 6844SOL    HW121431   3.353   5.803   4.158
 6844SOL    HW221432   3.302   5.840   4.309
 6845SOL     OW21433   4.021   3.942   0.548
 6845SOL    HW121434   4.100   3.887   0.575
 6845SOL    HW221435   4.051   4.031   0.516
 6846SOL     OW21436   3.994   3.379   2.894
 6846SOL    HW121437   4.015   3.369   2.991
 6846SOL    HW221438   3.901   3.346   2.876
 6847SOL     OW21439   6.561   3.597   1.447
 6847SOL    HW121440   6.547   3.585   1.349
 6847SOL    HW221441   6.505   3.674   1.479
 6848SOL     OW21442   6.882   5.980   3.802
 6848SOL    HW121443   6.921   5.968   3.710
 6848SOL    HW221444   6.787   5.948   3.802
 6849SOL     OW21445   3.611   6.767   4.263
 6849SOL    HW121446   3.646   6.807   4.347
 6849SOL    HW221447   3.645   6.820   4.184
 6850SOL     OW21448   5.558   3.359   1.448
 6850SOL    HW121449   5.555   3.285   1.515
 6850SOL    HW221450   5.468   3.366   1.403
 6851SOL     OW21451   1.161   5.394   5.417
 6851SOL    HW121452   1.204   5.320   5.468
 6851SOL    HW221453   1.184   5.386   5.320
 6852SOL     OW21454   6.748   5.298   2.250
 6852SOL    HW121455   6.739   5.359   2.172
 6852SOL    HW221456   6.659   5.288   2.295
 6853SOL     OW21457   6.431   3.955   5.485
 6853SOL    HW121458   6.523   3.916   5.479
 6853SOL    HW221459   6.387   3.951   5.395
 6854SOL     OW21460   0.178   1.957   6.829
 6854SOL    HW121461   0.161   1.965   6.927
 6854SOL    HW221462   0.149   1.867   6.797
 6855SOL     OW21463   3.070   6.713   1.955
 6855SOL    HW121464   3.166   6.713   1.981
 6855SOL    HW221465   3.025   6.630   1.991
 6856SOL     OW21466   0.330   4.765   5.223
 6856SOL    HW121467   0.388   4.846   5.231
 6856SOL    HW221468   0.312   4.746   5.127
 6857SOL     OW21469   3.862   1.352   5.892
 6857SOL    HW121470   3.948   1.398   5.916
 6857SOL    HW221471   3.840   1.371   5.796
 6858SOL     OW21472   3.524   3.057   5.392
 6858SOL    HW121473   3.588   3.133   5.400
 6858SOL    HW221474   3.485   3.056   5.300
 6859SOL     OW21475   3.497   0.654   0.500
 6859SOL    HW121476   3.532   0.579   0.556
 6859SOL    HW221477   3.411   0.627   0.458
 6860SOL     OW21478   4.344   4.505   6.831
 6860SOL    HW121479   4.407   4.428   6.838
 6860SOL    HW221480   4.260   4.475   6.785
 6861SOL     OW21481   5.882   4.087   0.830
 6861SOL    HW121482   5.929   4.130   0.907
 6861SOL    HW221483   5.814   4.150   0.792
 6862SOL     OW21484   2.910   5.228   3.974
 6862SOL    HW121485   2.877   5.290   4.045
 6862SOL    HW221486   2.894   5.269   3.884
 6863SOL     OW21487   0.430   2.939   4.147
 6863SOL    HW121488   0.503   2.996   4.183
 6863SOL    HW221489   0.405   2.870   4.216
 6864SOL     OW21490   4.652   5.683   5.979
 6864SOL    HW121491   4.731   5.733   6.014
 6864SOL    HW221492   4.674   5.645   5.889
 6865SOL     OW21493   6.819   3.209   4.493
 6865SOL    HW121494   6.899   3.190   4.435
 6865SOL    HW221495   6.793   3.305   4.483
 6866SOL     OW21496   0.375   2.918   2.082
 6866SOL    HW121497   0.315   2.980   2.031
 6866SOL    HW221498   0.460   2.906   2.031
 6867SOL     OW21499   2.581   5.424   2.788
 6867SOL    HW121500   2.559   5.444   2.693
 6867SOL    HW221501   2.681   5.426   2.800
 6868SOL     OW21502   1.593   5.415   4.612
 6868SOL    HW121503   1.679   5.449   4.574
 6868SOL    HW221504   1.549   5.487   4.666
 6869SOL     OW21505   6.226   3.157   4.764
 6869SOL    HW121506   6.175   3.231   4.808
 6869SOL    HW221507   6.237   3.081   4.828
 6870SOL     OW21508   5.227   3.297   2.169
 6870SOL    HW121509   5.172   3.350   2.234
 6870SOL    HW221510   5.168   3.232   2.121
 6871SOL     OW21511   4.729   0.006   1.754
 6871SOL    HW121512   4.725   0.106   1.748
 6871SOL    HW221513   4.770   6.990   1.671
 6872SOL     OW21514   2.700   3.262   6.741
 6872SOL    HW121515   2.761   3.326   6.696
 6872SOL    HW221516   2.753   3.193   6.791
 6873SOL     OW21517   5.057   3.961   5.703
 6873SOL    HW121518   5.035   4.007   5.617
 6873SOL    HW221519   5.090   3.869   5.685
 6874SOL     OW21520   1.197   2.582   5.275
 6874SOL    HW121521   1.276   2.635   5.304
 6874SOL    HW221522   1.227   2.494   5.238
 6875SOL     OW21523   3.428   2.059   3.943
 6875SOL    HW121524   3.349   2.006   3.914
 6875SOL    HW221525   3.444   2.134   3.879
 6876SOL     OW21526   3.247   6.315   4.905
 6876SOL    HW121527   3.167   6.352   4.952
 6876SOL    HW221528   3.323   6.380   4.910
 6877SOL     OW21529   2.332   3.668   6.576
 6877SOL    HW121530   2.368   3.575   6.583
 6877SOL    HW221531   2.253   3.678   6.637
 6878SOL     OW21532   1.693   2.155   4.810
 6878SOL    HW121533   1.630   2.210   4.865
 6878SOL    HW221534   1.758   2.110   4.871
 6879SOL     OW21535   1.228   1.085   5.796
 6879SOL    HW121536   1.206   0.989   5.784
 6879SOL    HW221537   1.144   1.138   5.810
 6880SOL     OW21538   1.866   4.069   4.819
 6880SOL    HW121539   1.880   4.138   4.748
 6880SOL    HW221540   1.933   3.995   4.806
 6881SOL     OW21541   6.115   5.388   1.884
 6881SOL    HW121542   6.027   5.343   1.874
 6881SOL    HW221543   6.171   5.337   1.950
 6882SOL     OW21544   2.521   6.304   4.988
 6882SOL    HW121545   2.534   6.367   4.911
 6882SOL    HW221546   2.466   6.348   5.059
 6883SOL     OW21547   3.221   6.297   1.192
 6883SOL    HW121548   3.141   6.299   1.253
 6883SOL    HW221549   3.304   6.287   1.247
 6884SOL     OW21550   2.456   4.936   2.867
 6884SOL    HW121551   2.413   4.889   2.791
 6884SOL    HW221552   2.388   4.987   2.919
 6885SOL     OW21553   3.512   5.654   4.879
 6885SOL    HW121554   3.572   5.620   4.807
 6885SOL    HW221555   3.567   5.686   4.956
 6886SOL     OW21556   5.285   1.843   2.302
 6886SOL    HW121557   5.316   1.855   2.208
 6886SOL    HW221558   5.306   1.925   2.355
 6887SOL     OW21559   4.816   0.883   5.088
 6887SOL    HW121560   4.760   0.803   5.111
 6887SOL    HW221561   4.821   0.892   4.988
 6888SOL     OW21562   5.508   6.552   5.371
 6888SOL    HW121563   5.551   6.560   5.281
 6888SOL    HW221564   5.475   6.458   5.383
 6889SOL     OW21565   1.399   4.256   6.355
 6889SOL    HW121566   1.373   4.208   6.271
 6889SOL    HW221567   1.402   4.354   6.338
 6890SOL     OW21568   2.227   0.753   0.831
 6890SOL    HW121569   2.172   0.747   0.747
 6890SOL    HW221570   2.179   0.812   0.896
 6891SOL     OW21571   3.856   4.985   5.141
 6891SOL    HW121572   3.768   4.989   5.095
 6891SOL    HW221573   3.897   5.077   5.143
 6892SOL     OW21574   3.704   1.215   4.421
 6892SOL    HW121575   3.663   1.138   4.373
 6892SOL    HW221576   3.774   1.257   4.363
 6893SOL     OW21577   6.190   6.793   1.669
 6893SOL    HW121578   6.127   6.862   1.632
 6893SOL    HW221579   6.146   6.703   1.666
 6894SOL     OW21580   6.148   4.678   5.525
 6894SOL    HW121581   6.165   4.695   5.622
 6894SOL    HW221582   6.088   4.749   5.489
 6895SOL     OW21583   3.676   5.172   6.346
 6895SOL    HW121584   3.637   5.082   6.367
 6895SOL    HW221585   3.738   5.199   6.419
 6896SOL     OW21586   4.458   0.444   2.959
 6896SOL    HW121587   4.472   0.523   2.899
 6896SOL    HW221588   4.511   0.456   3.043
 6897SOL     OW21589   3.611   1.790   0.764
 6897SOL    HW121590   3.520   1.833   0.767
 6897SOL    HW221591   3.663   1.829   0.688
 6898SOL     OW21592   3.721   1.533   2.974
 6898SOL    HW121593   3.674   1.519   3.061
 6898SOL    HW221594   3.654   1.531   2.900
 6899SOL     OW21595   5.614   6.449   6.644
 6899SOL    HW121596   5.607   6.399   6.730
 6899SOL    HW221597   5.556   6.531   6.649
 6900SOL     OW21598   4.078   1.144   5.604
 6900SOL    HW121599   4.032   1.084   5.669
 6900SOL    HW221600   4.125   1.217   5.654
 6901SOL     OW21601   1.226   0.791   0.502
 6901SOL    HW121602   1.153   0.724   0.489
 6901SOL    HW221603   1.304   0.765   0.445
 6902SOL     OW21604   6.343   5.287   1.677
 6902SOL    HW121605   6.285   5.292   1.759
 6902SOL    HW221606   6.439   5.284   1.704
 6903SOL     OW21607   4.200   4.464   0.736
 6903SOL    HW121608   4.216   4.420   0.824
 6903SOL    HW221609   4.181   4.394   0.667
 6904SOL     OW21610   0.648   1.766   3.242
 6904SOL    HW121611   0.692   1.822   3.171
 6904SOL    HW221612   0.718   1.715   3.292
 6905SOL     OW21613   4.309   4.726   0.818
 6905SOL    HW121614   4.287   4.805   0.760
 6905SOL    HW221615   4.284   4.642   0.769
 6906SOL     OW21616   4.703   5.900   3.653
 6906SOL    HW121617   4.751   5.987   3.639
 6906SOL    HW221618   4.648   5.879   3.571
 6907SOL     OW21619   3.711   0.985   1.103
 6907SOL    HW121620   3.726   0.901   1.051
 6907SOL    HW221621   3.758   1.061   1.058
 6908SOL     OW21622   6.853   6.729   6.756
 6908SOL    HW121623   6.943   6.725   6.712
 6908SOL    HW221624   6.826   6.824   6.767
 6909SOL     OW21625   4.100   3.104   6.883
 6909SOL    HW121626   4.031   3.032   6.878
 6909SOL    HW221627   4.181   3.069   6.930
 6910SOL     OW21628   6.765   1.368   1.520
 6910SOL    HW121629   6.737   1.295   1.583
 6910SOL    HW221630   6.698   1.377   1.447
 6911SOL     OW21631   4.619   0.712   5.143
 6911SOL    HW121632   4.542   0.757   5.099
 6911SOL    HW221633   4.622   0.616   5.116
 6912SOL     OW21634   4.641   4.984   1.604
 6912SOL    HW121635   4.591   4.898   1.592
 6912SOL    HW221636   4.737   4.963   1.624
 6913SOL     OW21637   4.562   5.923   5.666
 6913SOL    HW121638   4.529   6.013   5.638
 6913SOL    HW221639   4.495   5.853   5.641
 6914SOL     OW21640   6.221   4.973   6.831
 6914SOL    HW121641   6.304   4.993   6.883
 6914SOL    HW221642   6.143   4.963   6.894
 6915SOL     OW21643   1.253   5.520   1.181
 6915SOL    HW121644   1.229   5.493   1.088
 6915SOL    HW221645   1.314   5.599   1.178
 6916SOL     OW21646   6.551   0.770   6.303
 6916SOL    HW121647   6.643   0.757   6.266
 6916SOL    HW221648   6.539   0.713   6.384
 6917SOL     OW21649   4.908   0.156   6.754
 6917SOL    HW121650   4.819   0.114   6.735
 6917SOL    HW221651   4.969   0.139   6.676
 6918SOL     OW21652   1.951   2.892   3.939
 6918SOL    HW121653   1.897   2.823   3.889
 6918SOL    HW221654   2.040   2.854   3.961
 6919SOL     OW21655   1.201   6.371   3.194
 6919SOL    HW121656   1.228   6.440   3.260
 6919SOL    HW221657   1.276   6.305   3.182
 6920SOL     OW21658   4.866   6.850   4.456
 6920SOL    HW121659   4.880   6.754   4.482
 6920SOL    HW221660   4.885   6.909   4.534
 6921SOL     OW21661   0.397   6.537   3.185
 6921SOL    HW121662   0.463   6.490   3.126
 6921SOL    HW221663   0.371   6.477   3.260
 6922SOL     OW21664   1.555   5.804   6.805
 6922SOL    HW121665   1.598   5.733   6.750
 6922SOL    HW221666   1.463   5.822   6.772
 6923SOL     OW21667   4.357   6.981   4.077
 6923SOL    HW121668   4.389   6.891   4.049
 6923SOL    HW221669   4.315   0.007   3.999
 6924SOL     OW21670   6.810   5.822   1.245
 6924SOL    HW121671   6.868   5.902   1.264
 6924SOL    HW221672   6.868   5.743   1.226
 6925SOL     OW21673   6.085   5.406   3.160
 6925SOL    HW121674   6.114   5.338   3.228
 6925SOL    HW221675   5.989   5.391   3.137
 6926SOL     OW21676   3.110   4.116   4.980
 6926SOL    HW121677   3.044   4.191   4.971
 6926SOL    HW221678   3.172   4.136   5.057
 6927SOL     OW21679   3.971   3.332   6.861
 6927SOL    HW121680   4.023   3.247   6.860
 6927SOL    HW221681   4.031   3.408   6.835
 6928SOL     OW21682   6.620   6.928   6.563
 6928SOL    HW121683   6.678   6.956   6.487
 6928SOL    HW221684   6.671   6.934   6.649
 6929SOL     OW21685   3.853   5.087   0.742
 6929SOL    HW121686   3.853   5.187   0.735
 6929SOL    HW221687   3.915   5.059   0.814
 6930SOL     OW21688   1.082   0.027   3.264
 6930SOL    HW121689   1.028   0.102   3.303
 6930SOL    HW221690   1.052   6.961   3.304
 6931SOL     OW21691   1.787   0.723   1.926
 6931SOL    HW121692   1.851   0.680   1.989
 6931SOL    HW221693   1.836   0.755   1.845
 6932SOL     OW21694   2.550   2.118   0.349
 6932SOL    HW121695   2.623   2.144   0.286
 6932SOL    HW221696   2.500   2.040   0.312
 6933SOL     OW21697   2.941   6.312   0.039
 6933SOL    HW121698   2.916   6.314   0.135
 6933SOL    HW221699   3.040   6.326   0.030
 6934SOL     OW21700   5.650   4.373   6.243
 6934SOL    HW121701   5.554   4.389   6.218
 6934SOL    HW221702   5.695   4.460   6.261
 6935SOL     OW21703   4.316   5.623   3.383
 6935SOL    HW121704   4.221   5.651   3.397
 6935SOL    HW221705   4.376   5.679   3.440
 6936SOL     OW21706   1.028   4.997   1.152
 6936SOL    HW121707   1.010   5.057   1.231
 6936SOL    HW221708   0.944   4.987   1.099
 6937SOL     OW21709   4.552   6.119   6.110
 6937SOL    HW121710   4.514   6.032   6.143
 6937SOL    HW221711   4.602   6.163   6.184
 6938SOL     OW21712   5.701   1.945   5.204
 6938SOL    HW121713   5.687   1.957   5.105
 6938SOL    HW221714   5.799   1.951   5.224
 6939SOL     OW21715   0.276   5.068   2.453
 6939SOL    HW121716   0.344   5.017   2.505
 6939SOL    HW221717   0.288   5.166   2.467
 6940SOL     OW21718   4.109   0.983   4.867
 6940SOL    HW121719   4.110   0.911   4.798
 6940SOL    HW221720   4.151   1.066   4.831
 6941SOL     OW21721   3.738   3.052   3.560
 6941SOL    HW121722   3.715   2.978   3.623
 6941SOL    HW221723   3.731   3.020   3.466
 6942SOL     OW21724   6.926   1.812   0.387
 6942SOL    HW121725   6.881   1.889   0.432
 6942SOL    HW221726   6.996   1.774   0.448
 6943SOL     OW21727   5.793   6.369   0.065
 6943SOL    HW121728   5.700   6.333   0.069
 6943SOL    HW221729   5.853   6.304   0.018
 6944SOL     OW21730   1.029   6.360   6.141
 6944SOL    HW121731   1.103   6.344   6.076
 6944SOL    HW221732   1.049   6.309   6.225
 6945SOL     OW21733   4.466   1.955   5.475
 6945SOL    HW121734   4.441   1.860   5.490
 6945SOL    HW221735   4.466   2.004   5.562
 6946SOL     OW21736   5.576   3.915   3.912
 6946SOL    HW121737   5.491   3.949   3.954
 6946SOL    HW221738   5.588   3.959   3.822
 6947SOL     OW21739   3.640   0.255   2.778
 6947SOL    HW121740   3.548   0.269   2.814
 6947SOL    HW221741   3.685   0.183   2.830
 6948SOL     OW21742   3.953   2.076   4.742
 6948SOL    HW121743   3.998   2.144   4.800
 6948SOL    HW221744   3.892   2.121   4.678
 6949SOL     OW21745   4.762   0.793   2.227
 6949SOL    HW121746   4.846   0.847   2.230
 6949SOL    HW221747   4.751   0.753   2.136
 6950SOL     OW21748   2.380   1.140   3.800
 6950SOL    HW121749   2.387   1.090   3.714
 6950SOL    HW221750   2.403   1.236   3.785
 6951SOL     OW21751   5.625   5.447   5.458
 6951SOL    HW121752   5.542   5.406   5.497
 6951SOL    HW221753   5.697   5.378   5.453
 6952SOL     OW21754   0.397   5.420   4.705
 6952SOL    HW121755   0.483   5.374   4.726
 6952SOL    HW221756   0.328   5.392   4.772
 6953SOL     OW21757   5.486   2.360   5.506
 6953SOL    HW121758   5.429   2.389   5.429
 6953SOL    HW221759   5.430   2.349   5.588
 6954SOL     OW21760   0.676   5.735   2.722
 6954SOL    HW121761   0.581   5.732   2.690
 6954SOL    HW221762   0.709   5.829   2.720
 6955SOL     OW21763   6.646   5.875   3.085
 6955SOL    HW121764   6.636   5.974   3.073
 6955SOL    HW221765   6.677   5.856   3.178
 6956SOL     OW21766   3.395   4.853   0.988
 6956SOL    HW121767   3.480   4.904   0.971
 6956SOL    HW221768   3.396   4.818   1.081
 6957SOL     OW21769   0.591   3.826   0.514
 6957SOL    HW121770   0.563   3.730   0.520
 6957SOL    HW221771   0.677   3.839   0.564
 6958SOL     OW21772   2.102   3.736   6.119
 6958SOL    HW121773   2.167   3.714   6.192
 6958SOL    HW221774   2.131   3.819   6.072
 6959SOL     OW21775   3.493   1.068   3.685
 6959SOL    HW121776   3.591   1.049   3.685
 6959SOL    HW221777   3.445   0.990   3.726
 6960SOL     OW21778   6.819   4.768   0.081
 6960SOL    HW121779   6.903   4.764   0.135
 6960SOL    HW221780   6.773   4.856   0.098
 6961SOL     OW21781   6.714   1.039   3.069
 6961SOL    HW121782   6.790   1.102   3.057
 6961SOL    HW221783   6.735   0.952   3.026
 6962SOL     OW21784   3.743   3.415   0.939
 6962SOL    HW121785   3.686   3.399   0.859
 6962SOL    HW221786   3.839   3.416   0.912
 6963SOL     OW21787   6.054   5.838   2.184
 6963SOL    HW121788   6.041   5.937   2.190
 6963SOL    HW221789   6.144   5.819   2.143
 6964SOL     OW21790   3.347   6.076   4.819
 6964SOL    HW121791   3.296   6.148   4.866
 6964SOL    HW221792   3.380   6.110   4.731
 6965SOL     OW21793   6.599   3.210   5.598
 6965SOL    HW121794   6.663   3.137   5.572
 6965SOL    HW221795   6.641   3.266   5.669
 6966SOL     OW21796   4.816   2.686   3.705
 6966SOL    HW121797   4.759   2.714   3.782
 6966SOL    HW221798   4.828   2.763   3.643
 6967SOL     OW21799   2.127   1.918   6.230
 6967SOL    HW121800   2.180   1.860   6.169
 6967SOL    HW221801   2.152   1.898   6.325
 6968SOL     OW21802   4.678   6.743   2.320
 6968SOL    HW121803   4.607   6.772   2.385
 6968SOL    HW221804   4.683   6.809   2.245
 6969SOL     OW21805   2.968   1.905   1.249
 6969SOL    HW121806   3.031   1.893   1.326
 6969SOL    HW221807   3.018   1.938   1.169
 6970SOL     OW21808   4.609   3.843   0.543
 6970SOL    HW121809   4.636   3.764   0.488
 6970SOL    HW221810   4.689   3.880   0.590
 6971SOL     OW21811   5.496   0.623   2.353
 6971SOL    HW121812   5.400   0.601   2.333
 6971SOL    HW221813   5.504   0.660   2.445
 6972SOL     OW21814   5.580   5.019   4.866
 6972SOL    HW121815   5.541   4.956   4.933
 6972SOL    HW221816   5.672   4.989   4.841
 6973SOL     OW21817   1.668   4.632   3.563
 6973SOL    HW121818   1.764   4.643   3.540
 6973SOL    HW221819   1.658   4.630   3.663
 6974SOL     OW21820   3.490   4.138   4.366
 6974SOL    HW121821   3.455   4.045   4.353
 6974SOL    HW221822   3.568   4.153   4.305
 6975SOL     OW21823   3.644   1.101   5.691
 6975SOL    HW121824   3.562   1.151   5.719
 6975SOL    HW221825   3.645   1.091   5.592
 6976SOL     OW21826   1.865   5.323   6.973
 6976SOL    HW121827   1.850   5.313   0.051
 6976SOL    HW221828   1.926   5.400   6.957
 6977SOL     OW21829   4.094   2.235   2.896
 6977SOL    HW121830   4.030   2.159   2.882
 6977SOL    HW221831   4.105   2.286   2.810
 6978SOL     OW21832   6.440   0.811   2.949
 6978SOL    HW121833   6.417   0.874   3.022
 6978SOL    HW221834   6.538   0.792   2.950
 6979SOL     OW21835   0.534   4.332   3.446
 6979SOL    HW121836   0.567   4.249   3.400
 6979SOL    HW221837   0.446   4.359   3.406
 6980SOL     OW21838   3.637   1.555   4.240
 6980SOL    HW121839   3.595   1.619   4.176
 6980SOL    HW221840   3.736   1.565   4.237
 6981SOL     OW21841   2.525   4.984   6.516
 6981SOL    HW121842   2.523   4.907   6.452
 6981SOL    HW221843   2.592   5.052   6.485
 6982SOL     OW21844   0.320   6.782   4.798
 6982SOL    HW121845   0.419   6.794   4.795
 6982SOL    HW221846   0.296   6.693   4.760
 6983SOL     OW21847   6.194   0.850   4.159
 6983SOL    HW121848   6.211   0.869   4.062
 6983SOL    HW221849   6.181   0.936   4.208
 6984SOL     OW21850   2.677   1.076   6.365
 6984SOL    HW121851   2.599   1.031   6.320
 6984SOL    HW221852   2.673   1.058   6.463
 6985SOL     OW21853   4.998   5.885   2.322
 6985SOL    HW121854   5.081   5.918   2.276
 6985SOL    HW221855   5.006   5.900   2.420
 6986SOL     OW21856   2.144   6.962   4.687
 6986SOL    HW121857   2.117   6.927   4.598
 6986SOL    HW221858   2.088   6.920   4.758
 6987SOL     OW21859   6.689   3.587   6.877
 6987SOL    HW121860   6.659   3.529   6.801
 6987SOL    HW221861   6.608   3.625   6.923
 6988SOL     OW21862   4.976   1.289   5.258
 6988SOL    HW121863   4.977   1.198   5.301
 6988SOL    HW221864   4.897   1.340   5.291
 6989SOL     OW21865   1.379   2.717   4.055
 6989SOL    HW121866   1.332   2.710   4.143
 6989SOL    HW221867   1.360   2.806   4.014
 6990SOL     OW21868   3.908   3.146   0.539
 6990SOL    HW121869   3.884   3.235   0.579
 6990SOL    HW221870   3.921   3.079   0.612
 6991SOL     OW21871   4.451   4.355   5.352
 6991SOL    HW121872   4.384   4.365   5.278
 6991SOL    HW221873   4.480   4.260   5.358
 6992SOL     OW21874   5.912   5.984   5.560
 6992SOL    HW121875   6.001   5.945   5.584
 6992SOL    HW221876   5.843   5.951   5.624
 6993SOL     OW21877   0.565   6.348   3.461
 6993SOL    HW121878   0.539   6.425   3.519
 6993SOL    HW221879   0.621   6.380   3.385
 6994SOL     OW21880   1.597   2.927   0.108
 6994SOL    HW121881   1.543   2.891   0.033
 6994SOL    HW221882   1.548   2.913   0.194
 6995SOL     OW21883   0.678   5.006   3.553
 6995SOL    HW121884   0.743   5.072   3.590
 6995SOL    HW221885   0.585   5.040   3.563
 6996SOL     OW21886   2.498   6.947   5.639
 6996SOL    HW121887   2.412   6.981   5.599
 6996SOL    HW221888   2.505   6.979   5.734
 6997SOL     OW21889   5.180   0.171   4.348
 6997SOL    HW121890   5.155   0.160   4.251
 6997SOL    HW221891   5.238   0.094   4.376
 6998SOL     OW21892   1.402   2.502   3.330
 6998SOL    HW121893   1.325   2.536   3.277
 6998SOL    HW221894   1.487   2.523   3.282
 6999SOL     OW21895   4.140   1.902   6.476
 6999SOL    HW121896   4.211   1.834   6.456
 6999SOL    HW221897   4.086   1.919   6.393
 7000SOL     OW21898   6.502   6.456   1.176
 7000SOL    HW121899   6.417   6.420   1.138
 7000SOL    HW221900   6.521   6.545   1.135
 7001SOL     OW21901   2.916   1.952   5.589
 7001SOL    HW121902   2.834   1.919   5.543
 7001SOL    HW221903   2.975   1.999   5.523
 7002SOL     OW21904   2.056   5.211   2.834
 7002SOL    HW121905   2.044   5.195   2.736
 7002SOL    HW221906   1.977   5.262   2.869
 7003SOL     OW21907   2.432   6.189   0.203
 7003SOL    HW121908   2.521   6.148   0.222
 7003SOL    HW221909   2.443   6.287   0.189
 7004SOL     OW21910   1.221   5.045   0.991
 7004SOL    HW121911   1.225   4.974   0.921
 7004SOL    HW221912   1.143   5.027   1.052
 7005SOL     OW21913   5.641   6.708   5.552
 7005SOL    HW121914   5.587   6.647   5.493
 7005SOL    HW221915   5.720   6.742   5.502
 7006SOL     OW21916   4.275   4.810   4.871
 7006SOL    HW121917   4.315   4.730   4.916
 7006SOL    HW221918   4.181   4.822   4.901
 7007SOL     OW21919   5.239   5.218   2.455
 7007SOL    HW121920   5.193   5.210   2.543
 7007SOL    HW221921   5.171   5.220   2.382
 7008SOL     OW21922   1.114   4.905   4.230
 7008SOL    HW121923   1.151   4.812   4.224
 7008SOL    HW221924   1.188   4.970   4.246
 7009SOL     OW21925   0.222   4.677   2.650
 7009SOL    HW121926   0.186   4.690   2.742
 7009SOL    HW221927   0.322   4.674   2.653
 7010SOL     OW21928   3.929   4.683   6.371
 7010SOL    HW121929   3.855   4.686   6.438
 7010SOL    HW221930   3.920   4.759   6.307
 7011SOL     OW21931   2.513   1.302   4.753
 7011SOL    HW121932   2.555   1.371   4.812
 7011SOL    HW221933   2.459   1.239   4.808
 7012SOL     OW21934   1.364   1.236   1.742
 7012SOL    HW121935   1.313   1.191   1.669
 7012SOL    HW221936   1.300   1.264   1.814
 7013SOL     OW21937   0.990   1.005   2.492
 7013SOL    HW121938   0.914   0.958   2.448
 7013SOL    HW221939   1.006   0.965   2.582
 7014SOL     OW21940   2.485   5.050   1.495
 7014SOL    HW121941   2.501   4.958   1.461
 7014SOL    HW221942   2.505   5.116   1.423
 7015SOL     OW21943   4.964   2.427   2.042
 7015SOL    HW121944   4.892   2.413   2.110
 7015SOL    HW221945   4.976   2.525   2.026
 7016SOL     OW21946   3.211   4.541   1.036
 7016SOL    HW121947   3.119   4.522   1.069
 7016SOL    HW221948   3.277   4.517   1.107
 7017SOL     OW21949   4.514   1.547   4.077
 7017SOL    HW121950   4.450   1.471   4.091
 7017SOL    HW221951   4.476   1.611   4.011
 7018SOL     OW21952   0.235   5.172   3.228
 7018SOL    HW121953   0.149   5.212   3.197
 7018SOL    HW221954   0.234   5.165   3.328
 7019SOL     OW21955   1.961   6.214   0.887
 7019SOL    HW121956   1.903   6.287   0.853
 7019SOL    HW221957   1.932   6.127   0.846
 7020SOL     OW21958   0.287   6.501   5.904
 7020SOL    HW121959   0.323   6.496   5.810
 7020SOL    HW221960   0.358   6.472   5.968
 7021SOL     OW21961   3.647   0.279   5.537
 7021SOL    HW121962   3.694   0.356   5.581
 7021SOL    HW221963   3.553   0.275   5.569
 7022SOL     OW21964   4.958   4.963   6.103
 7022SOL    HW121965   4.909   5.037   6.150
 7022SOL    HW221966   5.054   4.990   6.092
 7023SOL     OW21967   5.934   4.019   2.932
 7023SOL    HW121968   6.022   3.973   2.921
 7023SOL    HW221969   5.948   4.117   2.941
 7024SOL     OW21970   0.051   6.057   1.054
 7024SOL    HW121971   7.016   6.063   1.137
 7024SOL    HW221972   0.003   6.102   0.979
 7025SOL     OW21973   2.738   0.398   6.353
 7025SOL    HW121974   2.681   0.325   6.392
 7025SOL    HW221975   2.685   0.482   6.346
 7026SOL     OW21976   3.742   1.645   0.959
 7026SOL    HW121977   3.719   1.722   0.899
 7026SOL    HW221978   3.819   1.671   1.018
 7027SOL     OW21979   4.473   6.784   4.410
 7027SOL    HW121980   4.511   6.787   4.503
 7027SOL    HW221981   4.542   6.750   4.347
 7028SOL     OW21982   3.374   6.660   4.035
 7028SOL    HW121983   3.376   6.629   4.130
 7028SOL    HW221984   3.467   6.667   4.000
 7029SOL     OW21985   3.855   0.262   4.898
 7029SOL    HW121986   3.813   0.347   4.868
 7029SOL    HW221987   3.821   0.186   4.842
 7030SOL     OW21988   1.963   3.594   3.628
 7030SOL    HW121989   1.868   3.619   3.648
 7030SOL    HW221990   1.979   3.601   3.530
 7031SOL     OW21991   2.096   6.987   5.230
 7031SOL    HW121992   2.146   6.912   5.188
 7031SOL    HW221993   2.020   6.950   5.284
 7032SOL     OW21994   6.374   2.217   2.921
 7032SOL    HW121995   6.391   2.282   2.995
 7032SOL    HW221996   6.449   2.151   2.916
 7033SOL     OW21997   6.694   0.026   4.827
 7033SOL    HW121998   6.728   6.981   4.895
 7033SOL    HW221999   6.665   6.997   4.745
 7034SOL     OW22000   6.760   5.754   2.729
 7034SOL    HW122001   6.856   5.779   2.716
 7034SOL    HW222002   6.702   5.815   2.675
 7035SOL     OW22003   6.497   5.175   2.254
 7035SOL    HW122004   6.433   5.202   2.326
 7035SOL    HW222005   6.500   5.076   2.247
 7036SOL     OW22006   6.542   4.101   1.337
 7036SOL    HW122007   6.605   4.143   1.272
 7036SOL    HW222008   6.582   4.102   1.429
 7037SOL     OW22009   0.926   0.255   0.170
 7037SOL    HW122010   0.924   0.167   0.121
 7037SOL    HW222011   0.993   0.315   0.127
 7038SOL     OW22012   2.001   3.985   4.180
 7038SOL    HW122013   2.051   3.999   4.266
 7038SOL    HW222014   2.034   3.902   4.135
 7039SOL     OW22015   4.336   1.829   6.059
 7039SOL    HW122016   4.353   1.926   6.073
 7039SOL    HW222017   4.258   1.816   5.998
 7040SOL     OW22018   4.719   2.472   6.264
 7040SOL    HW122019   4.635   2.428   6.295
 7040SOL    HW222020   4.728   2.562   6.307
 7041SOL     OW22021   2.677   1.281   2.648
 7041SOL    HW122022   2.682   1.244   2.556
 7041SOL    HW222023   2.582   1.284   2.678
 7042SOL     OW22024   1.844   0.529   6.766
 7042SOL    HW122025   1.933   0.544   6.810
 7042SOL    HW222026   1.804   0.617   6.740
 7043SOL     OW22027   1.466   2.313   2.910
 7043SOL    HW122028   1.506   2.222   2.900
 7043SOL    HW222029   1.371   2.305   2.942
 7044SOL     OW22030   4.930   6.175   2.224
 7044SOL    HW122031   4.922   6.093   2.168
 7044SOL    HW222032   4.845   6.227   2.218
 7045SOL     OW22033   5.950   5.046   1.127
 7045SOL    HW122034   5.941   4.965   1.068
 7045SOL    HW222035   6.039   5.088   1.112
 7046SOL     OW22036   2.754   0.863   4.296
 7046SOL    HW122037   2.772   0.765   4.292
 7046SOL    HW222038   2.666   0.879   4.340
 7047SOL     OW22039   2.152   1.250   4.145
 7047SOL    HW122040   2.233   1.199   4.173
 7047SOL    HW222041   2.177   1.315   4.073
 7048SOL     OW22042   6.568   6.590   0.646
 7048SOL    HW122043   6.645   6.652   0.626
 7048SOL    HW222044   6.519   6.570   0.562
 7049SOL     OW22045   1.816   0.915   0.623
 7049SOL    HW122046   1.735   0.896   0.679
 7049SOL    HW222047   1.831   1.013   0.618
 7050SOL     OW22048   4.243   3.582   5.230
 7050SOL    HW122049   4.268   3.488   5.208
 7050SOL    HW222050   4.322   3.631   5.265
 7051SOL     OW22051   6.703   6.572   2.258
 7051SOL    HW122052   6.724   6.624   2.340
 7051SOL    HW222053   6.779   6.580   2.194
 7052SOL     OW22054   6.711   1.719   3.696
 7052SOL    HW122055   6.617   1.685   3.689
 7052SOL    HW222056   6.742   1.748   3.606
 7053SOL     OW22057   6.179   4.345   5.828
 7053SOL    HW122058   6.161   4.340   5.730
 7053SOL    HW222059   6.179   4.253   5.867
 7054SOL     OW22060   6.479   0.268   1.954
 7054SOL    HW122061   6.492   0.267   1.855
 7054SOL    HW222062   6.476   0.362   1.987
 7055SOL     OW22063   3.598   0.031   5.411
 7055SOL    HW122064   3.518   0.011   5.468
 7055SOL    HW222065   3.618   0.129   5.415
 7056SOL     OW22066   4.973   4.876   4.276
 7056SOL    HW122067   5.057   4.822   4.283
 7056SOL    HW222068   4.964   4.911   4.182
 7057SOL     OW22069   0.390   6.131   3.172
 7057SOL    HW122070   0.407   6.041   3.132
 7057SOL    HW222071   0.411   6.128   3.270
 7058SOL     OW22072   0.092   5.369   5.257
 7058SOL    HW122073   0.023   5.425   5.303
 7058SOL    HW222074   0.119   5.414   5.172
 7059SOL     OW22075   1.966   0.609   2.445
 7059SOL    HW122076   1.999   0.514   2.445
 7059SOL    HW222077   2.039   0.668   2.479
 7060SOL     OW22078   3.380   0.098   1.390
 7060SOL    HW122079   3.409   0.032   1.321
 7060SOL    HW222080   3.369   0.188   1.347
 7061SOL     OW22081   0.367   0.832   2.735
 7061SOL    HW122082   0.445   0.837   2.672
 7061SOL    HW222083   0.351   0.737   2.760
 7062SOL     OW22084   6.233   1.429   5.174
 7062SOL    HW122085   6.215   1.340   5.216
 7062SOL    HW222086   6.147   1.480   5.167
 7063SOL     OW22087   2.597   0.085   1.536
 7063SOL    HW122088   2.640   7.015   1.537
 7063SOL    HW222089   2.502   0.078   1.566
 7064SOL     OW22090   4.353   2.302   0.450
 7064SOL    HW122091   4.429   2.238   0.462
 7064SOL    HW222092   4.381   2.393   0.482
 7065SOL     OW22093   4.205   4.095   1.722
 7065SOL    HW122094   4.240   4.007   1.688
 7065SOL    HW222095   4.281   4.147   1.763
 7066SOL     OW22096   3.206   6.421   0.693
 7066SOL    HW122097   3.145   6.487   0.738
 7066SOL    HW222098   3.260   6.374   0.762
 7067SOL     OW22099   0.106   4.032   4.746
 7067SOL    HW122100   0.109   4.109   4.683
 7067SOL    HW222101   0.183   4.038   4.810
 7068SOL     OW22102   1.048   0.950   2.758
 7068SOL    HW122103   1.087   1.033   2.798
 7068SOL    HW222104   1.055   0.875   2.823
 7069SOL     OW22105   1.559   3.856   4.838
 7069SOL    HW122106   1.614   3.785   4.794
 7069SOL    HW222107   1.555   3.937   4.779
 7070SOL     OW22108   5.117   6.058   4.349
 7070SOL    HW122109   5.169   5.979   4.318
 7070SOL    HW222110   5.178   6.121   4.398
 7071SOL     OW22111   1.673   6.407   5.319
 7071SOL    HW122112   1.608   6.479   5.295
 7071SOL    HW222113   1.648   6.322   5.271
 7072SOL     OW22114   6.835   6.266   6.476
 7072SOL    HW122115   6.787   6.349   6.448
 7072SOL    HW222116   6.778   6.186   6.456
 7073SOL     OW22117   1.360   1.255   6.584
 7073SOL    HW122118   1.370   1.266   6.683
 7073SOL    HW222119   1.270   1.289   6.556
 7074SOL     OW22120   3.033   2.178   0.862
 7074SOL    HW122121   3.114   2.223   0.824
 7074SOL    HW222122   3.061   2.098   0.915
 7075SOL     OW22123   1.035   5.791   3.062
 7075SOL    HW122124   1.013   5.879   3.019
 7075SOL    HW222125   0.953   5.754   3.105
 7076SOL     OW22126   3.178   2.505   6.879
 7076SOL    HW122127   3.277   2.501   6.870
 7076SOL    HW222128   3.147   2.600   6.874
 7077SOL     OW22129   1.850   5.045   5.620
 7077SOL    HW122130   1.806   5.119   5.672
 7077SOL    HW222131   1.783   5.003   5.559
 7078SOL     OW22132   6.759   0.562   3.150
 7078SOL    HW122133   6.785   0.465   3.150
 7078SOL    HW222134   6.662   0.570   3.129
 7079SOL     OW22135   5.245   5.632   5.511
 7079SOL    HW122136   5.316   5.573   5.549
 7079SOL    HW222137   5.231   5.610   5.415
 7080SOL     OW22138   5.700   0.163   4.068
 7080SOL    HW122139   5.799   0.154   4.064
 7080SOL    HW222140   5.661   0.087   4.121
 7081SOL     OW22141   3.507   0.935   5.343
 7081SOL    HW122142   3.507   0.863   5.412
 7081SOL    HW222143   3.576   1.003   5.366
 7082SOL     OW22144   5.618   1.215   6.423
 7082SOL    HW122145   5.561   1.212   6.341
 7082SOL    HW222146   5.711   1.188   6.401
 7083SOL     OW22147   3.720   6.539   5.794
 7083SOL    HW122148   3.745   6.606   5.724
 7083SOL    HW222149   3.790   6.537   5.865
 7084SOL     OW22150   6.187   6.598   0.577
 7084SOL    HW122151   6.094   6.635   0.577
 7084SOL    HW222152   6.191   6.519   0.638
 7085SOL     OW22153   2.788   2.763   0.755
 7085SOL    HW122154   2.755   2.692   0.693
 7085SOL    HW222155   2.710   2.805   0.803
 7086SOL     OW22156   6.757   0.868   6.614
 7086SOL    HW122157   6.755   0.896   6.710
 7086SOL    HW222158   6.717   0.776   6.606
 7087SOL     OW22159   1.977   2.587   4.290
 7087SOL    HW122160   2.065   2.592   4.336
 7087SOL    HW222161   1.935   2.678   4.286
 7088SOL     OW22162   0.104   2.386   5.416
 7088SOL    HW122163   0.166   2.463   5.434
 7088SOL    HW222164   0.063   2.397   5.326
 7089SOL     OW22165   2.853   1.935   0.210
 7089SOL    HW122166   2.772   1.886   0.177
 7089SOL    HW222167   2.830   2.031   0.226
 7090SOL     OW22168   2.353   2.788   4.568
 7090SOL    HW122169   2.329   2.770   4.663
 7090SOL    HW222170   2.441   2.836   4.564
 7091SOL     OW22171   0.358   6.292   0.118
 7091SOL    HW122172   0.365   6.294   0.218
 7091SOL    HW222173   0.294   6.221   0.090
 7092SOL     OW22174   3.121   3.429   6.823
 7092SOL    HW122175   3.151   3.524   6.826
 7092SOL    HW222176   3.192   3.370   6.861
 7093SOL     OW22177   3.570   2.896   4.786
 7093SOL    HW122178   3.521   2.860   4.865
 7093SOL    HW222179   3.649   2.948   4.816
 7094SOL     OW22180   1.086   0.695   5.971
 7094SOL    HW122181   1.043   0.657   5.889
 7094SOL    HW222182   1.071   0.633   6.048
 7095SOL     OW22183   0.472   3.207   6.466
 7095SOL    HW122184   0.504   3.206   6.561
 7095SOL    HW222185   0.546   3.235   6.406
 7096SOL     OW22186   5.243   0.990   2.300
 7096SOL    HW122187   5.186   1.071   2.310
 7096SOL    HW222188   5.330   1.004   2.347
 7097SOL     OW22189   0.595   1.096   1.892
 7097SOL    HW122190   0.609   1.179   1.838
 7097SOL    HW222191   0.512   1.050   1.861
 7098SOL     OW22192   1.849   6.772   5.821
 7098SOL    HW122193   1.854   6.759   5.920
 7098SOL    HW222194   1.815   6.690   5.777
 7099SOL     OW22195   0.674   0.814   6.445
 7099SOL    HW122196   0.679   0.900   6.494
 7099SOL    HW222197   0.676   0.738   6.510
 7100SOL     OW22198   5.591   2.706   1.159
 7100SOL    HW122199   5.583   2.721   1.060
 7100SOL    HW222200   5.518   2.646   1.190
 7101SOL     OW22201   1.878   0.074   4.434
 7101SOL    HW122202   1.815   0.099   4.509
 7101SOL    HW222203   1.826   0.065   4.349
 7102SOL     OW22204   4.442   2.553   0.497
 7102SOL    HW122205   4.453   2.556   0.597
 7102SOL    HW222206   4.500   2.624   0.456
 7103SOL     OW22207   3.457   6.508   6.333
 7103SOL    HW122208   3.532   6.477   6.275
 7103SOL    HW222209   3.401   6.429   6.359
 7104SOL     OW22210   1.003   1.716   2.428
 7104SOL    HW122211   1.002   1.815   2.416
 7104SOL    HW222212   1.095   1.687   2.453
 7105SOL     OW22213   2.671   4.091   5.324
 7105SOL    HW122214   2.757   4.077   5.275
 7105SOL    HW222215   2.602   4.027   5.289
 7106SOL     OW22216   3.046   2.562   5.376
 7106SOL    HW122217   2.970   2.601   5.324
 7106SOL    HW222218   3.100   2.501   5.317
 7107SOL     OW22219   3.036   0.778   6.953
 7107SOL    HW122220   3.096   0.842   6.906
 7107SOL    HW222221   2.946   0.779   6.910
 7108SOL     OW22222   4.412   6.906   1.541
 7108SOL    HW122223   4.439   7.001   1.556
 7108SOL    HW222224   4.315   6.895   1.565
 7109SOL     OW22225   3.508   6.149   6.538
 7109SOL    HW122226   3.595   6.192   6.515
 7109SOL    HW222227   3.510   6.053   6.508
 7110SOL     OW22228   4.007   4.790   3.695
 7110SOL    HW122229   3.944   4.866   3.715
 7110SOL    HW222230   4.031   4.743   3.780
 7111SOL     OW22231   1.529   2.758   3.428
 7111SOL    HW122232   1.557   2.815   3.351
 7111SOL    HW222233   1.429   2.759   3.435
 7112SOL     OW22234   1.149   6.682   2.828
 7112SOL    HW122235   1.081   6.701   2.899
 7112SOL    HW222236   1.232   6.735   2.846
 7113SOL     OW22237   3.826   4.104   4.456
 7113SOL    HW122238   3.776   4.159   4.523
 7113SOL    HW222239   3.872   4.029   4.502
 7114SOL     OW22240   4.016   0.996   1.077
 7114SOL    HW122241   4.065   0.949   1.003
 7114SOL    HW222242   4.003   0.933   1.153
 7115SOL     OW22243   4.305   2.070   1.139
 7115SOL    HW122244   4.313   2.113   1.050
 7115SOL    HW222245   4.228   2.111   1.189
 7116SOL     OW22246   5.933   3.478   2.541
 7116SOL    HW122247   5.902   3.475   2.446
 7116SOL    HW222248   5.899   3.397   2.589
 7117SOL     OW22249   6.041   6.575   1.671
 7117SOL    HW122250   5.954   6.549   1.714
 7117SOL    HW222251   6.072   6.501   1.612
 7118SOL     OW22252   6.819   3.340   1.682
 7118SOL    HW122253   6.727   3.304   1.669
 7118SOL    HW222254   6.886   3.268   1.663
 7119SOL     OW22255   6.632   1.514   2.974
 7119SOL    HW122256   6.726   1.525   2.941
 7119SOL    HW222257   6.608   1.417   2.973
 7120SOL     OW22258   5.289   0.187   3.314
 7120SOL    HW122259   5.312   0.200   3.410
 7120SOL    HW222260   5.224   0.112   3.304
 7121SOL     OW22261   3.302   6.109   2.207
 7121SOL    HW122262   3.381   6.114   2.146
 7121SOL    HW222263   3.314   6.176   2.281
 7122SOL     OW22264   6.685   0.939   6.861
 7122SOL    HW122265   6.744   1.019   6.871
 7122SOL    HW222266   6.590   0.966   6.881
 7123SOL     OW22267   2.478   4.751   1.387
 7123SOL    HW122268   2.395   4.717   1.342
 7123SOL    HW222269   2.529   4.675   1.426
 7124SOL     OW22270   0.868   5.467   1.237
 7124SOL    HW122271   0.928   5.531   1.285
 7124SOL    HW222272   0.901   5.373   1.253
 7125SOL     OW22273   6.514   6.340   2.282
 7125SOL    HW122274   6.555   6.320   2.371
 7125SOL    HW222275   6.550   6.427   2.248
 7126SOL     OW22276   0.782   4.575   0.334
 7126SOL    HW122277   0.785   4.479   0.307
 7126SOL    HW222278   0.818   4.586   0.426
 7127SOL     OW22279   3.605   6.977   4.554
 7127SOL    HW122280   3.570   6.921   4.629
 7127SOL    HW222281   3.681   6.931   4.510
 7128SOL     OW22282   2.607   4.575   1.521
 7128SOL    HW122283   2.686   4.588   1.582
 7128SOL    HW222284   2.523   4.576   1.575
 7129SOL     OW22285   2.577   1.392   1.701
 7129SOL    HW122286   2.536   1.356   1.785
 7129SOL    HW222287   2.640   1.467   1.724
 7130SOL     OW22288   2.341   5.783   2.159
 7130SOL    HW122289   2.291   5.706   2.120
 7130SOL    HW222290   2.304   5.869   2.123
 7131SOL     OW22291   2.997   0.904   3.094
 7131SOL    HW122292   3.094   0.926   3.089
 7131SOL    HW222293   2.958   0.906   3.002
 7132SOL     OW22294   3.418   4.143   2.988
 7132SOL    HW122295   3.396   4.148   2.890
 7132SOL    HW222296   3.337   4.113   3.039
 7133SOL     OW22297   5.227   4.877   2.571
 7133SOL    HW122298   5.195   4.890   2.665
 7133SOL    HW222299   5.258   4.964   2.534
 7134SOL     OW22300   5.289   3.911   3.670
 7134SOL    HW122301   5.300   3.950   3.578
 7134SOL    HW222302   5.256   3.816   3.662
 7135SOL     OW22303   0.942   1.614   5.041
 7135SOL    HW122304   1.004   1.631   5.118
 7135SOL    HW222305   0.854   1.582   5.076
 7136SOL     OW22306   2.362   1.910   0.355
 7136SOL    HW122307   2.277   1.880   0.311
 7136SOL    HW222308   2.380   1.854   0.435
 7137SOL     OW22309   4.315   1.100   4.737
 7137SOL    HW122310   4.293   1.183   4.686
 7137SOL    HW222311   4.410   1.074   4.720
 7138SOL     OW22312   2.263   3.995   0.143
 7138SOL    HW122313   2.282   3.960   0.235
 7138SOL    HW222314   2.290   3.927   0.075
 7139SOL     OW22315   3.394   1.966   0.811
 7139SOL    HW122316   3.432   2.058   0.805
 7139SOL    HW222317   3.383   1.941   0.907
 7140SOL     OW22318   6.203   3.655   5.418
 7140SOL    HW122319   6.215   3.562   5.384
 7140SOL    HW222320   6.139   3.705   5.360
 7141SOL     OW22321   2.637   6.662   0.545
 7141SOL    HW122322   2.709   6.621   0.600
 7141SOL    HW222323   2.674   6.736   0.490
 7142SOL     OW22324   3.869   6.545   4.395
 7142SOL    HW122325   3.796   6.490   4.355
 7142SOL    HW222326   3.916   6.492   4.466
 7143SOL     OW22327   2.017   3.640   4.812
 7143SOL    HW122328   1.949   3.629   4.884
 7143SOL    HW222329   2.060   3.730   4.819
 7144SOL     OW22330   0.639   2.746   4.077
 7144SOL    HW122331   0.726   2.698   4.081
 7144SOL    HW222332   0.626   2.799   4.160
 7145SOL     OW22333   4.502   0.210   6.343
 7145SOL    HW122334   4.469   0.155   6.420
 7145SOL    HW222335   4.514   0.305   6.374
 7146SOL     OW22336   2.708   4.330   0.441
 7146SOL    HW122337   2.705   4.345   0.343
 7146SOL    HW222338   2.627   4.278   0.470
 7147SOL     OW22339   0.294   0.305   4.302
 7147SOL    HW122340   0.354   0.291   4.381
 7147SOL    HW222341   0.199   0.309   4.332
 7148SOL     OW22342   0.901   1.225   0.451
 7148SOL    HW122343   0.862   1.309   0.490
 7148SOL    HW222344   0.857   1.146   0.493
 7149SOL     OW22345   6.137   1.271   3.922
 7149SOL    HW122346   6.095   1.326   3.849
 7149SOL    HW222347   6.111   1.176   3.911
 7150SOL     OW22348   5.496   3.517   6.791
 7150SOL    HW122349   5.430   3.556   6.726
 7150SOL    HW222350   5.473   3.549   6.883
 7151SOL     OW22351   2.720   6.173   1.299
 7151SOL    HW122352   2.667   6.094   1.331
 7151SOL    HW222353   2.788   6.142   1.234
 7152SOL     OW22354   1.106   2.649   3.885
 7152SOL    HW122355   1.168   2.665   3.962
 7152SOL    HW222356   1.150   2.589   3.819
 7153SOL     OW22357   3.510   1.481   3.670
 7153SOL    HW122358   3.428   1.476   3.611
 7153SOL    HW222359   3.539   1.576   3.679
 7154SOL     OW22360   4.939   6.289   4.682
 7154SOL    HW122361   5.018   6.314   4.626
 7154SOL    HW222362   4.916   6.193   4.669
 7155SOL     OW22363   3.042   0.554   1.782
 7155SOL    HW122364   2.959   0.546   1.727
 7155SOL    HW222365   3.028   0.622   1.854
 7156SOL     OW22366   0.283   5.795   4.449
 7156SOL    HW122367   0.316   5.712   4.405
 7156SOL    HW222368   0.295   5.873   4.387
 7157SOL     OW22369   5.018   4.350   0.985
 7157SOL    HW122370   4.946   4.286   1.013
 7157SOL    HW222371   5.041   4.335   0.889
 7158SOL     OW22372   5.651   6.557   4.775
 7158SOL    HW122373   5.615   6.644   4.742
 7158SOL    HW222374   5.731   6.531   4.721
 7159SOL     OW22375   0.623   5.605   0.226
 7159SOL    HW122376   0.562   5.666   0.176
 7159SOL    HW222377   0.583   5.584   0.316
 7160SOL     OW22378   5.920   0.565   2.275
 7160SOL    HW122379   5.851   0.515   2.327
 7160SOL    HW222380   5.931   0.656   2.313
 7161SOL     OW22381   3.920   3.945   3.668
 7161SOL    HW122382   3.924   3.942   3.568
 7161SOL    HW222383   3.856   4.016   3.697
 7162SOL     OW22384   2.594   4.538   3.335
 7162SOL    HW122385   2.679   4.507   3.378
 7162SOL    HW222386   2.600   4.637   3.319
 7163SOL     OW22387   2.334   0.006   3.253
 7163SOL    HW122388   2.373   0.083   3.202
 7163SOL    HW222389   2.408   6.973   3.295
 7164SOL     OW22390   2.509   1.868   3.124
 7164SOL    HW122391   2.423   1.914   3.145
 7164SOL    HW222392   2.501   1.820   3.037
 7165SOL     OW22393   5.064   0.235   1.776
 7165SOL    HW122394   5.114   0.225   1.690
 7165SOL    HW222395   5.046   0.144   1.814
 7166SOL     OW22396   4.968   4.986   1.973
 7166SOL    HW122397   5.044   5.046   1.997
 7166SOL    HW222398   4.971   4.965   1.876
 7167SOL     OW22399   4.563   2.995   5.349
 7167SOL    HW122400   4.639   2.952   5.398
 7167SOL    HW222401   4.544   2.944   5.265
 7168SOL     OW22402   0.972   1.323   4.673
 7168SOL    HW122403   1.008   1.286   4.587
 7168SOL    HW222404   1.048   1.361   4.727
 7169SOL     OW22405   1.841   2.625   6.176
 7169SOL    HW122406   1.827   2.527   6.166
 7169SOL    HW222407   1.838   2.669   6.086
 7170SOL     OW22408   6.873   5.018   4.632
 7170SOL    HW122409   6.853   4.970   4.718
 7170SOL    HW222410   6.939   4.965   4.579
 7171SOL     OW22411   3.924   2.882   5.217
 7171SOL    HW122412   3.917   2.809   5.285
 7171SOL    HW222413   3.951   2.844   5.129
 7172SOL     OW22414   1.374   6.899   1.218
 7172SOL    HW122415   1.408   6.991   1.238
 7172SOL    HW222416   1.416   6.834   1.281
 7173SOL     OW22417   5.927   6.243   5.840
 7173SOL    HW122418   5.904   6.230   5.744
 7173SOL    HW222419   5.891   6.332   5.871
 7174SOL     OW22420   0.869   5.531   0.209
 7174SOL    HW122421   0.773   5.562   0.209
 7174SOL    HW222422   0.872   5.432   0.223
 7175SOL     OW22423   6.367   3.492   5.121
 7175SOL    HW122424   6.352   3.590   5.134
 7175SOL    HW222425   6.449   3.464   5.170
 7176SOL     OW22426   6.085   4.005   1.436
 7176SOL    HW122427   6.092   3.983   1.339
 7176SOL    HW222428   6.149   4.078   1.459
 7177SOL     OW22429   0.802   6.269   1.830
 7177SOL    HW122430   0.855   6.331   1.771
 7177SOL    HW222431   0.863   6.224   1.894
 7178SOL     OW22432   0.157   2.603   6.350
 7178SOL    HW122433   0.206   2.689   6.336
 7178SOL    HW222434   0.177   2.541   6.274
 7179SOL     OW22435   2.674   4.752   6.259
 7179SOL    HW122436   2.667   4.662   6.214
 7179SOL    HW222437   2.746   4.805   6.214
 7180SOL     OW22438   0.610   6.688   2.461
 7180SOL    HW122439   0.620   6.721   2.555
 7180SOL    HW222440   0.599   6.765   2.399
 7181SOL     OW22441   4.974   0.409   2.491
 7181SOL    HW122442   4.920   0.414   2.407
 7181SOL    HW222443   4.960   0.493   2.545
 7182SOL     OW22444   2.837   3.683   5.424
 7182SOL    HW122445   2.838   3.588   5.392
 7182SOL    HW222446   2.762   3.732   5.380
 7183SOL     OW22447   1.092   5.505   3.012
 7183SOL    HW122448   1.076   5.598   3.044
 7183SOL    HW222449   1.131   5.507   2.920
 7184SOL     OW22450   1.694   6.747   3.361
 7184SOL    HW122451   1.793   6.761   3.365
 7184SOL    HW222452   1.673   6.650   3.377
 7185SOL     OW22453   3.845   2.260   6.551
 7185SOL    HW122454   3.832   2.205   6.633
 7185SOL    HW222455   3.850   2.200   6.471
 7186SOL     OW22456   0.431   6.872   4.314
 7186SOL    HW122457   0.460   6.943   4.378
 7186SOL    HW222458   0.498   6.798   4.314
 7187SOL     OW22459   2.235   5.039   1.327
 7187SOL    HW122460   2.299   5.105   1.365
 7187SOL    HW222461   2.278   4.990   1.250
 7188SOL     OW22462   5.509   0.694   1.859
 7188SOL    HW122463   5.555   0.671   1.773
 7188SOL    HW222464   5.428   0.749   1.839
 7189SOL     OW22465   6.397   0.876   4.787
 7189SOL    HW122466   6.318   0.814   4.784
 7189SOL    HW222467   6.375   0.956   4.843
 7190SOL     OW22468   4.752   4.956   3.722
 7190SOL    HW122469   4.827   4.891   3.708
 7190SOL    HW222470   4.665   4.911   3.705
 7191SOL     OW22471   1.512   3.046   2.175
 7191SOL    HW122472   1.514   3.042   2.275
 7191SOL    HW222473   1.456   2.970   2.140
 7192SOL     OW22474   3.952   5.323   5.591
 7192SOL    HW122475   3.859   5.295   5.615
 7192SOL    HW222476   3.957   5.342   5.493
 7193SOL     OW22477   4.855   1.247   3.014
 7193SOL    HW122478   4.951   1.267   3.036
 7193SOL    HW222479   4.795   1.287   3.083
 7194SOL     OW22480   2.945   1.631   1.505
 7194SOL    HW122481   3.025   1.651   1.562
 7194SOL    HW222482   2.871   1.696   1.528
 7195SOL     OW22483   0.668   5.234   1.952
 7195SOL    HW122484   0.766   5.255   1.949
 7195SOL    HW222485   0.616   5.311   1.914
 7196SOL     OW22486   3.918   3.200   1.741
 7196SOL    HW122487   3.933   3.233   1.648
 7196SOL    HW222488   3.965   3.113   1.754
 7197SOL     OW22489   1.595   1.558   5.590
 7197SOL    HW122490   1.596   1.652   5.623
 7197SOL    HW222491   1.681   1.513   5.615
 7198SOL     OW22492   1.125   5.523   6.736
 7198SOL    HW122493   1.099   5.520   6.639
 7198SOL    HW222494   1.144   5.617   6.762
 7199SOL     OW22495   6.344   6.941   2.828
 7199SOL    HW122496   6.398   6.925   2.746
 7199SOL    HW222497   6.262   6.994   2.805
 7200SOL     OW22498   2.197   1.789   1.282
 7200SOL    HW122499   2.271   1.806   1.217
 7200SOL    HW222500   2.159   1.877   1.311
 7201SOL     OW22501   2.373   4.479   3.486
 7201SOL    HW122502   2.451   4.496   3.427
 7201SOL    HW222503   2.306   4.421   3.439
 7202SOL     OW22504   4.059   0.472   6.322
 7202SOL    HW122505   4.027   0.458   6.228
 7202SOL    HW222506   4.159   0.473   6.324
 7203SOL     OW22507   6.110   0.688   6.786
 7203SOL    HW122508   6.167   0.650   6.859
 7203SOL    HW222509   6.164   0.752   6.731
 7204SOL     OW22510   5.962   1.424   2.281
 7204SOL    HW122511   5.927   1.346   2.229
 7204SOL    HW222512   5.909   1.505   2.259
 7205SOL     OW22513   1.940   4.577   2.093
 7205SOL    HW122514   1.984   4.654   2.138
 7205SOL    HW222515   1.842   4.578   2.113
 7206SOL     OW22516   5.848   1.406   1.847
 7206SOL    HW122517   5.775   1.345   1.879
 7206SOL    HW222518   5.831   1.499   1.879
 7207SOL     OW22519   4.361   0.157   1.682
 7207SOL    HW122520   4.268   0.187   1.702
 7207SOL    HW222521   4.395   0.204   1.600
 7208SOL     OW22522   2.867   0.025   4.926
 7208SOL    HW122523   2.946   6.984   4.924
 7208SOL    HW222524   2.830   0.035   4.834
 7209SOL     OW22525   4.051   3.516   4.646
 7209SOL    HW122526   3.978   3.530   4.579
 7209SOL    HW222527   4.139   3.509   4.599
 7210SOL     OW22528   4.147   0.588   4.315
 7210SOL    HW122529   4.089   0.663   4.282
 7210SOL    HW222530   4.111   0.502   4.280
 7211SOL     OW22531   1.685   5.520   2.723
 7211SOL    HW122532   1.605   5.574   2.698
 7211SOL    HW222533   1.746   5.511   2.645
 7212SOL     OW22534   5.318   6.946   4.416
 7212SOL    HW122535   5.256   6.888   4.363
 7212SOL    HW222536   5.341   6.901   4.503
 7213SOL     OW22537   5.233   0.511   5.414
 7213SOL    HW122538   5.329   0.484   5.403
 7213SOL    HW222539   5.188   0.515   5.325
 7214SOL     OW22540   0.654   4.895   4.825
 7214SOL    HW122541   0.705   4.844   4.756
 7214SOL    HW222542   0.556   4.888   4.806
 7215SOL     OW22543   0.978   3.353   2.956
 7215SOL    HW122544   0.890   3.313   2.928
 7215SOL    HW222545   1.009   3.418   2.887
 7216SOL     OW22546   2.173   1.319   1.363
 7216SOL    HW122547   2.201   1.337   1.269
 7216SOL    HW222548   2.075   1.337   1.373
 7217SOL     OW22549   0.965   3.133   2.488
 7217SOL    HW122550   0.961   3.040   2.525
 7217SOL    HW222551   0.913   3.194   2.547
 7218SOL     OW22552   6.085   2.586   5.620
 7218SOL    HW122553   6.109   2.589   5.717
 7218SOL    HW222554   5.999   2.635   5.605
 7219SOL     OW22555   3.785   1.233   1.593
 7219SOL    HW122556   3.714   1.289   1.552
 7219SOL    HW222557   3.781   1.140   1.556
 7220SOL     OW22558   0.030   0.616   2.744
 7220SOL    HW122559   6.978   0.547   2.753
 7220SOL    HW222560   0.030   0.651   2.650
 7221SOL     OW22561   5.660   5.245   5.171
 7221SOL    HW122562   5.696   5.232   5.263
 7221SOL    HW222563   5.725   5.208   5.105
 7222SOL     OW22564   6.269   6.677   2.898
 7222SOL    HW122565   6.275   6.768   2.856
 7222SOL    HW222566   6.322   6.676   2.983
 7223SOL     OW22567   3.732   0.292   5.190
 7223SOL    HW122568   3.803   0.310   5.123
 7223SOL    HW222569   3.770   0.304   5.282
 7224SOL     OW22570   4.614   0.041   4.464
 7224SOL    HW122571   4.543   7.016   4.410
 7224SOL    HW222572   4.701   0.033   4.415
 7225SOL     OW22573   1.967   6.812   0.328
 7225SOL    HW122574   1.980   6.863   0.243
 7225SOL    HW222575   1.894   6.854   0.381
 7226SOL     OW22576   5.898   6.955   0.221
 7226SOL    HW122577   5.888   6.978   0.124
 7226SOL    HW222578   5.955   6.874   0.230
 7227SOL     OW22579   6.541   3.016   6.056
 7227SOL    HW122580   6.582   2.947   5.996
 7227SOL    HW222581   6.561   2.993   6.151
 7228SOL     OW22582   1.757   0.907   2.839
 7228SOL    HW122583   1.667   0.940   2.812
 7228SOL    HW222584   1.748   0.816   2.881
 7229SOL     OW22585   0.589   0.548   4.010
 7229SOL    HW122586   0.585   0.631   4.065
 7229SOL    HW222587   0.654   0.484   4.051
 7230SOL     OW22588   5.697   4.629   3.041
 7230SOL    HW122589   5.662   4.541   3.009
 7230SOL    HW222590   5.795   4.620   3.061
 7231SOL     OW22591   5.831   1.449   6.353
 7231SOL    HW122592   5.831   1.527   6.416
 7231SOL    HW222593   5.797   1.367   6.400
 7232SOL     OW22594   3.583   4.504   0.920
 7232SOL    HW122595   3.629   4.438   0.980
 7232SOL    HW222596   3.650   4.546   0.860
 7233SOL     OW22597   0.507   2.154   5.762
 7233SOL    HW122598   0.577   2.118   5.701
 7233SOL    HW222599   0.442   2.082   5.785
 7234SOL     OW22600   5.510   1.906   2.575
 7234SOL    HW122601   5.586   1.920   2.512
 7234SOL    HW222602   5.435   1.968   2.553
 7235SOL     OW22603   6.445   2.870   4.672
 7235SOL    HW122604   6.501   2.898   4.594
 7235SOL    HW222605   6.505   2.847   4.749
 7236SOL     OW22606   3.243   1.003   3.092
 7236SOL    HW122607   3.330   0.955   3.100
 7236SOL    HW222608   3.240   1.079   3.157
 7237SOL     OW22609   6.480   5.515   6.261
 7237SOL    HW122610   6.579   5.516   6.246
 7237SOL    HW222611   6.441   5.430   6.225
 7238SOL     OW22612   0.948   1.288   1.721
 7238SOL    HW122613   0.988   1.198   1.704
 7238SOL    HW222614   0.965   1.348   1.644
 7239SOL     OW22615   4.814   1.089   2.086
 7239SOL    HW122616   4.816   1.152   2.164
 7239SOL    HW222617   4.886   1.020   2.097
 7240SOL     OW22618   3.014   3.755   0.692
 7240SOL    HW122619   3.045   3.764   0.598
 7240SOL    HW222620   2.939   3.820   0.709
 7241SOL     OW22621   4.107   0.199   4.926
 7241SOL    HW122622   4.148   0.233   5.011
 7241SOL    HW222623   4.010   0.223   4.925
 7242SOL     OW22624   4.574   4.855   0.462
 7242SOL    HW122625   4.501   4.786   0.467
 7242SOL    HW222626   4.662   4.809   0.445
 7243SOL     OW22627   0.428   5.804   0.601
 7243SOL    HW122628   0.501   5.859   0.643
 7243SOL    HW222629   0.344   5.815   0.655
 7244SOL     OW22630   5.503   1.601   1.005
 7244SOL    HW122631   5.443   1.550   1.067
 7244SOL    HW222632   5.509   1.696   1.036
 7245SOL     OW22633   6.588   1.987   4.437
 7245SOL    HW122634   6.635   1.920   4.495
 7245SOL    HW222635   6.547   2.058   4.495
 7246SOL     OW22636   1.038   5.605   5.528
 7246SOL    HW122637   0.981   5.658   5.466
 7246SOL    HW222638   1.087   5.534   5.477
 7247SOL     OW22639   3.428   5.793   2.511
 7247SOL    HW122640   3.423   5.706   2.462
 7247SOL    HW222641   3.348   5.848   2.489
 7248SOL     OW22642   3.452   0.605   4.671
 7248SOL    HW122643   3.532   0.648   4.629
 7248SOL    HW222644   3.379   0.596   4.603
 7249SOL     OW22645   6.114   4.913   6.519
 7249SOL    HW122646   6.184   4.982   6.540
 7249SOL    HW222647   6.140   4.863   6.436
 7250SOL     OW22648   3.195   4.580   6.800
 7250SOL    HW122649   3.129   4.565   6.727
 7250SOL    HW222650   3.279   4.621   6.762
 7251SOL     OW22651   5.462   0.283   5.453
 7251SOL    HW122652   5.407   0.301   5.534
 7251SOL    HW222653   5.518   0.201   5.468
 7252SOL     OW22654   4.456   3.710   5.307
 7252SOL    HW122655   4.535   3.656   5.275
 7252SOL    HW222656   4.481   3.807   5.309
 7253SOL     OW22657   5.113   5.338   1.001
 7253SOL    HW122658   5.087   5.410   0.936
 7253SOL    HW222659   5.089   5.249   0.963
 7254SOL     OW22660   5.056   6.631   5.395
 7254SOL    HW122661   5.020   6.546   5.358
 7254SOL    HW222662   5.148   6.647   5.360
 7255SOL     OW22663   3.740   3.746   1.798
 7255SOL    HW122664   3.657   3.795   1.825
 7255SOL    HW222665   3.816   3.811   1.791
 7256SOL     OW22666   4.602   5.055   3.966
 7256SOL    HW122667   4.527   4.993   3.944
 7256SOL    HW222668   4.675   5.046   3.898
 7257SOL     OW22669   6.270   3.742   3.195
 7257SOL    HW122670   6.217   3.748   3.279
 7257SOL    HW222671   6.332   3.664   3.199
 7258SOL     OW22672   2.973   6.490   5.373
 7258SOL    HW122673   3.053   6.439   5.403
 7258SOL    HW222674   2.919   6.518   5.452
 7259SOL     OW22675   1.769   5.606   6.055
 7259SOL    HW122676   1.831   5.542   6.010
 7259SOL    HW222677   1.755   5.579   6.150
 7260SOL     OW22678   4.245   1.991   2.170
 7260SOL    HW122679   4.277   2.081   2.199
 7260SOL    HW222680   4.208   1.942   2.249
 7261SOL     OW22681   1.449   4.182   1.579
 7261SOL    HW122682   1.437   4.233   1.494
 7261SOL    HW222683   1.465   4.086   1.559
 7262SOL     OW22684   6.203   1.689   6.057
 7262SOL    HW122685   6.108   1.711   6.077
 7262SOL    HW222686   6.243   1.762   6.002
 7263SOL     OW22687   5.128   6.183   1.923
 7263SOL    HW122688   5.075   6.252   1.874
 7263SOL    HW222689   5.159   6.220   2.010
 7264SOL     OW22690   1.324   6.815   4.474
 7264SOL    HW122691   1.286   6.834   4.383
 7264SOL    HW222692   1.420   6.788   4.465
 7265SOL     OW22693   4.248   3.768   6.239
 7265SOL    HW122694   4.199   3.788   6.324
 7265SOL    HW222695   4.279   3.853   6.197
 7266SOL     OW22696   4.830   1.307   1.365
 7266SOL    HW122697   4.847   1.344   1.456
 7266SOL    HW222698   4.879   1.362   1.297
 7267SOL     OW22699   0.017   2.819   4.346
 7267SOL    HW122700   6.962   2.774   4.300
 7267SOL    HW222701   0.013   2.918   4.329
 7268SOL     OW22702   3.264   0.309   0.602
 7268SOL    HW122703   3.246   0.326   0.699
 7268SOL    HW222704   3.221   0.223   0.575
 7269SOL     OW22705   1.320   6.779   2.165
 7269SOL    HW122706   1.261   6.840   2.111
 7269SOL    HW222707   1.384   6.833   2.218
 7270SOL     OW22708   3.058   1.728   2.316
 7270SOL    HW122709   3.111   1.803   2.277
 7270SOL    HW222710   3.119   1.651   2.335
 7271SOL     OW22711   6.137   4.964   4.374
 7271SOL    HW122712   6.134   5.019   4.291
 7271SOL    HW222713   6.226   4.977   4.418
 7272SOL     OW22714   6.299   1.513   1.244
 7272SOL    HW122715   6.366   1.555   1.306
 7272SOL    HW222716   6.207   1.543   1.270
 7273SOL     OW22717   5.781   6.503   5.987
 7273SOL    HW122718   5.876   6.524   6.011
 7273SOL    HW222719   5.756   6.414   6.025
 7274SOL     OW22720   6.938   4.564   4.456
 7274SOL    HW122721   6.996   4.540   4.534
 7274SOL    HW222722   6.973   4.519   4.374
 7275SOL     OW22723   5.250   6.392   1.181
 7275SOL    HW122724   5.281   6.475   1.135
 7275SOL    HW222725   5.203   6.417   1.265
 7276SOL     OW22726   2.911   1.817   4.277
 7276SOL    HW122727   2.977   1.883   4.243
 7276SOL    HW222728   2.959   1.744   4.326
 7277SOL     OW22729   5.231   1.490   3.807
 7277SOL    HW122730   5.132   1.499   3.797
 7277SOL    HW222731   5.273   1.468   3.719
 7278SOL     OW22732   2.666   1.694   3.353
 7278SOL    HW122733   2.660   1.712   3.255
 7278SOL    HW222734   2.648   1.778   3.404
 7279SOL     OW22735   4.019   4.186   1.149
 7279SOL    HW122736   3.950   4.258   1.142
 7279SOL    HW222737   4.073   4.183   1.065
 7280SOL     OW22738   6.882   2.014   5.902
 7280SOL    HW122739   6.900   1.938   5.841
 7280SOL    HW222740   6.826   1.983   5.979
 7281SOL     OW22741   3.942   5.838   2.336
 7281SOL    HW122742   3.928   5.928   2.378
 7281SOL    HW222743   3.855   5.789   2.332
 7282SOL     OW22744   6.616   4.000   2.172
 7282SOL    HW122745   6.633   3.957   2.261
 7282SOL    HW222746   6.699   4.044   2.139
 7283SOL     OW22747   4.250   5.213   3.431
 7283SOL    HW122748   4.220   5.117   3.437
 7283SOL    HW222749   4.184   5.264   3.375
 7284SOL     OW22750   0.898   1.492   2.293
 7284SOL    HW122751   0.817   1.440   2.266
 7284SOL    HW222752   0.871   1.565   2.355
 7285SOL     OW22753   4.708   3.221   1.686
 7285SOL    HW122754   4.660   3.157   1.746
 7285SOL    HW222755   4.700   3.190   1.591
 7286SOL     OW22756   6.341   1.624   3.765
 7286SOL    HW122757   6.359   1.533   3.728
 7286SOL    HW222758   6.303   1.683   3.694
 7287SOL     OW22759   3.188   1.188   3.277
 7287SOL    HW122760   3.267   1.211   3.335
 7287SOL    HW222761   3.114   1.155   3.335
 7288SOL     OW22762   2.736   1.623   1.740
 7288SOL    HW122763   2.667   1.645   1.809
 7288SOL    HW222764   2.821   1.595   1.786
 7289SOL     OW22765   6.543   2.281   1.548
 7289SOL    HW122766   6.547   2.374   1.584
 7289SOL    HW222767   6.452   2.264   1.510
 7290SOL     OW22768   4.147   1.420   4.778
 7290SOL    HW122769   4.064   1.376   4.814
 7290SOL    HW222770   4.205   1.449   4.855
 7291SOL     OW22771   2.148   0.921   0.352
 7291SOL    HW122772   2.160   1.012   0.391
 7291SOL    HW222773   2.236   0.873   0.351
 7292SOL     OW22774   2.441   0.640   2.618
 7292SOL    HW122775   2.342   0.658   2.624
 7292SOL    HW222776   2.474   0.669   2.528
 7293SOL     OW22777   6.354   1.522   4.220
 7293SOL    HW122778   6.437   1.509   4.165
 7293SOL    HW222779   6.307   1.605   4.190
 7294SOL     OW22780   3.498   6.319   2.381
 7294SOL    HW122781   3.415   6.305   2.435
 7294SOL    HW222782   3.545   6.232   2.367
 7295SOL     OW22783   5.164   4.253   1.266
 7295SOL    HW122784   5.232   4.281   1.199
 7295SOL    HW222785   5.202   4.261   1.358
 7296SOL     OW22786   4.097   5.713   2.050
 7296SOL    HW122787   4.119   5.767   1.969
 7296SOL    HW222788   4.182   5.675   2.088
 7297SOL     OW22789   4.268   6.854   0.687
 7297SOL    HW122790   4.184   6.861   0.634
 7297SOL    HW222791   4.252   6.797   0.767
 7298SOL     OW22792   4.280   5.290   0.535
 7298SOL    HW122793   4.242   5.238   0.612
 7298SOL    HW222794   4.367   5.331   0.563
 7299SOL     OW22795   0.882   2.851   5.601
 7299SOL    HW122796   0.959   2.913   5.590
 7299SOL    HW222797   0.809   2.896   5.652
 7300SOL     OW22798   0.311   5.329   2.510
 7300SOL    HW122799   0.390   5.345   2.569
 7300SOL    HW222800   0.302   5.405   2.446
 7301SOL     OW22801   4.146   2.116   6.132
 7301SOL    HW122802   4.082   2.168   6.075
 7301SOL    HW222803   4.238   2.125   6.093
 7302SOL     OW22804   5.737   2.051   6.229
 7302SOL    HW122805   5.754   2.126   6.293
 7302SOL    HW222806   5.725   1.966   6.279
 7303SOL     OW22807   3.056   1.903   1.608
 7303SOL    HW122808   2.967   1.931   1.572
 7303SOL    HW222809   3.070   1.944   1.698
 7304SOL     OW22810   2.448   5.114   0.786
 7304SOL    HW122811   2.430   5.025   0.827
 7304SOL    HW222812   2.482   5.177   0.856
 7305SOL     OW22813   6.214   1.065   6.888
 7305SOL    HW122814   6.146   1.048   6.960
 7305SOL    HW222815   6.257   1.154   6.903
 7306SOL     OW22816   1.334   3.151   1.279
 7306SOL    HW122817   1.297   3.185   1.365
 7306SOL    HW222818   1.324   3.052   1.275
 7307SOL     OW22819   1.905   0.319   1.639
 7307SOL    HW122820   1.890   0.238   1.696
 7307SOL    HW222821   1.831   0.385   1.656
 7308SOL     OW22822   3.511   1.467   2.761
 7308SOL    HW122823   3.427   1.521   2.760
 7308SOL    HW222824   3.490   1.372   2.738
 7309SOL     OW22825   1.695   5.401   3.652
 7309SOL    HW122826   1.630   5.345   3.600
 7309SOL    HW222827   1.762   5.440   3.590
 7310SOL     OW22828   2.836   2.521   6.453
 7310SOL    HW122829   2.787   2.481   6.376
 7310SOL    HW222830   2.798   2.611   6.475
 7311SOL     OW22831   0.236   6.002   5.829
 7311SOL    HW122832   0.330   5.996   5.861
 7311SOL    HW222833   0.174   5.973   5.902
 7312SOL     OW22834   6.190   2.035   4.035
 7312SOL    HW122835   6.249   2.046   4.115
 7312SOL    HW222836   6.098   2.065   4.058
 7313SOL     OW22837   2.654   0.690   2.794
 7313SOL    HW122838   2.686   0.775   2.835
 7313SOL    HW222839   2.572   0.708   2.740
 7314SOL     OW22840   1.352   4.388   5.668
 7314SOL    HW122841   1.441   4.355   5.637
 7314SOL    HW222842   1.362   4.433   5.757
 7315SOL     OW22843   2.559   5.145   2.418
 7315SOL    HW122844   2.479   5.122   2.473
 7315SOL    HW222845   2.636   5.089   2.446
 7316SOL     OW22846   4.048   1.425   1.447
 7316SOL    HW122847   3.987   1.484   1.499
 7316SOL    HW222848   4.065   1.341   1.500
 7317SOL     OW22849   4.284   2.114   0.184
 7317SOL    HW122850   4.269   2.052   0.107
 7317SOL    HW222851   4.351   2.184   0.157
 7318SOL     OW22852   4.955   6.819   0.676
 7318SOL    HW122853   4.875   6.768   0.645
 7318SOL    HW222854   4.963   6.903   0.623
 7319SOL     OW22855   5.708   6.604   6.900
 7319SOL    HW122856   5.729   6.508   6.919
 7319SOL    HW222857   5.632   6.633   6.958
 7320SOL     OW22858   0.652   2.633   0.727
 7320SOL    HW122859   0.699   2.699   0.786
 7320SOL    HW222860   0.711   2.610   0.649
 7321SOL     OW22861   2.336   1.759   6.878
 7321SOL    HW122862   2.360   1.664   6.899
 7321SOL    HW222863   2.419   1.809   6.851
 7322SOL     OW22864   1.211   3.231   3.334
 7322SOL    HW122865   1.113   3.244   3.346
 7322SOL    HW222866   1.250   3.311   3.288
 7323SOL     OW22867   1.520   2.505   0.207
 7323SOL    HW122868   1.499   2.472   0.298
 7323SOL    HW222869   1.619   2.502   0.193
 7324SOL     OW22870   4.790   3.880   3.298
 7324SOL    HW122871   4.772   3.949   3.368
 7324SOL    HW222872   4.784   3.789   3.340
 7325SOL     OW22873   4.203   1.110   6.268
 7325SOL    HW122874   4.206   1.178   6.195
 7325SOL    HW222875   4.295   1.080   6.291
 7326SOL     OW22876   3.706   0.292   0.504
 7326SOL    HW122877   3.745   0.382   0.523
 7326SOL    HW222878   3.612   0.302   0.473
 7327SOL     OW22879   1.646   4.428   3.327
 7327SOL    HW122880   1.650   4.329   3.319
 7327SOL    HW222881   1.619   4.468   3.239
 7328SOL     OW22882   4.786   5.173   5.869
 7328SOL    HW122883   4.782   5.239   5.945
 7328SOL    HW222884   4.713   5.194   5.804
 7329SOL     OW22885   2.716   3.463   0.381
 7329SOL    HW122886   2.734   3.452   0.479
 7329SOL    HW222887   2.724   3.374   0.335
 7330SOL     OW22888   2.091   2.926   0.896
 7330SOL    HW122889   2.187   2.912   0.870
 7330SOL    HW222890   2.044   2.838   0.899
 7331SOL     OW22891   5.326   2.079   2.465
 7331SOL    HW122892   5.228   2.099   2.472
 7331SOL    HW222893   5.363   2.122   2.382
 7332SOL     OW22894   3.005   6.465   6.224
 7332SOL    HW122895   3.032   6.503   6.313
 7332SOL    HW222896   3.086   6.442   6.172
 7333SOL     OW22897   0.611   1.010   1.518
 7333SOL    HW122898   0.673   0.965   1.454
 7333SOL    HW222899   0.526   0.958   1.523
 7334SOL     OW22900   1.369   5.026   4.226
 7334SOL    HW122901   1.414   4.937   4.236
 7334SOL    HW222902   1.396   5.067   4.139
 7335SOL     OW22903   6.939   3.636   2.160
 7335SOL    HW122904   6.898   3.678   2.241
 7335SOL    HW222905   6.952   3.706   2.089
 7336SOL     OW22906   2.273   6.799   1.216
 7336SOL    HW122907   2.332   6.718   1.214
 7336SOL    HW222908   2.325   6.878   1.247
 7337SOL     OW22909   3.150   0.839   3.680
 7337SOL    HW122910   3.209   0.871   3.606
 7337SOL    HW222911   3.055   0.843   3.651
 7338SOL     OW22912   5.359   4.242   1.052
 7338SOL    HW122913   5.375   4.288   0.965
 7338SOL    HW222914   5.323   4.150   1.036
 7339SOL     OW22915   0.022   6.304   5.018
 7339SOL    HW122916   6.952   6.338   5.045
 7339SOL    HW222917   0.074   6.279   5.100
 7340SOL     OW22918   3.253   6.121   0.510
 7340SOL    HW122919   3.260   6.048   0.578
 7340SOL    HW222920   3.225   6.082   0.422
 7341SOL     OW22921   6.610   6.103   5.119
 7341SOL    HW122922   6.611   6.144   5.028
 7341SOL    HW222923   6.703   6.077   5.145
 7342SOL     OW22924   1.260   5.345   1.381
 7342SOL    HW122925   1.222   5.433   1.350
 7342SOL    HW222926   1.344   5.327   1.330
 7343SOL     OW22927   5.428   2.354   3.273
 7343SOL    HW122928   5.402   2.320   3.364
 7343SOL    HW222929   5.382   2.301   3.203
 7344SOL     OW22930   2.520   0.966   0.106
 7344SOL    HW122931   2.603   0.912   0.115
 7344SOL    HW222932   2.461   0.925   0.036
 7345SOL     OW22933   2.683   6.154   0.264
 7345SOL    HW122934   2.722   6.242   0.237
 7345SOL    HW222935   2.753   6.101   0.314
 7346SOL     OW22936   3.888   4.924   1.755
 7346SOL    HW122937   3.826   4.881   1.689
 7346SOL    HW222938   3.937   4.853   1.806
 7347SOL     OW22939   6.441   2.876   2.254
 7347SOL    HW122940   6.459   2.842   2.346
 7347SOL    HW222941   6.465   2.806   2.187
 7348SOL     OW22942   0.395   1.676   4.795
 7348SOL    HW122943   0.362   1.683   4.700
 7348SOL    HW222944   0.347   1.742   4.852
 7349SOL     OW22945   3.381   1.126   0.904
 7349SOL    HW122946   3.310   1.174   0.854
 7349SOL    HW222947   3.463   1.183   0.909
 7350SOL     OW22948   2.314   1.309   2.834
 7350SOL    HW122949   2.285   1.375   2.904
 7350SOL    HW222950   2.335   1.358   2.750
 7351SOL     OW22951   4.428   5.075   0.109
 7351SOL    HW122952   4.461   5.097   0.201
 7351SOL    HW222953   4.500   5.030   0.057
 7352SOL     OW22954   6.129   0.838   3.242
 7352SOL    HW122955   6.180   0.753   3.226
 7352SOL    HW222956   6.193   0.915   3.241
 7353SOL     OW22957   5.057   2.219   4.627
 7353SOL    HW122958   5.046   2.291   4.558
 7353SOL    HW222959   5.118   2.148   4.592
 7354SOL     OW22960   6.717   4.183   4.857
 7354SOL    HW122961   6.786   4.111   4.860
 7354SOL    HW222962   6.656   4.175   4.936
 7355SOL     OW22963   1.011   5.229   1.324
 7355SOL    HW122964   0.980   5.206   1.416
 7355SOL    HW222965   1.103   5.267   1.328
 7356SOL     OW22966   0.229   2.051   6.096
 7356SOL    HW122967   0.311   2.081   6.144
 7356SOL    HW222968   0.192   1.970   6.141
 7357SOL     OW22969   0.770   1.560   0.323
 7357SOL    HW122970   0.784   1.561   0.422
 7357SOL    HW222971   0.672   1.562   0.303
 7358SOL     OW22972   3.378   0.451   3.671
 7358SOL    HW122973   3.285   0.451   3.707
 7358SOL    HW222974   3.385   0.390   3.592
 7359SOL     OW22975   3.462   3.457   3.037
 7359SOL    HW122976   3.390   3.388   3.042
 7359SOL    HW222977   3.471   3.502   3.126
 7360SOL     OW22978   0.433   3.680   5.736
 7360SOL    HW122979   0.450   3.636   5.824
 7360SOL    HW222980   0.424   3.610   5.665
 7361SOL     OW22981   4.958   6.277   1.471
 7361SOL    HW122982   4.871   6.316   1.502
 7361SOL    HW222983   4.987   6.205   1.533
 7362SOL     OW22984   1.639   6.661   6.444
 7362SOL    HW122985   1.731   6.687   6.475
 7362SOL    HW222986   1.595   6.606   6.515
 7363SOL     OW22987   5.138   3.049   6.359
 7363SOL    HW122988   5.205   3.033   6.286
 7363SOL    HW222989   5.180   3.029   6.447
 7364SOL     OW22990   5.483   0.646   1.547
 7364SOL    HW122991   5.573   0.602   1.542
 7364SOL    HW222992   5.414   0.578   1.573
 7365SOL     OW22993   3.684   0.542   1.988
 7365SOL    HW122994   3.590   0.541   2.020
 7365SOL    HW222995   3.738   0.604   2.046
 7366SOL     OW22996   0.979   5.439   6.970
 7366SOL    HW122997   0.929   5.517   7.006
 7366SOL    HW222998   0.998   5.454   6.873
 7367SOL     OW22999   4.405   3.262   0.053
 7367SOL    HW123000   4.342   3.185   0.043
 7367SOL    HW223001   4.488   3.230   0.101
 7368SOL     OW23002   2.944   3.459   3.306
 7368SOL    HW123003   2.952   3.502   3.216
 7368SOL    HW223004   2.969   3.525   3.377
 7369SOL     OW23005   5.083   2.068   6.190
 7369SOL    HW123006   5.045   2.161   6.197
 7369SOL    HW223007   5.080   2.024   6.279
 7370SOL     OW23008   1.879   5.552   1.137
 7370SOL    HW123009   1.855   5.461   1.101
 7370SOL    HW223010   1.839   5.563   1.228
 7371SOL     OW23011   2.321   5.150   3.921
 7371SOL    HW123012   2.411   5.112   3.943
 7371SOL    HW223013   2.295   5.215   3.993
 7372SOL     OW23014   3.024   5.994   5.789
 7372SOL    HW123015   3.045   6.055   5.866
 7372SOL    HW223016   2.956   5.927   5.817
 7373SOL     OW23017   3.845   0.172   1.841
 7373SOL    HW123018   3.840   0.194   1.744
 7373SOL    HW223019   3.882   0.251   1.891
 7374SOL     OW23020   2.240   3.356   6.744
 7374SOL    HW123021   2.175   3.285   6.714
 7374SOL    HW223022   2.326   3.346   6.694
 7375SOL     OW23023   1.756   6.751   3.101
 7375SOL    HW123024   1.826   6.697   3.053
 7375SOL    HW223025   1.794   6.785   3.187
 7376SOL     OW23026   3.104   4.200   5.853
 7376SOL    HW123027   3.153   4.285   5.835
 7376SOL    HW223028   3.155   4.123   5.815
 7377SOL     OW23029   5.217   5.007   2.172
 7377SOL    HW123030   5.214   5.082   2.238
 7377SOL    HW223031   5.287   4.941   2.200
 7378SOL     OW23032   6.732   2.504   6.021
 7378SOL    HW123033   6.686   2.544   5.942
 7378SOL    HW223034   6.829   2.490   6.000
 7379SOL     OW23035   4.366   1.169   0.854
 7379SOL    HW123036   4.428   1.210   0.786
 7379SOL    HW223037   4.323   1.242   0.907
 7380SOL     OW23038   6.372   2.207   5.157
 7380SOL    HW123039   6.286   2.255   5.139
 7380SOL    HW223040   6.353   2.114   5.188
 7381SOL     OW23041   5.104   2.249   6.705
 7381SOL    HW123042   5.114   2.177   6.774
 7381SOL    HW223043   5.067   2.331   6.748
 7382SOL     OW23044   0.072   5.759   3.623
 7382SOL    HW123045   0.037   5.846   3.658
 7382SOL    HW223046   0.034   5.741   3.532
 7383SOL     OW23047   6.784   5.398   3.575
 7383SOL    HW123048   6.855   5.431   3.637
 7383SOL    HW223049   6.825   5.381   3.485
 7384SOL     OW23050   6.294   1.699   1.716
 7384SOL    HW123051   6.367   1.633   1.697
 7384SOL    HW223052   6.233   1.662   1.785
 7385SOL     OW23053   5.553   0.228   1.639
 7385SOL    HW123054   5.548   0.265   1.732
 7385SOL    HW223055   5.648   0.205   1.617
 7386SOL     OW23056   0.165   2.768   5.986
 7386SOL    HW123057   0.216   2.715   6.055
 7386SOL    HW223058   0.225   2.838   5.947
 7387SOL     OW23059   4.595   5.795   3.913
 7387SOL    HW123060   4.610   5.861   3.839
 7387SOL    HW223061   4.599   5.702   3.876
 7388SOL     OW23062   5.622   4.226   4.530
 7388SOL    HW123063   5.619   4.309   4.475
 7388SOL    HW223064   5.601   4.147   4.473
 7389SOL     OW23065   0.621   4.450   4.405
 7389SOL    HW123066   0.548   4.405   4.354
 7389SOL    HW223067   0.591   4.541   4.433
 7390SOL     OW23068   2.659   0.250   6.050
 7390SOL    HW123069   2.711   0.317   5.997
 7390SOL    HW223070   2.708   0.229   6.134
 7391SOL     OW23071   6.805   4.242   0.081
 7391SOL    HW123072   6.805   4.156   0.132
 7391SOL    HW223073   6.900   4.268   0.060
 7392SOL     OW23074   2.326   4.672   3.044
 7392SOL    HW123075   2.285   4.700   2.957
 7392SOL    HW223076   2.394   4.601   3.026
 7393SOL     OW23077   0.395   3.287   0.077
 7393SOL    HW123078   0.480   3.299   0.130
 7393SOL    HW223079   0.393   3.195   0.038
 7394SOL     OW23080   2.941   3.309   6.419
 7394SOL    HW123081   2.913   3.331   6.513
 7394SOL    HW223082   2.938   3.392   6.363
 7395SOL     OW23083   1.712   6.490   0.401
 7395SOL    HW123084   1.768   6.538   0.332
 7395SOL    HW223085   1.766   6.415   0.440
 7396SOL     OW23086   0.383   6.945   1.423
 7396SOL    HW123087   0.284   6.934   1.436
 7396SOL    HW223088   0.420   6.865   1.375
 7397SOL     OW23089   5.683   4.426   4.308
 7397SOL    HW123090   5.782   4.419   4.292
 7397SOL    HW223091   5.645   4.501   4.254
 7398SOL     OW23092   4.289   6.078   3.078
 7398SOL    HW123093   4.201   6.082   3.032
 7398SOL    HW223094   4.353   6.143   3.036
 7399SOL     OW23095   5.224   4.435   4.912
 7399SOL    HW123096   5.317   4.468   4.900
 7399SOL    HW223097   5.166   4.509   4.947
 7400SOL     OW23098   2.094   5.113   6.708
 7400SOL    HW123099   2.189   5.087   6.725
 7400SOL    HW223100   2.090   5.181   6.634
 7401SOL     OW23101   5.714   1.670   4.986
 7401SOL    HW123102   5.653   1.598   4.952
 7401SOL    HW223103   5.720   1.664   5.085
 7402SOL     OW23104   2.571   6.561   4.096
 7402SOL    HW123105   2.578   6.541   3.998
 7402SOL    HW223106   2.644   6.623   4.123
 7403SOL     OW23107   2.054   3.173   1.349
 7403SOL    HW123108   1.969   3.216   1.380
 7403SOL    HW223109   2.043   3.141   1.255
 7404SOL     OW23110   1.274   1.664   2.538
 7404SOL    HW123111   1.215   1.603   2.591
 7404SOL    HW223112   1.365   1.668   2.579
 7405SOL     OW23113   3.453   5.362   6.297
 7405SOL    HW123114   3.509   5.280   6.307
 7405SOL    HW223115   3.461   5.397   6.204
 7406SOL     OW23116   0.666   5.823   2.002
 7406SOL    HW123117   0.679   5.747   1.937
 7406SOL    HW223118   0.713   5.801   2.088
 7407SOL     OW23119   2.297   1.137   5.708
 7407SOL    HW123120   2.207   1.099   5.729
 7407SOL    HW223121   2.344   1.075   5.644
 7408SOL     OW23122   0.723   3.925   5.052
 7408SOL    HW123123   0.812   3.967   5.034
 7408SOL    HW223124   0.667   3.929   4.970
 7409SOL     OW23125   3.207   6.431   5.717
 7409SOL    HW123126   3.154   6.498   5.769
 7409SOL    HW223127   3.250   6.366   5.779
 7410SOL     OW23128   5.418   4.586   0.021
 7410SOL    HW123129   5.493   4.652   0.022
 7410SOL    HW223130   5.344   4.617   0.080
 7411SOL     OW23131   5.218   5.166   5.672
 7411SOL    HW123132   5.134   5.217   5.688
 7411SOL    HW223133   5.196   5.073   5.643
 7412SOL     OW23134   1.759   1.756   6.879
 7412SOL    HW123135   1.839   1.815   6.865
 7412SOL    HW223136   1.763   1.718   6.972
 7413SOL     OW23137   0.155   3.328   4.254
 7413SOL    HW123138   0.252   3.306   4.261
 7413SOL    HW223139   0.143   3.416   4.209
 7414SOL     OW23140   6.758   5.489   2.671
 7414SOL    HW123141   6.750   5.587   2.687
 7414SOL    HW223142   6.670   5.445   2.690
 7415SOL     OW23143   2.869   1.807   2.950
 7415SOL    HW123144   2.835   1.901   2.955
 7415SOL    HW223145   2.897   1.776   3.041
 7416SOL     OW23146   5.385   0.460   3.814
 7416SOL    HW123147   5.459   0.400   3.784
 7416SOL    HW223148   5.344   0.423   3.897
 7417SOL     OW23149   0.891   6.055   0.785
 7417SOL    HW123150   0.818   6.095   0.840
 7417SOL    HW223151   0.875   5.956   0.777
 7418SOL     OW23152   0.895   3.744   0.185
 7418SOL    HW123153   0.853   3.664   0.228
 7418SOL    HW223154   0.941   3.716   0.101
 7419SOL     OW23155   5.441   1.342   5.556
 7419SOL    HW123156   5.520   1.328   5.616
 7419SOL    HW223157   5.435   1.439   5.531
 7420SOL     OW23158   0.079   5.865   2.039
 7420SOL    HW123159   7.016   5.863   2.093
 7420SOL    HW223160   0.100   5.959   2.012
 7421SOL     OW23161   3.799   2.884   1.422
 7421SOL    HW123162   3.798   2.868   1.521
 7421SOL    HW223163   3.894   2.888   1.390
 7422SOL     OW23164   0.553   2.376   1.123
 7422SOL    HW123165   0.619   2.329   1.065
 7422SOL    HW223166   0.489   2.427   1.065
 7423SOL     OW23167   2.139   5.116   0.248
 7423SOL    HW123168   2.141   5.037   0.187
 7423SOL    HW223169   2.078   5.186   0.212
 7424SOL     OW23170   5.878   1.025   4.725
 7424SOL    HW123171   5.818   1.075   4.788
 7424SOL    HW223172   5.926   0.953   4.776
 7425SOL     OW23173   4.361   0.168   5.328
 7425SOL    HW123174   4.415   0.155   5.246
 7425SOL    HW223175   4.385   0.256   5.370
 7426SOL     OW23176   1.187   1.617   0.174
 7426SOL    HW123177   1.128   1.571   0.107
 7426SOL    HW223178   1.212   1.553   0.246
 7427SOL     OW23179   4.340   5.434   5.032
 7427SOL    HW123180   4.425   5.411   5.079
 7427SOL    HW223181   4.346   5.406   4.936
 7428SOL     OW23182   3.198   1.434   5.821
 7428SOL    HW123183   3.182   1.439   5.723
 7428SOL    HW223184   3.249   1.514   5.851
 7429SOL     OW23185   6.655   0.108   4.335
 7429SOL    HW123186   6.734   0.061   4.375
 7429SOL    HW223187   6.590   0.132   4.407
 7430SOL     OW23188   0.576   5.008   4.277
 7430SOL    HW123189   0.487   5.014   4.233
 7430SOL    HW223190   0.624   4.925   4.247
 7431SOL     OW23191   0.898   4.427   2.380
 7431SOL    HW123192   0.847   4.458   2.461
 7431SOL    HW223193   0.834   4.406   2.306
 7432SOL     OW23194   1.145   6.576   4.862
 7432SOL    HW123195   1.087   6.644   4.906
 7432SOL    HW223196   1.194   6.523   4.931
 7433SOL     OW23197   6.643   6.204   1.244
 7433SOL    HW123198   6.633   6.177   1.339
 7433SOL    HW223199   6.578   6.278   1.223
 7434SOL     OW23200   4.625   0.189   6.625
 7434SOL    HW123201   4.554   0.136   6.673
 7434SOL    HW223202   4.630   0.281   6.664
 7435SOL     OW23203   1.417   5.514   0.102
 7435SOL    HW123204   1.479   5.464   0.041
 7435SOL    HW223205   1.330   5.464   0.109
 7436SOL     OW23206   4.823   2.837   0.005
 7436SOL    HW123207   4.729   2.871   7.016
 7436SOL    HW223208   4.881   2.909   0.043
 7437SOL     OW23209   7.019   5.468   5.945
 7437SOL    HW123210   0.063   5.539   5.971
 7437SOL    HW223211   0.002   5.392   6.011
 7438SOL     OW23212   5.947   4.335   1.764
 7438SOL    HW123213   5.875   4.321   1.832
 7438SOL    HW223214   6.015   4.398   1.799
 7439SOL     OW23215   1.163   5.959   3.949
 7439SOL    HW123216   1.220   5.949   3.867
 7439SOL    HW223217   1.175   5.879   4.008
 7440SOL     OW23218   0.461   1.943   3.317
 7440SOL    HW123219   0.533   1.875   3.307
 7440SOL    HW223220   0.446   1.989   3.230
 7441SOL     OW23221   5.960   0.078   4.070
 7441SOL    HW123222   5.978   0.093   3.972
 7441SOL    HW223223   6.006   7.015   4.099
 7442SOL     OW23224   2.224   0.961   6.655
 7442SOL    HW123225   2.285   1.040   6.653
 7442SOL    HW223226   2.139   0.985   6.701
 7443SOL     OW23227   6.813   1.603   0.663
 7443SOL    HW123228   6.858   1.684   0.700
 7443SOL    HW223229   6.877   1.526   0.664
 7444SOL     OW23230   0.445   2.250   5.505
 7444SOL    HW123231   0.456   2.227   5.602
 7444SOL    HW223232   0.487   2.338   5.486
 7445SOL     OW23233   5.617   2.210   2.102
 7445SOL    HW123234   5.702   2.213   2.155
 7445SOL    HW223235   5.625   2.269   2.022
 7446SOL     OW23236   6.866   3.427   1.194
 7446SOL    HW123237   6.841   3.492   1.265
 7446SOL    HW223238   6.835   3.461   1.105
 7447SOL     OW23239   6.771   4.169   6.341
 7447SOL    HW123240   6.801   4.256   6.303
 7447SOL    HW223241   6.756   4.103   6.267
 7448SOL     OW23242   6.796   6.558   6.445
 7448SOL    HW123243   6.850   6.641   6.459
 7448SOL    HW223244   6.725   6.575   6.376
 7449SOL     OW23245   4.662   0.660   1.696
 7449SOL    HW123246   4.704   0.672   1.606
 7449SOL    HW223247   4.563   0.647   1.684
 7450SOL     OW23248   3.328   0.004   2.298
 7450SOL    HW123249   3.238   6.984   2.286
 7450SOL    HW223250   3.381   6.969   2.362
 7451SOL     OW23251   1.740   1.213   2.791
 7451SOL    HW123252   1.689   1.269   2.857
 7451SOL    HW223253   1.680   1.143   2.753
 7452SOL     OW23254   1.521   6.500   4.324
 7452SOL    HW123255   1.520   6.594   4.359
 7452SOL    HW223256   1.609   6.458   4.346
 7453SOL     OW23257   5.799   5.681   5.484
 7453SOL    HW123258   5.769   5.738   5.561
 7453SOL    HW223259   5.760   5.590   5.493
 7454SOL     OW23260   0.598   3.013   0.157
 7454SOL    HW123261   0.647   3.092   0.121
 7454SOL    HW223262   0.583   3.025   0.255
 7455SOL     OW23263   5.395   1.353   0.708
 7455SOL    HW123264   5.368   1.384   0.799
 7455SOL    HW223265   5.475   1.404   0.677
 7456SOL     OW23266   1.666   2.929   5.719
 7456SOL    HW123267   1.636   2.982   5.798
 7456SOL    HW223268   1.757   2.959   5.691
 7457SOL     OW23269   6.254   0.186   6.245
 7457SOL    HW123270   6.310   0.250   6.298
 7457SOL    HW223271   6.312   0.131   6.186
 7458SOL     OW23272   2.359   0.504   0.486
 7458SOL    HW123273   2.264   0.512   0.516
 7458SOL    HW223274   2.415   0.473   0.563
 7459SOL     OW23275   4.483   0.321   4.447
 7459SOL    HW123276   4.544   0.243   4.457
 7459SOL    HW223277   4.509   0.373   4.366
 7460SOL     OW23278   0.643   5.349   6.784
 7460SOL    HW123279   0.682   5.257   6.789
 7460SOL    HW223280   0.584   5.365   6.863
 7461SOL     OW23281   4.811   0.746   4.242
 7461SOL    HW123282   4.835   0.825   4.185
 7461SOL    HW223283   4.712   0.740   4.251
 7462SOL     OW23284   1.657   1.194   2.448
 7462SOL    HW123285   1.680   1.198   2.350
 7462SOL    HW223286   1.565   1.159   2.459
 7463SOL     OW23287   3.696   3.945   2.156
 7463SOL    HW123288   3.787   3.927   2.195
 7463SOL    HW223289   3.677   3.878   2.085
 7464SOL     OW23290   4.840   6.871   6.602
 7464SOL    HW123291   4.864   6.775   6.594
 7464SOL    HW223292   4.916   6.927   6.567
 7465SOL     OW23293   3.383   1.141   2.138
 7465SOL    HW123294   3.459   1.076   2.137
 7465SOL    HW223295   3.320   1.121   2.063
 7466SOL     OW23296   0.413   0.346   6.736
 7466SOL    HW123297   0.426   0.249   6.753
 7466SOL    HW223298   0.325   0.360   6.690
 7467SOL     OW23299   5.729   1.531   1.408
 7467SOL    HW123300   5.789   1.602   1.372
 7467SOL    HW223301   5.730   1.452   1.346
 7468SOL     OW23302   6.179   3.356   4.305
 7468SOL    HW123303   6.098   3.413   4.314
 7468SOL    HW223304   6.178   3.285   4.376
 7469SOL     OW23305   6.220   1.300   1.686
 7469SOL    HW123306   6.256   1.291   1.593
 7469SOL    HW223307   6.193   1.210   1.720
 7470SOL     OW23308   0.243   2.412   2.424
 7470SOL    HW123309   0.155   2.418   2.470
 7470SOL    HW223310   0.234   2.353   2.343
 7471SOL     OW23311   5.807   4.725   5.954
 7471SOL    HW123312   5.734   4.781   5.992
 7471SOL    HW223313   5.841   4.662   6.023
 7472SOL     OW23314   3.621   5.261   3.299
 7472SOL    HW123315   3.626   5.360   3.311
 7472SOL    HW223316   3.699   5.230   3.244
 7473SOL     OW23317   0.890   3.582   4.841
 7473SOL    HW123318   0.859   3.556   4.932
 7473SOL    HW223319   0.817   3.566   4.774
 7474SOL     OW23320   4.126   1.612   2.738
 7474SOL    HW123321   4.064   1.625   2.815
 7474SOL    HW223322   4.148   1.515   2.728
 7475SOL     OW23323   4.433   1.302   0.203
 7475SOL    HW123324   4.367   1.323   0.276
 7475SOL    HW223325   4.472   1.387   0.169
 7476SOL     OW23326   3.281   6.926   5.057
 7476SOL    HW123327   3.338   6.978   4.993
 7476SOL    HW223328   3.197   6.897   5.010
 7477SOL     OW23329   4.883   3.122   3.397
 7477SOL    HW123330   4.885   3.052   3.326
 7477SOL    HW223331   4.963   3.112   3.456
 7478SOL     OW23332   1.665   4.712   1.306
 7478SOL    HW123333   1.602   4.788   1.288
 7478SOL    HW223334   1.734   4.708   1.234
 7479SOL     OW23335   4.652   0.781   6.026
 7479SOL    HW123336   4.698   0.692   6.017
 7479SOL    HW223337   4.691   0.831   6.103
 7480SOL     OW23338   6.947   4.846   1.193
 7480SOL    HW123339   0.017   4.806   1.178
 7480SOL    HW223340   6.879   4.796   1.139
 7481SOL     OW23341   6.108   5.863   0.707
 7481SOL    HW123342   6.093   5.956   0.674
 7481SOL    HW223343   6.206   5.845   0.712
 7482SOL     OW23344   4.811   0.634   3.809
 7482SOL    HW123345   4.783   0.583   3.891
 7482SOL    HW223346   4.910   0.646   3.810
 7483SOL     OW23347   3.436   0.201   5.933
 7483SOL    HW123348   3.516   0.259   5.921
 7483SOL    HW223349   3.398   0.216   6.025
 7484SOL     OW23350   2.952   0.290   2.404
 7484SOL    HW123351   2.939   0.202   2.450
 7484SOL    HW223352   3.050   0.311   2.400
 7485SOL     OW23353   1.317   6.488   5.798
 7485SOL    HW123354   1.408   6.491   5.758
 7485SOL    HW223355   1.261   6.562   5.759
 7486SOL     OW23356   1.626   0.451   5.053
 7486SOL    HW123357   1.688   0.487   5.123
 7486SOL    HW223358   1.608   0.521   4.985
 7487SOL     OW23359   4.036   5.275   3.596
 7487SOL    HW123360   4.119   5.227   3.623
 7487SOL    HW223361   4.030   5.276   3.496
 7488SOL     OW23362   3.597   0.538   5.161
 7488SOL    HW123363   3.652   0.621   5.158
 7488SOL    HW223364   3.657   0.458   5.155
 7489SOL     OW23365   6.263   3.476   2.909
 7489SOL    HW123366   6.297   3.481   2.815
 7489SOL    HW223367   6.163   3.485   2.908
 7490SOL     OW23368   5.585   1.253   2.200
 7490SOL    HW123369   5.624   1.345   2.208
 7490SOL    HW223370   5.496   1.258   2.155
 7491SOL     OW23371   6.770   6.411   0.033
 7491SOL    HW123372   6.684   6.459   0.053
 7491SOL    HW223373   6.787   6.412   6.956
 7492SOL     OW23374   2.285   2.891   4.074
 7492SOL    HW123375   2.323   2.858   3.988
 7492SOL    HW223376   2.316   2.832   4.149
 7493SOL     OW23377   5.490   4.274   0.109
 7493SOL    HW123378   5.470   4.340   0.036
 7493SOL    HW223379   5.488   4.322   0.197
 7494SOL     OW23380   4.892   1.881   1.235
 7494SOL    HW123381   4.853   1.938   1.162
 7494SOL    HW223382   4.828   1.879   1.312
 7495SOL     OW23383   0.366   1.436   2.443
 7495SOL    HW123384   0.324   1.494   2.373
 7495SOL    HW223385   0.370   1.486   2.530
 7496SOL     OW23386   1.250   4.543   4.905
 7496SOL    HW123387   1.172   4.535   4.842
 7496SOL    HW223388   1.216   4.539   4.999
 7497SOL     OW23389   1.977   5.038   2.248
 7497SOL    HW123390   2.073   5.052   2.273
 7497SOL    HW223391   1.953   5.101   2.175
 7498SOL     OW23392   5.177   1.110   4.399
 7498SOL    HW123393   5.156   1.194   4.350
 7498SOL    HW223394   5.218   1.044   4.336
 7499SOL     OW23395   4.389   6.008   3.909
 7499SOL    HW123396   4.333   5.963   3.839
 7499SOL    HW223397   4.437   5.940   3.963
 7500SOL     OW23398   5.253   4.771   1.640
 7500SOL    HW123399   5.241   4.820   1.554
 7500SOL    HW223400   5.247   4.836   1.716
 7501SOL     OW23401   0.354   4.746   3.685
 7501SOL    HW123402   0.424   4.684   3.650
 7501SOL    HW223403   0.284   4.693   3.733
 7502SOL     OW23404   2.468   1.834   4.433
 7502SOL    HW123405   2.435   1.756   4.380
 7502SOL    HW223406   2.512   1.801   4.517
 7503SOL     OW23407   2.411   2.484   6.677
 7503SOL    HW123408   2.314   2.471   6.697
 7503SOL    HW223409   2.430   2.456   6.583
 7504SOL     OW23410   4.306   5.680   4.034
 7504SOL    HW123411   4.374   5.608   4.038
 7504SOL    HW223412   4.340   5.762   4.080
 7505SOL     OW23413   1.700   1.864   4.291
 7505SOL    HW123414   1.747   1.881   4.378
 7505SOL    HW223415   1.670   1.951   4.252
 7506SOL     OW23416   4.076   1.814   3.439
 7506SOL    HW123417   3.978   1.794   3.432
 7506SOL    HW223418   4.123   1.777   3.358
 7507SOL     OW23419   1.671   6.344   6.003
 7507SOL    HW123420   1.648   6.402   6.081
 7507SOL    HW223421   1.765   6.312   6.012
 7508SOL     OW23422   4.739   6.503   4.159
 7508SOL    HW123423   4.809   6.445   4.117
 7508SOL    HW223424   4.651   6.455   4.157
 7509SOL     OW23425   4.376   3.508   5.865
 7509SOL    HW123426   4.290   3.537   5.823
 7509SOL    HW223427   4.363   3.419   5.910
 7510SOL     OW23428   3.062   4.036   4.384
 7510SOL    HW123429   3.139   4.046   4.447
 7510SOL    HW223430   2.983   4.084   4.421
 7511SOL     OW23431   1.316   0.842   2.577
 7511SOL    HW123432   1.273   0.918   2.528
 7511SOL    HW223433   1.262   0.759   2.563
 7512SOL     OW23434   2.173   3.066   1.864
 7512SOL    HW123435   2.137   3.101   1.951
 7512SOL    HW223436   2.224   3.138   1.818
 7513SOL     OW23437   0.703   3.281   6.355
 7513SOL    HW123438   0.775   3.315   6.414
 7513SOL    HW223439   0.742   3.249   6.269
 7514SOL     OW23440   2.498   5.973   2.913
 7514SOL    HW123441   2.467   5.882   2.886
 7514SOL    HW223442   2.542   5.968   3.003
 7515SOL     OW23443   6.479   5.078   2.880
 7515SOL    HW123444   6.529   5.074   2.794
 7515SOL    HW223445   6.440   5.170   2.892
 7516SOL     OW23446   1.368   0.984   2.976
 7516SOL    HW123447   1.425   0.933   3.040
 7516SOL    HW223448   1.334   1.067   3.021
 7517SOL     OW23449   0.820   4.728   1.380
 7517SOL    HW123450   0.799   4.717   1.283
 7517SOL    HW223451   0.895   4.794   1.391
 7518SOL     OW23452   5.172   5.685   2.886
 7518SOL    HW123453   5.181   5.612   2.954
 7518SOL    HW223454   5.090   5.739   2.906
 7519SOL     OW23455   1.698   6.038   3.616
 7519SOL    HW123456   1.773   5.981   3.650
 7519SOL    HW223457   1.677   6.012   3.522
 7520SOL     OW23458   2.250   0.183   4.279
 7520SOL    HW123459   2.329   0.136   4.320
 7520SOL    HW223460   2.199   0.119   4.222
 7521SOL     OW23461   5.430   4.007   6.040
 7521SOL    HW123462   5.422   4.037   5.944
 7521SOL    HW223463   5.496   4.065   6.087
 7522SOL     OW23464   1.945   0.685   2.137
 7522SOL    HW123465   2.022   0.622   2.146
 7522SOL    HW223466   1.892   0.686   2.221
 7523SOL     OW23467   5.701   6.956   0.036
 7523SOL    HW123468   5.622   6.944   0.096
 7523SOL    HW223469   5.676   7.011   6.978
 7524SOL     OW23470   5.927   1.472   4.226
 7524SOL    HW123471   5.993   1.406   4.188
 7524SOL    HW223472   5.904   1.540   4.157
 7525SOL     OW23473   1.440   6.509   0.923
 7525SOL    HW123474   1.454   6.585   0.986
 7525SOL    HW223475   1.357   6.459   0.949
 7526SOL     OW23476   3.132   2.944   5.212
 7526SOL    HW123477   3.203   2.873   5.214
 7526SOL    HW223478   3.093   2.954   5.303
 7527SOL     OW23479   5.769   4.698   2.236
 7527SOL    HW123480   5.696   4.632   2.253
 7527SOL    HW223481   5.772   4.720   2.138
 7528SOL     OW23482   6.338   3.436   5.834
 7528SOL    HW123483   6.416   3.487   5.870
 7528SOL    HW223484   6.362   3.339   5.827
 7529SOL     OW23485   3.154   6.951   5.308
 7529SOL    HW123486   3.188   0.018   5.343
 7529SOL    HW223487   3.217   6.916   5.239
 7530SOL     OW23488   6.822   3.020   2.412
 7530SOL    HW123489   6.746   2.990   2.355
 7530SOL    HW223490   6.794   3.022   2.508
 7531SOL     OW23491   3.152   1.746   3.824
 7531SOL    HW123492   3.066   1.749   3.773
 7531SOL    HW223493   3.162   1.829   3.877
 7532SOL     OW23494   4.848   4.620   2.135
 7532SOL    HW123495   4.805   4.529   2.132
 7532SOL    HW223496   4.930   4.621   2.079
 7533SOL     OW23497   3.400   0.138   4.504
 7533SOL    HW123498   3.458   0.061   4.530
 7533SOL    HW223499   3.452   0.223   4.508
 7534SOL     OW23500   5.355   0.046   4.931
 7534SOL    HW123501   5.338   0.145   4.937
 7534SOL    HW223502   5.354   0.007   5.023
 7535SOL     OW23503   3.431   4.449   6.525
 7535SOL    HW123504   3.451   4.363   6.572
 7535SOL    HW223505   3.342   4.442   6.480
 7536SOL     OW23506   4.033   6.090   4.039
 7536SOL    HW123507   4.121   6.107   4.084
 7536SOL    HW223508   4.023   5.992   4.021
 7537SOL     OW23509   1.943   4.660   5.838
 7537SOL    HW123510   2.019   4.677   5.901
 7537SOL    HW223511   1.961   4.577   5.785
 7538SOL     OW23512   3.284   2.938   3.046
 7538SOL    HW123513   3.369   2.901   3.083
 7538SOL    HW223514   3.224   2.966   3.120
 7539SOL     OW23515   2.019   2.516   4.025
 7539SOL    HW123516   1.933   2.470   4.001
 7539SOL    HW223517   2.006   2.572   4.106
 7540SOL     OW23518   1.846   1.458   0.358
 7540SOL    HW123519   1.905   1.537   0.374
 7540SOL    HW223520   1.880   1.406   0.280
 7541SOL     OW23521   6.991   2.900   5.275
 7541SOL    HW123522   0.027   2.860   5.348
 7541SOL    HW223523   6.895   2.882   5.294
 7542SOL     OW23524   2.066   0.042   6.713
 7542SOL    HW123525   1.993   0.024   6.647
 7542SOL    HW223526   2.154   0.021   6.672
 7543SOL     OW23527   3.993   2.735   0.024
 7543SOL    HW123528   3.969   2.784   6.961
 7543SOL    HW223529   4.061   2.788   0.075
 7544SOL     OW23530   2.134   2.236   2.851
 7544SOL    HW123531   2.187   2.173   2.907
 7544SOL    HW223532   2.050   2.191   2.820
 7545SOL     OW23533   5.464   0.069   3.773
 7545SOL    HW123534   5.391   0.108   3.829
 7545SOL    HW223535   5.480   6.995   3.802
 7546SOL     OW23536   5.198   0.503   6.715
 7546SOL    HW123537   5.240   0.443   6.647
 7546SOL    HW223538   5.133   0.451   6.770
 7547SOL     OW23539   3.258   6.892   0.140
 7547SOL    HW123540   3.158   6.891   0.138
 7547SOL    HW223541   3.294   6.799   0.133
 7548SOL     OW23542   1.231   3.265   1.074
 7548SOL    HW123543   1.276   3.211   1.146
 7548SOL    HW223544   1.280   3.252   0.988
 7549SOL     OW23545   6.039   2.251   2.148
 7549SOL    HW123546   6.019   2.287   2.056
 7549SOL    HW223547   5.953   2.236   2.197
 7550SOL     OW23548   1.505   5.285   1.267
 7550SOL    HW123549   1.585   5.271   1.209
 7550SOL    HW223550   1.523   5.358   1.333
 7551SOL     OW23551   4.590   3.940   6.196
 7551SOL    HW123552   4.495   3.935   6.166
 7551SOL    HW223553   4.595   3.994   6.280
 7552SOL     OW23554   3.165   5.162   4.054
 7552SOL    HW123555   3.084   5.154   3.996
 7552SOL    HW223556   3.235   5.099   4.023
 7553SOL     OW23557   4.586   4.402   5.995
 7553SOL    HW123558   4.581   4.403   6.095
 7553SOL    HW223559   4.654   4.469   5.965
 7554SOL     OW23560   6.524   1.095   1.136
 7554SOL    HW123561   6.513   1.172   1.200
 7554SOL    HW223562   6.485   1.120   1.048
 7555SOL     OW23563   0.720   5.592   5.604
 7555SOL    HW123564   0.747   5.672   5.657
 7555SOL    HW223565   0.770   5.511   5.637
 7556SOL     OW23566   6.698   3.063   4.064
 7556SOL    HW123567   6.792   3.090   4.042
 7556SOL    HW223568   6.698   3.008   4.148
 7557SOL     OW23569   4.362   3.503   6.943
 7557SOL    HW123570   4.455   3.538   6.941
 7557SOL    HW223571   4.357   3.423   7.002
 7558SOL     OW23572   1.680   3.372   3.547
 7558SOL    HW123573   1.720   3.357   3.638
 7558SOL    HW223574   1.635   3.288   3.516
 7559SOL     OW23575   0.703   4.861   0.638
 7559SOL    HW123576   0.726   4.765   0.651
 7559SOL    HW223577   0.635   4.889   0.705
 7560SOL     OW23578   4.894   6.722   5.955
 7560SOL    HW123579   4.828   6.699   5.883
 7560SOL    HW223580   4.985   6.690   5.928
 7561SOL     OW23581   0.568   3.533   0.543
 7561SOL    HW123582   0.509   3.453   0.529
 7561SOL    HW223583   0.625   3.518   0.624
 7562SOL     OW23584   5.038   5.629   5.690
 7562SOL    HW123585   5.130   5.645   5.652
 7562SOL    HW223586   4.970   5.637   5.617
 7563SOL     OW23587   2.279   1.353   2.267
 7563SOL    HW123588   2.301   1.275   2.208
 7563SOL    HW223589   2.243   1.320   2.354
 7564SOL     OW23590   5.102   6.578   4.129
 7564SOL    HW123591   5.183   6.612   4.082
 7564SOL    HW223592   5.041   6.534   4.063
 7565SOL     OW23593   5.016   4.428   0.354
 7565SOL    HW123594   5.019   4.527   0.340
 7565SOL    HW223595   4.975   4.408   0.443
 7566SOL     OW23596   1.878   5.636   5.150
 7566SOL    HW123597   1.917   5.627   5.058
 7566SOL    HW223598   1.793   5.687   5.144
 7567SOL     OW23599   2.506   3.304   6.918
 7567SOL    HW123600   2.562   3.280   6.839
 7567SOL    HW223601   2.488   3.402   6.918
 7568SOL     OW23602   4.455   4.549   3.088
 7568SOL    HW123603   4.376   4.490   3.074
 7568SOL    HW223604   4.449   4.591   3.179
 7569SOL     OW23605   3.826   0.705   1.246
 7569SOL    HW123606   3.753   0.714   1.313
 7569SOL    HW223607   3.907   0.753   1.278
 7570SOL     OW23608   6.028   4.749   4.505
 7570SOL    HW123609   6.085   4.820   4.463
 7570SOL    HW223610   6.074   4.661   4.497
 7571SOL     OW23611   5.107   4.006   1.827
 7571SOL    HW123612   5.078   3.933   1.889
 7571SOL    HW223613   5.059   4.090   1.850
 7572SOL     OW23614   1.592   1.632   4.395
 7572SOL    HW123615   1.560   1.673   4.481
 7572SOL    HW223616   1.645   1.700   4.344
 7573SOL     OW23617   2.818   5.699   5.033
 7573SOL    HW123618   2.908   5.741   5.021
 7573SOL    HW223619   2.783   5.718   5.124
 7574SOL     OW23620   5.074   5.892   2.585
 7574SOL    HW123621   5.151   5.911   2.647
 7574SOL    HW223622   5.030   5.807   2.611
 7575SOL     OW23623   4.514   2.647   4.916
 7575SOL    HW123624   4.480   2.555   4.897
 7575SOL    HW223625   4.483   2.709   4.844
 7576SOL     OW23626   6.246   3.483   1.382
 7576SOL    HW123627   6.240   3.578   1.411
 7576SOL    HW223628   6.195   3.426   1.446
 7577SOL     OW23629   4.318   0.647   4.810
 7577SOL    HW123630   4.340   0.615   4.718
 7577SOL    HW223631   4.288   0.570   4.866
 7578SOL     OW23632   2.669   4.615   4.296
 7578SOL    HW123633   2.631   4.703   4.324
 7578SOL    HW223634   2.755   4.630   4.247
 7579SOL     OW23635   4.300   2.023   3.341
 7579SOL    HW123636   4.232   2.020   3.413
 7579SOL    HW223637   4.266   2.078   3.264
 7580SOL     OW23638   2.121   3.546   2.973
 7580SOL    HW123639   2.150   3.483   3.044
 7580SOL    HW223640   2.121   3.500   2.884
 7581SOL     OW23641   6.023   0.602   1.054
 7581SOL    HW123642   6.071   0.518   1.027
 7581SOL    HW223643   6.088   0.665   1.096
 7582SOL     OW23644   2.874   1.471   0.991
 7582SOL    HW123645   2.834   1.483   1.082
 7582SOL    HW223646   2.952   1.534   0.981
 7583SOL     OW23647   0.027   3.233   2.309
 7583SOL    HW123648   6.955   3.266   2.327
 7583SOL    HW223649   0.038   3.143   2.350
 7584SOL     OW23650   2.268   1.383   1.118
 7584SOL    HW123651   2.173   1.396   1.088
 7584SOL    HW223652   2.309   1.308   1.066
 7585SOL     OW23653   1.690   5.172   6.032
 7585SOL    HW123654   1.746   5.239   6.081
 7585SOL    HW223655   1.718   5.080   6.057
 7586SOL     OW23656   2.371   1.451   1.473
 7586SOL    HW123657   2.300   1.400   1.425
 7586SOL    HW223658   2.434   1.386   1.517
 7587SOL     OW23659   2.100   0.986   5.939
 7587SOL    HW123660   2.040   0.954   6.012
 7587SOL    HW223661   2.194   0.993   5.973
 7588SOL     OW23662   0.429   4.436   1.466
 7588SOL    HW123663   0.410   4.403   1.558
 7588SOL    HW223664   0.352   4.413   1.406
 7589SOL     OW23665   5.515   6.297   0.115
 7589SOL    HW123666   5.442   6.236   0.085
 7589SOL    HW223667   5.479   6.364   0.179
 7590SOL     OW23668   2.331   0.717   6.700
 7590SOL    HW123669   2.307   0.631   6.654
 7590SOL    HW223670   2.277   0.792   6.662
 7591SOL     OW23671   6.720   5.146   0.065
 7591SOL    HW123672   6.756   5.070   0.120
 7591SOL    HW223673   6.720   5.230   0.120
 7592SOL     OW23674   5.508   6.011   0.235
 7592SOL    HW123675   5.479   5.966   0.320
 7592SOL    HW223676   5.535   6.105   0.255
 7593SOL     OW23677   6.110   3.070   6.826
 7593SOL    HW123678   6.075   3.121   6.747
 7593SOL    HW223679   6.141   3.134   6.896
 7594SOL     OW23680   1.275   6.498   3.679
 7594SOL    HW123681   1.204   6.430   3.697
 7594SOL    HW223682   1.300   6.496   3.582
 7595SOL     OW23683   6.472   2.232   0.446
 7595SOL    HW123684   6.434   2.165   0.382
 7595SOL    HW223685   6.533   2.294   0.397
 7596SOL     OW23686   4.836   4.709   1.444
 7596SOL    HW123687   4.842   4.764   1.361
 7596SOL    HW223688   4.748   4.663   1.448
 7597SOL     OW23689   3.353   5.562   1.802
 7597SOL    HW123690   3.355   5.629   1.728
 7597SOL    HW223691   3.265   5.515   1.802
 7598SOL     OW23692   6.386   0.102   3.330
 7598SOL    HW123693   6.450   0.158   3.278
 7598SOL    HW223694   6.434   0.022   3.366
 7599SOL     OW23695   6.130   1.846   2.269
 7599SOL    HW123696   6.113   1.879   2.176
 7599SOL    HW223697   6.227   1.826   2.280
 7600SOL     OW23698   2.351   2.020   1.623
 7600SOL    HW123699   2.346   2.119   1.640
 7600SOL    HW223700   2.262   1.979   1.641
 7601SOL     OW23701   2.036   6.881   4.443
 7601SOL    HW123702   1.974   6.957   4.459
 7601SOL    HW223703   1.988   6.807   4.397
 7602SOL     OW23704   2.196   3.121   4.900
 7602SOL    HW123705   2.258   3.078   4.966
 7602SOL    HW223706   2.201   3.220   4.909
 7603SOL     OW23707   0.879   0.872   2.216
 7603SOL    HW123708   0.806   0.933   2.183
 7603SOL    HW223709   0.966   0.920   2.216
 7604SOL     OW23710   4.669   6.314   6.542
 7604SOL    HW123711   4.585   6.369   6.541
 7604SOL    HW223712   4.726   6.340   6.464
 7605SOL     OW23713   5.821   4.191   5.637
 7605SOL    HW123714   5.762   4.166   5.560
 7605SOL    HW223715   5.879   4.113   5.661
 7606SOL     OW23716   6.149   1.908   3.059
 7606SOL    HW123717   6.057   1.881   3.087
 7606SOL    HW223718   6.159   1.894   2.960
 7607SOL     OW23719   5.185   6.809   6.884
 7607SOL    HW123720   5.196   6.712   6.861
 7607SOL    HW223721   5.167   6.818   6.982
 7608SOL     OW23722   4.022   3.126   3.564
 7608SOL    HW123723   3.924   3.106   3.566
 7608SOL    HW223724   4.037   3.208   3.507
 7609SOL     OW23725   1.658   2.844   4.335
 7609SOL    HW123726   1.619   2.935   4.352
 7609SOL    HW223727   1.651   2.789   4.418
 7610SOL     OW23728   5.341   0.402   1.623
 7610SOL    HW123729   5.302   0.377   1.535
 7610SOL    HW223730   5.426   0.351   1.638
 7611SOL     OW23731   1.845   1.827   1.562
 7611SOL    HW123732   1.862   1.758   1.491
 7611SOL    HW223733   1.751   1.819   1.594
 7612SOL     OW23734   4.335   1.744   2.588
 7612SOL    HW123735   4.294   1.780   2.505
 7612SOL    HW223736   4.263   1.714   2.650
 7613SOL     OW23737   5.100   1.333   2.453
 7613SOL    HW123738   5.120   1.424   2.415
 7613SOL    HW223739   5.146   1.323   2.541
 7614SOL     OW23740   3.963   1.771   0.483
 7614SOL    HW123741   3.937   1.676   0.469
 7614SOL    HW223742   3.996   1.810   0.397
 7615SOL     OW23743   3.519   5.188   5.838
 7615SOL    HW123744   3.474   5.277   5.846
 7615SOL    HW223745   3.569   5.168   5.922
 7616SOL     OW23746   6.659   4.894   3.769
 7616SOL    HW123747   6.614   4.880   3.681
 7616SOL    HW223748   6.686   4.990   3.778
 7617SOL     OW23749   3.197   5.922   2.379
 7617SOL    HW123750   3.127   5.962   2.437
 7617SOL    HW223751   3.227   5.989   2.312
 7618SOL     OW23752   1.921   2.669   0.508
 7618SOL    HW123753   1.934   2.634   0.601
 7618SOL    HW223754   2.010   2.679   0.464
 7619SOL     OW23755   5.766   3.299   5.601
 7619SOL    HW123756   5.828   3.239   5.653
 7619SOL    HW223757   5.671   3.273   5.620
 7620SOL     OW23758   3.380   6.529   1.447
 7620SOL    HW123759   3.371   6.495   1.541
 7620SOL    HW223760   3.289   6.544   1.408
 7621SOL     OW23761   2.772   1.846   1.603
 7621SOL    HW123762   2.686   1.888   1.573
 7621SOL    HW223763   2.754   1.757   1.645
 7622SOL     OW23764   4.643   2.146   0.867
 7622SOL    HW123765   4.586   2.208   0.814
 7622SOL    HW223766   4.595   2.059   0.879
 7623SOL     OW23767   5.091   0.479   5.640
 7623SOL    HW123768   5.162   0.472   5.570
 7623SOL    HW223769   5.109   0.558   5.699
 7624SOL     OW23770   6.612   0.410   4.356
 7624SOL    HW123771   6.683   0.420   4.287
 7624SOL    HW223772   6.526   0.382   4.312
 7625SOL     OW23773   4.158   6.767   1.325
 7625SOL    HW123774   4.161   6.679   1.277
 7625SOL    HW223775   4.233   6.825   1.294
 7626SOL     OW23776   1.945   4.839   4.973
 7626SOL    HW123777   1.954   4.739   4.971
 7626SOL    HW223778   2.035   4.881   4.970
 7627SOL     OW23779   0.333   2.475   0.383
 7627SOL    HW123780   0.307   2.384   0.351
 7627SOL    HW223781   0.418   2.469   0.436
 7628SOL     OW23782   3.636   2.104   0.955
 7628SOL    HW123783   3.713   2.041   0.949
 7628SOL    HW223784   3.592   2.095   1.045
 7629SOL     OW23785   6.515   5.276   3.864
 7629SOL    HW123786   6.481   5.333   3.939
 7629SOL    HW223787   6.446   5.271   3.792
 7630SOL     OW23788   6.575   0.876   2.260
 7630SOL    HW123789   6.534   0.851   2.347
 7630SOL    HW223790   6.540   0.964   2.230
 7631SOL     OW23791   0.965   2.098   3.546
 7631SOL    HW123792   0.878   2.050   3.533
 7631SOL    HW223793   0.948   2.196   3.556
 7632SOL     OW23794   4.342   1.763   6.326
 7632SOL    HW123795   4.338   1.666   6.350
 7632SOL    HW223796   4.351   1.773   6.227
 7633SOL     OW23797   5.808   4.595   6.401
 7633SOL    HW123798   5.752   4.641   6.332
 7633SOL    HW223799   5.804   4.647   6.487
 7634SOL     OW23800   0.803   1.750   1.864
 7634SOL    HW123801   0.837   1.700   1.944
 7634SOL    HW223802   0.875   1.756   1.795
 7635SOL     OW23803   3.097   5.017   6.314
 7635SOL    HW123804   3.152   5.058   6.241
 7635SOL    HW223805   3.086   5.083   6.388
 7636SOL     OW23806   1.369   0.063   4.305
 7636SOL    HW123807   1.375   0.002   4.384
 7636SOL    HW223808   1.273   0.074   4.278
 7637SOL     OW23809   1.826   5.840   4.492
 7637SOL    HW123810   1.829   5.740   4.498
 7637SOL    HW223811   1.755   5.867   4.426
 7638SOL     OW23812   4.544   4.637   1.919
 7638SOL    HW123813   4.599   4.697   1.977
 7638SOL    HW223814   4.524   4.552   1.967
 7639SOL     OW23815   0.859   1.986   4.303
 7639SOL    HW123816   0.843   2.076   4.343
 7639SOL    HW223817   0.784   1.925   4.327
 7640SOL     OW23818   2.112   2.776   6.531
 7640SOL    HW123819   2.211   2.771   6.518
 7640SOL    HW223820   2.068   2.704   6.477
 7641SOL     OW23821   6.480   2.810   3.230
 7641SOL    HW123822   6.560   2.866   3.253
 7641SOL    HW223823   6.405   2.869   3.200
 7642SOL     OW23824   2.726   2.038   2.933
 7642SOL    HW123825   2.766   2.072   2.847
 7642SOL    HW223826   2.642   2.089   2.953
 7643SOL     OW23827   4.944   3.276   3.120
 7643SOL    HW123828   4.878   3.266   3.195
 7643SOL    HW223829   4.976   3.370   3.116
 7644SOL     OW23830   6.733   3.660   3.215
 7644SOL    HW123831   6.725   3.759   3.222
 7644SOL    HW223832   6.728   3.620   3.307
 7645SOL     OW23833   4.686   3.581   6.909
 7645SOL    HW123834   4.778   3.568   6.872
 7645SOL    HW223835   4.670   3.678   6.926
 7646SOL     OW23836   0.966   1.774   1.648
 7646SOL    HW123837   0.991   1.815   1.560
 7646SOL    HW223838   0.992   1.677   1.648
 7647SOL     OW23839   1.990   4.362   1.322
 7647SOL    HW123840   1.892   4.342   1.327
 7647SOL    HW223841   2.005   4.460   1.332
 7648SOL     OW23842   4.183   0.683   2.924
 7648SOL    HW123843   4.177   0.586   2.904
 7648SOL    HW223844   4.097   0.714   2.965
 7649SOL     OW23845   2.527   1.109   1.295
 7649SOL    HW123846   2.432   1.100   1.322
 7649SOL    HW223847   2.575   1.170   1.359
 7650SOL     OW23848   5.228   4.637   2.998
 7650SOL    HW123849   5.275   4.630   3.086
 7650SOL    HW223850   5.139   4.593   3.005
 7651SOL     OW23851   4.328   1.497   6.351
 7651SOL    HW123852   4.298   1.429   6.284
 7651SOL    HW223853   4.251   1.522   6.409
 7652SOL     OW23854   0.761   3.152   2.898
 7652SOL    HW123855   0.772   3.209   2.817
 7652SOL    HW223856   0.680   3.094   2.887
 7653SOL     OW23857   3.517   2.312   1.432
 7653SOL    HW123858   3.602   2.309   1.484
 7653SOL    HW223859   3.439   2.305   1.494
 7654SOL     OW23860   4.875   3.805   3.653
 7654SOL    HW123861   4.848   3.893   3.691
 7654SOL    HW223862   4.897   3.742   3.728
 7655SOL     OW23863   4.436   6.195   5.625
 7655SOL    HW123864   4.350   6.181   5.576
 7655SOL    HW223865   4.465   6.290   5.615
 7656SOL     OW23866   0.858   5.935   4.728
 7656SOL    HW123867   0.858   6.028   4.693
 7656SOL    HW223868   0.788   5.881   4.680
 7657SOL     OW23869   4.604   1.444   4.522
 7657SOL    HW123870   4.633   1.468   4.615
 7657SOL    HW223871   4.680   1.404   4.472
 7658SOL     OW23872   4.337   0.517   6.245
 7658SOL    HW123873   4.315   0.614   6.234
 7658SOL    HW223874   4.410   0.507   6.313
 7659SOL     OW23875   5.352   0.089   0.436
 7659SOL    HW123876   5.371   0.002   0.483
 7659SOL    HW223877   5.388   0.086   0.343
 7660SOL     OW23878   6.532   4.749   3.951
 7660SOL    HW123879   6.595   4.695   4.007
 7660SOL    HW223880   6.583   4.800   3.883
 7661SOL     OW23881   5.706   3.425   3.043
 7661SOL    HW123882   5.669   3.377   3.122
 7661SOL    HW223883   5.637   3.428   2.970
 7662SOL     OW23884   0.076   5.704   1.807
 7662SOL    HW123885   0.041   5.750   1.725
 7662SOL    HW223886   0.057   5.761   1.887
 7663SOL     OW23887   6.963   5.128   6.880
 7663SOL    HW123888   6.865   5.143   6.861
 7663SOL    HW223889   6.985   5.165   6.970
 7664SOL     OW23890   2.433   5.197   4.652
 7664SOL    HW123891   2.516   5.225   4.699
 7664SOL    HW223892   2.452   5.116   4.597
 7665SOL     OW23893   2.250   6.314   4.832
 7665SOL    HW123894   2.301   6.230   4.851
 7665SOL    HW223895   2.213   6.351   4.917
 7666SOL     OW23896   1.488   1.282   1.421
 7666SOL    HW123897   1.441   1.353   1.369
 7666SOL    HW223898   1.574   1.259   1.376
 7667SOL     OW23899   4.978   5.389   6.338
 7667SOL    HW123900   5.069   5.420   6.367
 7667SOL    HW223901   4.910   5.420   6.404
 7668SOL     OW23902   2.939   3.792   1.440
 7668SOL    HW123903   2.893   3.783   1.352
 7668SOL    HW223904   2.870   3.806   1.512
 7669SOL     OW23905   4.703   6.457   4.768
 7669SOL    HW123906   4.773   6.386   4.776
 7669SOL    HW223907   4.664   6.476   4.858
 7670SOL     OW23908   2.102   4.832   1.034
 7670SOL    HW123909   2.201   4.843   1.041
 7670SOL    HW223910   2.072   4.859   0.943
 7671SOL     OW23911   5.356   2.824   4.838
 7671SOL    HW123912   5.257   2.828   4.824
 7671SOL    HW223913   5.395   2.754   4.779
 7672SOL     OW23914   5.236   0.489   2.365
 7672SOL    HW123915   5.190   0.439   2.438
 7672SOL    HW223916   5.212   0.586   2.371
 7673SOL     OW23917   0.171   4.965   0.903
 7673SOL    HW123918   0.179   4.884   0.845
 7673SOL    HW223919   0.185   4.938   0.999
 7674SOL     OW23920   6.625   0.661   5.039
 7674SOL    HW123921   6.688   0.588   5.066
 7674SOL    HW223922   6.670   0.722   4.973
 7675SOL     OW23923   4.387   0.193   3.602
 7675SOL    HW123924   4.455   0.266   3.607
 7675SOL    HW223925   4.358   0.168   3.694
 7676SOL     OW23926   1.694   6.904   0.924
 7676SOL    HW123927   1.778   6.861   0.891
 7676SOL    HW223928   1.709   7.002   0.935
 7677SOL     OW23929   2.112   2.962   2.618
 7677SOL    HW123930   2.041   2.907   2.575
 7677SOL    HW223931   2.151   3.025   2.551
 7678SOL     OW23932   5.800   0.267   6.684
 7678SOL    HW123933   5.770   0.355   6.720
 7678SOL    HW223934   5.775   0.259   6.588
 7679SOL     OW23935   0.734   4.926   5.267
 7679SOL    HW123936   0.640   4.959   5.250
 7679SOL    HW223937   0.765   4.873   5.188
 7680SOL     OW23938   4.251   2.173   6.406
 7680SOL    HW123939   4.231   2.085   6.450
 7680SOL    HW223940   4.237   2.164   6.307
 7681SOL     OW23941   2.813   1.711   6.901
 7681SOL    HW123942   2.877   1.764   6.957
 7681SOL    HW223943   2.722   1.752   6.906
 7682SOL     OW23944   3.551   0.124   0.921
 7682SOL    HW123945   3.592   0.106   1.010
 7682SOL    HW223946   3.498   0.045   0.892
 7683SOL     OW23947   6.024   1.836   3.351
 7683SOL    HW123948   5.964   1.874   3.280
 7683SOL    HW223949   6.053   1.744   3.325
 7684SOL     OW23950   4.019   1.592   5.725
 7684SOL    HW123951   4.063   1.671   5.683
 7684SOL    HW223952   4.034   1.593   5.824
 7685SOL     OW23953   3.611   3.712   0.557
 7685SOL    HW123954   3.569   3.803   0.550
 7685SOL    HW223955   3.619   3.687   0.654
 7686SOL     OW23956   3.122   0.214   4.071
 7686SOL    HW123957   3.177   0.161   4.136
 7686SOL    HW223958   3.161   0.205   3.979
 7687SOL     OW23959   4.521   5.328   5.469
 7687SOL    HW123960   4.517   5.400   5.400
 7687SOL    HW223961   4.428   5.300   5.493
 7688SOL     OW23962   6.915   7.006   4.330
 7688SOL    HW123963   6.970   0.044   4.270
 7688SOL    HW223964   6.972   6.974   4.406
 7689SOL     OW23965   3.971   6.658   4.156
 7689SOL    HW123966   4.047   6.717   4.182
 7689SOL    HW223967   3.913   6.641   4.236
 7690SOL     OW23968   6.953   6.361   3.224
 7690SOL    HW123969   6.965   6.412   3.309
 7690SOL    HW223970   0.015   6.370   3.168
 7691SOL     OW23971   5.547   4.285   4.981
 7691SOL    HW123972   5.611   4.360   4.962
 7691SOL    HW223973   5.558   4.214   4.912
 7692SOL     OW23974   1.698   6.604   1.550
 7692SOL    HW123975   1.747   6.689   1.566
 7692SOL    HW223976   1.725   6.566   1.462
 7693SOL     OW23977   5.705   0.785   6.816
 7693SOL    HW123978   5.678   0.852   6.747
 7693SOL    HW223979   5.804   0.791   6.831
 7694SOL     OW23980   6.326   5.178   4.552
 7694SOL    HW123981   6.357   5.245   4.483
 7694SOL    HW223982   6.227   5.188   4.565
 7695SOL     OW23983   4.028   0.326   6.630
 7695SOL    HW123984   3.992   0.406   6.678
 7695SOL    HW223985   3.982   0.316   6.542
 7696SOL     OW23986   0.379   3.315   5.879
 7696SOL    HW123987   0.341   3.255   5.950
 7696SOL    HW223988   0.329   3.301   5.793
 7697SOL     OW23989   4.270   1.724   1.549
 7697SOL    HW123990   4.221   1.667   1.614
 7697SOL    HW223991   4.336   1.781   1.597
 7698SOL     OW23992   0.170   3.336   5.695
 7698SOL    HW123993   0.152   3.433   5.679
 7698SOL    HW223994   0.107   3.301   5.765
 7699SOL     OW23995   2.091   4.710   6.870
 7699SOL    HW123996   2.167   4.657   6.907
 7699SOL    HW223997   2.010   4.652   6.864
 7700SOL     OW23998   5.330   6.755   5.368
 7700SOL    HW123999   5.321   6.786   5.463
 7700SOL    HW224000   5.387   6.673   5.365
 7701SOL     OW24001   6.352   1.948   5.327
 7701SOL    HW124002   6.443   1.907   5.327
 7701SOL    HW224003   6.283   1.876   5.334
 7702SOL     OW24004   2.478   6.287   6.142
 7702SOL    HW124005   2.539   6.365   6.158
 7702SOL    HW224006   2.504   6.211   6.201
 7703SOL     OW24007   0.167   2.147   6.613
 7703SOL    HW124008   0.203   2.076   6.674
 7703SOL    HW224009   0.166   2.235   6.662
 7704SOL     OW24010   4.651   4.719   6.849
 7704SOL    HW124011   4.748   4.723   6.824
 7704SOL    HW224012   4.595   4.727   6.767
 7705SOL     OW24013   3.492   5.329   5.511
 7705SOL    HW124014   3.545   5.382   5.445
 7705SOL    HW224015   3.554   5.288   5.578
 7706SOL     OW24016   6.804   0.678   5.493
 7706SOL    HW124017   6.717   0.716   5.461
 7706SOL    HW224018   6.877   0.707   5.431
 7707SOL     OW24019   0.244   5.059   6.052
 7707SOL    HW124020   0.244   4.995   5.975
 7707SOL    HW224021   0.332   5.107   6.055
 7708SOL     OW24022   4.639   6.900   5.033
 7708SOL    HW124023   4.587   6.985   5.031
 7708SOL    HW224024   4.698   6.894   4.953
 7709SOL     OW24025   3.778   2.011   1.878
 7709SOL    HW124026   3.741   2.085   1.933
 7709SOL    HW224027   3.850   1.963   1.928
 7710SOL     OW24028   2.882   2.099   6.874
 7710SOL    HW124029   2.946   2.032   6.912
 7710SOL    HW224030   2.863   2.170   6.941
 7711SOL     OW24031   5.733   6.437   6.344
 7711SOL    HW124032   5.751   6.521   6.394
 7711SOL    HW224033   5.762   6.447   6.249
 7712SOL     OW24034   4.957   5.600   1.179
 7712SOL    HW124035   4.971   5.633   1.085
 7712SOL    HW224036   5.044   5.567   1.216
 7713SOL     OW24037   1.211   4.687   6.982
 7713SOL    HW124038   1.306   4.706   6.958
 7713SOL    HW224039   1.203   4.677   0.061
 7714SOL     OW24040   5.351   4.447   3.609
 7714SOL    HW124041   5.331   4.414   3.702
 7714SOL    HW224042   5.284   4.410   3.545
 7715SOL     OW24043   4.539   2.083   1.289
 7715SOL    HW124044   4.615   2.088   1.224
 7715SOL    HW224045   4.453   2.096   1.239
 7716SOL     OW24046   4.676   2.730   3.123
 7716SOL    HW124047   4.631   2.720   3.211
 7716SOL    HW224048   4.753   2.794   3.132
 7717SOL     OW24049   4.051   0.846   6.302
 7717SOL    HW124050   3.956   0.813   6.300
 7717SOL    HW224051   4.052   0.943   6.325
 7718SOL     OW24052   2.871   5.859   3.730
 7718SOL    HW124053   2.958   5.812   3.744
 7718SOL    HW224054   2.889   5.954   3.703
 7719SOL     OW24055   6.563   1.736   5.269
 7719SOL    HW124056   6.546   1.765   5.175
 7719SOL    HW224057   6.534   1.641   5.281
 7720SOL     OW24058   5.915   5.777   1.689
 7720SOL    HW124059   5.885   5.817   1.776
 7720SOL    HW224060   5.839   5.777   1.624
 7721SOL     OW24061   1.502   4.778   2.646
 7721SOL    HW124062   1.586   4.777   2.700
 7721SOL    HW224063   1.523   4.799   2.551
 7722SOL     OW24064   0.335   5.615   3.993
 7722SOL    HW124065   0.339   5.609   3.893
 7722SOL    HW224066   0.240   5.602   4.022
 7723SOL     OW24067   6.261   3.276   0.288
 7723SOL    HW124068   6.339   3.235   0.336
 7723SOL    HW224069   6.176   3.254   0.336
 7724SOL     OW24070   1.837   4.738   1.100
 7724SOL    HW124071   1.934   4.738   1.075
 7724SOL    HW224072   1.792   4.659   1.057
 7725SOL     OW24073   5.123   3.481   4.601
 7725SOL    HW124074   5.195   3.450   4.663
 7725SOL    HW224075   5.138   3.443   4.510
 7726SOL     OW24076   6.436   3.920   3.711
 7726SOL    HW124077   6.487   3.896   3.793
 7726SOL    HW224078   6.358   3.978   3.736
 7727SOL     OW24079   6.486   2.554   1.633
 7727SOL    HW124080   6.490   2.562   1.733
 7727SOL    HW224081   6.449   2.639   1.595
 7728SOL     OW24082   2.549   2.299   2.917
 7728SOL    HW124083   2.619   2.293   2.988
 7728SOL    HW224084   2.571   2.374   2.855
 7729SOL     OW24085   5.494   2.399   0.536
 7729SOL    HW124086   5.538   2.319   0.578
 7729SOL    HW224087   5.419   2.368   0.477
 7730SOL     OW24088   4.837   0.378   2.247
 7730SOL    HW124089   4.905   0.345   2.182
 7730SOL    HW224090   4.764   0.426   2.198
 7731SOL     OW24091   6.237   1.090   6.129
 7731SOL    HW124092   6.207   1.078   6.224
 7731SOL    HW224093   6.309   1.024   6.108
 7732SOL     OW24094   4.240   4.901   0.410
 7732SOL    HW124095   4.279   4.811   0.428
 7732SOL    HW224096   4.205   4.904   0.316
 7733SOL     OW24097   3.335   0.166   2.060
 7733SOL    HW124098   3.329   0.128   2.152
 7733SOL    HW224099   3.389   0.250   2.062
 7734SOL     OW24100   1.581   1.742   2.893
 7734SOL    HW124101   1.592   1.700   2.983
 7734SOL    HW224102   1.606   1.839   2.899
 7735SOL     OW24103   4.929   3.993   0.515
 7735SOL    HW124104   4.950   4.004   0.612
 7735SOL    HW224105   5.014   3.972   0.465
 7736SOL     OW24106   6.052   4.502   6.315
 7736SOL    HW124107   6.058   4.404   6.300
 7736SOL    HW224108   5.964   4.524   6.358
 7737SOL     OW24109   5.272   1.547   0.554
 7737SOL    HW124110   5.243   1.612   0.624
 7737SOL    HW224111   5.275   1.455   0.593
 7738SOL     OW24112   2.365   5.084   6.722
 7738SOL    HW124113   2.373   5.051   6.628
 7738SOL    HW224114   2.429   5.159   6.738
 7739SOL     OW24115   6.126   3.284   1.920
 7739SOL    HW124116   6.082   3.226   1.852
 7739SOL    HW224117   6.225   3.267   1.920
 7740SOL     OW24118   0.511   6.582   3.595
 7740SOL    HW124119   0.427   6.637   3.592
 7740SOL    HW224120   0.589   6.642   3.614
 7741SOL     OW24121   2.968   5.334   4.625
 7741SOL    HW124122   2.901   5.404   4.599
 7741SOL    HW224123   2.971   5.263   4.554
 7742SOL     OW24124   5.993   1.024   3.946
 7742SOL    HW124125   6.070   0.964   3.924
 7742SOL    HW224126   5.926   1.021   3.872
 7743SOL     OW24127   4.685   2.700   2.842
 7743SOL    HW124128   4.766   2.741   2.799
 7743SOL    HW224129   4.674   2.737   2.934
 7744SOL     OW24130   0.073   0.077   5.188
 7744SOL    HW124131   7.003   0.076   5.146
 7744SOL    HW224132   0.134   0.135   5.135
 7745SOL     OW24133   5.130   3.272   5.412
 7745SOL    HW124134   5.109   3.314   5.500
 7745SOL    HW224135   5.222   3.300   5.383
 7746SOL     OW24136   1.586   0.615   0.514
 7746SOL    HW124137   1.668   0.622   0.570
 7746SOL    HW224138   1.574   0.520   0.483
 7747SOL     OW24139   5.143   5.322   1.261
 7747SOL    HW124140   5.059   5.274   1.286
 7747SOL    HW224141   5.145   5.337   1.163
 7748SOL     OW24142   3.411   3.400   6.682
 7748SOL    HW124143   3.420   3.475   6.748
 7748SOL    HW224144   3.471   3.416   6.604
 7749SOL     OW24145   5.359   3.029   6.630
 7749SOL    HW124146   5.415   3.080   6.696
 7749SOL    HW224147   5.414   2.958   6.587
 7750SOL     OW24148   5.767   5.017   2.650
 7750SOL    HW124149   5.758   5.031   2.551
 7750SOL    HW224150   5.677   5.001   2.690
 7751SOL     OW24151   0.101   2.669   1.774
 7751SOL    HW124152   0.157   2.749   1.754
 7751SOL    HW224153   0.134   2.590   1.722
 7752SOL     OW24154   4.663   2.294   3.137
 7752SOL    HW124155   4.628   2.254   3.053
 7752SOL    HW224156   4.731   2.233   3.178
 7753SOL     OW24157   3.255   1.939   4.694
 7753SOL    HW124158   3.228   1.898   4.781
 7753SOL    HW224159   3.225   2.034   4.691
 7754SOL     OW24160   5.597   6.259   2.253
 7754SOL    HW124161   5.636   6.187   2.197
 7754SOL    HW224162   5.517   6.224   2.302
 7755SOL     OW24163   0.782   5.276   4.324
 7755SOL    HW124164   0.870   5.266   4.372
 7755SOL    HW224165   0.708   5.278   4.391
 7756SOL     OW24166   2.868   5.036   1.914
 7756SOL    HW124167   2.946   5.014   1.855
 7756SOL    HW224168   2.814   4.954   1.929
 7757SOL     OW24169   0.036   5.048   2.556
 7757SOL    HW124170   0.050   5.024   2.652
 7757SOL    HW224171   0.120   5.030   2.505
 7758SOL     OW24172   1.584   1.327   5.057
 7758SOL    HW124173   1.589   1.402   5.122
 7758SOL    HW224174   1.553   1.244   5.104
 7759SOL     OW24175   3.282   2.255   1.139
 7759SOL    HW124176   3.277   2.336   1.081
 7759SOL    HW224177   3.307   2.176   1.082
 7760SOL     OW24178   4.818   3.180   0.486
 7760SOL    HW124179   4.787   3.097   0.438
 7760SOL    HW224180   4.881   3.154   0.559
 7761SOL     OW24181   4.639   5.421   3.810
 7761SOL    HW124182   4.718   5.482   3.803
 7761SOL    HW224183   4.666   5.329   3.779
 7762SOL     OW24184   5.427   1.642   2.066
 7762SOL    HW124185   5.477   1.574   2.012
 7762SOL    HW224186   5.374   1.700   2.004
 7763SOL     OW24187   2.184   0.569   4.387
 7763SOL    HW124188   2.137   0.489   4.350
 7763SOL    HW224189   2.147   0.652   4.344
 7764SOL     OW24190   2.570   4.300   5.904
 7764SOL    HW124191   2.548   4.290   5.806
 7764SOL    HW224192   2.587   4.396   5.925
 7765SOL     OW24193   5.216   3.377   4.364
 7765SOL    HW124194   5.277   3.433   4.307
 7765SOL    HW224195   5.271   3.314   4.419
 7766SOL     OW24196   6.722   3.587   6.445
 7766SOL    HW124197   6.751   3.679   6.421
 7766SOL    HW224198   6.633   3.568   6.404
 7767SOL     OW24199   3.545   0.572   4.127
 7767SOL    HW124200   3.528   0.591   4.031
 7767SOL    HW224201   3.471   0.611   4.182
 7768SOL     OW24202   4.210   5.650   3.733
 7768SOL    HW124203   4.208   5.670   3.831
 7768SOL    HW224204   4.253   5.561   3.717
 7769SOL     OW24205   3.521   3.032   5.690
 7769SOL    HW124206   3.585   2.955   5.682
 7769SOL    HW224207   3.445   3.018   5.626
 7770SOL     OW24208   1.874   3.464   4.532
 7770SOL    HW124209   1.873   3.508   4.443
 7770SOL    HW224210   1.960   3.415   4.544
 7771SOL     OW24211   2.010   3.426   6.479
 7771SOL    HW124212   2.021   3.350   6.544
 7771SOL    HW224213   1.953   3.497   6.521
 7772SOL     OW24214   5.267   6.559   2.151
 7772SOL    HW124215   5.362   6.590   2.157
 7772SOL    HW224216   5.206   6.631   2.185
 7773SOL     OW24217   2.664   6.631   0.232
 7773SOL    HW124218   2.676   6.691   0.153
 7773SOL    HW224219   2.680   6.683   0.316
 7774SOL     OW24220   5.087   1.176   2.737
 7774SOL    HW124221   5.174   1.197   2.693
 7774SOL    HW224222   5.072   1.238   2.814
 7775SOL     OW24223   2.565   2.266   1.132
 7775SOL    HW124224   2.643   2.232   1.079
 7775SOL    HW224225   2.484   2.267   1.075
 7776SOL     OW24226   2.379   1.382   4.506
 7776SOL    HW124227   2.415   1.339   4.589
 7776SOL    HW224228   2.289   1.421   4.524
 7777SOL     OW24229   5.915   5.939   3.350
 7777SOL    HW124230   5.908   6.037   3.334
 7777SOL    HW224231   5.885   5.889   3.269
 7778SOL     OW24232   6.845   4.811   2.592
 7778SOL    HW124233   6.909   4.883   2.619
 7778SOL    HW224234   6.896   4.732   2.561
 7779SOL     OW24235   4.207   6.048   2.293
 7779SOL    HW124236   4.235   6.074   2.201
 7779SOL    HW224237   4.211   5.948   2.303
 7780SOL     OW24238   5.866   6.495   4.992
 7780SOL    HW124239   5.890   6.523   5.085
 7780SOL    HW224240   5.779   6.538   4.966
 7781SOL     OW24241   1.497   3.401   0.716
 7781SOL    HW124242   1.472   3.466   0.645
 7781SOL    HW224243   1.490   3.308   0.681
 7782SOL     OW24244   5.092   2.993   4.489
 7782SOL    HW124245   5.089   3.075   4.546
 7782SOL    HW224246   5.001   2.974   4.452
 7783SOL     OW24247   1.772   6.278   4.395
 7783SOL    HW124248   1.735   6.234   4.314
 7783SOL    HW224249   1.808   6.209   4.458
 7784SOL     OW24250   1.575   2.067   1.536
 7784SOL    HW124251   1.564   1.969   1.553
 7784SOL    HW224252   1.498   2.117   1.577
 7785SOL     OW24253   6.924   6.752   3.233
 7785SOL    HW124254   6.876   6.761   3.145
 7785SOL    HW224255   6.860   6.720   3.302
 7786SOL     OW24256   4.457   1.141   5.755
 7786SOL    HW124257   4.370   1.100   5.782
 7786SOL    HW224258   4.530   1.073   5.764
 7787SOL     OW24259   2.629   2.382   1.880
 7787SOL    HW124260   2.640   2.359   1.783
 7787SOL    HW224261   2.719   2.385   1.924
 7788SOL     OW24262   0.397   4.378   1.723
 7788SOL    HW124263   0.424   4.427   1.806
 7788SOL    HW224264   0.397   4.279   1.740
 7789SOL     OW24265   3.669   1.484   6.088
 7789SOL    HW124266   3.757   1.465   6.045
 7789SOL    HW224267   3.597   1.484   6.018
 7790SOL     OW24268   4.320   5.027   2.058
 7790SOL    HW124269   4.354   5.081   2.135
 7790SOL    HW224270   4.270   5.087   1.995
 7791SOL     OW24271   2.988   6.010   2.557
 7791SOL    HW124272   2.940   5.958   2.628
 7791SOL    HW224273   2.939   6.095   2.540
 7792SOL     OW24274   1.412   1.449   2.819
 7792SOL    HW124275   1.367   1.369   2.780
 7792SOL    HW224276   1.430   1.516   2.746
 7793SOL     OW24277   5.303   0.940   0.864
 7793SOL    HW124278   5.340   0.980   0.780
 7793SOL    HW224279   5.341   0.987   0.944
 7794SOL     OW24280   0.876   6.622   3.301
 7794SOL    HW124281   0.821   6.704   3.283
 7794SOL    HW224282   0.816   6.542   3.304
 7795SOL     OW24283   3.417   4.434   0.298
 7795SOL    HW124284   3.323   4.434   0.333
 7795SOL    HW224285   3.480   4.428   0.375
 7796SOL     OW24286   3.458   2.353   0.234
 7796SOL    HW124287   3.407   2.364   0.148
 7796SOL    HW224288   3.479   2.443   0.272
 7797SOL     OW24289   0.733   5.627   3.371
 7797SOL    HW124290   0.765   5.712   3.414
 7797SOL    HW224291   0.780   5.615   3.284
 7798SOL     OW24292   1.847   3.041   0.805
 7798SOL    HW124293   1.939   3.025   0.841
 7798SOL    HW224294   1.850   3.114   0.737
 7799SOL     OW24295   3.236   5.879   3.766
 7799SOL    HW124296   3.251   5.797   3.822
 7799SOL    HW224297   3.248   5.960   3.823
 7800SOL     OW24298   0.807   0.102   2.433
 7800SOL    HW124299   0.807   0.166   2.510
 7800SOL    HW224300   0.901   0.075   2.413
 7801SOL     OW24301   1.077   2.284   1.632
 7801SOL    HW124302   1.024   2.207   1.668
 7801SOL    HW224303   1.014   2.353   1.596
 7802SOL     OW24304   0.140   3.578   4.110
 7802SOL    HW124305   0.115   3.559   4.015
 7802SOL    HW224306   0.070   3.636   4.152
 7803SOL     OW24307   2.783   2.573   5.541
 7803SOL    HW124308   2.792   2.474   5.553
 7803SOL    HW224309   2.811   2.619   5.626
 7804SOL     OW24310   3.534   1.663   5.159
 7804SOL    HW124311   3.617   1.640   5.109
 7804SOL    HW224312   3.460   1.679   5.094
 7805SOL     OW24313   5.227   2.838   0.190
 7805SOL    HW124314   5.145   2.893   0.175
 7805SOL    HW224315   5.206   2.763   0.253
 7806SOL     OW24316   0.001   1.391   6.179
 7806SOL    HW124317   0.056   1.405   6.261
 7806SOL    HW224318   0.026   1.461   6.111
 7807SOL     OW24319   2.446   5.661   6.047
 7807SOL    HW124320   2.525   5.600   6.046
 7807SOL    HW224321   2.446   5.716   6.130
 7808SOL     OW24322   6.691   3.682   3.726
 7808SOL    HW124323   6.682   3.582   3.727
 7808SOL    HW224324   6.707   3.714   3.820
 7809SOL     OW24325   5.085   5.498   2.316
 7809SOL    HW124326   5.156   5.502   2.386
 7809SOL    HW224327   5.009   5.440   2.349
 7810SOL     OW24328   2.525   6.878   6.278
 7810SOL    HW124329   2.618   6.856   6.250
 7810SOL    HW224330   2.485   6.801   6.326
 7811SOL     OW24331   1.519   5.906   2.673
 7811SOL    HW124332   1.510   5.807   2.660
 7811SOL    HW224333   1.611   5.927   2.706
 7812SOL     OW24334   3.193   0.416   5.782
 7812SOL    HW124335   3.189   0.389   5.878
 7812SOL    HW224336   3.208   0.515   5.776
 7813SOL     OW24337   5.458   0.400   0.816
 7813SOL    HW124338   5.485   0.378   0.722
 7813SOL    HW224339   5.425   0.495   0.819
 7814SOL     OW24340   6.212   2.660   2.325
 7814SOL    HW124341   6.137   2.613   2.278
 7814SOL    HW224342   6.206   2.758   2.307
 7815SOL     OW24343   5.208   5.794   4.328
 7815SOL    HW124344   5.277   5.825   4.394
 7815SOL    HW224345   5.219   5.695   4.313
 7816SOL     OW24346   0.930   1.202   5.520
 7816SOL    HW124347   0.886   1.127   5.471
 7816SOL    HW224348   0.898   1.290   5.484
 7817SOL     OW24349   3.697   2.864   0.287
 7817SOL    HW124350   3.753   2.804   0.345
 7817SOL    HW224351   3.632   2.809   0.235
 7818SOL     OW24352   5.853   0.838   3.265
 7818SOL    HW124353   5.952   0.832   3.276
 7818SOL    HW224354   5.815   0.899   3.335
 7819SOL     OW24355   1.416   3.140   4.858
 7819SOL    HW124356   1.508   3.175   4.877
 7819SOL    HW224357   1.413   3.042   4.879
 7820SOL     OW24358   1.101   0.837   5.200
 7820SOL    HW124359   1.191   0.827   5.243
 7820SOL    HW224360   1.089   0.768   5.129
 7821SOL     OW24361   3.770   6.233   6.550
 7821SOL    HW124362   3.852   6.236   6.493
 7821SOL    HW224363   3.797   6.224   6.646
 7822SOL     OW24364   0.028   1.333   5.202
 7822SOL    HW124365   0.080   1.302   5.282
 7822SOL    HW224366   0.084   1.393   5.147
 7823SOL     OW24367   2.420   3.345   5.451
 7823SOL    HW124368   2.344   3.388   5.500
 7823SOL    HW224369   2.401   3.248   5.439
 7824SOL     OW24370   5.214   3.974   2.689
 7824SOL    HW124371   5.174   3.976   2.780
 7824SOL    HW224372   5.165   3.908   2.632
 7825SOL     OW24373   3.611   3.314   2.559
 7825SOL    HW124374   3.587   3.377   2.634
 7825SOL    HW224375   3.562   3.228   2.571
 7826SOL     OW24376   0.199   0.552   0.990
 7826SOL    HW124377   0.229   0.505   0.908
 7826SOL    HW224378   0.186   0.485   1.064
 7827SOL     OW24379   4.535   3.388   0.760
 7827SOL    HW124380   4.482   3.326   0.817
 7827SOL    HW224381   4.483   3.410   0.677
 7828SOL     OW24382   0.262   5.866   0.841
 7828SOL    HW124383   0.227   5.947   0.888
 7828SOL    HW224384   0.337   5.826   0.894
 7829SOL     OW24385   3.913   3.651   3.166
 7829SOL    HW124386   3.975   3.608   3.100
 7829SOL    HW224387   3.966   3.697   3.237
 7830SOL     OW24388   5.503   3.794   0.153
 7830SOL    HW124389   5.493   3.726   0.080
 7830SOL    HW224390   5.437   3.868   0.138
 7831SOL     OW24391   1.736   2.655   6.423
 7831SOL    HW124392   1.800   2.681   6.495
 7831SOL    HW224393   1.783   2.655   6.335
 7832SOL     OW24394   2.794   2.597   5.266
 7832SOL    HW124395   2.714   2.563   5.216
 7832SOL    HW224396   2.772   2.608   5.362
 7833SOL     OW24397   0.642   0.407   1.254
 7833SOL    HW124398   0.600   0.433   1.167
 7833SOL    HW224399   0.662   0.309   1.253
 7834SOL     OW24400   6.804   0.501   1.641
 7834SOL    HW124401   6.798   0.588   1.690
 7834SOL    HW224402   6.728   0.494   1.576
 7835SOL     OW24403   2.278   2.312   4.408
 7835SOL    HW124404   2.340   2.246   4.450
 7835SOL    HW224405   2.229   2.267   4.333
 7836SOL     OW24406   2.360   0.832   6.942
 7836SOL    HW124407   2.269   0.826   6.982
 7836SOL    HW224408   2.363   0.778   6.858
 7837SOL     OW24409   4.990   6.063   2.854
 7837SOL    HW124410   4.935   6.118   2.791
 7837SOL    HW224411   5.071   6.030   2.807
 7838SOL     OW24412   3.595   6.497   4.215
 7838SOL    HW124413   3.621   6.594   4.211
 7838SOL    HW224414   3.624   6.452   4.131
 7839SOL     OW24415   0.181   4.564   3.735
 7839SOL    HW124416   0.217   4.471   3.740
 7839SOL    HW224417   0.081   4.560   3.729
 7840SOL     OW24418   4.867   3.042   5.945
 7840SOL    HW124419   4.835   3.040   6.040
 7840SOL    HW224420   4.790   3.062   5.885
 7841SOL     OW24421   1.767   1.781   6.374
 7841SOL    HW124422   1.791   1.805   6.280
 7841SOL    HW224423   1.725   1.859   6.419
 7842SOL     OW24424   2.939   0.780   1.913
 7842SOL    HW124425   2.847   0.775   1.874
 7842SOL    HW224426   2.936   0.833   1.998
 7843SOL     OW24427   0.079   3.417   1.472
 7843SOL    HW124428   7.004   3.388   1.465
 7843SOL    HW224429   0.117   3.387   1.560
 7844SOL     OW24430   3.933   1.288   4.203
 7844SOL    HW124431   3.963   1.356   4.270
 7844SOL    HW224432   3.870   1.330   4.138
 7845SOL     OW24433   1.019   1.223   4.156
 7845SOL    HW124434   1.002   1.292   4.086
 7845SOL    HW224435   1.115   1.229   4.186
 7846SOL     OW24436   3.859   6.394   1.816
 7846SOL    HW124437   3.760   6.391   1.830
 7846SOL    HW224438   3.889   6.309   1.771
 7847SOL     OW24439   0.134   0.346   0.370
 7847SOL    HW124440   0.198   0.422   0.355
 7847SOL    HW224441   0.182   0.259   0.359
 7848SOL     OW24442   4.022   4.068   0.864
 7848SOL    HW124443   3.944   4.123   0.894
 7848SOL    HW224444   4.021   4.061   0.764
 7849SOL     OW24445   5.580   3.862   4.837
 7849SOL    HW124446   5.602   3.775   4.882
 7849SOL    HW224447   5.662   3.896   4.791
 7850SOL     OW24448   0.631   1.810   4.406
 7850SOL    HW124449   0.699   1.740   4.429
 7850SOL    HW224450   0.600   1.855   4.490
 7851SOL     OW24451   4.764   6.554   0.608
 7851SOL    HW124452   4.778   6.495   0.528
 7851SOL    HW224453   4.836   6.537   0.675
 7852SOL     OW24454   1.853   6.579   0.120
 7852SOL    HW124455   1.923   6.618   0.060
 7852SOL    HW224456   1.767   6.628   0.108
 7853SOL     OW24457   1.822   2.535   0.290
 7853SOL    HW124458   1.784   2.445   0.312
 7853SOL    HW224459   1.858   2.578   0.372
 7854SOL     OW24460   3.343   4.101   2.720
 7854SOL    HW124461   3.268   4.113   2.655
 7854SOL    HW224462   3.385   4.011   2.706
 7855SOL     OW24463   3.887   0.003   5.296
 7855SOL    HW124464   3.937   0.089   5.306
 7855SOL    HW224465   3.911   6.962   5.372
 7856SOL     OW24466   3.930   3.581   6.414
 7856SOL    HW124467   3.876   3.613   6.491
 7856SOL    HW224468   4.019   3.626   6.414
 7857SOL     OW24469   0.830   2.324   4.593
 7857SOL    HW124470   0.880   2.394   4.644
 7857SOL    HW224471   0.733   2.328   4.617
 7858SOL     OW24472   5.605   4.412   2.954
 7858SOL    HW124473   5.505   4.402   2.957
 7858SOL    HW224474   5.648   4.340   3.009
 7859SOL     OW24475   0.762   5.284   0.069
 7859SOL    HW124476   0.679   5.303   0.018
 7859SOL    HW224477   0.838   5.336   0.031
 7860SOL     OW24478   3.617   6.964   1.784
 7860SOL    HW124479   3.601   6.992   1.689
 7860SOL    HW224480   3.685   0.003   1.826
 7861SOL     OW24481   5.511   4.034   0.833
 7861SOL    HW124482   5.452   4.013   0.911
 7861SOL    HW224483   5.594   3.978   0.838
 7862SOL     OW24484   2.911   4.327   1.711
 7862SOL    HW124485   2.936   4.391   1.784
 7862SOL    HW224486   2.834   4.363   1.660
 7863SOL     OW24487   5.824   5.766   2.329
 7863SOL    HW124488   5.794   5.840   2.389
 7863SOL    HW224489   5.909   5.792   2.283
 7864SOL     OW24490   0.808   5.869   4.037
 7864SOL    HW124491   0.712   5.840   4.042
 7864SOL    HW224492   0.866   5.796   4.072
 7865SOL     OW24493   3.532   1.157   2.990
 7865SOL    HW124494   3.480   1.238   3.017
 7865SOL    HW224495   3.529   1.147   2.890
 7866SOL     OW24496   2.167   2.154   4.219
 7866SOL    HW124497   2.189   2.060   4.195
 7866SOL    HW224498   2.070   2.172   4.203
 7867SOL     OW24499   5.394   3.919   2.335
 7867SOL    HW124500   5.429   3.848   2.397
 7867SOL    HW224501   5.464   3.942   2.268
 7868SOL     OW24502   5.550   0.165   0.937
 7868SOL    HW124503   5.506   0.240   0.887
 7868SOL    HW224504   5.646   0.159   0.912
 7869SOL     OW24505   6.564   1.921   3.833
 7869SOL    HW124506   6.522   1.876   3.912
 7869SOL    HW224507   6.614   1.853   3.779
 7870SOL     OW24508   0.151   6.939   3.083
 7870SOL    HW124509   0.229   7.001   3.088
 7870SOL    HW224510   0.077   6.984   3.033
 7871SOL     OW24511   5.430   3.376   3.905
 7871SOL    HW124512   5.495   3.323   3.960
 7871SOL    HW224513   5.443   3.474   3.925
 7872SOL     OW24514   6.463   3.186   4.042
 7872SOL    HW124515   6.552   3.144   4.060
 7872SOL    HW224516   6.462   3.224   3.950
 7873SOL     OW24517   6.838   5.886   4.918
 7873SOL    HW124518   6.788   5.935   4.847
 7873SOL    HW224519   6.916   5.838   4.876
 7874SOL     OW24520   6.130   1.351   0.818
 7874SOL    HW124521   6.171   1.343   0.909
 7874SOL    HW224522   6.031   1.353   0.827
 7875SOL     OW24523   4.413   3.075   0.453
 7875SOL    HW124524   4.468   3.031   0.381
 7875SOL    HW224525   4.333   3.019   0.473
 7876SOL     OW24526   6.985   0.789   5.327
 7876SOL    HW124527   6.990   0.868   5.266
 7876SOL    HW224528   0.056   0.753   5.344
 7877SOL     OW24529   6.243   2.609   2.591
 7877SOL    HW124530   6.162   2.588   2.646
 7877SOL    HW224531   6.215   2.645   2.502
 7878SOL     OW24532   4.528   4.121   1.113
 7878SOL    HW124533   4.444   4.071   1.091
 7878SOL    HW224534   4.506   4.215   1.136
 7879SOL     OW24535   5.645   0.777   5.181
 7879SOL    HW124536   5.551   0.794   5.150
 7879SOL    HW224537   5.708   0.831   5.126
 7880SOL     OW24538   1.373   6.741   6.366
 7880SOL    HW124539   1.339   6.650   6.342
 7880SOL    HW224540   1.456   6.733   6.420
 7881SOL     OW24541   0.973   5.081   3.353
 7881SOL    HW124542   0.923   5.113   3.434
 7881SOL    HW224543   1.070   5.071   3.376
 7882SOL     OW24544   0.745   4.192   1.903
 7882SOL    HW124545   0.799   4.143   1.835
 7882SOL    HW224546   0.660   4.142   1.919
 7883SOL     OW24547   3.676   2.016   3.415
 7883SOL    HW124548   3.635   2.082   3.477
 7883SOL    HW224549   3.765   2.050   3.383
 7884SOL     OW24550   0.635   3.579   4.463
 7884SOL    HW124551   0.674   3.604   4.551
 7884SOL    HW224552   0.560   3.642   4.441
 7885SOL     OW24553   5.609   4.867   2.956
 7885SOL    HW124554   5.679   4.933   2.983
 7885SOL    HW224555   5.644   4.774   2.967
 7886SOL     OW24556   4.887   3.296   2.816
 7886SOL    HW124557   4.908   3.237   2.894
 7886SOL    HW224558   4.965   3.356   2.799
 7887SOL     OW24559   1.920   2.479   1.648
 7887SOL    HW124560   1.858   2.494   1.726
 7887SOL    HW224561   2.012   2.458   1.682
 7888SOL     OW24562   6.175   0.859   5.010
 7888SOL    HW124563   6.136   0.789   4.950
 7888SOL    HW224564   6.117   0.869   5.091
 7889SOL     OW24565   5.303   4.956   6.864
 7889SOL    HW124566   5.359   5.037   6.879
 7889SOL    HW224567   5.210   4.983   6.839
 7890SOL     OW24568   2.125   3.090   3.987
 7890SOL    HW124569   2.052   3.034   3.948
 7890SOL    HW224570   2.199   3.031   4.020
 7891SOL     OW24571   6.321   1.911   4.428
 7891SOL    HW124572   6.299   1.935   4.523
 7891SOL    HW224573   6.419   1.894   4.421
 7892SOL     OW24574   0.671   1.617   5.244
 7892SOL    HW124575   0.657   1.633   5.147
 7892SOL    HW224576   0.680   1.704   5.292
 7893SOL     OW24577   5.431   0.421   0.345
 7893SOL    HW124578   5.344   0.407   0.297
 7893SOL    HW224579   5.493   0.474   0.287
 7894SOL     OW24580   3.470   1.458   6.591
 7894SOL    HW124581   3.541   1.427   6.528
 7894SOL    HW224582   3.380   1.443   6.550
 7895SOL     OW24583   6.149   6.745   3.256
 7895SOL    HW124584   6.196   6.666   3.294
 7895SOL    HW224585   6.178   6.828   3.305
 7896SOL     OW24586   2.464   2.571   0.449
 7896SOL    HW124587   2.382   2.627   0.441
 7896SOL    HW224588   2.442   2.475   0.433
 7897SOL     OW24589   3.044   2.691   0.809
 7897SOL    HW124590   3.050   2.643   0.721
 7897SOL    HW224591   2.960   2.745   0.811
 7898SOL     OW24592   5.491   6.510   3.513
 7898SOL    HW124593   5.569   6.568   3.488
 7898SOL    HW224594   5.410   6.566   3.527
 7899SOL     OW24595   6.250   4.229   4.414
 7899SOL    HW124596   6.326   4.164   4.413
 7899SOL    HW224597   6.234   4.264   4.322
 7900SOL     OW24598   0.754   3.770   1.022
 7900SOL    HW124599   0.807   3.752   1.105
 7900SOL    HW224600   0.782   3.858   0.983
 7901SOL     OW24601   0.874   1.420   6.717
 7901SOL    HW124602   0.868   1.415   6.816
 7901SOL    HW224603   0.925   1.502   6.691
 7902SOL     OW24604   1.460   0.086   2.741
 7902SOL    HW124605   1.447   0.145   2.820
 7902SOL    HW224606   1.507   0.003   2.768
 7903SOL     OW24607   2.485   1.767   4.946
 7903SOL    HW124608   2.419   1.835   4.977
 7903SOL    HW224609   2.578   1.802   4.956
 7904SOL     OW24610   4.563   1.866   3.016
 7904SOL    HW124611   4.620   1.785   3.029
 7904SOL    HW224612   4.468   1.838   3.002
 7905SOL     OW24613   5.303   1.332   1.231
 7905SOL    HW124614   5.277   1.427   1.216
 7905SOL    HW224615   5.231   1.286   1.283
 7906SOL     OW24616   1.308   4.971   0.394
 7906SOL    HW124617   1.229   5.015   0.437
 7906SOL    HW224618   1.364   4.927   0.465
 7907SOL     OW24619   6.156   6.682   2.595
 7907SOL    HW124620   6.160   6.583   2.585
 7907SOL    HW224621   6.113   6.706   2.682
 7908SOL     OW24622   1.364   6.866   6.691
 7908SOL    HW124623   1.396   6.953   6.653
 7908SOL    HW224624   1.267   6.854   6.668
 7909SOL     OW24625   5.590   3.978   2.140
 7909SOL    HW124626   5.665   4.041   2.124
 7909SOL    HW224627   5.572   3.926   2.056
 7910SOL     OW24628   0.802   3.902   6.463
 7910SOL    HW124629   0.722   3.933   6.411
 7910SOL    HW224630   0.820   3.967   6.537
 7911SOL     OW24631   6.742   4.299   6.069
 7911SOL    HW124632   6.789   4.346   5.994
 7911SOL    HW224633   6.645   4.321   6.066
 7912SOL     OW24634   6.185   5.185   1.080
 7912SOL    HW124635   6.276   5.145   1.074
 7912SOL    HW224636   6.188   5.265   1.139
 7913SOL     OW24637   1.204   4.854   0.749
 7913SOL    HW124638   1.154   4.939   0.732
 7913SOL    HW224639   1.165   4.781   0.693
 7914SOL     OW24640   0.648   6.791   5.184
 7914SOL    HW124641   0.679   6.782   5.279
 7914SOL    HW224642   0.661   6.885   5.153
 7915SOL     OW24643   3.580   5.328   2.877
 7915SOL    HW124644   3.603   5.397   2.946
 7915SOL    HW224645   3.482   5.334   2.857
 7916SOL     OW24646   1.041   0.429   4.399
 7916SOL    HW124647   1.013   0.377   4.319
 7916SOL    HW224648   1.029   0.373   4.481
 7917SOL     OW24649   4.090   2.189   1.327
 7917SOL    HW124650   4.135   2.235   1.404
 7917SOL    HW224651   4.082   2.254   1.251
 7918SOL     OW24652   1.926   2.280   3.743
 7918SOL    HW124653   2.022   2.297   3.763
 7918SOL    HW224654   1.904   2.312   3.651
 7919SOL     OW24655   1.570   6.198   5.182
 7919SOL    HW124656   1.631   6.147   5.121
 7919SOL    HW224657   1.499   6.138   5.216
 7920SOL     OW24658   5.090   0.226   1.363
 7920SOL    HW124659   5.016   0.292   1.377
 7920SOL    HW224660   5.052   0.133   1.369
 7921SOL     OW24661   5.442   2.497   1.219
 7921SOL    HW124662   5.531   2.454   1.236
 7921SOL    HW224663   5.394   2.511   1.305
 7922SOL     OW24664   2.561   6.709   1.415
 7922SOL    HW124665   2.647   6.760   1.420
 7922SOL    HW224666   2.486   6.766   1.450
 7923SOL     OW24667   5.034   1.769   6.898
 7923SOL    HW124668   4.938   1.786   6.921
 7923SOL    HW224669   5.088   1.763   6.982
 7924SOL     OW24670   6.197   6.346   0.669
 7924SOL    HW124671   6.250   6.274   0.625
 7924SOL    HW224672   6.111   6.309   0.702
 7925SOL     OW24673   1.668   5.245   6.533
 7925SOL    HW124674   1.633   5.223   6.623
 7925SOL    HW224675   1.717   5.166   6.495
 7926SOL     OW24676   5.123   5.883   6.927
 7926SOL    HW124677   5.210   5.930   6.939
 7926SOL    HW224678   5.108   5.864   6.830
 7927SOL     OW24679   3.972   0.005   2.370
 7927SOL    HW124680   3.961   0.100   2.343
 7927SOL    HW224681   4.014   0.000   2.461
 7928SOL     OW24682   5.903   2.417   3.120
 7928SOL    HW124683   5.995   2.384   3.144
 7928SOL    HW224684   5.858   2.349   3.062
 7929SOL     OW24685   4.381   4.479   6.226
 7929SOL    HW124686   4.392   4.576   6.250
 7929SOL    HW224687   4.439   4.423   6.284
 7930SOL     OW24688   4.243   6.550   6.320
 7930SOL    HW124689   4.152   6.582   6.345
 7930SOL    HW224690   4.304   6.629   6.307
 7931SOL     OW24691   3.861   2.014   1.349
 7931SOL    HW124692   3.901   1.949   1.414
 7931SOL    HW224693   3.925   2.090   1.334
 7932SOL     OW24694   1.308   3.483   1.736
 7932SOL    HW124695   1.389   3.542   1.727
 7932SOL    HW224696   1.233   3.536   1.777
 7933SOL     OW24697   0.867   1.789   0.197
 7933SOL    HW124698   0.854   1.700   0.241
 7933SOL    HW224699   0.950   1.832   0.233
 7934SOL     OW24700   0.868   5.793   1.232
 7934SOL    HW124701   0.919   5.730   1.290
 7934SOL    HW224702   0.876   5.886   1.269
 7935SOL     OW24703   5.350   2.990   3.232
 7935SOL    HW124704   5.269   3.029   3.187
 7935SOL    HW224705   5.432   3.028   3.190
 7936SOL     OW24706   3.135   5.781   3.507
 7936SOL    HW124707   3.149   5.845   3.582
 7936SOL    HW224708   3.150   5.827   3.420
 7937SOL     OW24709   3.375   1.063   6.886
 7937SOL    HW124710   3.461   1.012   6.873
 7937SOL    HW224711   3.390   1.139   6.949
 7938SOL     OW24712   3.110   6.688   3.970
 7938SOL    HW124713   3.078   6.680   3.875
 7938SOL    HW224714   3.209   6.672   3.972
 7939SOL     OW24715   0.671   0.830   3.029
 7939SOL    HW124716   0.686   0.891   3.107
 7939SOL    HW224717   0.686   0.881   2.944
 7940SOL     OW24718   5.516   1.530   3.907
 7940SOL    HW124719   5.423   1.502   3.928
 7940SOL    HW224720   5.558   1.572   3.987
 7941SOL     OW24721   3.699   0.337   0.937
 7941SOL    HW124722   3.630   0.268   0.918
 7941SOL    HW224723   3.787   0.309   0.897
 7942SOL     OW24724   1.056   4.709   0.582
 7942SOL    HW124725   0.963   4.686   0.611
 7942SOL    HW224726   1.112   4.625   0.580
 7943SOL     OW24727   1.468   5.899   6.023
 7943SOL    HW124728   1.567   5.893   6.039
 7943SOL    HW224729   1.446   5.986   5.980
 7944SOL     OW24730   1.375   2.770   1.530
 7944SOL    HW124731   1.445   2.766   1.602
 7944SOL    HW224732   1.350   2.677   1.504
 7945SOL     OW24733   6.190   4.068   3.536
 7945SOL    HW124734   6.201   4.073   3.636
 7945SOL    HW224735   6.167   3.975   3.510
 7946SOL     OW24736   4.359   1.098   6.562
 7946SOL    HW124737   4.338   1.005   6.531
 7946SOL    HW224738   4.456   1.116   6.547
 7947SOL     OW24739   0.152   4.048   6.747
 7947SOL    HW124740   0.062   4.030   6.786
 7947SOL    HW224741   0.166   4.147   6.741
 7948SOL     OW24742   2.006   5.556   3.007
 7948SOL    HW124743   1.947   5.481   2.977
 7948SOL    HW224744   1.974   5.642   2.967
 7949SOL     OW24745   3.038   6.178   6.670
 7949SOL    HW124746   3.119   6.225   6.706
 7949SOL    HW224747   3.065   6.116   6.596
 7950SOL     OW24748   6.092   4.403   5.173
 7950SOL    HW124749   6.003   4.441   5.198
 7950SOL    HW224750   6.126   4.450   5.091
 7951SOL     OW24751   4.413   5.815   2.367
 7951SOL    HW124752   4.430   5.886   2.436
 7951SOL    HW224753   4.317   5.787   2.372
 7952SOL     OW24754   6.110   4.091   5.959
 7952SOL    HW124755   6.079   4.079   5.865
 7952SOL    HW224756   6.172   4.016   5.984
 7953SOL     OW24757   1.533   6.771   0.529
 7953SOL    HW124758   1.600   6.720   0.584
 7953SOL    HW224759   1.526   6.729   0.439
 7954SOL     OW24760   3.978   4.031   6.669
 7954SOL    HW124761   4.015   4.082   6.747
 7954SOL    HW224762   3.894   3.985   6.696
 7955SOL     OW24763   2.082   1.612   6.608
 7955SOL    HW124764   1.985   1.637   6.600
 7955SOL    HW224765   2.094   1.517   6.578
 7956SOL     OW24766   6.686   5.985   0.358
 7956SOL    HW124767   6.651   5.988   0.264
 7956SOL    HW224768   6.779   5.949   0.358
 7957SOL     OW24769   4.952   1.099   5.857
 7957SOL    HW124770   5.028   1.159   5.883
 7957SOL    HW224771   4.884   1.099   5.931
 7958SOL     OW24772   5.632   2.826   0.515
 7958SOL    HW124773   5.673   2.845   0.426
 7958SOL    HW224774   5.698   2.776   0.572
 7959SOL     OW24775   6.215   2.032   0.070
 7959SOL    HW124776   6.265   1.998   7.010
 7959SOL    HW224777   6.120   2.049   0.045
 7960SOL     OW24778   0.806   1.533   5.614
 7960SOL    HW124779   0.721   1.481   5.624
 7960SOL    HW224780   0.853   1.538   5.701
 7961SOL     OW24781   6.124   6.715   0.223
 7961SOL    HW124782   6.101   6.633   0.275
 7961SOL    HW224783   6.075   6.713   0.135
 7962SOL     OW24784   5.828   6.828   5.055
 7962SOL    HW124785   5.883   6.778   5.121
 7962SOL    HW224786   5.734   6.833   5.087
 7963SOL     OW24787   6.466   6.925   4.106
 7963SOL    HW124788   6.504   7.015   4.085
 7963SOL    HW224789   6.452   6.873   4.022
 7964SOL     OW24790   6.371   4.076   1.714
 7964SOL    HW124791   6.314   3.994   1.720
 7964SOL    HW224792   6.347   4.127   1.631
 7965SOL     OW24793   3.932   2.641   6.133
 7965SOL    HW124794   3.857   2.644   6.199
 7965SOL    HW224795   4.006   2.701   6.163
 7966SOL     OW24796   4.905   3.851   4.937
 7966SOL    HW124797   4.893   3.903   4.853
 7966SOL    HW224798   4.844   3.772   4.937
 7967SOL     OW24799   1.553   4.485   1.239
 7967SOL    HW124800   1.596   4.574   1.254
 7967SOL    HW224801   1.456   4.490   1.265
 7968SOL     OW24802   0.133   2.600   4.840
 7968SOL    HW124803   0.050   2.554   4.807
 7968SOL    HW224804   0.108   2.681   4.893
 7969SOL     OW24805   3.780   5.602   6.621
 7969SOL    HW124806   3.786   5.627   6.524
 7969SOL    HW224807   3.700   5.543   6.635
 7970SOL     OW24808   6.465   2.561   3.656
 7970SOL    HW124809   6.527   2.552   3.735
 7970SOL    HW224810   6.397   2.488   3.659
 7971SOL     OW24811   2.954   1.343   6.668
 7971SOL    HW124812   3.007   1.390   6.739
 7971SOL    HW224813   2.970   1.245   6.675
 7972SOL     OW24814   3.713   4.104   4.184
 7972SOL    HW124815   3.764   4.143   4.261
 7972SOL    HW224816   3.689   4.009   4.205
 7973SOL     OW24817   5.592   4.181   2.527
 7973SOL    HW124818   5.493   4.177   2.535
 7973SOL    HW224819   5.629   4.089   2.517
 7974SOL     OW24820   0.091   2.889   5.529
 7974SOL    HW124821   0.043   2.914   5.613
 7974SOL    HW224822   0.189   2.907   5.540
 7975SOL     OW24823   5.659   0.446   1.156
 7975SOL    HW124824   5.714   0.506   1.214
 7975SOL    HW224825   5.663   0.352   1.191
 7976SOL     OW24826   0.707   0.765   0.880
 7976SOL    HW124827   0.639   0.825   0.923
 7976SOL    HW224828   0.668   0.723   0.799
 7977SOL     OW24829   5.366   6.029   4.194
 7977SOL    HW124830   5.340   6.040   4.290
 7977SOL    HW224831   5.294   6.066   4.135
 7978SOL     OW24832   7.017   4.501   1.524
 7978SOL    HW124833   6.997   4.428   1.458
 7978SOL    HW224834   6.932   4.532   1.566
 7979SOL     OW24835   1.870   2.376   4.432
 7979SOL    HW124836   1.916   2.434   4.366
 7979SOL    HW224837   1.892   2.407   4.525
 7980SOL     OW24838   3.967   5.762   0.774
 7980SOL    HW124839   3.897   5.763   0.703
 7980SOL    HW224840   4.054   5.796   0.737
 7981SOL     OW24841   1.628   4.351   3.600
 7981SOL    HW124842   1.671   4.388   3.517
 7981SOL    HW224843   1.673   4.266   3.626
 7982SOL     OW24844   6.636   0.875   5.960
 7982SOL    HW124845   6.614   0.782   5.933
 7982SOL    HW224846   6.631   0.935   5.880
 7983SOL     OW24847   4.677   1.008   1.609
 7983SOL    HW124848   4.619   1.024   1.689
 7983SOL    HW224849   4.625   1.028   1.526
 7984SOL     OW24850   0.466   2.343   2.756
 7984SOL    HW124851   0.370   2.347   2.782
 7984SOL    HW224852   0.474   2.334   2.656
 7985SOL     OW24853   2.984   3.127   5.055
 7985SOL    HW124854   3.039   3.058   5.102
 7985SOL    HW224855   2.901   3.086   5.019
 7986SOL     OW24856   3.924   1.025   4.133
 7986SOL    HW124857   3.837   1.033   4.084
 7986SOL    HW224858   3.935   1.104   4.193
 7987SOL     OW24859   0.700   3.500   0.003
 7987SOL    HW124860   0.708   3.472   0.099
 7987SOL    HW224861   0.656   3.428   6.971
 7988SOL     OW24862   6.797   1.204   2.373
 7988SOL    HW124863   6.708   1.241   2.400
 7988SOL    HW224864   6.870   1.263   2.409
 7989SOL     OW24865   0.249   4.364   1.284
 7989SOL    HW124866   0.158   4.342   1.320
 7989SOL    HW224867   0.240   4.435   1.214
 7990SOL     OW24868   4.830   5.928   5.687
 7990SOL    HW124869   4.730   5.927   5.688
 7990SOL    HW224870   4.862   5.909   5.594
 7991SOL     OW24871   5.960   0.871   5.186
 7991SOL    HW124872   5.919   0.960   5.208
 7991SOL    HW224873   5.949   0.809   5.263
 7992SOL     OW24874   2.361   6.887   6.911
 7992SOL    HW124875   2.342   6.870   6.814
 7992SOL    HW224876   2.355   6.985   6.930
 7993SOL     OW24877   6.125   5.512   1.098
 7993SOL    HW124878   6.163   5.586   1.042
 7993SOL    HW224879   6.050   5.468   1.048
 7994SOL     OW24880   6.172   0.091   4.258
 7994SOL    HW124881   6.194   0.187   4.245
 7994SOL    HW224882   6.194   0.041   4.174
 7995SOL     OW24883   0.917   5.234   1.584
 7995SOL    HW124884   0.861   5.169   1.635
 7995SOL    HW224885   0.859   5.310   1.553
 7996SOL     OW24886   2.967   6.782   3.335
 7996SOL    HW124887   2.896   6.782   3.405
 7996SOL    HW224888   2.925   6.779   3.245
 7997SOL     OW24889   1.950   1.548   6.315
 7997SOL    HW124890   1.901   1.631   6.287
 7997SOL    HW224891   1.886   1.471   6.318
 7998SOL     OW24892   2.635   0.837   0.522
 7998SOL    HW124893   2.723   0.806   0.486
 7998SOL    HW224894   2.639   0.841   0.621
 7999SOL     OW24895   1.073   0.601   4.699
 7999SOL    HW124896   1.139   0.656   4.649
 7999SOL    HW224897   1.000   0.571   4.637
 8000SOL     OW24898   4.354   5.336   0.101
 8000SOL    HW124899   4.290   5.356   0.176
 8000SOL    HW224900   4.383   5.241   0.107
 8001SOL     OW24901   4.428   5.201   1.098
 8001SOL    HW124902   4.338   5.164   1.121
 8001SOL    HW224903   4.471   5.237   1.181
 8002SOL     OW24904   0.978   0.264   4.946
 8002SOL    HW124905   0.934   0.272   5.036
 8002SOL    HW224906   1.059   0.323   4.943
 8003SOL     OW24907   2.612   5.791   2.140
 8003SOL    HW124908   2.649   5.738   2.217
 8003SOL    HW224909   2.512   5.790   2.144
 8004SOL     OW24910   1.337   3.133   3.552
 8004SOL    HW124911   1.282   3.069   3.607
 8004SOL    HW224912   1.276   3.196   3.505
 8005SOL     OW24913   2.320   0.644   2.928
 8005SOL    HW124914   2.309   0.545   2.935
 8005SOL    HW224915   2.305   0.672   2.833
 8006SOL     OW24916   3.819   4.217   5.502
 8006SOL    HW124917   3.870   4.262   5.429
 8006SOL    HW224918   3.796   4.124   5.475
 8007SOL     OW24919   0.012   0.438   0.592
 8007SOL    HW124920   0.051   0.409   0.505
 8007SOL    HW224921   0.049   0.528   0.617
 8008SOL     OW24922   4.816   6.069   0.220
 8008SOL    HW124923   4.764   6.153   0.204
 8008SOL    HW224924   4.848   6.033   0.132
 8009SOL     OW24925   5.960   0.891   6.908
 8009SOL    HW124926   6.038   0.858   6.854
 8009SOL    HW224927   5.994   0.931   6.993
 8010SOL     OW24928   2.752   0.225   5.629
 8010SOL    HW124929   2.847   0.248   5.611
 8010SOL    HW224930   2.712   0.293   5.691
 8011SOL     OW24931   3.929   2.119   3.310
 8011SOL    HW124932   3.989   2.159   3.241
 8011SOL    HW224933   3.940   2.168   3.396
 8012SOL     OW24934   5.895   1.657   4.782
 8012SOL    HW124935   5.937   1.566   4.787
 8012SOL    HW224936   5.843   1.673   4.866
 8013SOL     OW24937   3.253   1.594   2.483
 8013SOL    HW124938   3.271   1.685   2.521
 8013SOL    HW224939   3.329   1.568   2.423
 8014SOL     OW24940   2.107   2.525   2.634
 8014SOL    HW124941   2.189   2.583   2.641
 8014SOL    HW224942   2.038   2.573   2.580
 8015SOL     OW24943   3.386   0.087   4.839
 8015SOL    HW124944   3.416   0.008   4.785
 8015SOL    HW224945   3.300   0.122   4.802
 8016SOL     OW24946   3.623   2.213   5.254
 8016SOL    HW124947   3.685   2.282   5.291
 8016SOL    HW224948   3.647   2.196   5.158
 8017SOL     OW24949   6.686   5.420   0.909
 8017SOL    HW124950   6.642   5.336   0.940
 8017SOL    HW224951   6.663   5.494   0.972
 8018SOL     OW24952   4.086   2.373   6.525
 8018SOL    HW124953   3.994   2.336   6.538
 8018SOL    HW224954   4.150   2.298   6.506
 8019SOL     OW24955   2.721   3.562   1.027
 8019SOL    HW124956   2.800   3.563   0.965
 8019SOL    HW224957   2.650   3.503   0.989
 8020SOL     OW24958   0.960   0.831   5.677
 8020SOL    HW124959   1.056   0.827   5.701
 8020SOL    HW224960   0.904   0.830   5.760
 8021SOL     OW24961   1.390   2.716   0.605
 8021SOL    HW124962   1.441   2.784   0.658
 8021SOL    HW224963   1.301   2.702   0.647
 8022SOL     OW24964   4.111   0.984   1.764
 8022SOL    HW124965   4.168   0.904   1.745
 8022SOL    HW224966   4.101   1.038   1.681
 8023SOL     OW24967   4.722   6.343   1.241
 8023SOL    HW124968   4.814   6.343   1.281
 8023SOL    HW224969   4.669   6.268   1.280
 8024SOL     OW24970   2.507   1.337   6.493
 8024SOL    HW124971   2.593   1.333   6.441
 8024SOL    HW224972   2.493   1.430   6.527
 8025SOL     OW24973   1.320   5.853   1.747
 8025SOL    HW124974   1.252   5.873   1.677
 8025SOL    HW224975   1.410   5.883   1.715
 8026SOL     OW24976   0.358   5.831   6.223
 8026SOL    HW124977   0.368   5.819   6.322
 8026SOL    HW224978   0.414   5.763   6.175
 8027SOL     OW24979   3.672   0.544   6.838
 8027SOL    HW124980   3.653   0.505   6.928
 8027SOL    HW224981   3.587   0.579   6.798
 8028SOL     OW24982   3.166   5.731   5.278
 8028SOL    HW124983   3.108   5.702   5.355
 8028SOL    HW224984   3.122   5.806   5.230
 8029SOL     OW24985   0.670   0.029   0.855
 8029SOL    HW124986   0.731   7.013   0.784
 8029SOL    HW224987   0.585   0.061   0.812
 8030SOL     OW24988   0.597   4.436   1.082
 8030SOL    HW124989   0.618   4.382   1.165
 8030SOL    HW224990   0.498   4.450   1.076
 8031SOL     OW24991   0.501   0.325   2.931
 8031SOL    HW124992   0.574   0.314   2.998
 8031SOL    HW224993   0.423   0.371   2.974
 8032SOL     OW24994   0.115   2.991   1.466
 8032SOL    HW124995   0.159   3.040   1.391
 8032SOL    HW224996   0.070   3.055   1.527
 8033SOL     OW24997   4.272   3.949   1.066
 8033SOL    HW124998   4.203   3.999   1.015
 8033SOL    HW224999   4.232   3.914   1.151
 8034SOL     OW25000   6.526   0.056   6.204
 8034SOL    HW125001   6.540   0.115   6.283
 8034SOL    HW225002   6.550   0.106   6.121
 8035SOL     OW25003   5.909   0.998   3.682
 8035SOL    HW125004   5.841   0.934   3.718
 8035SOL    HW225005   5.879   1.034   3.594
 8036SOL     OW25006   5.016   2.855   4.096
 8036SOL    HW125007   4.942   2.864   4.029
 8036SOL    HW225008   4.987   2.793   4.169
 8037SOL     OW25009   2.044   1.472   5.867
 8037SOL    HW125010   1.961   1.439   5.912
 8037SOL    HW225011   2.111   1.398   5.863
 8038SOL     OW25012   6.732   5.467   2.040
 8038SOL    HW125013   6.800   5.533   2.073
 8038SOL    HW225014   6.647   5.515   2.020
 8039SOL     OW25015   1.251   2.342   5.183
 8039SOL    HW125016   1.287   2.296   5.265
 8039SOL    HW225017   1.216   2.273   5.119
 8040SOL     OW25018   1.377   5.525   6.534
 8040SOL    HW125019   1.359   5.494   6.441
 8040SOL    HW225020   1.366   5.449   6.597
 8041SOL     OW25021   3.226   1.413   2.757
 8041SOL    HW125022   3.189   1.370   2.675
 8041SOL    HW225023   3.236   1.511   2.742
 8042SOL     OW25024   4.446   3.855   5.874
 8042SOL    HW125025   4.396   3.903   5.946
 8042SOL    HW225026   4.508   3.787   5.915
 8043SOL     OW25027   5.508   5.800   6.390
 8043SOL    HW125028   5.526   5.704   6.367
 8043SOL    HW225029   5.593   5.844   6.417
 8044SOL     OW25030   2.600   3.552   1.682
 8044SOL    HW125031   2.516   3.543   1.734
 8044SOL    HW225032   2.673   3.500   1.726
 8045SOL     OW25033   6.816   2.807   3.934
 8045SOL    HW125034   6.845   2.773   3.845
 8045SOL    HW225035   6.883   2.874   3.967
 8046SOL     OW25036   6.726   4.487   2.264
 8046SOL    HW125037   6.743   4.568   2.320
 8046SOL    HW225038   6.695   4.515   2.173
 8047SOL     OW25039   3.187   6.010   6.896
 8047SOL    HW125040   3.220   5.916   6.903
 8047SOL    HW225041   3.250   6.064   6.840
 8048SOL     OW25042   3.525   2.505   6.036
 8048SOL    HW125043   3.526   2.482   5.939
 8048SOL    HW225044   3.602   2.460   6.081
 8049SOL     OW25045   1.861   1.724   0.694
 8049SOL    HW125046   1.901   1.774   0.771
 8049SOL    HW225047   1.912   1.640   0.678
 8050SOL     OW25048   0.836   4.744   5.537
 8050SOL    HW125049   0.936   4.741   5.543
 8050SOL    HW225050   0.809   4.825   5.485
 8051SOL     OW25051   4.245   0.060   3.403
 8051SOL    HW125052   4.324   0.012   3.363
 8051SOL    HW225053   4.278   0.123   3.473
 8052SOL     OW25054   2.909   1.836   2.525
 8052SOL    HW125055   2.945   1.767   2.462
 8052SOL    HW225056   2.851   1.900   2.474
 8053SOL     OW25057   2.033   2.567   6.405
 8053SOL    HW125058   2.079   2.483   6.435
 8053SOL    HW225059   2.030   2.568   6.305
 8054SOL     OW25060   4.809   3.409   5.316
 8054SOL    HW125061   4.902   3.373   5.308
 8054SOL    HW225062   4.771   3.426   5.225
 8055SOL     OW25063   6.007   0.605   0.186
 8055SOL    HW125064   6.032   0.537   0.255
 8055SOL    HW225065   5.909   0.621   0.190
 8056SOL     OW25066   2.396   0.547   3.766
 8056SOL    HW125067   2.366   0.470   3.709
 8056SOL    HW225068   2.341   0.549   3.850
 8057SOL     OW25069   3.066   2.295   1.762
 8057SOL    HW125070   3.012   2.336   1.835
 8057SOL    HW225071   3.022   2.311   1.674
 8058SOL     OW25072   3.624   6.106   1.757
 8058SOL    HW125073   3.542   6.145   1.715
 8058SOL    HW225074   3.643   6.016   1.716
 8059SOL     OW25075   3.047   2.385   5.919
 8059SOL    HW125076   3.119   2.423   5.977
 8059SOL    HW225077   3.061   2.416   5.825
 8060SOL     OW25078   6.439   1.051   6.419
 8060SOL    HW125079   6.489   1.096   6.493
 8060SOL    HW225080   6.503   0.999   6.363
 8061SOL     OW25081   0.280   0.545   2.762
 8061SOL    HW125082   0.192   0.593   2.757
 8061SOL    HW225083   0.306   0.534   2.857
 8062SOL     OW25084   4.025   5.657   5.219
 8062SOL    HW125085   4.034   5.673   5.121
 8062SOL    HW225086   4.079   5.724   5.269
 8063SOL     OW25087   2.754   4.691   2.933
 8063SOL    HW125088   2.715   4.745   2.858
 8063SOL    HW225089   2.844   4.656   2.905
 8064SOL     OW25090   6.554   1.755   0.748
 8064SOL    HW125091   6.474   1.731   0.692
 8064SOL    HW225092   6.636   1.751   0.691
 8065SOL     OW25093   4.317   6.048   6.327
 8065SOL    HW125094   4.382   5.978   6.298
 8065SOL    HW225095   4.344   6.137   6.291
 8066SOL     OW25096   0.552   6.682   5.934
 8066SOL    HW125097   0.554   6.597   5.986
 8066SOL    HW225098   0.572   6.759   5.995
 8067SOL     OW25099   5.397   1.806   3.388
 8067SOL    HW125100   5.487   1.831   3.352
 8067SOL    HW225101   5.379   1.858   3.471
 8068SOL     OW25102   5.546   3.626   1.421
 8068SOL    HW125103   5.554   3.648   1.324
 8068SOL    HW225104   5.581   3.533   1.437
 8069SOL     OW25105   1.940   4.353   2.799
 8069SOL    HW125106   1.845   4.354   2.828
 8069SOL    HW225107   1.999   4.360   2.879
 8070SOL     OW25108   4.931   4.736   0.615
 8070SOL    HW125109   5.005   4.670   0.619
 8070SOL    HW225110   4.857   4.700   0.558
 8071SOL     OW25111   2.234   6.834   6.170
 8071SOL    HW125112   2.331   6.814   6.184
 8071SOL    HW225113   2.212   6.825   6.073
 8072SOL     OW25114   1.989   1.566   5.249
 8072SOL    HW125115   1.958   1.472   5.238
 8072SOL    HW225116   2.000   1.587   5.346
 8073SOL     OW25117   5.076   0.600   6.502
 8073SOL    HW125118   5.125   0.588   6.588
 8073SOL    HW225119   5.004   0.669   6.513
 8074SOL     OW25120   1.757   0.769   6.642
 8074SOL    HW125121   1.790   0.848   6.591
 8074SOL    HW225122   1.702   0.799   6.720
 8075SOL     OW25123   0.005   6.656   1.336
 8075SOL    HW125124   6.989   6.703   1.255
 8075SOL    HW225125   7.001   6.706   1.418
 8076SOL     OW25126   7.010   6.533   0.393
 8076SOL    HW125127   0.061   6.580   0.445
 8076SOL    HW225128   0.010   6.435   0.389
 8077SOL     OW25129   4.724   4.612   0.443
 8077SOL    HW125130   4.711   4.573   0.352
 8077SOL    HW225131   4.671   4.559   0.510
 8078SOL     OW25132   0.129   1.265   1.216
 8078SOL    HW125133   0.079   1.335   1.266
 8078SOL    HW225134   0.191   1.308   1.151
 8079SOL     OW25135   2.045   0.969   6.203
 8079SOL    HW125136   2.105   0.939   6.277
 8079SOL    HW225137   2.016   1.064   6.219
 8080SOL     OW25138   0.633   3.120   3.187
 8080SOL    HW125139   0.698   3.155   3.120
 8080SOL    HW225140   0.542   3.154   3.167
 8081SOL     OW25141   6.040   6.877   4.906
 8081SOL    HW125142   6.025   6.933   4.825
 8081SOL    HW225143   5.960   6.884   4.966
 8082SOL     OW25144   4.107   1.335   3.670
 8082SOL    HW125145   4.178   1.316   3.603
 8082SOL    HW225146   4.128   1.287   3.755
 8083SOL     OW25147   6.020   2.092   4.637
 8083SOL    HW125148   6.024   1.993   4.650
 8083SOL    HW225149   6.093   2.136   4.689
 8084SOL     OW25150   4.248   1.352   6.116
 8084SOL    HW125151   4.234   1.426   6.051
 8084SOL    HW225152   4.337   1.309   6.099
 8085SOL     OW25153   1.864   6.105   4.588
 8085SOL    HW125154   1.959   6.113   4.616
 8085SOL    HW225155   1.840   6.008   4.577
 8086SOL     OW25156   0.031   0.686   2.461
 8086SOL    HW125157   0.055   0.777   2.426
 8086SOL    HW225158   6.957   0.666   2.439
 8087SOL     OW25159   1.129   0.451   0.120
 8087SOL    HW125160   1.070   0.531   0.109
 8087SOL    HW225161   1.175   0.432   0.034
 8088SOL     OW25162   6.606   0.304   5.221
 8088SOL    HW125163   6.632   0.369   5.293
 8088SOL    HW225164   6.676   0.234   5.212
 8089SOL     OW25165   6.546   2.171   6.158
 8089SOL    HW125166   6.452   2.140   6.152
 8089SOL    HW225167   6.551   2.255   6.212
 8090SOL     OW25168   4.291   2.110   5.277
 8090SOL    HW125169   4.360   2.068   5.337
 8090SOL    HW225170   4.217   2.046   5.261
 8091SOL     OW25171   1.248   4.982   3.949
 8091SOL    HW125172   1.267   4.884   3.951
 8091SOL    HW225173   1.160   5.000   3.992
 8092SOL     OW25174   4.972   1.712   6.225
 8092SOL    HW125175   4.917   1.649   6.280
 8092SOL    HW225176   4.928   1.801   6.224
 8093SOL     OW25177   3.327   6.124   2.929
 8093SOL    HW125178   3.263   6.134   2.852
 8093SOL    HW225179   3.275   6.122   3.014
 8094SOL     OW25180   2.230   3.994   4.304
 8094SOL    HW125181   2.212   3.950   4.216
 8094SOL    HW225182   2.239   3.924   4.375
 8095SOL     OW25183   1.360   4.805   5.205
 8095SOL    HW125184   1.443   4.783   5.154
 8095SOL    HW225185   1.303   4.723   5.212
 8096SOL     OW25186   0.953   5.819   0.429
 8096SOL    HW125187   0.898   5.862   0.357
 8096SOL    HW225188   0.997   5.890   0.484
 8097SOL     OW25189   4.474   6.359   6.825
 8097SOL    HW125190   4.495   6.409   6.741
 8097SOL    HW225191   4.558   6.315   6.859
 8098SOL     OW25192   1.711   6.010   5.019
 8098SOL    HW125193   1.685   5.914   5.027
 8098SOL    HW225194   1.658   6.053   4.946
 8099SOL     OW25195   2.047   4.346   2.545
 8099SOL    HW125196   2.024   4.348   2.642
 8099SOL    HW225197   2.085   4.257   2.521
 8100SOL     OW25198   0.068   1.120   6.846
 8100SOL    HW125199   0.069   1.147   6.750
 8100SOL    HW225200   6.994   1.107   6.876
 8101SOL     OW25201   3.536   5.551   0.487
 8101SOL    HW125202   3.543   5.494   0.405
 8101SOL    HW225203   3.447   5.595   0.490
 8102SOL     OW25204   1.290   3.817   4.850
 8102SOL    HW125205   1.389   3.822   4.836
 8102SOL    HW225206   1.244   3.837   4.763
 8103SOL     OW25207   3.189   1.100   1.954
 8103SOL    HW125208   3.092   1.124   1.967
 8103SOL    HW225209   3.195   1.013   1.907
 8104SOL     OW25210   1.928   5.787   0.470
 8104SOL    HW125211   1.940   5.827   0.379
 8104SOL    HW225212   1.941   5.858   0.539
 8105SOL     OW25213   7.016   0.050   3.512
 8105SOL    HW125214   0.042   6.996   3.559
 8105SOL    HW225215   0.063   0.113   3.474
 8106SOL     OW25216   2.016   0.213   6.189
 8106SOL    HW125217   2.040   0.123   6.150
 8106SOL    HW225218   2.018   0.282   6.116
 8107SOL     OW25219   1.503   6.272   6.462
 8107SOL    HW125220   1.544   6.213   6.392
 8107SOL    HW225221   1.414   6.235   6.488
 8108SOL     OW25222   1.388   1.393   6.844
 8108SOL    HW125223   1.331   1.476   6.848
 8108SOL    HW225224   1.481   1.419   6.820
 8109SOL     OW25225   6.191   3.229   1.192
 8109SOL    HW125226   6.234   3.162   1.131
 8109SOL    HW225227   6.258   3.298   1.218
 8110SOL     OW25228   3.658   4.741   1.195
 8110SOL    HW125229   3.562   4.762   1.209
 8110SOL    HW225230   3.691   4.787   1.112
 8111SOL     OW25231   6.337   1.190   2.482
 8111SOL    HW125232   6.370   1.250   2.555
 8111SOL    HW225233   6.415   1.139   2.445
 8112SOL     OW25234   1.687   4.220   6.271
 8112SOL    HW125235   1.678   4.126   6.237
 8112SOL    HW225236   1.596   4.261   6.279
 8113SOL     OW25237   5.265   3.621   5.910
 8113SOL    HW125238   5.301   3.528   5.919
 8113SOL    HW225239   5.301   3.679   5.983
 8114SOL     OW25240   1.495   4.054   2.104
 8114SOL    HW125241   1.436   4.075   2.182
 8114SOL    HW225242   1.522   4.139   2.059
 8115SOL     OW25243   2.945   1.722   5.713
 8115SOL    HW125244   2.922   1.804   5.661
 8115SOL    HW225245   2.979   1.652   5.651
 8116SOL     OW25246   3.683   3.195   1.091
 8116SOL    HW125247   3.727   3.272   1.044
 8116SOL    HW225248   3.585   3.212   1.099
 8117SOL     OW25249   2.296   6.819   3.533
 8117SOL    HW125250   2.273   6.782   3.623
 8117SOL    HW225251   2.255   6.909   3.522
 8118SOL     OW25252   6.447   3.059   0.432
 8118SOL    HW125253   6.543   3.030   0.425
 8118SOL    HW225254   6.434   3.108   0.518
 8119SOL     OW25255   5.929   6.247   0.648
 8119SOL    HW125256   5.857   6.182   0.672
 8119SOL    HW225257   5.889   6.322   0.595
 8120SOL     OW25258   2.352   0.082   1.643
 8120SOL    HW125259   2.387   0.107   1.733
 8120SOL    HW225260   2.331   7.005   1.641
 8121SOL     OW25261   0.609   3.197   2.453
 8121SOL    HW125262   0.577   3.134   2.382
 8121SOL    HW225263   0.534   3.215   2.517
 8122SOL     OW25264   0.530   4.899   1.050
 8122SOL    HW125265   0.600   4.833   1.075
 8122SOL    HW225266   0.446   4.880   1.101
 8123SOL     OW25267   7.003   1.615   6.544
 8123SOL    HW125268   6.904   1.604   6.544
 8123SOL    HW225269   0.015   1.627   6.637
 8124SOL     OW25270   5.292   5.079   4.863
 8124SOL    HW125271   5.379   5.042   4.829
 8124SOL    HW225272   5.230   5.004   4.885
 8125SOL     OW25273   1.868   6.064   3.013
 8125SOL    HW125274   1.967   6.054   3.008
 8125SOL    HW225275   1.832   6.002   3.083
 8126SOL     OW25276   3.669   4.911   4.435
 8126SOL    HW125277   3.706   4.873   4.350
 8126SOL    HW225278   3.737   4.901   4.508
 8127SOL     OW25279   3.959   2.452   6.979
 8127SOL    HW125280   3.976   2.548   7.003
 8127SOL    HW225281   3.991   2.393   0.032
 8128SOL     OW25282   3.545   3.125   1.537
 8128SOL    HW125283   3.625   3.112   1.479
 8128SOL    HW225284   3.574   3.147   1.630
 8129SOL     OW25285   1.769   2.734   2.118
 8129SOL    HW125286   1.781   2.650   2.171
 8129SOL    HW225287   1.848   2.793   2.131
 8130SOL     OW25288   0.505   5.677   6.588
 8130SOL    HW125289   0.594   5.685   6.632
 8130SOL    HW225290   0.517   5.635   6.498
 8131SOL     OW25291   1.687   3.679   6.862
 8131SOL    HW125292   1.652   3.613   6.795
 8131SOL    HW225293   1.771   3.643   6.903
 8132SOL     OW25294   0.634   0.408   5.352
 8132SOL    HW125295   0.543   0.391   5.390
 8132SOL    HW225296   0.671   0.492   5.390
 8133SOL     OW25297   3.795   5.064   0.453
 8133SOL    HW125298   3.811   5.065   0.552
 8133SOL    HW225299   3.740   5.144   0.428
 8134SOL     OW25300   5.726   1.508   5.748
 8134SOL    HW125301   5.664   1.577   5.786
 8134SOL    HW225302   5.680   1.419   5.747
 8135SOL     OW25303   2.793   6.865   1.956
 8135SOL    HW125304   2.719   6.799   1.969
 8135SOL    HW225305   2.872   6.819   1.915
 8136SOL     OW25306   5.005   4.456   1.899
 8136SOL    HW125307   4.966   4.473   1.809
 8136SOL    HW225308   5.084   4.515   1.914
 8137SOL     OW25309   3.848   1.278   5.110
 8137SOL    HW125310   3.883   1.237   5.026
 8137SOL    HW225311   3.877   1.223   5.189
 8138SOL     OW25312   5.302   0.783   2.108
 8138SOL    HW125313   5.337   0.822   2.023
 8138SOL    HW225314   5.317   0.848   2.183
 8139SOL     OW25315   0.463   2.142   3.082
 8139SOL    HW125316   0.480   2.232   3.042
 8139SOL    HW225317   0.369   2.138   3.115
 8140SOL     OW25318   4.427   0.751   3.032
 8140SOL    HW125319   4.434   0.736   3.131
 8140SOL    HW225320   4.333   0.735   3.003
 8141SOL     OW25321   5.053   4.937   4.947
 8141SOL    HW125322   5.006   4.946   5.035
 8141SOL    HW225323   4.989   4.958   4.873
 8142SOL     OW25324   7.010   6.058   0.559
 8142SOL    HW125325   0.041   6.062   0.644
 8142SOL    HW225326   6.926   6.006   0.574
 8143SOL     OW25327   6.299   3.503   4.836
 8143SOL    HW125328   6.207   3.542   4.840
 8143SOL    HW225329   6.319   3.457   4.922
 8144SOL     OW25330   5.777   0.084   6.122
 8144SOL    HW125331   5.706   0.042   6.066
 8144SOL    HW225332   5.807   0.169   6.080
 8145SOL     OW25333   5.474   6.299   2.693
 8145SOL    HW125334   5.396   6.326   2.750
 8145SOL    HW225335   5.523   6.381   2.663
 8146SOL     OW25336   2.990   0.813   4.018
 8146SOL    HW125337   3.026   0.903   3.993
 8146SOL    HW225338   2.909   0.824   4.075
 8147SOL     OW25339   4.752   0.696   3.549
 8147SOL    HW125340   4.758   0.673   3.646
 8147SOL    HW225341   4.802   0.780   3.531
 8148SOL     OW25342   5.045   4.267   3.794
 8148SOL    HW125343   5.133   4.272   3.842
 8148SOL    HW225344   5.061   4.238   3.700
 8149SOL     OW25345   4.220   4.709   3.541
 8149SOL    HW125346   4.293   4.698   3.609
 8149SOL    HW225347   4.132   4.705   3.587
 8150SOL     OW25348   0.979   5.618   1.452
 8150SOL    HW125349   0.912   5.570   1.509
 8150SOL    HW225350   1.051   5.657   1.509
 8151SOL     OW25351   1.041   1.657   5.282
 8151SOL    HW125352   1.023   1.754   5.295
 8151SOL    HW225353   1.072   1.617   5.368
 8152SOL     OW25354   1.636   1.256   3.216
 8152SOL    HW125355   1.689   1.330   3.175
 8152SOL    HW225356   1.696   1.179   3.236
 8153SOL     OW25357   1.730   6.930   0.418
 8153SOL    HW125358   1.712   6.956   0.324
 8153SOL    HW225359   1.652   6.879   0.454
 8154SOL     OW25360   2.199   0.116   3.527
 8154SOL    HW125361   2.119   0.057   3.534
 8154SOL    HW225362   2.197   0.164   3.439
 8155SOL     OW25363   3.290   3.253   3.520
 8155SOL    HW125364   3.338   3.332   3.481
 8155SOL    HW225365   3.195   3.253   3.489
 8156SOL     OW25366   6.540   0.145   5.948
 8156SOL    HW125367   6.630   0.154   5.906
 8156SOL    HW225368   6.477   0.210   5.905
 8157SOL     OW25369   5.881   2.957   7.014
 8157SOL    HW125370   5.932   2.962   6.928
 8157SOL    HW225371   5.880   2.863   0.026
 8158SOL     OW25372   2.089   5.429   1.945
 8158SOL    HW125373   2.087   5.381   1.857
 8158SOL    HW225374   2.006   5.407   1.996
 8159SOL     OW25375   1.360   5.739   2.009
 8159SOL    HW125376   1.283   5.765   2.067
 8159SOL    HW225377   1.348   5.780   1.918
 8160SOL     OW25378   4.389   2.417   1.926
 8160SOL    HW125379   4.453   2.380   1.994
 8160SOL    HW225380   4.426   2.501   1.887
 8161SOL     OW25381   4.499   1.880   0.805
 8161SOL    HW125382   4.443   1.829   0.739
 8161SOL    HW225383   4.450   1.886   0.892
 8162SOL     OW25384   6.347   0.568   1.430
 8162SOL    HW125385   6.320   0.619   1.349
 8162SOL    HW225386   6.268   0.554   1.489
 8163SOL     OW25387   2.376   3.963   5.451
 8163SOL    HW125388   2.398   3.970   5.353
 8163SOL    HW225389   2.346   3.869   5.471
 8164SOL     OW25390   4.744   2.023   1.703
 8164SOL    HW125391   4.785   2.000   1.792
 8164SOL    HW225392   4.765   2.118   1.681
 8165SOL     OW25393   2.252   4.843   1.724
 8165SOL    HW125394   2.289   4.768   1.668
 8165SOL    HW225395   2.275   4.930   1.682
 8166SOL     OW25396   2.953   6.849   1.689
 8166SOL    HW125397   3.009   6.928   1.664
 8166SOL    HW225398   2.987   6.809   1.774
 8167SOL     OW25399   4.971   3.370   4.282
 8167SOL    HW125400   5.069   3.362   4.304
 8167SOL    HW225401   4.937   3.458   4.314
 8168SOL     OW25402   3.323   1.482   3.055
 8168SOL    HW125403   3.378   1.565   3.047
 8168SOL    HW225404   3.283   1.458   2.967
 8169SOL     OW25405   4.917   4.303   5.960
 8169SOL    HW125406   4.854   4.233   5.927
 8169SOL    HW225407   4.985   4.324   5.889
 8170SOL     OW25408   0.482   5.079   3.887
 8170SOL    HW125409   0.429   5.133   3.953
 8170SOL    HW225410   0.579   5.101   3.898
 8171SOL     OW25411   1.460   1.162   5.504
 8171SOL    HW125412   1.367   1.132   5.482
 8171SOL    HW225413   1.486   1.128   5.595
 8172SOL     OW25414   6.967   6.319   1.073
 8172SOL    HW125415   0.035   6.347   1.037
 8172SOL    HW225416   6.897   6.334   1.003
 8173SOL     OW25417   4.962   2.927   6.774
 8173SOL    HW125418   5.058   2.908   6.752
 8173SOL    HW225419   4.935   2.877   6.856
 8174SOL     OW25420   5.349   0.245   2.270
 8174SOL    HW125421   5.344   0.280   2.177
 8174SOL    HW225422   5.312   0.313   2.333
 8175SOL     OW25423   1.425   3.572   5.546
 8175SOL    HW125424   1.427   3.665   5.583
 8175SOL    HW225425   1.461   3.573   5.453
 8176SOL     OW25426   3.635   5.569   3.011
 8176SOL    HW125427   3.644   5.599   2.916
 8176SOL    HW225428   3.567   5.626   3.058
 8177SOL     OW25429   1.585   0.046   6.218
 8177SOL    HW125430   1.631   0.072   6.303
 8177SOL    HW225431   1.586   6.967   6.209
 8178SOL     OW25432   1.907   6.305   6.409
 8178SOL    HW125433   1.968   6.231   6.438
 8178SOL    HW225434   1.812   6.275   6.416
 8179SOL     OW25435   3.091   0.512   0.534
 8179SOL    HW125436   3.100   0.577   0.458
 8179SOL    HW225437   3.155   0.436   0.521
 8180SOL     OW25438   4.575   5.348   5.114
 8180SOL    HW125439   4.598   5.273   5.052
 8180SOL    HW225440   4.654   5.409   5.125
 8181SOL     OW25441   2.760   2.308   2.483
 8181SOL    HW125442   2.667   2.330   2.513
 8181SOL    HW225443   2.759   2.286   2.385
 8182SOL     OW25444   3.923   2.127   5.597
 8182SOL    HW125445   3.917   2.196   5.524
 8182SOL    HW225446   3.845   2.066   5.591
 8183SOL     OW25447   1.616   3.207   3.968
 8183SOL    HW125448   1.607   3.108   3.956
 8183SOL    HW225449   1.691   3.226   4.032
 8184SOL     OW25450   6.156   5.846   5.631
 8184SOL    HW125451   6.175   5.935   5.673
 8184SOL    HW225452   6.186   5.848   5.535
 8185SOL     OW25453   1.517   1.650   2.648
 8185SOL    HW125454   1.540   1.691   2.736
 8185SOL    HW225455   1.591   1.588   2.620
 8186SOL     OW25456   3.696   4.542   5.829
 8186SOL    HW125457   3.671   4.578   5.919
 8186SOL    HW225458   3.613   4.521   5.778
 8187SOL     OW25459   1.936   1.201   6.271
 8187SOL    HW125460   1.858   1.257   6.245
 8187SOL    HW225461   1.914   1.149   6.354
 8188SOL     OW25462   6.046   3.107   2.601
 8188SOL    HW125463   5.947   3.092   2.595
 8188SOL    HW225464   6.071   3.126   2.695
 8189SOL     OW25465   6.403   4.724   2.599
 8189SOL    HW125466   6.352   4.707   2.515
 8189SOL    HW225467   6.341   4.759   2.670
 8190SOL     OW25468   5.414   3.368   2.535
 8190SOL    HW125469   5.456   3.367   2.445
 8190SOL    HW225470   5.419   3.277   2.576
 8191SOL     OW25471   7.015   5.085   1.776
 8191SOL    HW125472   6.960   5.013   1.818
 8191SOL    HW225473   7.003   5.170   1.827
 8192SOL     OW25474   1.935   3.926   1.224
 8192SOL    HW125475   1.969   3.862   1.155
 8192SOL    HW225476   1.841   3.903   1.248
 8193SOL     OW25477   3.618   6.996   5.820
 8193SOL    HW125478   3.673   6.969   5.899
 8193SOL    HW225479   3.540   0.030   5.851
 8194SOL     OW25480   1.606   0.358   1.261
 8194SOL    HW125481   1.544   0.289   1.298
 8194SOL    HW225482   1.582   0.378   1.166
 8195SOL     OW25483   6.273   0.762   0.811
 8195SOL    HW125484   6.240   0.853   0.835
 8195SOL    HW225485   6.214   0.692   0.852
 8196SOL     OW25486   2.128   0.480   6.843
 8196SOL    HW125487   2.174   0.492   6.754
 8196SOL    HW225488   2.103   0.569   6.879
 8197SOL     OW25489   0.876   6.957   0.698
 8197SOL    HW125490   0.872   6.982   0.601
 8197SOL    HW225491   0.849   6.861   0.708
 8198SOL     OW25492   3.868   6.470   2.862
 8198SOL    HW125493   3.796   6.530   2.827
 8198SOL    HW225494   3.847   6.375   2.838
 8199SOL     OW25495   6.010   4.153   0.561
 8199SOL    HW125496   5.926   4.177   0.608
 8199SOL    HW225497   6.035   4.058   0.581
 8200SOL     OW25498   4.395   3.262   1.575
 8200SOL    HW125499   4.460   3.248   1.501
 8200SOL    HW225500   4.335   3.340   1.554
 8201SOL     OW25501   6.275   1.175   4.702
 8201SOL    HW125502   6.335   1.210   4.629
 8201SOL    HW225503   6.180   1.186   4.675
 8202SOL     OW25504   1.637   3.996   4.050
 8202SOL    HW125505   1.703   4.070   4.039
 8202SOL    HW225506   1.669   3.915   4.000
 8203SOL     OW25507   6.297   3.919   0.864
 8203SOL    HW125508   6.327   3.994   0.805
 8203SOL    HW225509   6.336   3.833   0.831
 8204SOL     OW25510   3.631   0.728   0.242
 8204SOL    HW125511   3.575   0.811   0.234
 8204SOL    HW225512   3.608   0.680   0.326
 8205SOL     OW25513   5.534   5.604   3.080
 8205SOL    HW125514   5.483   5.616   2.995
 8205SOL    HW225515   5.529   5.508   3.108
 8206SOL     OW25516   3.786   2.187   4.490
 8206SOL    HW125517   3.817   2.119   4.423
 8206SOL    HW225518   3.686   2.195   4.483
 8207SOL     OW25519   2.682   5.967   7.015
 8207SOL    HW125520   2.672   5.998   0.089
 8207SOL    HW225521   2.726   6.039   6.961
 8208SOL     OW25522   1.354   5.386   6.303
 8208SOL    HW125523   1.389   5.295   6.324
 8208SOL    HW225524   1.262   5.378   6.265
 8209SOL     OW25525   1.061   5.974   5.289
 8209SOL    HW125526   0.998   6.047   5.264
 8209SOL    HW225527   1.009   5.895   5.322
 8210SOL     OW25528   2.864   1.546   0.077
 8210SOL    HW125529   2.844   1.600   0.159
 8210SOL    HW225530   2.829   1.593   7.017
 8211SOL     OW25531   3.082   3.766   4.330
 8211SOL    HW125532   3.110   3.731   4.419
 8211SOL    HW225533   3.077   3.866   4.334
 8212SOL     OW25534   3.766   6.429   0.874
 8212SOL    HW125535   3.750   6.337   0.909
 8212SOL    HW225536   3.706   6.446   0.797
 8213SOL     OW25537   4.419   4.493   1.726
 8213SOL    HW125538   4.423   4.401   1.766
 8213SOL    HW225539   4.463   4.558   1.788
 8214SOL     OW25540   4.265   5.200   3.796
 8214SOL    HW125541   4.327   5.264   3.751
 8214SOL    HW225542   4.222   5.245   3.874
 8215SOL     OW25543   2.782   6.179   6.600
 8215SOL    HW125544   2.737   6.226   6.676
 8215SOL    HW225545   2.881   6.182   6.612
 8216SOL     OW25546   5.538   5.081   1.664
 8216SOL    HW125547   5.513   5.104   1.570
 8216SOL    HW225548   5.515   4.986   1.683
 8217SOL     OW25549   2.567   6.522   3.809
 8217SOL    HW125550   2.597   6.618   3.812
 8217SOL    HW225551   2.518   6.505   3.724
 8218SOL     OW25552   1.886   5.832   4.907
 8218SOL    HW125553   1.973   5.874   4.881
 8218SOL    HW225554   1.848   5.878   4.987
 8219SOL     OW25555   4.213   3.431   1.797
 8219SOL    HW125556   4.120   3.465   1.807
 8219SOL    HW225557   4.212   3.331   1.800
 8220SOL     OW25558   3.234   4.053   4.596
 8220SOL    HW125559   3.312   4.105   4.629
 8220SOL    HW225560   3.198   3.996   4.670
 8221SOL     OW25561   5.972   3.860   3.195
 8221SOL    HW125562   5.935   3.850   3.102
 8221SOL    HW225563   6.072   3.864   3.190
 8222SOL     OW25564   6.849   2.751   0.211
 8222SOL    HW125565   6.860   2.829   0.149
 8222SOL    HW225566   6.936   2.704   0.221
 8223SOL     OW25567   2.660   6.452   6.273
 8223SOL    HW125568   2.637   6.544   6.242
 8223SOL    HW225569   2.664   6.449   6.373
 8224SOL     OW25570   5.091   1.166   0.197
 8224SOL    HW125571   5.038   1.192   0.278
 8224SOL    HW225572   5.132   1.076   0.212
 8225SOL     OW25573   6.059   2.268   6.404
 8225SOL    HW125574   5.968   2.240   6.434
 8225SOL    HW225575   6.109   2.307   6.481
 8226SOL     OW25576   3.871   0.819   0.113
 8226SOL    HW125577   3.926   0.878   0.171
 8226SOL    HW225578   3.780   0.808   0.153
 8227SOL     OW25579   4.197   2.280   2.621
 8227SOL    HW125580   4.246   2.193   2.628
 8227SOL    HW225581   4.107   2.264   2.581
 8228SOL     OW25582   2.897   6.975   4.411
 8228SOL    HW125583   2.895   0.006   4.325
 8228SOL    HW225584   2.875   6.879   4.393
 8229SOL     OW25585   4.660   4.295   0.825
 8229SOL    HW125586   4.622   4.204   0.842
 8229SOL    HW225587   4.695   4.332   0.911
 8230SOL     OW25588   6.104   0.189   5.997
 8230SOL    HW125589   6.146   0.279   5.981
 8230SOL    HW225590   6.094   0.175   6.096
 8231SOL     OW25591   3.052   0.897   2.434
 8231SOL    HW125592   2.983   0.841   2.387
 8231SOL    HW225593   3.022   0.992   2.436
 8232SOL     OW25594   4.004   5.745   3.405
 8232SOL    HW125595   3.967   5.713   3.492
 8232SOL    HW225596   3.955   5.701   3.330
 8233SOL     OW25597   2.189   0.870   6.424
 8233SOL    HW125598   2.115   0.808   6.451
 8233SOL    HW225599   2.222   0.919   6.505
 8234SOL     OW25600   1.496   2.267   0.827
 8234SOL    HW125601   1.438   2.287   0.906
 8234SOL    HW225602   1.579   2.222   0.858
 8235SOL     OW25603   0.930   1.060   1.329
 8235SOL    HW125604   0.893   0.967   1.317
 8235SOL    HW225605   1.030   1.057   1.319
 8236SOL     OW25606   1.071   0.388   2.107
 8236SOL    HW125607   1.021   0.425   2.028
 8236SOL    HW225608   1.094   0.292   2.090
 8237SOL     OW25609   3.677   4.511   5.479
 8237SOL    HW125610   3.747   4.475   5.418
 8237SOL    HW225611   3.628   4.436   5.523
 8238SOL     OW25612   0.646   5.363   1.101
 8238SOL    HW125613   0.703   5.410   1.168
 8238SOL    HW225614   0.703   5.333   1.024
 8239SOL     OW25615   2.913   1.423   6.024
 8239SOL    HW125616   2.955   1.514   6.028
 8239SOL    HW225617   2.927   1.384   5.933
 8240SOL     OW25618   3.840   3.000   4.371
 8240SOL    HW125619   3.868   3.017   4.465
 8240SOL    HW225620   3.742   2.981   4.368
 8241SOL     OW25621   1.805   3.374   5.881
 8241SOL    HW125622   1.729   3.436   5.862
 8241SOL    HW225623   1.891   3.424   5.872
 8242SOL     OW25624   0.539   3.045   2.249
 8242SOL    HW125625   0.565   2.968   2.306
 8242SOL    HW225626   0.465   3.018   2.187
 8243SOL     OW25627   1.060   6.209   3.996
 8243SOL    HW125628   1.033   6.225   4.091
 8243SOL    HW225629   1.078   6.111   3.983
 8244SOL     OW25630   6.727   1.216   3.317
 8244SOL    HW125631   6.779   1.177   3.241
 8244SOL    HW225632   6.773   1.196   3.403
 8245SOL     OW25633   5.157   2.804   2.898
 8245SOL    HW125634   5.206   2.787   2.983
 8245SOL    HW225635   5.121   2.718   2.862
 8246SOL     OW25636   1.663   5.115   6.787
 8246SOL    HW125637   1.594   5.154   6.848
 8246SOL    HW225638   1.717   5.047   6.837
 8247SOL     OW25639   2.573   5.547   3.366
 8247SOL    HW125640   2.667   5.548   3.334
 8247SOL    HW225641   2.540   5.452   3.370
 8248SOL     OW25642   6.616   5.746   3.966
 8248SOL    HW125643   6.622   5.798   3.881
 8248SOL    HW225644   6.667   5.660   3.956
 8249SOL     OW25645   3.796   0.879   6.643
 8249SOL    HW125646   3.760   0.903   6.733
 8249SOL    HW225647   3.817   0.963   6.592
 8250SOL     OW25648   0.997   1.952   6.675
 8250SOL    HW125649   0.953   2.009   6.745
 8250SOL    HW225650   0.943   1.956   6.590
 8251SOL     OW25651   0.512   2.217   5.092
 8251SOL    HW125652   0.578   2.258   5.030
 8251SOL    HW225653   0.557   2.148   5.148
 8252SOL     OW25654   0.842   2.350   0.002
 8252SOL    HW125655   0.801   2.373   6.935
 8252SOL    HW225656   0.790   2.393   0.075
 8253SOL     OW25657   5.146   4.843   6.644
 8253SOL    HW125658   5.229   4.897   6.630
 8253SOL    HW225659   5.072   4.903   6.675
 8254SOL     OW25660   6.531   5.573   0.321
 8254SOL    HW125661   6.494   5.584   0.229
 8254SOL    HW225662   6.518   5.657   0.373
 8255SOL     OW25663   2.236   0.273   5.593
 8255SOL    HW125664   2.260   0.270   5.690
 8255SOL    HW225665   2.305   0.326   5.544
 8256SOL     OW25666   1.045   5.984   4.521
 8256SOL    HW125667   1.036   5.895   4.565
 8256SOL    HW225668   0.984   5.989   4.442
 8257SOL     OW25669   5.154   3.773   3.355
 8257SOL    HW125670   5.082   3.741   3.417
 8257SOL    HW225671   5.126   3.858   3.311
 8258SOL     OW25672   0.589   2.647   3.729
 8258SOL    HW125673   0.516   2.642   3.661
 8258SOL    HW225674   0.678   2.632   3.684
 8259SOL     OW25675   5.607   2.238   4.406
 8259SOL    HW125676   5.615   2.329   4.365
 8259SOL    HW225677   5.697   2.196   4.415
 8260SOL     OW25678   5.030   3.093   0.922
 8260SOL    HW125679   5.049   3.104   1.019
 8260SOL    HW225680   5.082   3.015   0.887
 8261SOL     OW25681   5.852   1.273   2.691
 8261SOL    HW125682   5.835   1.175   2.683
 8261SOL    HW225683   5.871   1.296   2.787
 8262SOL     OW25684   4.981   4.037   2.135
 8262SOL    HW125685   4.947   3.984   2.212
 8262SOL    HW225686   5.078   4.055   2.146
 8263SOL     OW25687   7.013   1.623   5.984
 8263SOL    HW125688   6.996   1.684   6.062
 8263SOL    HW225689   7.009   1.675   5.899
 8264SOL     OW25690   3.192   0.387   2.387
 8264SOL    HW125691   3.280   0.348   2.361
 8264SOL    HW225692   3.201   0.485   2.399
 8265SOL     OW25693   4.665   5.543   0.415
 8265SOL    HW125694   4.672   5.642   0.399
 8265SOL    HW225695   4.616   5.500   0.339
 8266SOL     OW25696   3.783   0.692   3.735
 8266SOL    HW125697   3.846   0.615   3.741
 8266SOL    HW225698   3.706   0.676   3.796
 8267SOL     OW25699   2.006   3.058   3.064
 8267SOL    HW125700   1.975   2.963   3.056
 8267SOL    HW225701   2.012   3.098   2.972
 8268SOL     OW25702   3.396   4.717   6.667
 8268SOL    HW125703   3.451   4.788   6.622
 8268SOL    HW225704   3.422   4.628   6.630
 8269SOL     OW25705   6.134   2.385   5.166
 8269SOL    HW125706   6.163   2.455   5.231
 8269SOL    HW225707   6.040   2.359   5.185
 8270SOL     OW25708   4.516   5.386   6.721
 8270SOL    HW125709   4.443   5.419   6.781
 8270SOL    HW225710   4.545   5.459   6.660
 8271SOL     OW25711   3.350   6.802   6.057
 8271SOL    HW125712   3.301   6.836   5.977
 8271SOL    HW225713   3.286   6.790   6.133
 8272SOL     OW25714   1.086   0.678   2.317
 8272SOL    HW125715   1.087   0.594   2.371
 8272SOL    HW225716   0.993   0.716   2.318
 8273SOL     OW25717   4.371   0.505   6.733
 8273SOL    HW125718   4.338   0.474   6.822
 8273SOL    HW225719   4.300   0.557   6.686
 8274SOL     OW25720   5.581   6.130   5.597
 8274SOL    HW125721   5.568   6.160   5.692
 8274SOL    HW225722   5.678   6.139   5.572
 8275SOL     OW25723   5.355   1.094   4.719
 8275SOL    HW125724   5.255   1.100   4.710
 8275SOL    HW225725   5.378   1.069   4.813
 8276SOL     OW25726   6.377   1.953   6.904
 8276SOL    HW125727   6.350   1.895   6.828
 8276SOL    HW225728   6.378   2.049   6.874
 8277SOL     OW25729   1.110   6.687   0.872
 8277SOL    HW125730   1.178   6.714   0.804
 8277SOL    HW225731   1.135   6.726   0.960
 8278SOL     OW25732   2.370   1.235   0.904
 8278SOL    HW125733   2.283   1.191   0.881
 8278SOL    HW225734   2.423   1.251   0.821
 8279SOL     OW25735   4.195   5.804   5.398
 8279SOL    HW125736   4.246   5.865   5.338
 8279SOL    HW225737   4.257   5.738   5.440
 8280SOL     OW25738   5.358   3.921   6.806
 8280SOL    HW125739   5.332   3.894   6.899
 8280SOL    HW225740   5.458   3.914   6.796
 8281SOL     OW25741   2.763   5.893   6.662
 8281SOL    HW125742   2.827   5.872   6.588
 8281SOL    HW225743   2.745   5.992   6.663
 8282SOL     OW25744   2.883   3.248   1.706
 8282SOL    HW125745   2.844   3.217   1.619
 8282SOL    HW225746   2.912   3.169   1.759
 8283SOL     OW25747   0.531   0.283   3.712
 8283SOL    HW125748   0.607   0.316   3.768
 8283SOL    HW225749   0.503   0.353   3.647
 8284SOL     OW25750   4.527   1.421   1.578
 8284SOL    HW125751   4.467   1.375   1.512
 8284SOL    HW225752   4.481   1.427   1.666
 8285SOL     OW25753   1.304   4.058   0.365
 8285SOL    HW125754   1.243   4.009   0.303
 8285SOL    HW225755   1.340   4.139   0.319
 8286SOL     OW25756   6.363   2.498   6.024
 8286SOL    HW125757   6.441   2.442   6.051
 8286SOL    HW225758   6.369   2.587   6.071
 8287SOL     OW25759   1.979   1.381   3.455
 8287SOL    HW125760   1.955   1.284   3.461
 8287SOL    HW225761   2.076   1.390   3.432
 8288SOL     OW25762   1.679   0.333   2.949
 8288SOL    HW125763   1.585   0.304   2.968
 8288SOL    HW225764   1.743   0.271   2.993
 8289SOL     OW25765   5.748   0.391   0.149
 8289SOL    HW125766   5.815   0.380   0.076
 8289SOL    HW225767   5.738   0.305   0.199
 8290SOL     OW25768   4.602   2.641   1.888
 8290SOL    HW125769   4.645   2.683   1.968
 8290SOL    HW225770   4.599   2.707   1.813
 8291SOL     OW25771   4.863   6.123   6.248
 8291SOL    HW125772   4.959   6.132   6.275
 8291SOL    HW225773   4.856   6.059   6.172
 8292SOL     OW25774   0.588   2.900   5.480
 8292SOL    HW125775   0.640   2.844   5.414
 8292SOL    HW225776   0.652   2.951   5.537
 8293SOL     OW25777   2.560   5.471   4.116
 8293SOL    HW125778   2.545   5.564   4.148
 8293SOL    HW225779   2.493   5.410   4.159
 8294SOL     OW25780   5.315   3.752   5.484
 8294SOL    HW125781   5.262   3.764   5.568
 8294SOL    HW225782   5.257   3.775   5.406
 8295SOL     OW25783   4.632   5.062   2.677
 8295SOL    HW125784   4.668   4.968   2.680
 8295SOL    HW225785   4.532   5.059   2.685
 8296SOL     OW25786   3.772   6.888   2.440
 8296SOL    HW125787   3.702   6.856   2.375
 8296SOL    HW225788   3.835   6.950   2.394
 8297SOL     OW25789   5.252   4.476   2.165
 8297SOL    HW125790   5.214   4.527   2.242
 8297SOL    HW225791   5.322   4.530   2.120
 8298SOL     OW25792   6.900   6.958   0.581
 8298SOL    HW125793   6.878   0.029   0.614
 8298SOL    HW225794   6.952   6.966   0.496
 8299SOL     OW25795   1.017   3.365   0.003
 8299SOL    HW125796   1.101   3.379   6.971
 8299SOL    HW225797   1.014   3.430   0.079
 8300SOL     OW25798   6.181   5.076   4.106
 8300SOL    HW125799   6.174   5.168   4.144
 8300SOL    HW225800   6.269   5.064   4.061
 8301SOL     OW25801   6.144   6.122   0.529
 8301SOL    HW125802   6.074   6.176   0.576
 8301SOL    HW225803   6.154   6.156   0.435
 8302SOL     OW25804   3.768   6.821   5.000
 8302SOL    HW125805   3.819   6.870   4.929
 8302SOL    HW225806   3.813   6.733   5.017
 8303SOL     OW25807   0.128   5.559   3.136
 8303SOL    HW125808   0.183   5.512   3.204
 8303SOL    HW225809   0.155   5.655   3.130
 8304SOL     OW25810   6.176   3.397   3.567
 8304SOL    HW125811   6.227   3.470   3.613
 8304SOL    HW225812   6.202   3.309   3.605
 8305SOL     OW25813   4.996   0.125   5.879
 8305SOL    HW125814   5.067   0.169   5.934
 8305SOL    HW225815   4.929   0.082   5.940
 8306SOL     OW25816   6.225   0.900   3.894
 8306SOL    HW125817   6.249   0.826   3.831
 8306SOL    HW225818   6.294   0.972   3.890
 8307SOL     OW25819   1.460   3.670   3.389
 8307SOL    HW125820   1.544   3.629   3.355
 8307SOL    HW225821   1.444   3.641   3.483
 8308SOL     OW25822   1.417   5.213   0.690
 8308SOL    HW125823   1.320   5.196   0.707
 8308SOL    HW225824   1.427   5.277   0.614
 8309SOL     OW25825   6.257   5.439   4.408
 8309SOL    HW125826   6.354   5.443   4.431
 8309SOL    HW225827   6.215   5.529   4.424
 8310SOL     OW25828   2.411   0.021   2.863
 8310SOL    HW125829   2.476   0.046   2.792
 8310SOL    HW225830   2.454   6.978   2.927
 8311SOL     OW25831   4.083   5.649   3.073
 8311SOL    HW125832   4.159   5.711   3.053
 8311SOL    HW225833   4.081   5.577   3.004
 8312SOL     OW25834   5.874   1.650   0.452
 8312SOL    HW125835   5.901   1.555   0.469
 8312SOL    HW225836   5.776   1.654   0.431
 8313SOL     OW25837   5.876   2.155   6.012
 8313SOL    HW125838   5.844   2.212   5.936
 8313SOL    HW225839   5.797   2.126   6.067
 8314SOL     OW25840   4.635   6.204   4.337
 8314SOL    HW125841   4.582   6.237   4.259
 8314SOL    HW225842   4.731   6.195   4.311
 8315SOL     OW25843   3.282   3.275   5.159
 8315SOL    HW125844   3.192   3.273   5.202
 8315SOL    HW225845   3.329   3.188   5.177
 8316SOL     OW25846   2.597   1.341   5.426
 8316SOL    HW125847   2.639   1.251   5.430
 8316SOL    HW225848   2.526   1.348   5.497
 8317SOL     OW25849   1.356   2.132   4.143
 8317SOL    HW125850   1.270   2.118   4.191
 8317SOL    HW225851   1.382   2.048   4.095
 8318SOL     OW25852   4.190   6.524   6.053
 8318SOL    HW125853   4.289   6.506   6.056
 8318SOL    HW225854   4.157   6.546   6.144
 8319SOL     OW25855   1.590   5.547   5.838
 8319SOL    HW125856   1.517   5.501   5.888
 8319SOL    HW225857   1.664   5.572   5.900
 8320SOL     OW25858   3.642   3.682   5.488
 8320SOL    HW125859   3.701   3.606   5.515
 8320SOL    HW225860   3.572   3.650   5.424
 8321SOL     OW25861   0.865   0.761   1.104
 8321SOL    HW125862   0.810   0.761   1.020
 8321SOL    HW225863   0.883   0.667   1.132
 8322SOL     OW25864   1.204   0.346   1.105
 8322SOL    HW125865   1.176   0.257   1.070
 8322SOL    HW225866   1.277   0.384   1.047
 8323SOL     OW25867   5.775   4.265   6.710
 8323SOL    HW125868   5.849   4.332   6.699
 8323SOL    HW225869   5.785   4.219   6.798
 8324SOL     OW25870   5.520   6.802   0.457
 8324SOL    HW125871   5.575   6.776   0.378
 8324SOL    HW225872   5.490   6.721   0.506
 8325SOL     OW25873   1.683   6.617   4.739
 8325SOL    HW125874   1.767   6.571   4.708
 8325SOL    HW225875   1.634   6.557   4.802
 8326SOL     OW25876   2.395   2.755   6.518
 8326SOL    HW125877   2.425   2.783   6.609
 8326SOL    HW225878   2.429   2.663   6.498
 8327SOL     OW25879   0.541   6.198   4.891
 8327SOL    HW125880   0.551   6.298   4.892
 8327SOL    HW225881   0.545   6.166   4.797
 8328SOL     OW25882   1.368   6.286   0.443
 8328SOL    HW125883   1.393   6.335   0.527
 8328SOL    HW225884   1.370   6.349   0.365
 8329SOL     OW25885   1.644   2.642   5.061
 8329SOL    HW125886   1.694   2.594   4.989
 8329SOL    HW225887   1.667   2.739   5.058
 8330SOL     OW25888   3.038   6.598   6.866
 8330SOL    HW125889   3.024   6.697   6.868
 8330SOL    HW225890   3.051   6.564   6.959
 8331SOL     OW25891   2.580   1.965   6.388
 8331SOL    HW125892   2.635   1.885   6.364
 8331SOL    HW225893   2.610   2.001   6.476
 8332SOL     OW25894   6.267   4.225   1.455
 8332SOL    HW125895   6.230   4.306   1.501
 8332SOL    HW225896   6.350   4.250   1.405
 8333SOL     OW25897   2.192   4.326   6.869
 8333SOL    HW125898   2.227   4.399   6.927
 8333SOL    HW225899   2.125   4.363   6.805
 8334SOL     OW25900   3.321   2.259   5.361
 8334SOL    HW125901   3.257   2.285   5.289
 8334SOL    HW225902   3.414   2.258   5.325
 8335SOL     OW25903   5.385   4.726   5.696
 8335SOL    HW125904   5.329   4.706   5.616
 8335SOL    HW225905   5.471   4.768   5.667
 8336SOL     OW25906   1.424   3.616   3.669
 8336SOL    HW125907   1.362   3.673   3.725
 8336SOL    HW225908   1.430   3.525   3.710
 8337SOL     OW25909   6.368   0.690   4.362
 8337SOL    HW125910   6.421   0.774   4.352
 8337SOL    HW225911   6.271   0.712   4.367
 8338SOL     OW25912   2.537   5.319   0.962
 8338SOL    HW125913   2.595   5.256   1.014
 8338SOL    HW225914   2.588   5.404   0.944
 8339SOL     OW25915   5.984   0.186   1.864
 8339SOL    HW125916   6.080   0.166   1.883
 8339SOL    HW225917   5.952   0.256   1.927
 8340SOL     OW25918   6.284   2.444   6.331
 8340SOL    HW125919   6.334   2.357   6.330
 8340SOL    HW225920   6.236   2.455   6.244
 8341SOL     OW25921   3.874   1.414   0.789
 8341SOL    HW125922   3.853   1.337   0.848
 8341SOL    HW225923   3.821   1.494   0.818
 8342SOL     OW25924   4.218   0.454   0.598
 8342SOL    HW125925   4.281   0.530   0.579
 8342SOL    HW225926   4.229   0.383   0.528
 8343SOL     OW25927   5.446   4.721   3.166
 8343SOL    HW125928   5.497   4.728   3.080
 8343SOL    HW225929   5.457   4.805   3.218
 8344SOL     OW25930   1.308   4.883   6.034
 8344SOL    HW125931   1.392   4.831   6.020
 8344SOL    HW225932   1.255   4.884   5.950
 8345SOL     OW25933   6.014   0.189   3.814
 8345SOL    HW125934   6.002   0.272   3.868
 8345SOL    HW225935   6.025   0.213   3.717
 8346SOL     OW25936   5.655   3.302   4.271
 8346SOL    HW125937   5.611   3.242   4.204
 8346SOL    HW225938   5.719   3.248   4.326
 8347SOL     OW25939   2.484   1.980   6.005
 8347SOL    HW125940   2.562   1.922   6.025
 8347SOL    HW225941   2.511   2.053   5.942
 8348SOL     OW25942   2.822   5.891   1.798
 8348SOL    HW125943   2.837   5.979   1.753
 8348SOL    HW225944   2.731   5.857   1.774
 8349SOL     OW25945   5.254   6.296   2.131
 8349SOL    HW125946   5.235   6.234   2.208
 8349SOL    HW225947   5.270   6.388   2.166
 8350SOL     OW25948   1.453   0.796   0.351
 8350SOL    HW125949   1.511   0.851   0.291
 8350SOL    HW225950   1.507   0.724   0.393
 8351SOL     OW25951   0.049   2.204   2.909
 8351SOL    HW125952   0.101   2.129   2.870
 8351SOL    HW225953   0.094   2.237   2.992
 8352SOL     OW25954   2.749   6.205   0.702
 8352SOL    HW125955   2.840   6.164   0.704
 8352SOL    HW225956   2.697   6.167   0.625
 8353SOL     OW25957   0.765   5.604   1.831
 8353SOL    HW125958   0.839   5.538   1.818
 8353SOL    HW225959   0.678   5.560   1.809
 8354SOL     OW25960   3.878   1.109   3.049
 8354SOL    HW125961   3.933   1.083   2.970
 8354SOL    HW225962   3.782   1.114   3.023
 8355SOL     OW25963   3.356   5.709   6.534
 8355SOL    HW125964   3.344   5.742   6.440
 8355SOL    HW225965   3.327   5.613   6.539
 8356SOL     OW25966   2.871   4.469   0.893
 8356SOL    HW125967   2.931   4.416   0.954
 8356SOL    HW225968   2.890   4.567   0.904
 8357SOL     OW25969   4.945   6.742   5.624
 8357SOL    HW125970   5.008   6.809   5.663
 8357SOL    HW225971   4.981   6.711   5.536
 8358SOL     OW25972   1.228   0.809   5.724
 8358SOL    HW125973   1.296   0.802   5.651
 8358SOL    HW225974   1.260   0.758   5.804
 8359SOL     OW25975   4.136   1.809   5.586
 8359SOL    HW125976   4.139   1.885   5.521
 8359SOL    HW225977   4.211   1.745   5.567
 8360SOL     OW25978   4.513   0.165   1.152
 8360SOL    HW125979   4.595   0.108   1.148
 8360SOL    HW225980   4.524   0.244   1.091
 8361SOL     OW25981   4.745   1.770   6.847
 8361SOL    HW125982   4.704   1.689   6.806
 8361SOL    HW225983   4.693   1.795   6.929
 8362SOL     OW25984   6.867   4.035   1.481
 8362SOL    HW125985   6.800   4.008   1.551
 8362SOL    HW225986   6.833   4.007   1.391
 8363SOL     OW25987   1.623   2.597   1.466
 8363SOL    HW125988   1.635   2.696   1.479
 8363SOL    HW225989   1.711   2.551   1.472
 8364SOL     OW25990   0.186   2.103   4.258
 8364SOL    HW125991   0.244   2.185   4.252
 8364SOL    HW225992   0.096   2.128   4.293
 8365SOL     OW25993   1.652   2.481   1.802
 8365SOL    HW125994   1.575   2.447   1.855
 8365SOL    HW225995   1.663   2.426   1.719
 8366SOL     OW25996   5.462   4.685   2.021
 8366SOL    HW125997   5.460   4.725   2.113
 8366SOL    HW225998   5.553   4.650   2.002
 8367SOL     OW25999   2.099   4.406   4.016
 8367SOL    HW126000   2.189   4.364   4.009
 8367SOL    HW226001   2.109   4.504   4.033
 8368SOL     OW26002   5.693   5.840   5.689
 8368SOL    HW126003   5.715   5.893   5.771
 8368SOL    HW226004   5.636   5.762   5.714
 8369SOL     OW26005   2.298   6.830   0.364
 8369SOL    HW126006   2.217   6.882   0.391
 8369SOL    HW226007   2.305   6.828   0.264
 8370SOL     OW26008   2.959   3.535   0.843
 8370SOL    HW126009   3.024   3.516   0.917
 8370SOL    HW226010   2.989   3.616   0.793
 8371SOL     OW26011   2.410   3.505   6.157
 8371SOL    HW126012   2.505   3.533   6.168
 8371SOL    HW226013   2.351   3.564   6.213
 8372SOL     OW26014   1.672   6.360   0.848
 8372SOL    HW126015   1.673   6.261   0.836
 8372SOL    HW226016   1.582   6.388   0.880
 8373SOL     OW26017   6.433   1.736   3.971
 8373SOL    HW126018   6.354   1.753   4.031
 8373SOL    HW226019   6.401   1.697   3.885
 8374SOL     OW26020   0.006   0.953   3.937
 8374SOL    HW126021   6.971   0.885   3.889
 8374SOL    HW226022   0.049   1.015   3.871
 8375SOL     OW26023   2.243   1.361   5.260
 8375SOL    HW126024   2.261   1.455   5.231
 8375SOL    HW226025   2.295   1.298   5.202
 8376SOL     OW26026   0.794   2.043   3.915
 8376SOL    HW126027   0.745   2.049   4.002
 8376SOL    HW226028   0.862   2.116   3.909
 8377SOL     OW26029   4.207   5.620   6.749
 8377SOL    HW126030   4.143   5.549   6.719
 8377SOL    HW226031   4.231   5.677   6.671
 8378SOL     OW26032   4.605   6.133   4.842
 8378SOL    HW126033   4.590   6.043   4.884
 8378SOL    HW226034   4.630   6.121   4.746
 8379SOL     OW26035   5.812   1.687   1.915
 8379SOL    HW126036   5.784   1.752   1.844
 8379SOL    HW226037   5.758   1.703   1.998
 8380SOL     OW26038   0.301   6.162   1.146
 8380SOL    HW126039   0.332   6.220   1.071
 8380SOL    HW226040   0.205   6.135   1.129
 8381SOL     OW26041   0.595   1.518   2.663
 8381SOL    HW126042   0.644   1.564   2.589
 8381SOL    HW226043   0.520   1.577   2.694
 8382SOL     OW26044   1.100   0.216   1.363
 8382SOL    HW126045   1.121   0.131   1.410
 8382SOL    HW226046   1.182   0.249   1.316
 8383SOL     OW26047   2.976   0.079   6.027
 8383SOL    HW126048   2.974   0.094   6.125
 8383SOL    HW226049   2.883   0.065   5.994
 8384SOL     OW26050   0.683   3.503   2.931
 8384SOL    HW126051   0.745   3.520   2.855
 8384SOL    HW226052   0.604   3.451   2.898
 8385SOL     OW26053   4.189   2.329   1.531
 8385SOL    HW126054   4.265   2.394   1.527
 8385SOL    HW226055   4.202   2.267   1.607
 8386SOL     OW26056   2.572   5.803   1.869
 8386SOL    HW126057   2.564   5.726   1.806
 8386SOL    HW226058   2.628   5.776   1.947
 8387SOL     OW26059   0.845   1.632   3.596
 8387SOL    HW126060   0.871   1.680   3.680
 8387SOL    HW226061   0.805   1.544   3.620
 8388SOL     OW26062   4.245   5.609   0.717
 8388SOL    HW126063   4.182   5.569   0.783
 8388SOL    HW226064   4.312   5.540   0.689
 8389SOL     OW26065   0.490   3.020   4.466
 8389SOL    HW126066   0.530   2.994   4.554
 8389SOL    HW226067   0.391   3.012   4.470
 8390SOL     OW26068   2.793   7.013   5.833
 8390SOL    HW126069   2.852   6.938   5.804
 8390SOL    HW226070   2.763   0.045   5.753
 8391SOL     OW26071   5.490   5.977   1.084
 8391SOL    HW126072   5.582   5.946   1.108
 8391SOL    HW226073   5.459   6.044   1.151
 8392SOL     OW26074   4.963   6.625   6.573
 8392SOL    HW126075   4.933   6.547   6.629
 8392SOL    HW226076   5.034   6.595   6.509
 8393SOL     OW26077   0.028   5.001   2.844
 8393SOL    HW126078   0.087   4.932   2.887
 8393SOL    HW226079   7.015   5.064   2.915
 8394SOL     OW26080   0.957   1.611   2.858
 8394SOL    HW126081   0.861   1.619   2.832
 8394SOL    HW226082   0.964   1.569   2.948
 8395SOL     OW26083   0.657   6.243   5.475
 8395SOL    HW126084   0.627   6.234   5.380
 8395SOL    HW226085   0.702   6.159   5.505
 8396SOL     OW26086   4.183   2.625   1.078
 8396SOL    HW126087   4.157   2.649   0.984
 8396SOL    HW226088   4.217   2.707   1.125
 8397SOL     OW26089   2.256   4.994   3.710
 8397SOL    HW126090   2.278   5.066   3.775
 8397SOL    HW226091   2.297   4.908   3.740
 8398SOL     OW26092   5.699   1.316   0.124
 8398SOL    HW126093   5.614   1.267   0.142
 8398SOL    HW226094   5.765   1.295   0.196
 8399SOL     OW26095   5.869   6.108   0.315
 8399SOL    HW126096   5.941   6.171   0.284
 8399SOL    HW226097   5.910   6.031   0.363
 8400SOL     OW26098   6.030   0.027   4.686
 8400SOL    HW126099   5.982   0.114   4.685
 8400SOL    HW226100   6.103   0.028   4.617
 8401SOL     OW26101   2.676   4.246   6.168
 8401SOL    HW126102   2.668   4.346   6.161
 8401SOL    HW226103   2.720   4.210   6.086
 8402SOL     OW26104   4.872   1.218   6.110
 8402SOL    HW126105   4.968   1.235   6.130
 8402SOL    HW226106   4.830   1.300   6.071
 8403SOL     OW26107   1.051   2.190   4.720
 8403SOL    HW126108   1.101   2.241   4.790
 8403SOL    HW226109   0.977   2.247   4.683
 8404SOL     OW26110   4.747   5.190   5.354
 8404SOL    HW126111   4.827   5.247   5.373
 8404SOL    HW226112   4.672   5.219   5.412
 8405SOL     OW26113   1.069   2.713   4.869
 8405SOL    HW126114   1.073   2.789   4.804
 8405SOL    HW226115   1.156   2.707   4.918
 8406SOL     OW26116   5.134   3.994   1.269
 8406SOL    HW126117   5.143   4.093   1.263
 8406SOL    HW226118   5.125   3.967   1.365
 8407SOL     OW26119   4.943   2.921   2.562
 8407SOL    HW126120   5.033   2.877   2.564
 8407SOL    HW226121   4.909   2.934   2.655
 8408SOL     OW26122   4.951   3.849   4.270
 8408SOL    HW126123   4.882   3.921   4.277
 8408SOL    HW226124   4.938   3.783   4.344
 8409SOL     OW26125   0.415   1.721   3.968
 8409SOL    HW126126   0.482   1.754   3.901
 8409SOL    HW226127   0.379   1.800   4.018
 8410SOL     OW26128   2.148   6.512   2.381
 8410SOL    HW126129   2.213   6.437   2.386
 8410SOL    HW226130   2.166   6.566   2.299
 8411SOL     OW26131   1.949   2.855   3.305
 8411SOL    HW126132   1.885   2.900   3.368
 8411SOL    HW226133   1.915   2.865   3.211
 8412SOL     OW26134   5.804   3.124   2.293
 8412SOL    HW126135   5.756   3.043   2.259
 8412SOL    HW226136   5.897   3.126   2.256
 8413SOL     OW26137   2.350   4.588   1.627
 8413SOL    HW126138   2.356   4.524   1.704
 8413SOL    HW226139   2.340   4.538   1.542
 8414SOL     OW26140   5.595   6.903   2.558
 8414SOL    HW126141   5.560   6.938   2.645
 8414SOL    HW226142   5.685   6.862   2.572
 8415SOL     OW26143   6.318   3.804   1.724
 8415SOL    HW126144   6.398   3.819   1.783
 8415SOL    HW226145   6.245   3.762   1.777
 8416SOL     OW26146   4.766   4.595   2.405
 8416SOL    HW126147   4.681   4.548   2.428
 8416SOL    HW226148   4.784   4.588   2.307
 8417SOL     OW26149   2.595   5.619   6.354
 8417SOL    HW126150   2.634   5.579   6.271
 8417SOL    HW226151   2.553   5.707   6.332
 8418SOL     OW26152   6.059   5.844   2.678
 8418SOL    HW126153   6.095   5.756   2.649
 8418SOL    HW226154   5.969   5.859   2.637
 8419SOL     OW26155   4.453   0.331   3.971
 8419SOL    HW126156   4.507   0.249   3.991
 8419SOL    HW226157   4.356   0.306   3.964
 8420SOL     OW26158   3.482   2.021   5.771
 8420SOL    HW126159   3.485   1.971   5.857
 8420SOL    HW226160   3.572   2.019   5.728
 8421SOL     OW26161   1.260   6.565   1.259
 8421SOL    HW126162   1.212   6.485   1.223
 8421SOL    HW226163   1.357   6.543   1.269
 8422SOL     OW26164   4.154   6.775   1.608
 8422SOL    HW126165   4.120   6.862   1.644
 8422SOL    HW226166   4.152   6.778   1.508
 8423SOL     OW26167   1.701   3.962   1.672
 8423SOL    HW126168   1.617   3.986   1.721
 8423SOL    HW226169   1.696   3.997   1.578
 8424SOL     OW26170   3.067   2.175   2.320
 8424SOL    HW126171   3.037   2.206   2.229
 8424SOL    HW226172   3.004   2.210   2.389
 8425SOL     OW26173   6.295   4.681   6.896
 8425SOL    HW126174   6.368   4.741   6.929
 8425SOL    HW226175   6.305   4.591   6.938
 8426SOL     OW26176   3.948   3.659   2.472
 8426SOL    HW126177   3.931   3.562   2.486
 8426SOL    HW226178   4.015   3.691   2.540
 8427SOL     OW26179   2.478   2.500   6.428
 8427SOL    HW126180   2.395   2.513   6.373
 8427SOL    HW226181   2.539   2.437   6.381
 8428SOL     OW26182   6.141   4.505   1.833
 8428SOL    HW126183   6.080   4.583   1.849
 8428SOL    HW226184   6.170   4.468   1.921
 8429SOL     OW26185   2.429   6.778   2.986
 8429SOL    HW126186   2.508   6.823   3.026
 8429SOL    HW226187   2.401   6.701   3.044
 8430SOL     OW26188   5.192   4.271   3.112
 8430SOL    HW126189   5.202   4.338   3.186
 8430SOL    HW226190   5.251   4.192   3.130
 8431SOL     OW26191   2.755   3.863   1.714
 8431SOL    HW126192   2.801   3.790   1.764
 8431SOL    HW226193   2.657   3.847   1.713
 8432SOL     OW26194   4.639   6.992   0.521
 8432SOL    HW126195   4.637   6.954   0.613
 8432SOL    HW226196   4.654   0.070   0.525
 8433SOL     OW26197   1.466   1.727   4.625
 8433SOL    HW126198   1.521   1.787   4.684
 8433SOL    HW226199   1.432   1.650   4.678
 8434SOL     OW26200   5.448   6.156   6.601
 8434SOL    HW126201   5.508   6.194   6.532
 8434SOL    HW226202   5.472   6.193   6.691
 8435SOL     OW26203   5.251   2.776   1.454
 8435SOL    HW126204   5.205   2.848   1.505
 8435SOL    HW226205   5.198   2.753   1.372
 8436SOL     OW26206   3.283   4.106   1.616
 8436SOL    HW126207   3.312   4.067   1.704
 8436SOL    HW226208   3.183   4.114   1.616
 8437SOL     OW26209   6.797   1.748   0.991
 8437SOL    HW126210   6.865   1.777   0.924
 8437SOL    HW226211   6.722   1.815   0.993
 8438SOL     OW26212   2.090   6.527   0.905
 8438SOL    HW126213   2.049   6.530   0.814
 8438SOL    HW226214   2.159   6.598   0.913
 8439SOL     OW26215   6.011   6.778   2.222
 8439SOL    HW126216   5.986   6.837   2.145
 8439SOL    HW226217   6.048   6.692   2.187
 8440SOL     OW26218   6.900   2.025   3.869
 8440SOL    HW126219   6.820   2.085   3.876
 8440SOL    HW226220   6.919   2.007   3.772
 8441SOL     OW26221   4.560   4.969   1.341
 8441SOL    HW126222   4.642   5.003   1.295
 8441SOL    HW226223   4.564   4.992   1.438
 8442SOL     OW26224   2.057   3.749   0.200
 8442SOL    HW126225   2.038   3.837   0.245
 8442SOL    HW226226   1.983   3.685   0.222
 8443SOL     OW26227   0.840   1.914   2.205
 8443SOL    HW126228   0.748   1.905   2.242
 8443SOL    HW226229   0.870   1.827   2.166
 8444SOL     OW26230   4.404   0.866   2.311
 8444SOL    HW126231   4.478   0.831   2.368
 8444SOL    HW226232   4.326   0.803   2.316
 8445SOL     OW26233   4.277   5.581   1.560
 8445SOL    HW126234   4.369   5.558   1.594
 8445SOL    HW226235   4.249   5.669   1.597
 8446SOL     OW26236   6.726   4.442   3.399
 8446SOL    HW126237   6.792   4.478   3.333
 8446SOL    HW226238   6.775   4.391   3.470
 8447SOL     OW26239   4.568   3.269   1.375
 8447SOL    HW126240   4.537   3.319   1.294
 8447SOL    HW226241   4.666   3.283   1.387
 8448SOL     OW26242   1.469   2.455   5.743
 8448SOL    HW126243   1.496   2.464   5.647
 8448SOL    HW226244   1.389   2.511   5.761
 8449SOL     OW26245   1.326   1.668   5.145
 8449SOL    HW126246   1.262   1.603   5.187
 8449SOL    HW226247   1.327   1.753   5.198
 8450SOL     OW26248   2.364   5.481   1.830
 8450SOL    HW126249   2.280   5.454   1.878
 8450SOL    HW226250   2.442   5.471   1.892
 8451SOL     OW26251   4.104   3.329   0.400
 8451SOL    HW126252   4.061   3.243   0.372
 8451SOL    HW226253   4.123   3.385   0.319
 8452SOL     OW26254   6.844   5.356   1.134
 8452SOL    HW126255   6.867   5.390   1.043
 8452SOL    HW226256   6.880   5.263   1.145
 8453SOL     OW26257   0.052   4.941   5.538
 8453SOL    HW126258   0.008   4.877   5.601
 8453SOL    HW226259   0.025   4.919   5.444
 8454SOL     OW26260   1.992   6.214   4.922
 8454SOL    HW126261   2.072   6.200   4.981
 8454SOL    HW226262   1.992   6.145   4.849
 8455SOL     OW26263   6.201   2.709   0.614
 8455SOL    HW126264   6.137   2.634   0.627
 8455SOL    HW226265   6.193   2.744   0.521
 8456SOL     OW26266   5.459   5.798   3.239
 8456SOL    HW126267   5.472   5.709   3.195
 8456SOL    HW226268   5.500   5.870   3.183
 8457SOL     OW26269   6.024   6.268   6.639
 8457SOL    HW126270   6.080   6.270   6.557
 8457SOL    HW226271   5.992   6.361   6.660
 8458SOL     OW26272   1.171   1.761   1.045
 8458SOL    HW126273   1.261   1.758   1.001
 8458SOL    HW226274   1.173   1.828   1.119
 8459SOL     OW26275   2.817   5.622   2.202
 8459SOL    HW126276   2.873   5.542   2.181
 8459SOL    HW226277   2.852   5.701   2.151
 8460SOL     OW26278   3.930   1.014   0.565
 8460SOL    HW126279   3.989   1.074   0.621
 8460SOL    HW226280   3.835   1.024   0.595
 8461SOL     OW26281   4.736   4.038   2.808
 8461SOL    HW126282   4.766   4.055   2.902
 8461SOL    HW226283   4.754   3.943   2.784
 8462SOL     OW26284   2.432   4.329   0.473
 8462SOL    HW126285   2.453   4.418   0.512
 8462SOL    HW226286   2.410   4.340   0.375
 8463SOL     OW26287   6.344   0.789   0.154
 8463SOL    HW126288   6.362   0.832   0.066
 8463SOL    HW226289   6.305   0.857   0.217
 8464SOL     OW26290   6.582   4.161   6.547
 8464SOL    HW126291   6.614   4.170   6.453
 8464SOL    HW226292   6.633   4.090   6.594
 8465SOL     OW26293   4.396   3.225   0.947
 8465SOL    HW126294   4.305   3.235   0.907
 8465SOL    HW226295   4.431   3.133   0.926
 8466SOL     OW26296   6.962   1.159   5.831
 8466SOL    HW126297   6.950   1.176   5.929
 8466SOL    HW226298   6.874   1.171   5.784
 8467SOL     OW26299   3.775   1.431   0.286
 8467SOL    HW126300   3.761   1.529   0.296
 8467SOL    HW226301   3.873   1.411   0.290
 8468SOL     OW26302   5.483   3.248   6.794
 8468SOL    HW126303   5.481   3.348   6.786
 8468SOL    HW226304   5.511   3.223   6.886
 8469SOL     OW26305   3.999   3.308   5.493
 8469SOL    HW126306   3.945   3.237   5.448
 8469SOL    HW226307   4.085   3.268   5.525
 8470SOL     OW26308   1.461   5.266   1.745
 8470SOL    HW126309   1.376   5.213   1.739
 8470SOL    HW226310   1.535   5.207   1.777
 8471SOL     OW26311   3.888   1.649   4.227
 8471SOL    HW126312   3.978   1.617   4.201
 8471SOL    HW226313   3.896   1.735   4.278
 8472SOL     OW26314   6.548   1.752   6.208
 8472SOL    HW126315   6.543   1.760   6.308
 8472SOL    HW226316   6.487   1.678   6.178
 8473SOL     OW26317   5.124   4.703   0.274
 8473SOL    HW126318   5.066   4.643   0.219
 8473SOL    HW226319   5.178   4.762   0.214
 8474SOL     OW26320   3.896   3.935   3.971
 8474SOL    HW126321   3.905   4.002   3.897
 8474SOL    HW226322   3.821   3.962   4.032
 8475SOL     OW26323   6.497   2.598   3.065
 8475SOL    HW126324   6.514   2.662   3.140
 8475SOL    HW226325   6.553   2.623   2.986
 8476SOL     OW26326   6.184   1.048   1.780
 8476SOL    HW126327   6.266   1.026   1.728
 8476SOL    HW226328   6.147   0.965   1.822
 8477SOL     OW26329   5.600   6.842   1.629
 8477SOL    HW126330   5.612   6.779   1.705
 8477SOL    HW226331   5.662   6.919   1.638
 8478SOL     OW26332   0.110   0.268   5.601
 8478SOL    HW126333   0.092   0.196   5.534
 8478SOL    HW226334   0.061   0.247   5.686
 8479SOL     OW26335   1.004   3.057   0.434
 8479SOL    HW126336   1.056   3.002   0.369
 8479SOL    HW226337   0.953   2.996   0.496
 8480SOL     OW26338   4.276   3.603   0.409
 8480SOL    HW126339   4.310   3.515   0.441
 8480SOL    HW226340   4.258   3.663   0.487
 8481SOL     OW26341   4.384   2.325   3.202
 8481SOL    HW126342   4.393   2.410   3.150
 8481SOL    HW226343   4.474   2.282   3.211
 8482SOL     OW26344   4.638   1.064   0.650
 8482SOL    HW126345   4.561   1.001   0.643
 8482SOL    HW226346   4.650   1.111   0.562
 8483SOL     OW26347   3.583   4.952   2.953
 8483SOL    HW126348   3.503   4.957   2.893
 8483SOL    HW226349   3.652   5.017   2.921
 8484SOL     OW26350   4.978   6.043   5.063
 8484SOL    HW126351   5.060   6.098   5.080
 8484SOL    HW226352   4.966   6.032   4.964
 8485SOL     OW26353   3.759   2.074   0.181
 8485SOL    HW126354   3.728   2.021   0.102
 8485SOL    HW226355   3.687   2.077   0.250
 8486SOL     OW26356   6.294   2.458   3.378
 8486SOL    HW126357   6.280   2.452   3.477
 8486SOL    HW226358   6.392   2.466   3.359
 8487SOL     OW26359   6.723   1.588   6.498
 8487SOL    HW126360   6.709   1.654   6.572
 8487SOL    HW226361   6.646   1.525   6.494
 8488SOL     OW26362   4.769   5.246   2.041
 8488SOL    HW126363   4.832   5.171   2.058
 8488SOL    HW226364   4.810   5.332   2.074
 8489SOL     OW26365   6.151   1.950   1.752
 8489SOL    HW126366   6.219   1.881   1.728
 8489SOL    HW226367   6.134   1.947   1.850
 8490SOL     OW26368   3.288   0.391   6.599
 8490SOL    HW126369   3.251   0.330   6.529
 8490SOL    HW226370   3.240   0.479   6.597
 8491SOL     OW26371   3.032   5.736   1.592
 8491SOL    HW126372   2.978   5.777   1.666
 8491SOL    HW226373   3.126   5.768   1.597
 8492SOL     OW26374   6.277   6.566   4.627
 8492SOL    HW126375   6.350   6.612   4.678
 8492SOL    HW226376   6.193   6.568   4.681
 8493SOL     OW26377   5.375   1.215   6.545
 8493SOL    HW126378   5.364   1.119   6.568
 8493SOL    HW226379   5.464   1.230   6.503
 8494SOL     OW26380   6.352   4.218   2.510
 8494SOL    HW126381   6.394   4.169   2.586
 8494SOL    HW226382   6.420   4.229   2.437
 8495SOL     OW26383   6.220   5.160   5.893
 8495SOL    HW126384   6.312   5.198   5.878
 8495SOL    HW226385   6.227   5.079   5.950
 8496SOL     OW26386   5.167   2.975   2.254
 8496SOL    HW126387   5.082   3.013   2.290
 8496SOL    HW226388   5.188   3.017   2.165
 8497SOL     OW26389   6.552   0.791   3.272
 8497SOL    HW126390   6.523   0.696   3.257
 8497SOL    HW226391   6.651   0.794   3.286
 8498SOL     OW26392   4.738   0.543   4.052
 8498SOL    HW126393   4.657   0.507   4.099
 8498SOL    HW226394   4.802   0.579   4.119
 8499SOL     OW26395   5.952   6.643   5.229
 8499SOL    HW126396   5.901   6.685   5.304
 8499SOL    HW226397   6.048   6.672   5.233
 8500SOL     OW26398   1.406   0.797   6.462
 8500SOL    HW126399   1.359   0.768   6.546
 8500SOL    HW226400   1.364   0.882   6.428
 8501SOL     OW26401   2.391   1.178   6.716
 8501SOL    HW126402   2.399   1.152   6.812
 8501SOL    HW226403   2.424   1.271   6.703
 8502SOL     OW26404   0.289   3.922   6.552
 8502SOL    HW126405   0.261   3.826   6.553
 8502SOL    HW226406   0.240   3.973   6.622
 8503SOL     OW26407   4.979   1.538   4.955
 8503SOL    HW126408   5.059   1.517   5.011
 8503SOL    HW226409   5.002   1.613   4.892
 8504SOL     OW26410   1.484   0.444   2.648
 8504SOL    HW126411   1.515   0.439   2.553
 8504SOL    HW226412   1.528   0.372   2.702
 8505SOL     OW26413   5.785   3.045   2.544
 8505SOL    HW126414   5.813   3.068   2.451
 8505SOL    HW226415   5.736   2.958   2.544
 8506SOL     OW26416   2.002   0.705   6.120
 8506SOL    HW126417   1.921   0.696   6.062
 8506SOL    HW226418   2.007   0.798   6.155
 8507SOL     OW26419   3.098   6.225   5.247
 8507SOL    HW126420   3.002   6.202   5.264
 8507SOL    HW226421   3.150   6.217   5.332
 8508SOL     OW26422   3.066   1.470   6.915
 8508SOL    HW126423   3.014   1.497   6.996
 8508SOL    HW226424   3.154   1.517   6.916
 8509SOL     OW26425   5.609   2.255   2.734
 8509SOL    HW126426   5.548   2.220   2.663
 8509SOL    HW226427   5.660   2.333   2.697
 8510SOL     OW26428   0.360   2.078   4.651
 8510SOL    HW126429   0.380   2.101   4.556
 8510SOL    HW226430   0.266   2.046   4.659
 8511SOL     OW26431   5.507   1.799   2.827
 8511SOL    HW126432   5.502   1.829   2.731
 8511SOL    HW226433   5.414   1.780   2.860
 8512SOL     OW26434   2.226   6.623   5.731
 8512SOL    HW126435   2.149   6.645   5.671
 8512SOL    HW226436   2.266   6.536   5.704
 8513SOL     OW26437   5.175   6.173   0.261
 8513SOL    HW126438   5.223   6.091   0.230
 8513SOL    HW226439   5.081   6.148   0.287
 8514SOL     OW26440   3.410   6.595   3.591
 8514SOL    HW126441   3.470   6.673   3.610
 8514SOL    HW226442   3.359   6.613   3.508
 8515SOL     OW26443   5.678   2.265   0.695
 8515SOL    HW126444   5.661   2.357   0.731
 8515SOL    HW226445   5.738   2.215   0.758
 8516SOL     OW26446   6.979   1.828   1.904
 8516SOL    HW126447   6.964   1.730   1.915
 8516SOL    HW226448   6.894   1.872   1.874
 8517SOL     OW26449   1.401   3.755   0.264
 8517SOL    HW126450   1.402   3.707   0.176
 8517SOL    HW226451   1.352   3.841   0.255
 8518SOL     OW26452   2.947   6.097   0.401
 8518SOL    HW126453   3.029   6.078   0.348
 8518SOL    HW226454   2.969   6.164   0.472
 8519SOL     OW26455   2.534   6.011   3.192
 8519SOL    HW126456   2.521   6.098   3.143
 8519SOL    HW226457   2.446   5.966   3.203
 8520SOL     OW26458   3.541   0.316   6.635
 8520SOL    HW126459   3.607   0.381   6.599
 8520SOL    HW226460   3.449   0.353   6.626
 8521SOL     OW26461   1.110   0.586   1.302
 8521SOL    HW126462   1.132   0.678   1.271
 8521SOL    HW226463   1.159   0.519   1.246
 8522SOL     OW26464   2.131   6.130   4.614
 8522SOL    HW126465   2.182   6.182   4.683
 8522SOL    HW226466   2.155   6.165   4.523
 8523SOL     OW26467   1.383   6.843   0.131
 8523SOL    HW126468   1.334   6.760   0.104
 8523SOL    HW226469   1.326   6.896   0.194
 8524SOL     OW26470   1.807   1.629   6.630
 8524SOL    HW126471   1.778   1.688   6.705
 8524SOL    HW226472   1.788   1.674   6.543
 8525SOL     OW26473   5.173   3.452   3.425
 8525SOL    HW126474   5.084   3.422   3.460
 8525SOL    HW226475   5.238   3.376   3.431
 8526SOL     OW26476   1.560   3.337   2.698
 8526SOL    HW126477   1.603   3.253   2.731
 8526SOL    HW226478   1.526   3.322   2.605
 8527SOL     OW26479   4.083   0.611   3.994
 8527SOL    HW126480   3.993   0.582   4.029
 8527SOL    HW226481   4.104   0.703   4.029
 8528SOL     OW26482   5.192   2.239   0.078
 8528SOL    HW126483   5.110   2.205   0.124
 8528SOL    HW226484   5.193   2.207   7.004
 8529SOL     OW26485   6.901   5.334   6.462
 8529SOL    HW126486   6.949   5.250   6.436
 8529SOL    HW226487   6.967   5.403   6.490
 8530SOL     OW26488   1.663   3.954   6.172
 8530SOL    HW126489   1.682   3.885   6.242
 8530SOL    HW226490   1.722   3.938   6.093
 8531SOL     OW26491   3.875   4.846   2.020
 8531SOL    HW126492   3.779   4.871   2.026
 8531SOL    HW226493   3.925   4.884   2.098
 8532SOL     OW26494   1.155   4.155   0.045
 8532SOL    HW126495   1.246   4.192   0.064
 8532SOL    HW226496   1.108   4.214   7.001
 8533SOL     OW26497   3.914   6.471   5.984
 8533SOL    HW126498   4.007   6.503   6.001
 8533SOL    HW226499   3.864   6.468   6.070
 8534SOL     OW26500   1.449   2.675   2.448
 8534SOL    HW126501   1.444   2.593   2.504
 8534SOL    HW226502   1.459   2.649   2.352
 8535SOL     OW26503   6.581   3.164   5.052
 8535SOL    HW126504   6.630   3.078   5.069
 8535SOL    HW226505   6.540   3.161   4.961
 8536SOL     OW26506   6.961   1.638   4.905
 8536SOL    HW126507   6.938   1.541   4.897
 8536SOL    HW226508   6.949   1.667   5.000
 8537SOL     OW26509   5.404   6.709   2.889
 8537SOL    HW126510   5.322   6.741   2.842
 8537SOL    HW226511   5.446   6.635   2.836
 8538SOL     OW26512   5.602   0.988   5.652
 8538SOL    HW126513   5.523   0.946   5.697
 8538SOL    HW226514   5.644   0.921   5.590
 8539SOL     OW26515   0.202   2.987   3.208
 8539SOL    HW126516   0.269   2.932   3.257
 8539SOL    HW226517   0.126   3.009   3.270
 8540SOL     OW26518   3.974   6.768   6.630
 8540SOL    HW126519   3.982   6.708   6.709
 8540SOL    HW226520   4.017   6.856   6.650
 8541SOL     OW26521   3.048   6.433   5.033
 8541SOL    HW126522   2.951   6.435   5.056
 8541SOL    HW226523   3.101   6.406   5.114
 8542SOL     OW26524   0.975   5.093   5.750
 8542SOL    HW126525   0.976   5.074   5.652
 8542SOL    HW226526   0.922   5.023   5.798
 8543SOL     OW26527   2.511   2.654   5.574
 8543SOL    HW126528   2.604   2.643   5.538
 8543SOL    HW226529   2.478   2.565   5.606
 8544SOL     OW26530   5.085   5.013   5.429
 8544SOL    HW126531   5.155   5.081   5.407
 8544SOL    HW226532   5.014   5.054   5.486
 8545SOL     OW26533   2.117   6.736   6.626
 8545SOL    HW126534   2.046   6.797   6.662
 8545SOL    HW226535   2.093   6.708   6.533
 8546SOL     OW26536   4.504   1.077   2.872
 8546SOL    HW126537   4.480   1.168   2.838
 8546SOL    HW226538   4.600   1.059   2.852
 8547SOL     OW26539   5.532   6.498   6.110
 8547SOL    HW126540   5.516   6.581   6.162
 8547SOL    HW226541   5.618   6.506   6.059
 8548SOL     OW26542   0.549   3.994   4.668
 8548SOL    HW126543   0.549   3.925   4.741
 8548SOL    HW226544   0.632   4.049   4.675
 8549SOL     OW26545   1.095   0.119   4.214
 8549SOL    HW126546   1.008   0.100   4.259
 8549SOL    HW226547   1.092   0.209   4.171
 8550SOL     OW26548   0.005   4.792   5.949
 8550SOL    HW126549   6.988   4.737   5.875
 8550SOL    HW226550   6.996   4.754   6.037
 8551SOL     OW26551   3.026   0.274   5.015
 8551SOL    HW126552   2.985   0.187   4.988
 8551SOL    HW226553   3.031   0.280   5.115
 8552SOL     OW26554   2.951   1.543   1.906
 8552SOL    HW126555   3.037   1.493   1.898
 8552SOL    HW226556   2.971   1.638   1.931
 8553SOL     OW26557   4.934   3.735   0.423
 8553SOL    HW126558   4.957   3.826   0.456
 8553SOL    HW226559   4.911   3.676   0.501
 8554SOL     OW26560   1.839   0.775   0.345
 8554SOL    HW126561   1.863   0.865   0.381
 8554SOL    HW226562   1.824   0.712   0.420
 8555SOL     OW26563   4.382   1.750   3.900
 8555SOL    HW126564   4.303   1.719   3.849
 8555SOL    HW226565   4.352   1.798   3.983
 8556SOL     OW26566   0.581   5.421   5.933
 8556SOL    HW126567   0.660   5.454   5.881
 8556SOL    HW226568   0.502   5.413   5.872
 8557SOL     OW26569   6.976   0.476   6.692
 8557SOL    HW126570   0.033   0.436   6.644
 8557SOL    HW226571   7.002   0.566   6.728
 8558SOL     OW26572   2.970   5.698   4.275
 8558SOL    HW126573   3.041   5.679   4.343
 8558SOL    HW226574   2.884   5.718   4.321
 8559SOL     OW26575   1.580   4.142   2.638
 8559SOL    HW126576   1.559   4.238   2.618
 8559SOL    HW226577   1.516   4.108   2.707
 8560SOL     OW26578   2.900   3.991   0.707
 8560SOL    HW126579   2.936   4.067   0.653
 8560SOL    HW226580   2.929   4.001   0.802
 8561SOL     OW26581   3.580   0.706   2.810
 8561SOL    HW126582   3.537   0.646   2.741
 8561SOL    HW226583   3.512   0.730   2.880
 8562SOL     OW26584   5.074   2.497   6.826
 8562SOL    HW126585   5.146   2.535   6.884
 8562SOL    HW226586   4.985   2.523   6.862
 8563SOL     OW26587   3.034   5.098   2.390
 8563SOL    HW126588   3.050   5.004   2.361
 8563SOL    HW226589   3.121   5.144   2.403
 8564SOL     OW26590   4.133   6.765   0.460
 8564SOL    HW126591   4.069   6.826   0.412
 8564SOL    HW226592   4.102   6.670   0.451
 8565SOL     OW26593   1.396   4.651   1.573
 8565SOL    HW126594   1.432   4.743   1.586
 8565SOL    HW226595   1.471   4.587   1.555
 8566SOL     OW26596   3.369   0.678   2.367
 8566SOL    HW126597   3.454   0.631   2.392
 8566SOL    HW226598   3.355   0.755   2.430
 8567SOL     OW26599   1.446   2.244   2.129
 8567SOL    HW126600   1.516   2.174   2.139
 8567SOL    HW226601   1.480   2.332   2.163
 8568SOL     OW26602   6.280   0.777   6.261
 8568SOL    HW126603   6.378   0.787   6.281
 8568SOL    HW226604   6.268   0.768   6.162
 8569SOL     OW26605   4.785   2.214   0.356
 8569SOL    HW126606   4.830   2.278   0.418
 8569SOL    HW226607   4.849   2.143   0.327
 8570SOL     OW26608   2.470   2.186   1.990
 8570SOL    HW126609   2.553   2.238   1.967
 8570SOL    HW226610   2.438   2.215   2.081
 8571SOL     OW26611   2.119   0.467   2.821
 8571SOL    HW126612   2.206   0.427   2.792
 8571SOL    HW226613   2.118   0.476   2.921
 8572SOL     OW26614   2.843   4.002   5.693
 8572SOL    HW126615   2.931   4.025   5.652
 8572SOL    HW226616   2.856   3.973   5.788
 8573SOL     OW26617   2.837   6.140   6.870
 8573SOL    HW126618   2.906   6.118   6.802
 8573SOL    HW226619   2.881   6.183   6.949
 8574SOL     OW26620   5.173   1.018   5.375
 8574SOL    HW126621   5.073   1.014   5.377
 8574SOL    HW226622   5.209   0.928   5.351
 8575SOL     OW26623   3.573   6.044   3.976
 8575SOL    HW126624   3.498   6.104   3.948
 8575SOL    HW226625   3.646   6.048   3.908
 8576SOL     OW26626   1.803   4.737   4.212
 8576SOL    HW126627   1.791   4.646   4.172
 8576SOL    HW226628   1.873   4.733   4.283
 8577SOL     OW26629   1.639   1.138   0.609
 8577SOL    HW126630   1.674   1.223   0.569
 8577SOL    HW226631   1.592   1.084   0.539
 8578SOL     OW26632   1.069   0.086   6.799
 8578SOL    HW126633   1.108   0.161   6.745
 8578SOL    HW226634   1.125   0.072   6.881
 8579SOL     OW26635   2.660   6.785   2.524
 8579SOL    HW126636   2.593   6.712   2.538
 8579SOL    HW226637   2.674   6.799   2.426
 8580SOL     OW26638   1.570   0.138   2.075
 8580SOL    HW126639   1.636   0.113   2.005
 8580SOL    HW226640   1.613   0.198   2.142
 8581SOL     OW26641   3.365   4.454   1.282
 8581SOL    HW126642   3.442   4.401   1.248
 8581SOL    HW226643   3.347   4.430   1.378
 8582SOL     OW26644   3.895   5.407   5.333
 8582SOL    HW126645   3.802   5.443   5.321
 8582SOL    HW226646   3.961   5.471   5.294
 8583SOL     OW26647   3.585   6.744   3.014
 8583SOL    HW126648   3.604   6.755   2.916
 8583SOL    HW226649   3.591   6.834   3.059
 8584SOL     OW26650   6.302   1.437   4.551
 8584SOL    HW126651   6.375   1.392   4.501
 8584SOL    HW226652   6.341   1.502   4.617
 8585SOL     OW26653   5.508   2.872   2.733
 8585SOL    HW126654   5.546   2.832   2.650
 8585SOL    HW226655   5.570   2.857   2.810
 8586SOL     OW26656   6.717   5.980   6.454
 8586SOL    HW126657   6.716   5.909   6.384
 8586SOL    HW226658   6.732   5.939   6.544
 8587SOL     OW26659   0.250   2.237   0.261
 8587SOL    HW126660   0.172   2.259   0.202
 8587SOL    HW226661   0.323   2.197   0.205
 8588SOL     OW26662   2.599   0.547   5.648
 8588SOL    HW126663   2.692   0.551   5.683
 8588SOL    HW226664   2.599   0.568   5.550
 8589SOL     OW26665   5.817   2.975   0.356
 8589SOL    HW126666   5.801   3.004   0.262
 8589SOL    HW226667   5.797   3.050   0.419
 8590SOL     OW26668   0.205   1.079   4.235
 8590SOL    HW126669   0.300   1.081   4.203
 8590SOL    HW226670   0.203   1.038   4.327
 8591SOL     OW26671   6.340   4.584   5.898
 8591SOL    HW126672   6.404   4.611   5.971
 8591SOL    HW226673   6.320   4.486   5.906
 8592SOL     OW26674   0.343   1.922   4.142
 8592SOL    HW126675   0.264   1.964   4.188
 8592SOL    HW226676   0.420   1.986   4.142
 8593SOL     OW26677   5.589   1.467   6.951
 8593SOL    HW126678   5.646   1.427   0.001
 8593SOL    HW226679   5.590   1.409   6.870
 8594SOL     OW26680   6.179   3.530   6.584
 8594SOL    HW126681   6.125   3.449   6.564
 8594SOL    HW226682   6.205   3.575   6.499
 8595SOL     OW26683   5.676   6.582   3.103
 8595SOL    HW126684   5.748   6.642   3.138
 8595SOL    HW226685   5.714   6.521   3.033
 8596SOL     OW26686   0.620   1.552   4.083
 8596SOL    HW126687   0.545   1.584   4.026
 8596SOL    HW226688   0.586   1.528   4.174
 8597SOL     OW26689   6.058   3.092   5.959
 8597SOL    HW126690   6.028   3.023   6.026
 8597SOL    HW226691   6.158   3.099   5.961
 8598SOL     OW26692   6.150   0.491   5.206
 8598SOL    HW126693   6.160   0.454   5.113
 8598SOL    HW226694   6.144   0.416   5.271
 8599SOL     OW26695   6.715   3.592   4.057
 8599SOL    HW126696   6.723   3.580   4.156
 8599SOL    HW226697   6.765   3.519   4.010
 8600SOL     OW26698   4.800   2.367   0.727
 8600SOL    HW126699   4.806   2.434   0.801
 8600SOL    HW226700   4.766   2.280   0.764
 8601SOL     OW26701   6.468   6.285   3.587
 8601SOL    HW126702   6.520   6.298   3.503
 8601SOL    HW226703   6.370   6.288   3.566
 8602SOL     OW26704   1.927   6.529   6.251
 8602SOL    HW126705   1.979   6.491   6.175
 8602SOL    HW226706   1.912   6.459   6.321
 8603SOL     OW26707   1.089   0.426   6.869
 8603SOL    HW126708   1.003   0.478   6.866
 8603SOL    HW226709   1.123   0.411   6.776
 8604SOL     OW26710   1.536   4.729   5.978
 8604SOL    HW126711   1.537   4.764   5.884
 8604SOL    HW226712   1.532   4.629   5.976
 8605SOL     OW26713   0.317   5.054   4.196
 8605SOL    HW126714   0.247   4.982   4.192
 8605SOL    HW226715   0.297   5.114   4.274
 8606SOL     OW26716   1.785   2.126   0.549
 8606SOL    HW126717   1.885   2.120   0.554
 8606SOL    HW226718   1.745   2.037   0.568
 8607SOL     OW26719   1.416   3.719   1.138
 8607SOL    HW126720   1.443   3.655   1.210
 8607SOL    HW226721   1.492   3.731   1.074
 8608SOL     OW26722   1.713   6.377   2.720
 8608SOL    HW126723   1.665   6.306   2.771
 8608SOL    HW226724   1.667   6.465   2.733
 8609SOL     OW26725   3.816   1.619   4.657
 8609SOL    HW126726   3.745   1.688   4.644
 8609SOL    HW226727   3.905   1.663   4.665
 8610SOL     OW26728   0.061   5.982   3.237
 8610SOL    HW126729   0.136   6.041   3.208
 8610SOL    HW226730   0.010   5.952   3.157
 8611SOL     OW26731   2.550   1.059   5.055
 8611SOL    HW126732   2.488   1.063   4.977
 8611SOL    HW226733   2.581   1.151   5.078
 8612SOL     OW26734   3.249   2.942   4.231
 8612SOL    HW126735   3.348   2.959   4.235
 8612SOL    HW226736   3.212   2.943   4.324
 8613SOL     OW26737   4.048   3.122   2.732
 8613SOL    HW126738   4.070   3.140   2.636
 8613SOL    HW226739   4.052   3.208   2.784
 8614SOL     OW26740   0.998   2.371   3.361
 8614SOL    HW126741   0.909   2.410   3.337
 8614SOL    HW226742   1.021   2.397   3.455
 8615SOL     OW26743   3.374   1.679   4.931
 8615SOL    HW126744   3.395   1.616   4.856
 8615SOL    HW226745   3.402   1.772   4.904
 8616SOL     OW26746   5.740   4.376   3.680
 8616SOL    HW126747   5.677   4.308   3.641
 8616SOL    HW226748   5.821   4.329   3.716
 8617SOL     OW26749   2.215   0.393   3.635
 8617SOL    HW126750   2.129   0.440   3.657
 8617SOL    HW226751   2.209   0.298   3.664
 8618SOL     OW26752   5.548   4.044   1.349
 8618SOL    HW126753   5.590   4.078   1.265
 8618SOL    HW226754   5.491   4.115   1.389
 8619SOL     OW26755   5.241   5.309   0.599
 8619SOL    HW126756   5.336   5.297   0.572
 8619SOL    HW226757   5.188   5.229   0.570
 8620SOL     OW26758   2.017   0.322   4.316
 8620SOL    HW126759   2.109   0.284   4.326
 8620SOL    HW226760   1.950   0.251   4.337
 8621SOL     OW26761   5.166   3.533   1.498
 8621SOL    HW126762   5.254   3.580   1.494
 8621SOL    HW226763   5.108   3.578   1.565
 8622SOL     OW26764   0.033   5.287   2.366
 8622SOL    HW126765   0.047   5.215   2.434
 8622SOL    HW226766   0.121   5.313   2.326
 8623SOL     OW26767   1.465   2.759   3.683
 8623SOL    HW126768   1.491   2.765   3.587
 8623SOL    HW226769   1.516   2.685   3.727
 8624SOL     OW26770   3.623   3.652   4.792
 8624SOL    HW126771   3.524   3.660   4.808
 8624SOL    HW226772   3.668   3.737   4.817
 8625SOL     OW26773   3.453   2.818   5.018
 8625SOL    HW126774   3.540   2.799   5.063
 8625SOL    HW226775   3.377   2.795   5.079
 8626SOL     OW26776   3.828   2.549   1.243
 8626SOL    HW126777   3.898   2.480   1.227
 8626SOL    HW226778   3.787   2.535   1.333
 8627SOL     OW26779   2.112   1.413   2.577
 8627SOL    HW126780   2.084   1.409   2.673
 8627SOL    HW226781   2.053   1.353   2.523
 8628SOL     OW26782   1.019   6.385   0.502
 8628SOL    HW126783   1.002   6.359   0.407
 8628SOL    HW226784   1.110   6.353   0.529
 8629SOL     OW26785   0.434   6.521   4.708
 8629SOL    HW126786   0.385   6.504   4.794
 8629SOL    HW226787   0.389   6.472   4.634
 8630SOL     OW26788   4.753   2.774   2.147
 8630SOL    HW126789   4.763   2.785   2.246
 8630SOL    HW226790   4.739   2.864   2.105
 8631SOL     OW26791   2.594   6.125   6.354
 8631SOL    HW126792   2.640   6.037   6.366
 8631SOL    HW226793   2.647   6.196   6.400
 8632SOL     OW26794   5.609   5.681   4.124
 8632SOL    HW126795   5.532   5.720   4.073
 8632SOL    HW226796   5.651   5.752   4.180
 8633SOL     OW26797   6.055   3.796   5.257
 8633SOL    HW126798   6.013   3.799   5.166
 8633SOL    HW226799   5.985   3.776   5.326
 8634SOL     OW26800   5.076   4.075   0.040
 8634SOL    HW126801   5.055   3.986   0.081
 8634SOL    HW226802   5.042   4.148   0.100
 8635SOL     OW26803   5.751   2.795   6.774
 8635SOL    HW126804   5.765   2.697   6.763
 8635SOL    HW226805   5.774   2.842   6.688
 8636SOL     OW26806   4.781   6.392   1.638
 8636SOL    HW126807   4.716   6.412   1.711
 8636SOL    HW226808   4.874   6.400   1.673
 8637SOL     OW26809   1.991   1.970   5.979
 8637SOL    HW126810   2.020   1.883   6.019
 8637SOL    HW226811   1.960   1.955   5.886
 8638SOL     OW26812   4.741   2.934   3.567
 8638SOL    HW126813   4.723   2.991   3.487
 8638SOL    HW226814   4.731   2.988   3.650
 8639SOL     OW26815   3.918   3.698   6.907
 8639SOL    HW126816   3.963   3.756   6.974
 8639SOL    HW226817   3.986   3.641   6.861
 8640SOL     OW26818   3.194   3.284   0.698
 8640SOL    HW126819   3.102   3.283   0.659
 8640SOL    HW226820   3.193   3.238   0.787
 8641SOL     OW26821   4.014   4.971   2.275
 8641SOL    HW126822   4.097   4.935   2.316
 8641SOL    HW226823   3.936   4.949   2.333
 8642SOL     OW26824   0.951   6.012   2.952
 8642SOL    HW126825   0.909   6.049   2.868
 8642SOL    HW226826   0.992   6.087   3.004
 8643SOL     OW26827   4.032   0.056   0.903
 8643SOL    HW126828   4.000   0.085   0.993
 8643SOL    HW226829   4.067   0.136   0.853
 8644SOL     OW26830   6.130   2.557   5.893
 8644SOL    HW126831   6.059   2.538   5.961
 8644SOL    HW226832   6.220   2.551   5.936
 8645SOL     OW26833   5.869   5.536   2.955
 8645SOL    HW126834   5.883   5.635   2.952
 8645SOL    HW226835   5.836   5.504   2.867
 8646SOL     OW26836   6.475   2.420   4.829
 8646SOL    HW126837   6.538   2.352   4.866
 8646SOL    HW226838   6.387   2.414   4.875
 8647SOL     OW26839   2.092   5.841   1.696
 8647SOL    HW126840   2.108   5.778   1.620
 8647SOL    HW226841   2.179   5.881   1.724
 8648SOL     OW26842   5.075   5.032   0.575
 8648SOL    HW126843   5.004   5.051   0.506
 8648SOL    HW226844   5.064   4.939   0.610
 8649SOL     OW26845   5.619   0.919   1.567
 8649SOL    HW126846   5.561   0.840   1.587
 8649SOL    HW226847   5.696   0.920   1.631
 8650SOL     OW26848   2.241   6.760   5.434
 8650SOL    HW126849   2.152   6.724   5.462
 8650SOL    HW226850   2.250   6.855   5.463
 8651SOL     OW26851   4.053   2.576   1.497
 8651SOL    HW126852   3.955   2.558   1.497
 8651SOL    HW226853   4.103   2.490   1.507
 8652SOL     OW26854   0.897   2.809   3.382
 8652SOL    HW126855   0.893   2.771   3.474
 8652SOL    HW226856   0.945   2.745   3.321
 8653SOL     OW26857   6.462   1.549   6.492
 8653SOL    HW126858   6.430   1.635   6.452
 8653SOL    HW226859   6.386   1.503   6.538
 8654SOL     OW26860   0.441   4.269   2.492
 8654SOL    HW126861   0.352   4.315   2.492
 8654SOL    HW226862   0.478   4.269   2.399
 8655SOL     OW26863   0.422   0.195   4.744
 8655SOL    HW126864   0.403   0.209   4.842
 8655SOL    HW226865   0.405   0.279   4.694
 8656SOL     OW26866   4.998   6.688   1.240
 8656SOL    HW126867   4.935   6.672   1.164
 8656SOL    HW226868   5.001   6.606   1.298
 8657SOL     OW26869   3.617   1.742   3.684
 8657SOL    HW126870   3.705   1.733   3.638
 8657SOL    HW226871   3.626   1.805   3.762
 8658SOL     OW26872   5.477   4.543   1.244
 8658SOL    HW126873   5.381   4.530   1.221
 8658SOL    HW226874   5.512   4.623   1.194
 8659SOL     OW26875   3.082   0.915   2.136
 8659SOL    HW126876   3.035   0.992   2.094
 8659SOL    HW226877   3.115   0.941   2.227
 8660SOL     OW26878   0.161   4.809   2.084
 8660SOL    HW126879   0.189   4.802   1.988
 8660SOL    HW226880   0.215   4.881   2.128
 8661SOL     OW26881   6.829   3.391   2.419
 8661SOL    HW126882   6.810   3.488   2.430
 8661SOL    HW226883   6.789   3.358   2.334
 8662SOL     OW26884   1.734   3.159   3.230
 8662SOL    HW126885   1.828   3.140   3.201
 8662SOL    HW226886   1.689   3.217   3.163
 8663SOL     OW26887   3.956   5.324   2.651
 8663SOL    HW126888   4.041   5.326   2.599
 8663SOL    HW226889   3.884   5.371   2.599
 8664SOL     OW26890   4.115   5.984   3.355
 8664SOL    HW126891   4.069   6.004   3.268
 8664SOL    HW226892   4.082   5.896   3.390
 8665SOL     OW26893   5.270   3.472   6.497
 8665SOL    HW126894   5.294   3.518   6.412
 8665SOL    HW226895   5.287   3.533   6.574
 8666SOL     OW26896   4.428   6.823   2.485
 8666SOL    HW126897   4.352   6.765   2.455
 8666SOL    HW226898   4.459   6.794   2.575
 8667SOL     OW26899   5.134   1.970   2.967
 8667SOL    HW126900   5.108   1.987   2.872
 8667SOL    HW226901   5.152   2.057   3.013
 8668SOL     OW26902   4.800   2.245   5.191
 8668SOL    HW126903   4.801   2.200   5.280
 8668SOL    HW226904   4.832   2.182   5.121
 8669SOL     OW26905   6.445   6.314   6.307
 8669SOL    HW126906   6.445   6.217   6.328
 8669SOL    HW226907   6.535   6.353   6.330
 8670SOL     OW26908   6.625   4.667   5.472
 8670SOL    HW126909   6.603   4.572   5.449
 8670SOL    HW226910   6.703   4.697   5.417
 8671SOL     OW26911   0.372   3.180   3.125
 8671SOL    HW126912   0.356   3.194   3.027
 8671SOL    HW226913   0.313   3.107   3.159
 8672SOL     OW26914   0.068   0.947   2.296
 8672SOL    HW126915   0.087   1.037   2.256
 8672SOL    HW226916   6.998   0.916   2.267
 8673SOL     OW26917   1.294   2.197   1.030
 8673SOL    HW126918   1.360   2.124   1.047
 8673SOL    HW226919   1.272   2.242   1.117
 8674SOL     OW26920   6.954   3.887   3.013
 8674SOL    HW126921   6.989   3.793   3.017
 8674SOL    HW226922   6.919   3.913   3.103
 8675SOL     OW26923   4.071   2.187   4.986
 8675SOL    HW126924   4.152   2.130   4.999
 8675SOL    HW226925   4.097   2.283   4.986
 8676SOL     OW26926   4.929   1.701   0.582
 8676SOL    HW126927   4.985   1.672   0.659
 8676SOL    HW226928   4.848   1.750   0.615
 8677SOL     OW26929   2.110   6.765   5.938
 8677SOL    HW126930   2.021   6.797   5.905
 8677SOL    HW226931   2.156   6.716   5.864
 8678SOL     OW26932   2.237   2.438   0.223
 8678SOL    HW126933   2.171   2.513   0.232
 8678SOL    HW226934   2.303   2.459   0.152
 8679SOL     OW26935   1.248   1.913   6.018
 8679SOL    HW126936   1.262   2.007   6.049
 8679SOL    HW226937   1.280   1.849   6.088
 8680SOL     OW26938   6.996   0.653   0.179
 8680SOL    HW126939   6.973   0.556   0.191
 8680SOL    HW226940   6.935   0.693   0.111
 8681SOL     OW26941   5.255   5.909   0.966
 8681SOL    HW126942   5.339   5.917   1.020
 8681SOL    HW226943   5.265   5.961   0.882
 8682SOL     OW26944   2.443   0.691   2.348
 8682SOL    HW126945   2.423   0.593   2.352
 8682SOL    HW226946   2.360   0.741   2.323
 8683SOL     OW26947   2.375   4.486   4.843
 8683SOL    HW126948   2.404   4.534   4.926
 8683SOL    HW226949   2.288   4.524   4.811
 8684SOL     OW26950   2.344   4.241   4.016
 8684SOL    HW126951   2.349   4.190   4.103
 8684SOL    HW226952   2.396   4.326   4.025
 8685SOL     OW26953   4.698   2.755   4.679
 8685SOL    HW126954   4.773   2.821   4.683
 8685SOL    HW226955   4.692   2.705   4.766
 8686SOL     OW26956   1.188   5.326   3.203
 8686SOL    HW126957   1.141   5.392   3.144
 8686SOL    HW226958   1.197   5.239   3.155
 8687SOL     OW26959   5.738   4.486   4.952
 8687SOL    HW126960   5.794   4.555   4.998
 8687SOL    HW226961   5.675   4.530   4.889
 8688SOL     OW26962   1.487   3.621   5.285
 8688SOL    HW126963   1.409   3.677   5.257
 8688SOL    HW226964   1.571   3.658   5.245
 8689SOL     OW26965   3.952   3.103   0.260
 8689SOL    HW126966   3.895   3.135   0.184
 8689SOL    HW226967   3.901   3.110   0.346
 8690SOL     OW26968   1.418   1.778   2.290
 8690SOL    HW126969   1.364   1.841   2.235
 8690SOL    HW226970   1.357   1.727   2.351
 8691SOL     OW26971   3.454   2.797   5.478
 8691SOL    HW126972   3.494   2.794   5.569
 8691SOL    HW226973   3.474   2.885   5.436
 8692SOL     OW26974   4.756   2.287   4.873
 8692SOL    HW126975   4.710   2.350   4.935
 8692SOL    HW226976   4.742   2.318   4.778
 8693SOL     OW26977   6.740   6.819   5.880
 8693SOL    HW126978   6.825   6.813   5.827
 8693SOL    HW226979   6.732   6.738   5.938
 8694SOL     OW26980   5.184   3.034   5.539
 8694SOL    HW126981   5.135   3.099   5.481
 8694SOL    HW226982   5.243   2.976   5.482
 8695SOL     OW26983   3.425   4.797   0.591
 8695SOL    HW126984   3.384   4.875   0.638
 8695SOL    HW226985   3.464   4.827   0.504
 8696SOL     OW26986   2.945   5.562   5.759
 8696SOL    HW126987   2.888   5.483   5.737
 8696SOL    HW226988   3.027   5.531   5.808
 8697SOL     OW26989   1.655   4.046   5.470
 8697SOL    HW126990   1.674   3.989   5.390
 8697SOL    HW226991   1.739   4.092   5.499
 8698SOL     OW26992   4.564   5.099   6.239
 8698SOL    HW126993   4.558   5.001   6.220
 8698SOL    HW226994   4.660   5.127   6.238
 8699SOL     OW26995   1.764   2.342   6.832
 8699SOL    HW126996   1.764   2.441   6.816
 8699SOL    HW226997   1.833   2.319   6.901
 8700SOL     OW26998   1.030   1.133   4.466
 8700SOL    HW126999   1.024   1.144   4.367
 8700SOL    HW227000   0.971   1.056   4.494
 8701SOL     OW27001   1.507   2.778   6.914
 8701SOL    HW127002   1.426   2.740   6.958
 8701SOL    HW227003   1.571   2.705   6.893
 8702SOL     OW27004   5.358   4.640   0.831
 8702SOL    HW127005   5.431   4.571   0.837
 8702SOL    HW227006   5.341   4.678   0.923
 8703SOL     OW27007   2.993   5.928   0.801
 8703SOL    HW127008   2.995   6.020   0.841
 8703SOL    HW227009   3.066   5.919   0.733
 8704SOL     OW27010   0.087   0.734   4.809
 8704SOL    HW127011   0.019   0.784   4.755
 8704SOL    HW227012   0.138   0.672   4.749
 8705SOL     OW27013   4.145   2.171   6.898
 8705SOL    HW127014   4.050   2.185   6.869
 8705SOL    HW227015   4.190   2.260   6.905
 8706SOL     OW27016   4.815   2.707   6.351
 8706SOL    HW127017   4.863   2.679   6.434
 8706SOL    HW227018   4.878   2.754   6.290
 8707SOL     OW27019   2.469   1.065   4.209
 8707SOL    HW127020   2.414   1.033   4.132
 8707SOL    HW227021   2.495   0.988   4.266
 8708SOL     OW27022   6.103   2.423   0.584
 8708SOL    HW127023   6.014   2.394   0.549
 8708SOL    HW227024   6.132   2.361   0.657
 8709SOL     OW27025   6.060   6.592   4.842
 8709SOL    HW127026   6.065   6.686   4.878
 8709SOL    HW227027   5.995   6.539   4.895
 8710SOL     OW27028   2.256   1.709   3.568
 8710SOL    HW127029   2.340   1.746   3.607
 8710SOL    HW227030   2.178   1.739   3.622
 8711SOL     OW27031   1.194   1.557   1.898
 8711SOL    HW127032   1.138   1.579   1.819
 8711SOL    HW227033   1.164   1.471   1.938
 8712SOL     OW27034   1.509   4.424   4.884
 8712SOL    HW127035   1.558   4.390   4.964
 8712SOL    HW227036   1.414   4.444   4.910
 8713SOL     OW27037   0.183   3.630   1.236
 8713SOL    HW127038   0.103   3.597   1.286
 8713SOL    HW227039   0.242   3.553   1.213
 8714SOL     OW27040   6.639   4.478   6.419
 8714SOL    HW127041   6.544   4.508   6.426
 8714SOL    HW227042   6.659   4.413   6.491
 8715SOL     OW27043   1.881   3.740   1.671
 8715SOL    HW127044   1.919   3.720   1.580
 8715SOL    HW227045   1.825   3.822   1.666
 8716SOL     OW27046   6.781   0.369   2.537
 8716SOL    HW127047   6.686   0.340   2.538
 8716SOL    HW227048   6.823   0.351   2.626
 8717SOL     OW27049   2.889   3.069   6.830
 8717SOL    HW127050   2.824   3.000   6.862
 8717SOL    HW227051   2.974   3.025   6.803
 8718SOL     OW27052   3.017   5.234   6.474
 8718SOL    HW127053   3.047   5.263   6.383
 8718SOL    HW227054   3.019   5.312   6.537
 8719SOL     OW27055   3.586   0.968   4.307
 8719SOL    HW127056   3.502   0.918   4.326
 8719SOL    HW227057   3.600   0.976   4.208
 8720SOL     OW27058   0.186   5.492   4.551
 8720SOL    HW127059   0.273   5.460   4.590
 8720SOL    HW227060   0.180   5.462   4.456
 8721SOL     OW27061   0.329   6.926   0.214
 8721SOL    HW127062   0.413   6.891   0.173
 8721SOL    HW227063   0.252   6.910   0.153
 8722SOL     OW27064   2.949   1.221   0.961
 8722SOL    HW127065   2.992   1.200   1.048
 8722SOL    HW227066   2.913   1.314   0.962
 8723SOL     OW27067   3.547   6.552   2.195
 8723SOL    HW127068   3.644   6.548   2.174
 8723SOL    HW227069   3.521   6.473   2.251
 8724SOL     OW27070   3.680   1.404   4.771
 8724SOL    HW127071   3.728   1.463   4.707
 8724SOL    HW227072   3.715   1.311   4.763
 8725SOL     OW27073   6.947   0.214   3.729
 8725SOL    HW127074   0.008   0.197   3.785
 8725SOL    HW227075   6.920   0.129   3.684
 8726SOL     OW27076   6.608   1.286   1.314
 8726SOL    HW127077   6.694   1.243   1.287
 8726SOL    HW227078   6.592   1.366   1.257
 8727SOL     OW27079   5.323   6.195   6.971
 8727SOL    HW127080   5.247   6.240   6.925
 8727SOL    HW227081   5.339   6.106   6.929
 8728SOL     OW27082   6.581   0.339   4.950
 8728SOL    HW127083   6.587   0.320   5.048
 8728SOL    HW227084   6.514   0.278   4.908
 8729SOL     OW27085   6.027   5.831   6.437
 8729SOL    HW127086   5.928   5.824   6.443
 8729SOL    HW227087   6.068   5.742   6.454
 8730SOL     OW27088   4.737   5.444   1.220
 8730SOL    HW127089   4.752   5.375   1.149
 8730SOL    HW227090   4.816   5.505   1.225
 8731SOL     OW27091   6.733   1.309   3.795
 8731SOL    HW127092   6.762   1.343   3.706
 8731SOL    HW227093   6.634   1.317   3.804
 8732SOL     OW27094   5.671   6.840   6.737
 8732SOL    HW127095   5.688   6.937   6.756
 8732SOL    HW227096   5.668   6.790   6.824
 8733SOL     OW27097   6.591   4.264   2.358
 8733SOL    HW127098   6.645   4.182   2.374
 8733SOL    HW227099   6.637   4.321   2.290
 8734SOL     OW27100   0.682   4.223   0.905
 8734SOL    HW127101   0.657   4.309   0.950
 8734SOL    HW227102   0.657   4.147   0.964
 8735SOL     OW27103   0.455   2.948   4.922
 8735SOL    HW127104   0.382   2.988   4.977
 8735SOL    HW227105   0.544   2.981   4.955
 8736SOL     OW27106   1.453   5.945   3.042
 8736SOL    HW127107   1.412   5.862   3.080
 8736SOL    HW227108   1.477   5.928   2.946
 8737SOL     OW27109   1.111   5.651   0.264
 8737SOL    HW127110   1.028   5.606   0.232
 8737SOL    HW227111   1.088   5.721   0.331
 8738SOL     OW27112   1.178   2.807   2.812
 8738SOL    HW127113   1.109   2.878   2.830
 8738SOL    HW227114   1.220   2.779   2.898
 8739SOL     OW27115   6.040   5.185   4.606
 8739SOL    HW127116   6.043   5.202   4.507
 8739SOL    HW227117   5.986   5.103   4.624
 8740SOL     OW27118   3.324   1.178   4.031
 8740SOL    HW127119   3.404   1.203   3.977
 8740SOL    HW227120   3.313   1.243   4.106
 8741SOL     OW27121   1.109   1.469   2.645
 8741SOL    HW127122   1.041   1.507   2.707
 8741SOL    HW227123   1.065   1.400   2.586
 8742SOL     OW27124   2.604   2.274   1.606
 8742SOL    HW127125   2.651   2.206   1.663
 8742SOL    HW227126   2.600   2.241   1.512
 8743SOL     OW27127   1.040   2.763   1.243
 8743SOL    HW127128   0.993   2.675   1.237
 8743SOL    HW227129   0.994   2.822   1.309
 8744SOL     OW27130   3.256   3.816   5.691
 8744SOL    HW127131   3.218   3.859   5.773
 8744SOL    HW227132   3.355   3.829   5.689
 8745SOL     OW27133   5.744   1.808   5.855
 8745SOL    HW127134   5.767   1.784   5.760
 8745SOL    HW227135   5.829   1.811   5.909
 8746SOL     OW27136   4.057   4.616   5.346
 8746SOL    HW127137   4.075   4.626   5.444
 8746SOL    HW227138   3.973   4.563   5.333
 8747SOL     OW27139   1.204   0.636   3.203
 8747SOL    HW127140   1.183   0.726   3.242
 8747SOL    HW227141   1.133   0.571   3.231
 8748SOL     OW27142   5.426   2.052   4.804
 8748SOL    HW127143   5.418   2.094   4.714
 8748SOL    HW227144   5.335   2.028   4.838
 8749SOL     OW27145   2.955   1.320   4.123
 8749SOL    HW127146   3.054   1.335   4.119
 8749SOL    HW227147   2.937   1.232   4.167
 8750SOL     OW27148   3.716   4.027   0.908
 8750SOL    HW127149   3.624   4.049   0.874
 8750SOL    HW227150   3.709   3.991   1.001
 8751SOL     OW27151   2.868   6.777   0.424
 8751SOL    HW127152   2.892   6.757   0.329
 8751SOL    HW227153   2.951   6.778   0.479
 8752SOL     OW27154   6.933   2.588   5.565
 8752SOL    HW127155   6.971   2.598   5.657
 8752SOL    HW227156   6.992   2.635   5.500
 8753SOL     OW27157   2.676   2.550   0.621
 8753SOL    HW127158   2.591   2.566   0.572
 8753SOL    HW227159   2.664   2.474   0.685
 8754SOL     OW27160   1.164   5.397   0.158
 8754SOL    HW127161   1.100   5.353   0.096
 8754SOL    HW227162   1.144   5.494   0.164
 8755SOL     OW27163   0.364   2.630   2.292
 8755SOL    HW127164   0.353   2.544   2.341
 8755SOL    HW227165   0.275   2.665   2.264
 8756SOL     OW27166   1.945   1.584   2.169
 8756SOL    HW127167   2.010   1.660   2.166
 8756SOL    HW227168   1.855   1.618   2.196
 8757SOL     OW27169   5.454   6.154   5.854
 8757SOL    HW127170   5.363   6.114   5.863
 8757SOL    HW227171   5.495   6.163   5.945
 8758SOL     OW27172   3.433   5.654   5.311
 8758SOL    HW127173   3.335   5.656   5.291
 8758SOL    HW227174   3.449   5.690   5.403
 8759SOL     OW27175   6.031   1.281   1.195
 8759SOL    HW127176   6.126   1.286   1.163
 8759SOL    HW227177   6.018   1.345   1.271
 8760SOL     OW27178   2.427   2.747   4.300
 8760SOL    HW127179   2.412   2.789   4.389
 8760SOL    HW227180   2.421   2.648   4.307
 8761SOL     OW27181   4.969   2.087   2.723
 8761SOL    HW127182   5.023   2.139   2.657
 8761SOL    HW227183   4.909   2.023   2.674
 8762SOL     OW27184   3.301   5.490   3.341
 8762SOL    HW127185   3.308   5.522   3.436
 8762SOL    HW227186   3.303   5.390   3.339
 8763SOL     OW27187   0.246   0.749   6.653
 8763SOL    HW127188   0.323   0.775   6.712
 8763SOL    HW227189   0.282   0.713   6.566
 8764SOL     OW27190   3.335   4.637   5.593
 8764SOL    HW127191   3.369   4.696   5.666
 8764SOL    HW227192   3.235   4.637   5.595
 8765SOL     OW27193   4.097   0.337   3.710
 8765SOL    HW127194   4.126   0.329   3.805
 8765SOL    HW227195   4.063   0.249   3.677
 8766SOL     OW27196   5.165   6.636   5.887
 8766SOL    HW127197   5.117   6.549   5.892
 8766SOL    HW227198   5.209   6.645   5.797
 8767SOL     OW27199   1.851   1.611   3.393
 8767SOL    HW127200   1.884   1.520   3.415
 8767SOL    HW227201   1.780   1.638   3.459
 8768SOL     OW27202   6.907   2.007   6.664
 8768SOL    HW127203   6.935   1.980   6.572
 8768SOL    HW227204   6.988   2.021   6.721
 8769SOL     OW27205   6.054   0.193   6.681
 8769SOL    HW127206   6.099   0.248   6.751
 8769SOL    HW227207   5.957   0.219   6.674
 8770SOL     OW27208   5.317   2.340   0.320
 8770SOL    HW127209   5.279   2.345   0.227
 8770SOL    HW227210   5.263   2.277   0.375
 8771SOL     OW27211   0.217   2.451   6.626
 8771SOL    HW127212   0.219   2.537   6.677
 8771SOL    HW227213   0.204   2.470   6.529
 8772SOL     OW27214   0.157   0.228   4.967
 8772SOL    HW127215   0.238   0.283   4.985
 8772SOL    HW227216   0.075   0.284   4.979
 8773SOL     OW27217   6.911   0.672   4.528
 8773SOL    HW127218   6.842   0.736   4.493
 8773SOL    HW227219   6.878   0.578   4.517
 8774SOL     OW27220   1.145   1.862   0.311
 8774SOL    HW127221   1.148   1.764   0.289
 8774SOL    HW227222   1.179   1.914   0.233
 8775SOL     OW27223   5.264   2.606   3.757
 8775SOL    HW127224   5.233   2.690   3.711
 8775SOL    HW227225   5.321   2.553   3.694
 8776SOL     OW27226   4.167   2.690   0.441
 8776SOL    HW127227   4.237   2.622   0.462
 8776SOL    HW227228   4.080   2.643   0.424
 8777SOL     OW27229   6.838   1.760   3.459
 8777SOL    HW127230   6.798   1.776   3.369
 8777SOL    HW227231   6.921   1.705   3.449
 8778SOL     OW27232   3.257   3.976   6.887
 8778SOL    HW127233   3.348   3.996   6.922
 8778SOL    HW227234   3.211   4.062   6.861
 8779SOL     OW27235   4.167   4.976   2.706
 8779SOL    HW127236   4.082   4.938   2.669
 8779SOL    HW227237   4.242   4.913   2.689
 8780SOL     OW27238   0.443   4.315   3.727
 8780SOL    HW127239   0.481   4.393   3.777
 8780SOL    HW227240   0.482   4.313   3.635
 8781SOL     OW27241   2.440   0.600   1.246
 8781SOL    HW127242   2.436   0.522   1.308
 8781SOL    HW227243   2.486   0.676   1.291
 8782SOL     OW27244   5.890   2.296   0.496
 8782SOL    HW127245   5.863   2.334   0.407
 8782SOL    HW227246   5.808   2.267   0.546
 8783SOL     OW27247   4.786   4.423   4.781
 8783SOL    HW127248   4.818   4.516   4.764
 8783SOL    HW227249   4.864   4.361   4.783
 8784SOL     OW27250   5.043   0.946   0.876
 8784SOL    HW127251   5.140   0.921   0.883
 8784SOL    HW227252   5.026   1.030   0.926
 8785SOL     OW27253   0.136   5.531   5.023
 8785SOL    HW127254   0.052   5.555   4.975
 8785SOL    HW227255   0.201   5.606   5.017
 8786SOL     OW27256   5.289   1.371   2.663
 8786SOL    HW127257   5.304   1.407   2.755
 8786SOL    HW227258   5.364   1.398   2.604
 8787SOL     OW27259   3.804   5.838   1.263
 8787SOL    HW127260   3.839   5.790   1.183
 8787SOL    HW227261   3.757   5.773   1.323
 8788SOL     OW27262   0.391   6.617   4.071
 8788SOL    HW127263   0.472   6.597   4.015
 8788SOL    HW227264   0.320   6.549   4.051
 8789SOL     OW27265   0.996   2.256   6.008
 8789SOL    HW127266   0.987   2.276   5.911
 8789SOL    HW227267   1.086   2.285   6.040
 8790SOL     OW27268   3.892   3.073   5.397
 8790SOL    HW127269   3.884   3.017   5.480
 8790SOL    HW227270   3.900   3.014   5.317
 8791SOL     OW27271   3.728   6.292   4.408
 8791SOL    HW127272   3.630   6.275   4.414
 8791SOL    HW227273   3.764   6.312   4.499
 8792SOL     OW27274   5.366   4.817   2.279
 8792SOL    HW127275   5.295   4.752   2.304
 8792SOL    HW227276   5.440   4.814   2.346
 8793SOL     OW27277   6.611   6.258   5.489
 8793SOL    HW127278   6.547   6.330   5.462
 8793SOL    HW227279   6.622   6.193   5.413
 8794SOL     OW27280   6.751   1.112   2.770
 8794SOL    HW127281   6.690   1.126   2.848
 8794SOL    HW227282   6.821   1.045   2.794
 8795SOL     OW27283   1.275   6.446   6.785
 8795SOL    HW127284   1.250   6.529   6.836
 8795SOL    HW227285   1.214   6.434   6.708
 8796SOL     OW27286   5.837   3.898   4.706
 8796SOL    HW127287   5.896   3.975   4.682
 8796SOL    HW227288   5.868   3.816   4.658
 8797SOL     OW27289   4.239   6.696   4.291
 8797SOL    HW127290   4.316   6.719   4.350
 8797SOL    HW227291   4.173   6.640   4.341
 8798SOL     OW27292   2.844   6.570   5.603
 8798SOL    HW127293   2.822   6.480   5.642
 8798SOL    HW227294   2.762   6.626   5.599
 8799SOL     OW27295   1.766   5.730   1.942
 8799SOL    HW127296   1.836   5.716   2.012
 8799SOL    HW227297   1.676   5.711   1.981
 8800SOL     OW27298   6.159   6.227   4.837
 8800SOL    HW127299   6.077   6.170   4.832
 8800SOL    HW227300   6.184   6.257   4.745
 8801SOL     OW27301   5.693   3.571   5.251
 8801SOL    HW127302   5.606   3.620   5.246
 8801SOL    HW227303   5.755   3.621   5.312
 8802SOL     OW27304   1.014   5.578   6.500
 8802SOL    HW127305   0.969   5.518   6.434
 8802SOL    HW227306   0.995   5.673   6.478
 8803SOL     OW27307   5.970   6.092   6.238
 8803SOL    HW127308   5.992   6.177   6.284
 8803SOL    HW227309   5.996   6.014   6.296
 8804SOL     OW27310   1.749   6.199   1.874
 8804SOL    HW127311   1.713   6.121   1.823
 8804SOL    HW227312   1.709   6.283   1.837
 8805SOL     OW27313   4.799   4.696   3.557
 8805SOL    HW127314   4.818   4.606   3.596
 8805SOL    HW227315   4.794   4.689   3.458
 8806SOL     OW27316   1.188   7.006   1.519
 8806SOL    HW127317   1.231   6.917   1.507
 8806SOL    HW227318   1.150   7.013   1.611
 8807SOL     OW27319   5.688   2.794   0.889
 8807SOL    HW127320   5.696   2.879   0.941
 8807SOL    HW227321   5.748   2.798   0.809
 8808SOL     OW27322   1.849   2.344   6.105
 8808SOL    HW127323   1.778   2.311   6.044
 8808SOL    HW227324   1.834   2.309   6.197
 8809SOL     OW27325   0.048   3.357   3.101
 8809SOL    HW127326   0.017   3.262   3.097
 8809SOL    HW227327   0.100   3.371   3.186
 8810SOL     OW27328   0.880   1.235   4.942
 8810SOL    HW127329   0.903   1.277   4.854
 8810SOL    HW227330   0.782   1.220   4.947
 8811SOL     OW27331   4.118   4.702   2.514
 8811SOL    HW127332   4.169   4.624   2.549
 8811SOL    HW227333   4.150   4.723   2.421
 8812SOL     OW27334   5.419   0.968   6.549
 8812SOL    HW127335   5.397   0.927   6.460
 8812SOL    HW227336   5.361   0.928   6.620
 8813SOL     OW27337   2.141   3.442   3.225
 8813SOL    HW127338   2.107   3.502   3.298
 8813SOL    HW227339   2.100   3.351   3.236
 8814SOL     OW27340   4.880   0.012   5.498
 8814SOL    HW127341   4.790   7.009   5.533
 8814SOL    HW227342   4.901   0.107   5.520
 8815SOL     OW27343   5.724   0.997   1.333
 8815SOL    HW127344   5.704   0.939   1.255
 8815SOL    HW227345   5.670   0.968   1.412
 8816SOL     OW27346   0.779   6.203   4.671
 8816SOL    HW127347   0.775   6.300   4.696
 8816SOL    HW227348   0.708   6.183   4.604
 8817SOL     OW27349   1.332   2.995   3.243
 8817SOL    HW127350   1.295   2.940   3.319
 8817SOL    HW227351   1.293   3.087   3.247
 8818SOL     OW27352   0.941   0.060   6.263
 8818SOL    HW127353   1.026   0.007   6.267
 8818SOL    HW227354   0.953   0.146   6.312
 8819SOL     OW27355   4.388   4.818   6.267
 8819SOL    HW127356   4.312   4.880   6.289
 8819SOL    HW227357   4.463   4.834   6.331
 8820SOL     OW27358   4.099   6.638   5.689
 8820SOL    HW127359   4.119   6.544   5.662
 8820SOL    HW227360   4.032   6.678   5.625
 8821SOL     OW27361   0.027   4.562   6.203
 8821SOL    HW127362   0.053   4.499   6.130
 8821SOL    HW227363   6.958   4.601   6.183
 8822SOL     OW27364   6.456   0.572   4.825
 8822SOL    HW127365   6.494   0.641   4.764
 8822SOL    HW227366   6.526   0.541   4.889
 8823SOL     OW27367   3.406   1.734   3.256
 8823SOL    HW127368   3.363   1.672   3.321
 8823SOL    HW227369   3.352   1.817   3.248
 8824SOL     OW27370   1.387   0.268   2.946
 8824SOL    HW127371   1.334   0.206   3.005
 8824SOL    HW227372   1.359   0.362   2.962
 8825SOL     OW27373   0.175   0.042   0.643
 8825SOL    HW127374   0.087   7.016   0.643
 8825SOL    HW227375   0.200   0.066   0.550
 8826SOL     OW27376   0.715   4.668   1.084
 8826SOL    HW127377   0.809   4.665   1.050
 8826SOL    HW227378   0.672   4.579   1.071
 8827SOL     OW27379   4.387   6.902   2.938
 8827SOL    HW127380   4.381   7.001   2.922
 8827SOL    HW227381   4.457   6.885   3.008
 8828SOL     OW27382   5.201   2.503   6.448
 8828SOL    HW127383   5.196   2.546   6.358
 8828SOL    HW227384   5.118   2.524   6.500
 8829SOL     OW27385   6.994   0.881   2.813
 8829SOL    HW127386   6.990   0.782   2.799
 8829SOL    HW227387   0.041   0.920   2.751
 8830SOL     OW27388   3.457   0.432   3.362
 8830SOL    HW127389   3.497   0.435   3.270
 8830SOL    HW227390   3.385   0.363   3.365
 8831SOL     OW27391   0.166   2.731   2.158
 8831SOL    HW127392   0.091   2.694   2.103
 8831SOL    HW227393   0.234   2.772   2.097
 8832SOL     OW27394   5.755   6.992   5.663
 8832SOL    HW127395   5.656   7.009   5.669
 8832SOL    HW227396   5.771   6.894   5.649
 8833SOL     OW27397   5.422   2.332   1.472
 8833SOL    HW127398   5.342   2.373   1.517
 8833SOL    HW227399   5.504   2.356   1.524
 8834SOL     OW27400   6.081   3.787   5.990
 8834SOL    HW127401   6.042   3.737   6.067
 8834SOL    HW227402   6.067   3.735   5.906
 8835SOL     OW27403   6.897   0.580   5.735
 8835SOL    HW127404   6.879   0.633   5.652
 8835SOL    HW227405   6.835   0.501   5.737
 8836SOL     OW27406   4.593   1.215   1.289
 8836SOL    HW127407   4.523   1.274   1.329
 8836SOL    HW227408   4.684   1.248   1.315
 8837SOL     OW27409   4.222   6.631   0.855
 8837SOL    HW127410   4.198   6.536   0.835
 8837SOL    HW227411   4.319   6.637   0.880
 8838SOL     OW27412   1.709   3.681   3.708
 8838SOL    HW127413   1.614   3.664   3.681
 8838SOL    HW227414   1.711   3.719   3.800
 8839SOL     OW27415   4.606   5.910   1.740
 8839SOL    HW127416   4.645   5.880   1.653
 8839SOL    HW227417   4.570   6.002   1.731
 8840SOL     OW27418   6.596   0.913   0.845
 8840SOL    HW127419   6.547   0.825   0.852
 8840SOL    HW227420   6.685   0.905   0.890
 8841SOL     OW27421   3.483   1.517   0.608
 8841SOL    HW127422   3.480   1.605   0.560
 8841SOL    HW227423   3.578   1.495   0.629
 8842SOL     OW27424   3.245   3.648   4.547
 8842SOL    HW127425   3.336   3.642   4.506
 8842SOL    HW227426   3.254   3.687   4.639
 8843SOL     OW27427   2.592   6.024   6.055
 8843SOL    HW127428   2.661   6.089   6.084
 8843SOL    HW227429   2.535   6.065   5.983
 8844SOL     OW27430   3.326   2.814   6.324
 8844SOL    HW127431   3.395   2.771   6.266
 8844SOL    HW227432   3.370   2.878   6.387
 8845SOL     OW27433   0.129   3.449   2.136
 8845SOL    HW127434   0.075   3.366   2.145
 8845SOL    HW227435   0.069   3.529   2.141
 8846SOL     OW27436   5.437   4.742   4.367
 8846SOL    HW127437   5.516   4.727   4.309
 8846SOL    HW227438   5.436   4.837   4.399
 8847SOL     OW27439   1.316   2.428   3.826
 8847SOL    HW127440   1.371   2.420   3.910
 8847SOL    HW227441   1.259   2.347   3.816
 8848SOL     OW27442   5.737   1.139   0.627
 8848SOL    HW127443   5.682   1.091   0.559
 8848SOL    HW227444   5.787   1.072   0.682
 8849SOL     OW27445   3.420   5.006   4.372
 8849SOL    HW127446   3.374   4.980   4.457
 8849SOL    HW227447   3.515   4.975   4.376
 8850SOL     OW27448   3.267   1.250   1.479
 8850SOL    HW127449   3.291   1.208   1.392
 8850SOL    HW227450   3.172   1.229   1.502
 8851SOL     OW27451   6.578   5.044   2.584
 8851SOL    HW127452   6.495   5.084   2.545
 8851SOL    HW227453   6.655   5.060   2.521
 8852SOL     OW27454   4.616   2.634   4.451
 8852SOL    HW127455   4.639   2.673   4.540
 8852SOL    HW227456   4.607   2.535   4.459
 8853SOL     OW27457   4.358   1.689   5.510
 8853SOL    HW127458   4.437   1.655   5.560
 8853SOL    HW227459   4.373   1.678   5.412
 8854SOL     OW27460   1.669   1.426   6.769
 8854SOL    HW127461   1.735   1.497   6.743
 8854SOL    HW227462   1.685   1.400   6.864
 8855SOL     OW27463   6.153   4.906   0.386
 8855SOL    HW127464   6.168   4.889   0.484
 8855SOL    HW227465   6.100   4.989   0.374
 8856SOL     OW27466   5.352   1.132   5.210
 8856SOL    HW127467   5.279   1.112   5.276
 8856SOL    HW227468   5.438   1.148   5.259
 8857SOL     OW27469   6.920   2.521   4.673
 8857SOL    HW127470   6.863   2.548   4.595
 8857SOL    HW227471   6.895   2.429   4.703
 8858SOL     OW27472   6.579   4.241   5.769
 8858SOL    HW127473   6.501   4.264   5.711
 8858SOL    HW227474   6.550   4.238   5.865
 8859SOL     OW27475   3.036   5.592   5.462
 8859SOL    HW127476   2.969   5.642   5.516
 8859SOL    HW227477   2.989   5.532   5.398
 8860SOL     OW27478   1.408   2.394   1.557
 8860SOL    HW127479   1.383   2.312   1.608
 8860SOL    HW227480   1.506   2.394   1.540
 8861SOL     OW27481   2.637   2.973   0.906
 8861SOL    HW127482   2.628   2.961   1.005
 8861SOL    HW227483   2.568   3.037   0.874
 8862SOL     OW27484   6.219   2.303   4.675
 8862SOL    HW127485   6.210   2.364   4.754
 8862SOL    HW227486   6.208   2.357   4.591
 8863SOL     OW27487   1.102   5.707   5.089
 8863SOL    HW127488   1.154   5.758   5.158
 8863SOL    HW227489   1.086   5.766   5.010
 8864SOL     OW27490   1.419   3.266   5.791
 8864SOL    HW127491   1.421   3.358   5.829
 8864SOL    HW227492   1.491   3.211   5.833
 8865SOL     OW27493   2.330   1.995   5.515
 8865SOL    HW127494   2.372   1.971   5.428
 8865SOL    HW227495   2.296   1.912   5.560
 8866SOL     OW27496   4.353   6.755   5.797
 8866SOL    HW127497   4.325   6.848   5.772
 8866SOL    HW227498   4.272   6.698   5.812
 8867SOL     OW27499   6.538   1.928   3.484
 8867SOL    HW127500   6.549   1.829   3.473
 8867SOL    HW227501   6.452   1.947   3.531
 8868SOL     OW27502   4.954   3.782   1.247
 8868SOL    HW127503   5.027   3.850   1.243
 8868SOL    HW227504   4.991   3.693   1.218
 8869SOL     OW27505   4.857   3.425   3.769
 8869SOL    HW127506   4.841   3.520   3.741
 8869SOL    HW227507   4.898   3.424   3.860
 8870SOL     OW27508   4.063   1.084   1.531
 8870SOL    HW127509   4.135   1.020   1.502
 8870SOL    HW227510   3.979   1.063   1.482
 8871SOL     OW27511   0.937   2.672   4.393
 8871SOL    HW127512   0.992   2.741   4.441
 8871SOL    HW227513   0.854   2.654   4.446
 8872SOL     OW27514   2.203   2.800   3.151
 8872SOL    HW127515   2.153   2.857   3.216
 8872SOL    HW227516   2.177   2.704   3.163
 8873SOL     OW27517   6.956   6.152   4.806
 8873SOL    HW127518   6.990   6.220   4.871
 8873SOL    HW227519   7.016   6.072   4.808
 8874SOL     OW27520   1.471   1.579   0.196
 8874SOL    HW127521   1.394   1.625   0.151
 8874SOL    HW227522   1.447   1.484   0.214
 8875SOL     OW27523   1.512   1.392   4.146
 8875SOL    HW127524   1.425   1.364   4.187
 8875SOL    HW227525   1.495   1.430   4.055
 8876SOL     OW27526   2.538   0.802   5.102
 8876SOL    HW127527   2.607   0.765   5.165
 8876SOL    HW227528   2.554   0.900   5.090
 8877SOL     OW27529   2.896   6.140   4.136
 8877SOL    HW127530   2.955   6.059   4.127
 8877SOL    HW227531   2.948   6.214   4.178
 8878SOL     OW27532   5.843   4.506   5.271
 8878SOL    HW127533   5.864   4.513   5.369
 8878SOL    HW227534   5.796   4.590   5.242
 8879SOL     OW27535   4.028   5.732   4.955
 8879SOL    HW127536   3.972   5.798   4.904
 8879SOL    HW227537   4.121   5.733   4.918
 8880SOL     OW27538   6.858   6.102   5.975
 8880SOL    HW127539   6.894   6.107   6.069
 8880SOL    HW227540   6.845   6.195   5.939
 8881SOL     OW27541   0.018   0.799   1.899
 8881SOL    HW127542   0.051   0.733   1.832
 8881SOL    HW227543   0.077   0.798   1.980
 8882SOL     OW27544   5.941   1.808   6.443
 8882SOL    HW127545   5.993   1.737   6.394
 8882SOL    HW227546   5.847   1.808   6.411
 8883SOL     OW27547   7.020   0.909   5.714
 8883SOL    HW127548   6.981   0.987   5.763
 8883SOL    HW227549   0.031   0.938   5.624
 8884SOL     OW27550   6.523   0.491   5.632
 8884SOL    HW127551   6.511   0.569   5.570
 8884SOL    HW227552   6.559   0.413   5.580
 8885SOL     OW27553   5.274   3.229   1.700
 8885SOL    HW127554   5.248   3.294   1.771
 8885SOL    HW227555   5.361   3.186   1.724
 8886SOL     OW27556   2.864   6.544   6.620
 8886SOL    HW127557   2.947   6.505   6.580
 8886SOL    HW227558   2.881   6.568   6.715
 8887SOL     OW27559   1.890   0.372   1.316
 8887SOL    HW127560   1.794   0.361   1.293
 8887SOL    HW227561   1.902   0.366   1.415
 8888SOL     OW27562   3.609   1.083   3.315
 8888SOL    HW127563   3.664   1.129   3.245
 8888SOL    HW227564   3.652   0.997   3.341
 8889SOL     OW27565   3.291   6.749   4.643
 8889SOL    HW127566   3.257   6.841   4.621
 8889SOL    HW227567   3.226   6.704   4.704
 8890SOL     OW27568   1.460   4.461   3.789
 8890SOL    HW127569   1.504   4.509   3.865
 8890SOL    HW227570   1.526   4.448   3.715
 8891SOL     OW27571   2.579   1.891   6.877
 8891SOL    HW127572   2.608   1.915   6.970
 8891SOL    HW227573   2.631   1.945   6.811
 8892SOL     OW27574   1.432   6.804   2.475
 8892SOL    HW127575   1.412   6.899   2.452
 8892SOL    HW227576   1.529   6.786   2.460
 8893SOL     OW27577   0.638   1.445   1.391
 8893SOL    HW127578   0.630   1.506   1.470
 8893SOL    HW227579   0.578   1.366   1.404
 8894SOL     OW27580   4.152   3.280   6.461
 8894SOL    HW127581   4.207   3.336   6.522
 8894SOL    HW227582   4.063   3.323   6.447
 8895SOL     OW27583   0.852   0.698   2.541
 8895SOL    HW127584   0.809   0.608   2.529
 8895SOL    HW227585   0.935   0.688   2.595
 8896SOL     OW27586   2.137   4.468   5.133
 8896SOL    HW127587   2.181   4.404   5.071
 8896SOL    HW227588   2.058   4.425   5.176
 8897SOL     OW27589   1.212   1.909   1.300
 8897SOL    HW127590   1.173   1.995   1.333
 8897SOL    HW227591   1.304   1.898   1.338
 8898SOL     OW27592   6.878   2.877   4.615
 8898SOL    HW127593   6.871   2.797   4.556
 8898SOL    HW227594   6.974   2.900   4.629
 8899SOL     OW27595   2.597   4.279   0.032
 8899SOL    HW127596   2.547   4.198   0.001
 8899SOL    HW227597   2.695   4.260   0.032
 8900SOL     OW27598   6.155   1.559   3.335
 8900SOL    HW127599   6.069   1.515   3.360
 8900SOL    HW227600   6.231   1.509   3.378
 8901SOL     OW27601   1.981   6.653   1.893
 8901SOL    HW127602   1.936   6.595   1.960
 8901SOL    HW227603   2.037   6.597   1.833
 8902SOL     OW27604   2.694   5.223   5.484
 8902SOL    HW127605   2.661   5.129   5.484
 8902SOL    HW227606   2.742   5.241   5.570
 8903SOL     OW27607   0.908   1.755   4.068
 8903SOL    HW127608   0.894   1.841   4.118
 8903SOL    HW227609   0.819   1.712   4.051
 8904SOL     OW27610   1.206   5.083   3.586
 8904SOL    HW127611   1.186   4.986   3.577
 8904SOL    HW227612   1.219   5.106   3.683
 8905SOL     OW27613   2.499   4.349   5.336
 8905SOL    HW127614   2.574   4.410   5.312
 8905SOL    HW227615   2.531   4.254   5.330
 8906SOL     OW27616   1.278   4.849   4.554
 8906SOL    HW127617   1.194   4.889   4.589
 8906SOL    HW227618   1.276   4.750   4.566
 8907SOL     OW27619   3.822   2.783   5.919
 8907SOL    HW127620   3.865   2.737   5.997
 8907SOL    HW227621   3.783   2.870   5.950
 8908SOL     OW27622   0.137   3.333   1.722
 8908SOL    HW127623   0.227   3.349   1.764
 8908SOL    HW227624   0.068   3.389   1.768
 8909SOL     OW27625   2.758   6.299   5.761
 8909SOL    HW127626   2.798   6.264   5.846
 8909SOL    HW227627   2.661   6.319   5.776
 8910SOL     OW27628   3.632   3.268   6.559
 8910SOL    HW127629   3.660   3.335   6.628
 8910SOL    HW227630   3.652   3.176   6.592
 8911SOL     OW27631   4.148   2.293   4.006
 8911SOL    HW127632   4.220   2.355   4.038
 8911SOL    HW227633   4.160   2.277   3.908
 8912SOL     OW27634   5.320   2.252   6.426
 8912SOL    HW127635   5.249   2.215   6.365
 8912SOL    HW227636   5.300   2.349   6.445
 8913SOL     OW27637   4.723   3.904   0.799
 8913SOL    HW127638   4.630   3.941   0.795
 8913SOL    HW227639   4.732   3.844   0.878
 8914SOL     OW27640   4.913   2.204   3.530
 8914SOL    HW127641   4.912   2.105   3.538
 8914SOL    HW227642   4.819   2.238   3.526
 8915SOL     OW27643   1.166   5.058   1.885
 8915SOL    HW127644   1.166   5.117   1.804
 8915SOL    HW227645   1.258   5.056   1.925
 8916SOL     OW27646   6.651   3.986   1.646
 8916SOL    HW127647   6.568   4.037   1.669
 8916SOL    HW227648   6.678   3.929   1.723
 8917SOL     OW27649   6.028   5.732   5.991
 8917SOL    HW127650   6.060   5.638   6.000
 8917SOL    HW227651   5.963   5.753   6.064
 8918SOL     OW27652   4.861   4.575   6.015
 8918SOL    HW127653   4.887   4.613   5.926
 8918SOL    HW227654   4.873   4.476   6.014
 8919SOL     OW27655   2.174   3.795   1.366
 8919SOL    HW127656   2.117   3.840   1.297
 8919SOL    HW227657   2.224   3.864   1.419
 8920SOL     OW27658   6.423   5.241   5.506
 8920SOL    HW127659   6.414   5.145   5.532
 8920SOL    HW227660   6.370   5.258   5.423
 8921SOL     OW27661   1.320   5.883   3.723
 8921SOL    HW127662   1.414   5.848   3.734
 8921SOL    HW227663   1.265   5.815   3.675
 8922SOL     OW27664   6.444   4.239   0.130
 8922SOL    HW127665   6.499   4.230   0.213
 8922SOL    HW227666   6.391   4.155   0.115
 8923SOL     OW27667   1.904   4.575   5.001
 8923SOL    HW127668   1.997   4.538   5.010
 8923SOL    HW227669   1.839   4.513   5.045
 8924SOL     OW27670   2.686   5.857   4.834
 8924SOL    HW127671   2.739   5.824   4.912
 8924SOL    HW227672   2.644   5.945   4.858
 8925SOL     OW27673   5.709   6.360   1.564
 8925SOL    HW127674   5.746   6.388   1.475
 8925SOL    HW227675   5.753   6.415   1.635
 8926SOL     OW27676   5.540   1.637   0.528
 8926SOL    HW127677   5.448   1.602   0.543
 8926SOL    HW227678   5.560   1.640   0.430
 8927SOL     OW27679   2.869   1.804   4.692
 8927SOL    HW127680   2.914   1.739   4.752
 8927SOL    HW227681   2.831   1.879   4.746
 8928SOL     OW27682   1.031   6.659   5.097
 8928SOL    HW127683   1.049   6.646   5.195
 8928SOL    HW227684   1.026   6.756   5.077
 8929SOL     OW27685   5.028   4.210   4.431
 8929SOL    HW127686   5.106   4.149   4.444
 8929SOL    HW227687   5.042   4.294   4.484
 8930SOL     OW27688   1.293   5.078   4.803
 8930SOL    HW127689   1.201   5.086   4.764
 8930SOL    HW227690   1.358   5.130   4.747
 8931SOL     OW27691   5.683   1.187   1.915
 8931SOL    HW127692   5.635   1.154   1.996
 8931SOL    HW227693   5.675   1.119   1.842
 8932SOL     OW27694   6.839   1.144   6.947
 8932SOL    HW127695   6.770   1.217   6.952
 8932SOL    HW227696   6.860   1.111   0.018
 8933SOL     OW27697   2.003   0.497   5.501
 8933SOL    HW127698   1.911   0.525   5.473
 8933SOL    HW227699   1.998   0.407   5.545
 8934SOL     OW27700   4.989   6.592   3.341
 8934SOL    HW127701   4.930   6.573   3.420
 8934SOL    HW227702   4.997   6.510   3.285
 8935SOL     OW27703   5.807   2.579   2.892
 8935SOL    HW127704   5.752   2.659   2.915
 8935SOL    HW227705   5.852   2.545   2.974
 8936SOL     OW27706   1.884   3.883   2.799
 8936SOL    HW127707   1.809   3.931   2.845
 8936SOL    HW227708   1.946   3.950   2.758
 8937SOL     OW27709   4.455   6.933   5.491
 8937SOL    HW127710   4.424   7.017   5.447
 8937SOL    HW227711   4.430   6.854   5.435
 8938SOL     OW27712   5.670   6.978   2.013
 8938SOL    HW127713   5.584   7.004   1.970
 8938SOL    HW227714   5.652   6.938   2.103
 8939SOL     OW27715   0.476   2.559   3.966
 8939SOL    HW127716   0.497   2.575   3.869
 8939SOL    HW227717   0.519   2.630   4.021
 8940SOL     OW27718   6.681   2.945   1.296
 8940SOL    HW127719   6.584   2.940   1.320
 8940SOL    HW227720   6.736   2.922   1.376
 8941SOL     OW27721   4.792   2.516   2.241
 8941SOL    HW127722   4.749   2.587   2.185
 8941SOL    HW227723   4.777   2.536   2.338
 8942SOL     OW27724   5.130   4.404   4.633
 8942SOL    HW127725   5.139   4.355   4.720
 8942SOL    HW227726   5.208   4.464   4.620
 8943SOL     OW27727   4.213   2.955   1.057
 8943SOL    HW127728   4.220   2.926   0.962
 8943SOL    HW227729   4.176   3.048   1.061
 8944SOL     OW27730   4.792   5.667   4.905
 8944SOL    HW127731   4.725   5.608   4.860
 8944SOL    HW227732   4.818   5.625   4.992
 8945SOL     OW27733   5.715   4.355   2.680
 8945SOL    HW127734   5.652   4.304   2.622
 8945SOL    HW227735   5.685   4.348   2.775
 8946SOL     OW27736   4.796   1.430   5.426
 8946SOL    HW127737   4.877   1.412   5.481
 8946SOL    HW227738   4.779   1.529   5.423
 8947SOL     OW27739   1.831   5.049   6.369
 8947SOL    HW127740   1.854   4.999   6.452
 8947SOL    HW227741   1.839   4.988   6.290
 8948SOL     OW27742   5.029   0.927   2.621
 8948SOL    HW127743   5.033   1.021   2.654
 8948SOL    HW227744   5.116   0.881   2.640
 8949SOL     OW27745   3.738   6.138   0.888
 8949SOL    HW127746   3.810   6.132   0.957
 8949SOL    HW227747   3.779   6.131   0.797
 8950SOL     OW27748   3.326   3.791   1.850
 8950SOL    HW127749   3.244   3.834   1.813
 8950SOL    HW227750   3.304   3.698   1.879
 8951SOL     OW27751   1.406   0.048   4.830
 8951SOL    HW127752   1.438   0.113   4.899
 8951SOL    HW227753   1.457   6.983   4.837
 8952SOL     OW27754   0.839   4.530   4.236
 8952SOL    HW127755   0.881   4.457   4.182
 8952SOL    HW227756   0.795   4.490   4.317
 8953SOL     OW27757   1.556   4.960   1.282
 8953SOL    HW127758   1.557   4.991   1.187
 8953SOL    HW227759   1.461   4.951   1.312
 8954SOL     OW27760   2.289   4.537   5.432
 8954SOL    HW127761   2.357   4.469   5.403
 8954SOL    HW227762   2.259   4.590   5.352
 8955SOL     OW27763   5.271   2.826   5.140
 8955SOL    HW127764   5.280   2.778   5.052
 8955SOL    HW227765   5.218   2.769   5.203
 8956SOL     OW27766   0.592   6.348   0.468
 8956SOL    HW127767   0.598   6.325   0.565
 8956SOL    HW227768   0.500   6.329   0.434
 8957SOL     OW27769   0.836   6.407   2.621
 8957SOL    HW127770   0.928   6.378   2.647
 8957SOL    HW227771   0.771   6.334   2.643
 8958SOL     OW27772   1.129   3.605   5.209
 8958SOL    HW127773   1.165   3.519   5.245
 8958SOL    HW227774   1.131   3.603   5.109
 8959SOL     OW27775   5.763   2.307   3.588
 8959SOL    HW127776   5.727   2.385   3.536
 8959SOL    HW227777   5.850   2.277   3.548
 8960SOL     OW27778   4.515   5.130   3.063
 8960SOL    HW127779   4.517   5.181   3.149
 8960SOL    HW227780   4.423   5.097   3.045
 8961SOL     OW27781   2.741   1.845   4.951
 8961SOL    HW127782   2.787   1.770   4.999
 8961SOL    HW227783   2.774   1.932   4.987
 8962SOL     OW27784   6.693   5.859   2.246
 8962SOL    HW127785   6.639   5.795   2.300
 8962SOL    HW227786   6.710   5.822   2.155
 8963SOL     OW27787   3.655   6.325   6.253
 8963SOL    HW127788   3.694   6.241   6.215
 8963SOL    HW227789   3.692   6.340   6.345
 8964SOL     OW27790   2.135   3.175   4.227
 8964SOL    HW127791   2.168   3.096   4.277
 8964SOL    HW227792   2.126   3.153   4.130
 8965SOL     OW27793   3.596   5.775   0.278
 8965SOL    HW127794   3.611   5.789   0.180
 8965SOL    HW227795   3.533   5.699   0.292
 8966SOL     OW27796   5.226   6.501   4.986
 8966SOL    HW127797   5.154   6.437   4.956
 8966SOL    HW227798   5.189   6.564   5.054
 8967SOL     OW27799   3.334   7.017   3.249
 8967SOL    HW127800   3.305   0.083   3.208
 8967SOL    HW227801   3.305   6.942   3.190
 8968SOL     OW27802   3.502   4.913   2.363
 8968SOL    HW127803   3.485   4.973   2.442
 8968SOL    HW227804   3.425   4.918   2.300
 8969SOL     OW27805   0.607   0.292   2.655
 8969SOL    HW127806   0.508   0.309   2.653
 8969SOL    HW227807   0.631   0.251   2.743
 8970SOL     OW27808   1.721   1.014   3.752
 8970SOL    HW127809   1.819   1.036   3.746
 8970SOL    HW227810   1.684   1.007   3.659
 8971SOL     OW27811   2.779   4.501   0.643
 8971SOL    HW127812   2.754   4.437   0.570
 8971SOL    HW227813   2.800   4.451   0.726
 8972SOL     OW27814   5.618   3.880   6.763
 8972SOL    HW127815   5.664   3.942   6.699
 8972SOL    HW227816   5.680   3.861   6.840
 8973SOL     OW27817   2.080   2.190   3.429
 8973SOL    HW127818   2.017   2.120   3.461
 8973SOL    HW227819   2.057   2.216   3.336
 8974SOL     OW27820   2.248   4.484   4.340
 8974SOL    HW127821   2.255   4.549   4.417
 8974SOL    HW227822   2.241   4.391   4.376
 8975SOL     OW27823   6.970   4.650   5.704
 8975SOL    HW127824   6.870   4.654   5.694
 8975SOL    HW227825   7.009   4.605   5.623
 8976SOL     OW27826   5.741   0.454   2.458
 8976SOL    HW127827   5.655   0.506   2.461
 8976SOL    HW227828   5.721   0.356   2.467
 8977SOL     OW27829   6.146   4.138   6.666
 8977SOL    HW127830   6.240   4.171   6.677
 8977SOL    HW227831   6.083   4.216   6.670
 8978SOL     OW27832   6.017   5.861   6.899
 8978SOL    HW127833   6.075   5.894   6.973
 8978SOL    HW227834   6.042   5.907   6.814
 8979SOL     OW27835   1.537   4.808   4.267
 8979SOL    HW127836   1.521   4.822   4.365
 8979SOL    HW227837   1.634   4.818   4.247
 8980SOL     OW27838   3.171   0.691   0.325
 8980SOL    HW127839   3.081   0.732   0.317
 8980SOL    HW227840   3.239   0.762   0.345
 8981SOL     OW27841   4.356   3.342   6.194
 8981SOL    HW127842   4.439   3.348   6.248
 8981SOL    HW227843   4.277   3.360   6.253
 8982SOL     OW27844   0.352   1.984   1.666
 8982SOL    HW127845   0.347   1.890   1.634
 8982SOL    HW227846   0.292   1.996   1.745
 8983SOL     OW27847   1.497   6.567   2.110
 8983SOL    HW127848   1.438   6.509   2.166
 8983SOL    HW227849   1.453   6.656   2.096
 8984SOL     OW27850   0.069   1.220   4.584
 8984SOL    HW127851   0.072   1.268   4.672
 8984SOL    HW227852   0.031   1.129   4.597
 8985SOL     OW27853   4.851   1.628   2.553
 8985SOL    HW127854   4.756   1.600   2.566
 8985SOL    HW227855   4.906   1.595   2.630
 8986SOL     OW27856   6.453   4.704   0.392
 8986SOL    HW127857   6.410   4.783   0.349
 8986SOL    HW227858   6.507   4.655   0.324
 8987SOL     OW27859   1.854   6.485   1.328
 8987SOL    HW127860   1.941   6.530   1.347
 8987SOL    HW227861   1.848   6.463   1.231
 8988SOL     OW27862   3.022   0.285   1.424
 8988SOL    HW127863   3.082   0.244   1.356
 8988SOL    HW227864   3.020   0.228   1.506
 8989SOL     OW27865   5.614   1.363   2.543
 8989SOL    HW127866   5.702   1.352   2.590
 8989SOL    HW227867   5.625   1.426   2.466
 8990SOL     OW27868   3.125   0.590   2.597
 8990SOL    HW127869   3.166   0.660   2.538
 8990SOL    HW227870   3.026   0.598   2.594
 8991SOL     OW27871   1.316   2.147   0.675
 8991SOL    HW127872   1.364   2.218   0.726
 8991SOL    HW227873   1.315   2.171   0.578
 8992SOL     OW27874   6.371   4.268   6.674
 8992SOL    HW127875   6.435   4.245   6.601
 8992SOL    HW227876   6.365   4.367   6.683
 8993SOL     OW27877   5.201   3.944   4.991
 8993SOL    HW127878   5.200   4.041   4.967
 8993SOL    HW227879   5.110   3.905   4.975
 8994SOL     OW27880   1.257   6.162   2.673
 8994SOL    HW127881   1.321   6.225   2.718
 8994SOL    HW227882   1.288   6.068   2.684
 8995SOL     OW27883   1.867   3.813   5.143
 8995SOL    HW127884   1.955   3.830   5.098
 8995SOL    HW227885   1.829   3.727   5.109
 8996SOL     OW27886   1.417   3.812   1.455
 8996SOL    HW127887   1.492   3.759   1.416
 8996SOL    HW227888   1.392   3.885   1.393
 8997SOL     OW27889   4.205   1.379   5.658
 8997SOL    HW127890   4.137   1.452   5.654
 8997SOL    HW227891   4.285   1.410   5.709
 8998SOL     OW27892   1.478   1.561   6.321
 8998SOL    HW127893   1.527   1.641   6.354
 8998SOL    HW227894   1.511   1.479   6.370
 8999SOL     OW27895   5.061   1.804   5.120
 8999SOL    HW127896   5.122   1.763   5.052
 8999SOL    HW227897   5.102   1.795   5.211
 9000SOL     OW27898   2.802   4.695   0.444
 9000SOL    HW127899   2.730   4.747   0.399
 9000SOL    HW227900   2.762   4.617   0.492
 9001SOL     OW27901   2.010   4.552   3.558
 9001SOL    HW127902   2.040   4.458   3.573
 9001SOL    HW227903   2.080   4.615   3.591
 9002SOL     OW27904   5.451   3.950   5.092
 9002SOL    HW127905   5.365   3.925   5.047
 9002SOL    HW227906   5.527   3.929   5.031
 9003SOL     OW27907   6.513   2.953   6.853
 9003SOL    HW127908   6.560   2.938   6.940
 9003SOL    HW227909   6.459   2.872   6.830
 9004SOL     OW27910   4.456   5.477   0.643
 9004SOL    HW127911   4.521   5.515   0.579
 9004SOL    HW227912   4.497   5.473   0.734
 9005SOL     OW27913   4.455   2.521   3.010
 9005SOL    HW127914   4.503   2.609   3.009
 9005SOL    HW227915   4.419   2.502   2.919
 9006SOL     OW27916   2.649   6.819   0.809
 9006SOL    HW127917   2.641   6.776   0.719
 9006SOL    HW227918   2.592   6.769   0.874
 9007SOL     OW27919   2.388   6.590   4.509
 9007SOL    HW127920   2.363   6.600   4.413
 9007SOL    HW227921   2.377   6.678   4.556
 9008SOL     OW27922   6.926   4.332   2.620
 9008SOL    HW127923   6.969   4.244   2.600
 9008SOL    HW227924   6.878   4.326   2.708
 9009SOL     OW27925   4.496   6.650   0.626
 9009SOL    HW127926   4.439   6.708   0.567
 9009SOL    HW227927   4.472   6.554   0.611
 9010SOL     OW27928   0.422   5.286   5.102
 9010SOL    HW127929   0.517   5.289   5.070
 9010SOL    HW227930   0.361   5.305   5.025
 9011SOL     OW27931   4.585   2.059   2.064
 9011SOL    HW127932   4.567   2.142   2.117
 9011SOL    HW227933   4.499   2.025   2.026
 9012SOL     OW27934   5.749   5.561   2.148
 9012SOL    HW127935   5.775   5.636   2.209
 9012SOL    HW227936   5.816   5.487   2.157
 9013SOL     OW27937   4.562   6.124   2.288
 9013SOL    HW127938   4.554   6.210   2.239
 9013SOL    HW227939   4.481   6.068   2.269
 9014SOL     OW27940   2.093   1.081   1.021
 9014SOL    HW127941   2.131   1.066   0.929
 9014SOL    HW227942   2.154   1.040   1.089
 9015SOL     OW27943   6.301   1.134   4.970
 9015SOL    HW127944   6.323   1.161   4.876
 9015SOL    HW227945   6.251   1.047   4.969
 9016SOL     OW27946   6.775   5.585   6.628
 9016SOL    HW127947   6.818   5.505   6.671
 9016SOL    HW227948   6.845   5.638   6.581
 9017SOL     OW27949   6.860   3.897   3.273
 9017SOL    HW127950   6.951   3.909   3.314
 9017SOL    HW227951   6.798   3.966   3.310
 9018SOL     OW27952   4.012   1.523   6.278
 9018SOL    HW127953   4.050   1.525   6.370
 9018SOL    HW227954   3.934   1.585   6.272
 9019SOL     OW27955   1.491   5.356   0.468
 9019SOL    HW127956   1.455   5.447   0.447
 9019SOL    HW227957   1.482   5.297   0.388
 9020SOL     OW27958   0.554   4.845   3.342
 9020SOL    HW127959   0.606   4.778   3.287
 9020SOL    HW227960   0.593   4.850   3.434
 9021SOL     OW27961   6.313   6.086   5.685
 9021SOL    HW127962   6.364   6.111   5.603
 9021SOL    HW227963   6.371   6.032   5.746
 9022SOL     OW27964   3.799   0.747   6.312
 9022SOL    HW127965   3.731   0.784   6.249
 9022SOL    HW227966   3.755   0.721   6.398
 9023SOL     OW27967   3.176   3.040   3.296
 9023SOL    HW127968   3.080   3.067   3.286
 9023SOL    HW227969   3.182   2.961   3.357
 9024SOL     OW27970   1.136   6.970   0.065
 9024SOL    HW127971   1.042   6.938   0.080
 9024SOL    HW227972   1.180   6.984   0.154
 9025SOL     OW27973   0.352   3.947   0.448
 9025SOL    HW127974   0.451   3.933   0.461
 9025SOL    HW227975   0.306   3.938   0.536
 9026SOL     OW27976   2.947   3.044   5.747
 9026SOL    HW127977   2.865   3.022   5.800
 9026SOL    HW227978   2.925   3.114   5.679
 9027SOL     OW27979   2.437   2.593   3.041
 9027SOL    HW127980   2.350   2.640   3.050
 9027SOL    HW227981   2.499   2.622   3.114
 9028SOL     OW27982   2.828   4.825   4.695
 9028SOL    HW127983   2.781   4.737   4.698
 9028SOL    HW227984   2.901   4.825   4.763
 9029SOL     OW27985   5.537   5.420   2.696
 9029SOL    HW127986   5.635   5.426   2.713
 9029SOL    HW227987   5.521   5.406   2.598
 9030SOL     OW27988   3.334   1.930   1.817
 9030SOL    HW127989   3.249   1.953   1.865
 9030SOL    HW227990   3.386   2.013   1.799
 9031SOL     OW27991   1.761   1.724   1.105
 9031SOL    HW127992   1.762   1.819   1.135
 9031SOL    HW227993   1.854   1.690   1.099
 9032SOL     OW27994   1.076   2.553   2.961
 9032SOL    HW127995   1.098   2.541   2.864
 9032SOL    HW227996   1.001   2.618   2.970
 9033SOL     OW27997   1.134   3.909   1.985
 9033SOL    HW127998   1.116   4.006   1.997
 9033SOL    HW227999   1.221   3.885   2.029
 9034SOL     OW28000   1.185   6.978   6.367
 9034SOL    HW128001   1.237   6.895   6.384
 9034SOL    HW228002   1.233   0.013   6.300
 9035SOL     OW28003   0.084   0.299   4.529
 9035SOL    HW128004   7.007   0.307   4.508
 9035SOL    HW228005   0.098   0.228   4.598
 9036SOL     OW28006   1.858   1.508   4.884
 9036SOL    HW128007   1.831   1.604   4.886
 9036SOL    HW228008   1.780   1.452   4.857
 9037SOL     OW28009   2.781   3.975   6.024
 9037SOL    HW128010   2.714   3.978   6.098
 9037SOL    HW228011   2.795   4.068   5.988
 9038SOL     OW28012   4.848   6.358   5.631
 9038SOL    HW128013   4.912   6.399   5.565
 9038SOL    HW228014   4.891   6.355   5.721
 9039SOL     OW28015   2.196   4.791   6.432
 9039SOL    HW128016   2.114   4.794   6.489
 9039SOL    HW228017   2.263   4.730   6.473
 9040SOL     OW28018   2.668   1.798   2.355
 9040SOL    HW128019   2.694   1.749   2.272
 9040SOL    HW228020   2.672   1.736   2.433
 9041SOL     OW28021   1.877   2.752   6.682
 9041SOL    HW128022   1.970   2.758   6.645
 9041SOL    HW228023   1.845   2.843   6.707
 9042SOL     OW28024   2.344   5.609   3.221
 9042SOL    HW128025   2.267   5.550   3.249
 9042SOL    HW228026   2.417   5.601   3.288
 9043SOL     OW28027   6.652   2.582   0.695
 9043SOL    HW128028   6.693   2.619   0.612
 9043SOL    HW228029   6.564   2.627   0.712
 9044SOL     OW28030   6.733   4.750   1.048
 9044SOL    HW128031   6.664   4.735   0.977
 9044SOL    HW228032   6.707   4.701   1.131
 9045SOL     OW28033   2.821   5.387   4.195
 9045SOL    HW128034   2.871   5.471   4.176
 9045SOL    HW228035   2.723   5.403   4.183
 9046SOL     OW28036   3.912   4.413   5.656
 9046SOL    HW128037   3.856   4.338   5.620
 9046SOL    HW228038   3.853   4.476   5.708
 9047SOL     OW28039   1.422   4.735   4.841
 9047SOL    HW128040   1.382   4.784   4.763
 9047SOL    HW228041   1.364   4.657   4.865
 9048SOL     OW28042   1.911   2.056   4.987
 9048SOL    HW128043   1.934   2.153   4.988
 9048SOL    HW228044   1.944   2.013   5.072
 9049SOL     OW28045   5.064   5.735   6.383
 9049SOL    HW128046   5.101   5.800   6.317
 9049SOL    HW228047   5.113   5.648   6.375
 9050SOL     OW28048   0.254   5.497   5.505
 9050SOL    HW128049   0.291   5.472   5.416
 9050SOL    HW228050   0.155   5.508   5.498
 9051SOL     OW28051   5.463   6.707   6.275
 9051SOL    HW128052   5.396   6.708   6.201
 9051SOL    HW228053   5.505   6.797   6.285
 9052SOL     OW28054   2.218   5.215   4.890
 9052SOL    HW128055   2.221   5.275   4.970
 9052SOL    HW228056   2.302   5.226   4.838
 9053SOL     OW28057   2.894   1.746   3.722
 9053SOL    HW128058   2.854   1.724   3.811
 9053SOL    HW228059   2.919   1.661   3.675
 9054SOL     OW28060   2.995   0.270   0.752
 9054SOL    HW128061   3.080   0.315   0.777
 9054SOL    HW228062   2.927   0.339   0.726
 9055SOL     OW28063   0.632   1.640   4.977
 9055SOL    HW128064   0.543   1.643   4.933
 9055SOL    HW228065   0.702   1.611   4.911
 9056SOL     OW28066   4.890   2.354   2.770
 9056SOL    HW128067   4.862   2.383   2.861
 9056SOL    HW228068   4.909   2.256   2.771
 9057SOL     OW28069   4.875   6.025   6.986
 9057SOL    HW128070   4.967   6.046   6.954
 9057SOL    HW228071   4.865   5.926   6.994
 9058SOL     OW28072   2.303   2.416   3.998
 9058SOL    HW128073   2.285   2.318   3.996
 9058SOL    HW228074   2.225   2.463   4.039
 9059SOL     OW28075   6.613   0.591   2.635
 9059SOL    HW128076   6.537   0.655   2.624
 9059SOL    HW228077   6.690   0.621   2.578
 9060SOL     OW28078   1.002   5.483   1.817
 9060SOL    HW128079   1.094   5.478   1.776
 9060SOL    HW228080   0.975   5.392   1.848
 9061SOL     OW28081   4.897   4.299   2.523
 9061SOL    HW128082   4.868   4.208   2.493
 9061SOL    HW228083   4.923   4.354   2.443
 9062SOL     OW28084   0.430   5.685   2.616
 9062SOL    HW128085   0.469   5.659   2.527
 9062SOL    HW228086   0.331   5.673   2.614
 9063SOL     OW28087   4.448   1.878   1.686
 9063SOL    HW128088   4.406   1.916   1.769
 9063SOL    HW228089   4.541   1.913   1.677
 9064SOL     OW28090   0.592   5.156   3.342
 9064SOL    HW128091   0.544   5.135   3.256
 9064SOL    HW228092   0.628   5.072   3.382
 9065SOL     OW28093   3.103   4.112   6.187
 9065SOL    HW128094   3.160   4.194   6.181
 9065SOL    HW228095   3.007   4.138   6.188
 9066SOL     OW28096   4.737   5.222   4.420
 9066SOL    HW128097   4.693   5.193   4.335
 9066SOL    HW228098   4.685   5.298   4.459
 9067SOL     OW28099   1.202   6.146   4.699
 9067SOL    HW128100   1.153   6.088   4.634
 9067SOL    HW228101   1.216   6.237   4.658
 9068SOL     OW28102   4.121   7.002   5.968
 9068SOL    HW128103   4.183   0.007   6.043
 9068SOL    HW228104   4.069   6.921   5.995
 9069SOL     OW28105   4.936   2.843   1.168
 9069SOL    HW128106   4.848   2.846   1.121
 9069SOL    HW228107   4.948   2.926   1.222
 9070SOL     OW28108   2.379   1.374   5.629
 9070SOL    HW128109   2.435   1.410   5.703
 9070SOL    HW228110   2.348   1.282   5.652
 9071SOL     OW28111   6.123   2.335   6.125
 9071SOL    HW128112   6.041   2.344   6.068
 9071SOL    HW228113   6.097   2.294   6.213
 9072SOL     OW28114   5.272   0.360   2.950
 9072SOL    HW128115   5.304   0.284   3.007
 9072SOL    HW228116   5.183   0.338   2.911
 9073SOL     OW28117   4.778   2.566   4.959
 9073SOL    HW128118   4.681   2.589   4.960
 9073SOL    HW228119   4.832   2.647   4.981
 9074SOL     OW28120   2.005   0.926   2.769
 9074SOL    HW128121   1.912   0.947   2.798
 9074SOL    HW228122   2.018   0.956   2.675
 9075SOL     OW28123   5.893   5.983   0.950
 9075SOL    HW128124   5.974   6.035   0.922
 9075SOL    HW228125   5.855   6.025   1.033
 9076SOL     OW28126   6.971   6.818   2.258
 9076SOL    HW128127   0.032   6.873   2.244
 9076SOL    HW228128   6.898   6.875   2.295
 9077SOL     OW28129   6.576   1.821   0.072
 9077SOL    HW128130   6.545   1.803   0.165
 9077SOL    HW228131   6.502   1.860   0.018
 9078SOL     OW28132   4.911   6.958   6.963
 9078SOL    HW128133   4.950   7.013   6.889
 9078SOL    HW228134   4.976   6.953   0.018
 9079SOL     OW28135   1.588   1.364   6.525
 9079SOL    HW128136   1.630   1.389   6.612
 9079SOL    HW228137   1.498   1.323   6.542
 9080SOL     OW28138   6.377   3.800   2.251
 9080SOL    HW128139   6.345   3.867   2.184
 9080SOL    HW228140   6.326   3.813   2.337
 9081SOL     OW28141   5.446   1.080   0.682
 9081SOL    HW128142   5.493   1.061   0.596
 9081SOL    HW228143   5.413   1.175   0.682
 9082SOL     OW28144   3.305   5.871   6.303
 9082SOL    HW128145   3.243   5.913   6.369
 9082SOL    HW228146   3.262   5.871   6.212
 9083SOL     OW28147   3.885   6.117   0.292
 9083SOL    HW128148   3.936   6.201   0.274
 9083SOL    HW228149   3.945   6.039   0.282
 9084SOL     OW28150   0.041   3.143   5.258
 9084SOL    HW128151   6.983   3.190   5.298
 9084SOL    HW228152   0.031   3.044   5.271
 9085SOL     OW28153   2.626   4.875   0.324
 9085SOL    HW128154   2.540   4.902   0.281
 9085SOL    HW228155   2.702   4.909   0.269
 9086SOL     OW28156   0.001   4.263   0.995
 9086SOL    HW128157   7.019   4.356   0.958
 9086SOL    HW228158   0.095   4.228   0.991
 9087SOL     OW28159   5.736   0.552   1.571
 9087SOL    HW128160   5.772   0.556   1.478
 9087SOL    HW228161   5.759   0.464   1.612
 9088SOL     OW28162   6.433   6.143   0.724
 9088SOL    HW128163   6.449   6.223   0.781
 9088SOL    HW228164   6.509   6.132   0.660
 9089SOL     OW28165   5.779   5.356   3.134
 9089SOL    HW128166   5.804   5.429   3.071
 9089SOL    HW228167   5.719   5.393   3.206
 9090SOL     OW28168   5.175   6.113   5.753
 9090SOL    HW128169   5.233   6.032   5.755
 9090SOL    HW228170   5.088   6.093   5.797
 9091SOL     OW28171   2.257   1.750   1.924
 9091SOL    HW128172   2.180   1.790   1.973
 9091SOL    HW228173   2.320   1.822   1.897
 9092SOL     OW28174   2.665   0.899   5.379
 9092SOL    HW128175   2.703   0.980   5.334
 9092SOL    HW228176   2.591   0.926   5.440
 9093SOL     OW28177   2.047   3.943   0.784
 9093SOL    HW128178   1.995   3.984   0.710
 9093SOL    HW228179   2.090   3.859   0.753
 9094SOL     OW28180   6.660   4.301   1.573
 9094SOL    HW128181   6.743   4.328   1.622
 9094SOL    HW228182   6.607   4.382   1.549
 9095SOL     OW28183   3.234   2.744   0.069
 9095SOL    HW128184   3.279   2.731   0.157
 9095SOL    HW228185   3.301   2.770   0.000
 9096SOL     OW28186   5.809   2.979   3.321
 9096SOL    HW128187   5.884   3.017   3.375
 9096SOL    HW228188   5.722   3.018   3.351
 9097SOL     OW28189   0.865   4.866   5.902
 9097SOL    HW128190   0.859   4.946   5.962
 9097SOL    HW228191   0.774   4.829   5.886
 9098SOL     OW28192   3.798   3.422   3.384
 9098SOL    HW128193   3.772   3.516   3.403
 9098SOL    HW228194   3.756   3.391   3.299
 9099SOL     OW28195   1.800   2.918   0.527
 9099SOL    HW128196   1.831   2.823   0.526
 9099SOL    HW228197   1.775   2.944   0.621
 9100SOL     OW28198   0.725   3.321   0.997
 9100SOL    HW128199   0.821   3.336   1.023
 9100SOL    HW228200   0.708   3.224   0.987
 9101SOL     OW28201   2.287   1.978   7.017
 9101SOL    HW128202   2.305   1.901   6.956
 9101SOL    HW228203   2.370   2.033   0.006
 9102SOL     OW28204   4.358   6.011   2.592
 9102SOL    HW128205   4.316   6.072   2.524
 9102SOL    HW228206   4.286   5.971   2.649
 9103SOL     OW28207   0.111   3.793   6.296
 9103SOL    HW128208   0.036   3.842   6.340
 9103SOL    HW228209   0.174   3.758   6.366
 9104SOL     OW28210   3.977   6.633   1.790
 9104SOL    HW128211   4.073   6.652   1.768
 9104SOL    HW228212   3.965   6.535   1.804
 9105SOL     OW28213   2.831   1.478   5.595
 9105SOL    HW128214   2.768   1.435   5.531
 9105SOL    HW228215   2.781   1.543   5.652
 9106SOL     OW28216   6.669   5.074   1.234
 9106SOL    HW128217   6.745   5.083   1.169
 9106SOL    HW228218   6.697   5.112   1.322
 9107SOL     OW28219   4.313   0.980   1.262
 9107SOL    HW128220   4.331   0.963   1.359
 9107SOL    HW228221   4.386   0.939   1.207
 9108SOL     OW28222   4.619   5.566   6.536
 9108SOL    HW128223   4.564   5.549   6.454
 9108SOL    HW228224   4.693   5.499   6.540
 9109SOL     OW28225   2.821   2.194   4.229
 9109SOL    HW128226   2.757   2.121   4.205
 9109SOL    HW228227   2.780   2.283   4.208
 9110SOL     OW28228   1.866   3.641   3.087
 9110SOL    HW128229   1.794   3.591   3.039
 9110SOL    HW228230   1.954   3.623   3.043
 9111SOL     OW28231   4.093   4.411   1.492
 9111SOL    HW128232   4.190   4.399   1.512
 9111SOL    HW228233   4.044   4.325   1.511
 9112SOL     OW28234   6.804   5.091   2.432
 9112SOL    HW128235   6.895   5.078   2.470
 9112SOL    HW228236   6.806   5.167   2.367
 9113SOL     OW28237   3.651   6.729   0.175
 9113SOL    HW128238   3.677   6.766   0.086
 9113SOL    HW228239   3.601   6.798   0.227
 9114SOL     OW28240   2.429   4.398   1.816
 9114SOL    HW128241   2.340   4.359   1.841
 9114SOL    HW228242   2.463   4.456   1.889
 9115SOL     OW28243   1.592   4.481   4.460
 9115SOL    HW128244   1.627   4.542   4.531
 9115SOL    HW228245   1.664   4.463   4.393
 9116SOL     OW28246   1.495   1.395   6.055
 9116SOL    HW128247   1.478   1.337   6.135
 9116SOL    HW228248   1.429   1.374   5.984
 9117SOL     OW28249   6.603   2.803   0.057
 9117SOL    HW128250   6.665   2.750   0.115
 9117SOL    HW228251   6.586   2.753   6.993
 9118SOL     OW28252   6.342   6.037   1.756
 9118SOL    HW128253   6.437   6.010   1.745
 9118SOL    HW228254   6.315   6.096   1.680
 9119SOL     OW28255   7.009   0.329   1.615
 9119SOL    HW128256   6.975   0.235   1.628
 9119SOL    HW228257   6.931   0.392   1.613
 9120SOL     OW28258   5.621   1.423   6.134
 9120SOL    HW128259   5.614   1.521   6.117
 9120SOL    HW228260   5.684   1.406   6.210
 9121SOL     OW28261   1.171   1.279   6.348
 9121SOL    HW128262   1.076   1.249   6.342
 9121SOL    HW228263   1.175   1.371   6.388
 9122SOL     OW28264   0.908   2.456   1.866
 9122SOL    HW128265   1.003   2.441   1.840
 9122SOL    HW228266   0.872   2.535   1.816
 9123SOL     OW28267   2.532   5.291   6.846
 9123SOL    HW128268   2.504   5.207   6.891
 9123SOL    HW228269   2.632   5.291   6.834
 9124SOL     OW28270   6.389   5.561   5.217
 9124SOL    HW128271   6.334   5.527   5.141
 9124SOL    HW228272   6.431   5.648   5.191
 9125SOL     OW28273   5.010   5.062   3.501
 9125SOL    HW128274   4.918   5.094   3.479
 9125SOL    HW228275   5.004   4.984   3.564
 9126SOL     OW28276   6.108   0.692   1.560
 9126SOL    HW128277   6.182   0.741   1.606
 9126SOL    HW228278   6.041   0.758   1.526
 9127SOL     OW28279   5.161   0.905   0.191
 9127SOL    HW128280   5.133   0.828   0.133
 9127SOL    HW228281   5.157   0.878   0.287
 9128SOL     OW28282   4.420   2.378   4.923
 9128SOL    HW128283   4.325   2.400   4.945
 9128SOL    HW228284   4.451   2.303   4.982
 9129SOL     OW28285   1.808   2.034   6.183
 9129SOL    HW128286   1.752   2.077   6.112
 9129SOL    HW228287   1.886   1.990   6.141
 9130SOL     OW28288   5.931   4.946   0.678
 9130SOL    HW128289   5.849   4.928   0.732
 9130SOL    HW228290   6.005   4.887   0.709
 9131SOL     OW28291   1.048   4.282   4.303
 9131SOL    HW128292   1.120   4.281   4.373
 9131SOL    HW228293   0.984   4.207   4.321
 9132SOL     OW28294   7.019   3.121   4.327
 9132SOL    HW128295   0.038   3.201   4.284
 9132SOL    HW228296   0.068   3.075   4.382
 9133SOL     OW28297   2.044   4.156   1.131
 9133SOL    HW128298   2.044   4.246   1.176
 9133SOL    HW228299   2.028   4.085   1.199
 9134SOL     OW28300   2.903   5.838   6.455
 9134SOL    HW128301   2.892   5.743   6.484
 9134SOL    HW228302   2.894   5.844   6.356
 9135SOL     OW28303   6.648   6.413   4.748
 9135SOL    HW128304   6.555   6.427   4.714
 9135SOL    HW228305   6.694   6.502   4.757
 9136SOL     OW28306   4.585   4.900   5.465
 9136SOL    HW128307   4.585   4.880   5.563
 9136SOL    HW228308   4.650   4.974   5.446
 9137SOL     OW28309   4.006   1.354   1.710
 9137SOL    HW128310   3.988   1.357   1.808
 9137SOL    HW228311   3.929   1.310   1.663
 9138SOL     OW28312   4.117   5.119   0.024
 9138SOL    HW128313   4.076   5.140   0.113
 9138SOL    HW228314   4.182   5.192   0.000
 9139SOL     OW28315   3.024   1.457   5.218
 9139SOL    HW128316   3.059   1.520   5.149
 9139SOL    HW228317   2.967   1.507   5.283
 9140SOL     OW28318   6.792   2.245   2.895
 9140SOL    HW128319   6.759   2.294   2.975
 9140SOL    HW228320   6.891   2.236   2.899
 9141SOL     OW28321   5.807   0.328   5.951
 9141SOL    HW128322   5.846   0.416   5.980
 9141SOL    HW228323   5.879   0.272   5.909
 9142SOL     OW28324   7.012   2.934   5.806
 9142SOL    HW128325   7.007   3.024   5.848
 9142SOL    HW228326   0.020   2.867   5.874
 9143SOL     OW28327   4.721   4.170   0.486
 9143SOL    HW128328   4.786   4.096   0.469
 9143SOL    HW228329   4.768   4.246   0.531
 9144SOL     OW28330   1.975   5.261   5.443
 9144SOL    HW128331   2.037   5.302   5.510
 9144SOL    HW228332   1.926   5.185   5.485
 9145SOL     OW28333   0.179   4.749   6.314
 9145SOL    HW128334   0.160   4.672   6.254
 9145SOL    HW228335   0.135   4.831   6.277
 9146SOL     OW28336   6.056   2.007   2.027
 9146SOL    HW128337   5.968   2.017   1.980
 9146SOL    HW228338   6.076   2.090   2.078
 9147SOL     OW28339   3.908   5.681   5.468
 9147SOL    HW128340   3.935   5.684   5.372
 9147SOL    HW228341   3.966   5.742   5.521
 9148SOL     OW28342   4.412   5.382   3.679
 9148SOL    HW128343   4.400   5.371   3.580
 9148SOL    HW228344   4.503   5.418   3.698
 9149SOL     OW28345   5.648   3.510   4.092
 9149SOL    HW128346   5.721   3.578   4.092
 9149SOL    HW228347   5.667   3.441   4.163
 9150SOL     OW28348   4.781   0.243   2.963
 9150SOL    HW128349   4.853   0.174   2.980
 9150SOL    HW228350   4.706   0.229   3.028
 9151SOL     OW28351   1.556   4.272   1.952
 9151SOL    HW128352   1.608   4.341   2.003
 9151SOL    HW228353   1.524   4.312   1.866
 9152SOL     OW28354   1.814   5.832   3.187
 9152SOL    HW128355   1.757   5.769   3.134
 9152SOL    HW228356   1.893   5.782   3.224
 9153SOL     OW28357   1.994   3.009   6.438
 9153SOL    HW128358   2.025   2.921   6.475
 9153SOL    HW228359   1.900   3.000   6.405
 9154SOL     OW28360   2.390   5.916   0.401
 9154SOL    HW128361   2.312   5.957   0.353
 9154SOL    HW228362   2.417   5.832   0.353
 9155SOL     OW28363   1.157   3.915   0.174
 9155SOL    HW128364   1.148   3.985   0.104
 9155SOL    HW228365   1.091   3.842   0.157
 9156SOL     OW28366   4.774   2.386   1.385
 9156SOL    HW128367   4.723   2.471   1.381
 9156SOL    HW228368   4.724   2.319   1.440
 9157SOL     OW28369   5.171   4.117   5.900
 9157SOL    HW128370   5.123   4.056   5.837
 9157SOL    HW228371   5.193   4.068   5.984
 9158SOL     OW28372   1.016   3.823   4.187
 9158SOL    HW128373   0.991   3.874   4.105
 9158SOL    HW228374   0.956   3.743   4.196
 9159SOL     OW28375   6.730   5.088   3.083
 9159SOL    HW128376   6.634   5.069   3.064
 9159SOL    HW228377   6.743   5.186   3.097
 9160SOL     OW28378   0.617   0.175   0.190
 9160SOL    HW128379   0.696   0.195   0.249
 9160SOL    HW228380   0.618   0.078   0.166
 9161SOL     OW28381   4.926   4.168   4.846
 9161SOL    HW128382   5.009   4.158   4.901
 9161SOL    HW228383   4.929   4.104   4.769
 9162SOL     OW28384   4.768   2.778   2.428
 9162SOL    HW128385   4.701   2.724   2.480
 9162SOL    HW228386   4.828   2.827   2.492
 9163SOL     OW28387   2.933   2.205   3.873
 9163SOL    HW128388   2.863   2.134   3.868
 9163SOL    HW228389   2.892   2.290   3.905
 9164SOL     OW28390   3.333   0.426   6.917
 9164SOL    HW128391   3.337   0.327   6.905
 9164SOL    HW228392   3.252   0.450   6.970
 9165SOL     OW28393   5.959   0.337   6.974
 9165SOL    HW128394   6.013   0.253   6.983
 9165SOL    HW228395   5.996   0.392   6.898
 9166SOL     OW28396   2.876   5.325   0.965
 9166SOL    HW128397   2.804   5.394   0.968
 9166SOL    HW228398   2.964   5.369   0.944
 9167SOL     OW28399   1.842   4.324   5.457
 9167SOL    HW128400   1.878   4.308   5.366
 9167SOL    HW228401   1.850   4.422   5.480
 9168SOL     OW28402   2.149   0.456   6.236
 9168SOL    HW128403   2.086   0.449   6.158
 9168SOL    HW228404   2.118   0.396   6.309
 9169SOL     OW28405   0.492   0.818   3.715
 9169SOL    HW128406   0.477   0.843   3.811
 9169SOL    HW228407   0.532   0.895   3.666
 9170SOL     OW28408   6.957   5.466   0.046
 9170SOL    HW128409   6.996   5.549   0.085
 9170SOL    HW228410   6.907   5.417   0.116
 9171SOL     OW28411   2.981   5.512   0.108
 9171SOL    HW128412   3.005   5.609   0.112
 9171SOL    HW228413   2.882   5.502   0.108
 9172SOL     OW28414   3.152   1.455   3.722
 9172SOL    HW128415   3.197   1.482   3.637
 9172SOL    HW228416   3.156   1.532   3.787
 9173SOL     OW28417   0.125   5.328   4.000
 9173SOL    HW128418   0.095   5.423   4.012
 9173SOL    HW228419   0.225   5.325   3.998
 9174SOL     OW28420   0.091   4.939   0.251
 9174SOL    HW128421   0.051   4.847   0.251
 9174SOL    HW228422   0.138   4.955   0.338
 9175SOL     OW28423   2.044   5.816   6.048
 9175SOL    HW128424   2.042   5.775   6.139
 9175SOL    HW228425   2.096   5.901   6.050
 9176SOL     OW28426   2.026   0.134   5.792
 9176SOL    HW128427   2.123   0.148   5.810
 9176SOL    HW228428   2.005   0.162   5.698
 9177SOL     OW28429   1.356   4.547   3.216
 9177SOL    HW128430   1.417   4.607   3.267
 9177SOL    HW228431   1.304   4.601   3.150
 9178SOL     OW28432   2.024   4.867   0.759
 9178SOL    HW128433   1.951   4.932   0.779
 9178SOL    HW228434   2.072   4.894   0.676
 9179SOL     OW28435   3.368   4.957   4.108
 9179SOL    HW128436   3.318   4.871   4.101
 9179SOL    HW228437   3.416   4.961   4.195
 9180SOL     OW28438   5.610   2.364   3.816
 9180SOL    HW128439   5.547   2.288   3.799
 9180SOL    HW228440   5.687   2.358   3.753
 9181SOL     OW28441   4.651   2.259   2.435
 9181SOL    HW128442   4.622   2.246   2.530
 9181SOL    HW228443   4.717   2.335   2.431
 9182SOL     OW28444   1.022   6.245   1.339
 9182SOL    HW128445   1.053   6.224   1.246
 9182SOL    HW228446   0.932   6.205   1.354
 9183SOL     OW28447   4.937   6.463   0.808
 9183SOL    HW128448   4.953   6.405   0.888
 9183SOL    HW228449   5.019   6.517   0.789
 9184SOL     OW28450   5.000   0.225   0.981
 9184SOL    HW128451   4.908   0.194   0.955
 9184SOL    HW228452   4.994   0.316   1.023
 9185SOL     OW28453   3.806   0.740   5.084
 9185SOL    HW128454   3.869   0.671   5.050
 9185SOL    HW228455   3.748   0.773   5.010
 9186SOL     OW28456   6.027   1.260   5.797
 9186SOL    HW128457   6.031   1.182   5.860
 9186SOL    HW228458   6.054   1.343   5.846
 9187SOL     OW28459   2.577   6.691   1.970
 9187SOL    HW128460   2.568   6.601   2.014
 9187SOL    HW228461   2.557   6.683   1.873
 9188SOL     OW28462   2.395   6.545   1.166
 9188SOL    HW128463   2.425   6.582   1.078
 9188SOL    HW228464   2.464   6.482   1.200
 9189SOL     OW28465   5.225   5.511   3.087
 9189SOL    HW128466   5.166   5.450   3.035
 9189SOL    HW228467   5.250   5.468   3.173
 9190SOL     OW28468   1.537   4.951   0.566
 9190SOL    HW128469   1.486   5.016   0.622
 9190SOL    HW228470   1.633   4.978   0.561
 9191SOL     OW28471   6.822   0.458   6.005
 9191SOL    HW128472   6.823   0.390   5.932
 9191SOL    HW228473   6.842   0.548   5.967
 9192SOL     OW28474   6.885   4.189   4.389
 9192SOL    HW128475   6.942   4.158   4.313
 9192SOL    HW228476   6.826   4.263   4.358
 9193SOL     OW28477   2.805   3.589   6.977
 9193SOL    HW128478   2.840   3.623   0.044
 9193SOL    HW228479   2.827   3.492   6.968
 9194SOL     OW28480   3.539   0.659   3.849
 9194SOL    HW128481   3.491   0.599   3.786
 9194SOL    HW228482   3.488   0.745   3.859
 9195SOL     OW28483   1.620   2.099   4.121
 9195SOL    HW128484   1.647   2.195   4.124
 9195SOL    HW228485   1.523   2.090   4.141
 9196SOL     OW28486   4.565   1.908   5.081
 9196SOL    HW128487   4.588   1.974   5.152
 9196SOL    HW228488   4.646   1.853   5.059
 9197SOL     OW28489   2.274   3.623   1.649
 9197SOL    HW128490   2.292   3.560   1.725
 9197SOL    HW228491   2.233   3.707   1.684
 9198SOL     OW28492   6.440   5.254   5.006
 9198SOL    HW128493   6.465   5.183   4.940
 9198SOL    HW228494   6.414   5.337   4.957
 9199SOL     OW28495   0.021   4.232   5.343
 9199SOL    HW128496   7.014   4.328   5.352
 9199SOL    HW228497   0.006   4.202   5.248
 9200SOL     OW28498   3.453   0.318   0.415
 9200SOL    HW128499   3.442   0.241   0.352
 9200SOL    HW228500   3.377   0.319   0.479
 9201SOL     OW28501   1.626   4.294   0.392
 9201SOL    HW128502   1.676   4.380   0.392
 9201SOL    HW228503   1.609   4.265   0.487
 9202SOL     OW28504   2.114   0.493   3.087
 9202SOL    HW128505   2.143   0.587   3.104
 9202SOL    HW228506   2.156   0.432   3.154
 9203SOL     OW28507   6.408   5.381   0.514
 9203SOL    HW128508   6.308   5.380   0.513
 9203SOL    HW228509   6.440   5.466   0.472
 9204SOL     OW28510   5.327   1.446   6.300
 9204SOL    HW128511   5.367   1.357   6.278
 9204SOL    HW228512   5.400   1.508   6.330
 9205SOL     OW28513   6.818   3.685   2.757
 9205SOL    HW128514   6.820   3.776   2.716
 9205SOL    HW228515   6.855   3.690   2.850
 9206SOL     OW28516   3.969   6.394   0.670
 9206SOL    HW128517   3.955   6.300   0.640
 9206SOL    HW228518   3.891   6.426   0.723
 9207SOL     OW28519   4.810   5.378   0.545
 9207SOL    HW128520   4.746   5.441   0.501
 9207SOL    HW228521   4.817   5.294   0.491
 9208SOL     OW28522   0.857   3.943   3.506
 9208SOL    HW128523   0.944   3.920   3.464
 9208SOL    HW228524   0.872   3.995   3.590
 9209SOL     OW28525   2.819   1.491   6.259
 9209SOL    HW128526   2.839   1.449   6.170
 9209SOL    HW228527   2.776   1.581   6.244
 9210SOL     OW28528   6.645   0.939   3.726
 9210SOL    HW128529   6.612   0.991   3.805
 9210SOL    HW228530   6.574   0.939   3.655
 9211SOL     OW28531   0.541   1.359   3.438
 9211SOL    HW128532   0.467   1.320   3.385
 9211SOL    HW228533   0.613   1.392   3.377
 9212SOL     OW28534   3.086   5.109   5.162
 9212SOL    HW128535   3.033   5.194   5.171
 9212SOL    HW228536   3.095   5.085   5.065
 9213SOL     OW28537   5.664   3.880   6.242
 9213SOL    HW128538   5.669   3.962   6.299
 9213SOL    HW228539   5.714   3.805   6.286
 9214SOL     OW28540   0.804   5.768   0.743
 9214SOL    HW128541   0.833   5.713   0.664
 9214SOL    HW228542   0.834   5.723   0.827
 9215SOL     OW28543   1.009   0.837   0.304
 9215SOL    HW128544   1.023   0.767   0.234
 9215SOL    HW228545   1.093   0.891   0.315
 9216SOL     OW28546   2.211   6.664   2.867
 9216SOL    HW128547   2.291   6.724   2.875
 9216SOL    HW228548   2.180   6.663   2.772
 9217SOL     OW28549   1.179   2.377   6.363
 9217SOL    HW128550   1.224   2.393   6.451
 9217SOL    HW228551   1.091   2.423   6.362
 9218SOL     OW28552   3.158   0.072   0.566
 9218SOL    HW128553   3.149   0.039   0.660
 9218SOL    HW228554   3.072   0.057   0.517
 9219SOL     OW28555   0.432   2.286   0.805
 9219SOL    HW128556   0.531   2.290   0.790
 9219SOL    HW228557   0.411   2.220   0.877
 9220SOL     OW28558   3.599   6.428   1.860
 9220SOL    HW128559   3.517   6.386   1.820
 9220SOL    HW228560   3.605   6.406   1.957
 9221SOL     OW28561   2.562   5.509   3.802
 9221SOL    HW128562   2.527   5.490   3.894
 9221SOL    HW228563   2.494   5.483   3.734
 9222SOL     OW28564   2.980   1.880   6.114
 9222SOL    HW128565   2.999   1.863   6.211
 9222SOL    HW228566   2.983   1.978   6.097
 9223SOL     OW28567   2.477   2.787   5.267
 9223SOL    HW128568   2.560   2.738   5.240
 9223SOL    HW228569   2.497   2.885   5.270
 9224SOL     OW28570   2.140   5.290   4.600
 9224SOL    HW128571   2.228   5.301   4.647
 9224SOL    HW228572   2.066   5.304   4.666
 9225SOL     OW28573   2.279   5.756   6.844
 9225SOL    HW128574   2.230   5.757   6.931
 9225SOL    HW228575   2.358   5.816   6.849
 9226SOL     OW28576   5.022   6.961   1.336
 9226SOL    HW128577   5.082   6.986   1.260
 9226SOL    HW228578   4.997   6.865   1.329
 9227SOL     OW28579   1.872   5.761   2.867
 9227SOL    HW128580   1.901   5.854   2.891
 9227SOL    HW228581   1.876   5.749   2.768
 9228SOL     OW28582   1.351   0.661   6.701
 9228SOL    HW128583   1.367   0.749   6.745
 9228SOL    HW228584   1.413   0.592   6.739
 9229SOL     OW28585   0.771   5.543   4.587
 9229SOL    HW128586   0.819   5.458   4.611
 9229SOL    HW228587   0.739   5.538   4.492
 9230SOL     OW28588   5.536   0.705   3.865
 9230SOL    HW128589   5.462   0.639   3.876
 9230SOL    HW228590   5.550   0.755   3.951
 9231SOL     OW28591   1.258   2.691   4.308
 9231SOL    HW128592   1.218   2.782   4.298
 9231SOL    HW228593   1.193   2.622   4.278
 9232SOL     OW28594   3.327   4.649   0.789
 9232SOL    HW128595   3.369   4.675   0.702
 9232SOL    HW228596   3.358   4.712   0.861
 9233SOL     OW28597   5.814   5.087   0.455
 9233SOL    HW128598   5.726   5.044   0.474
 9233SOL    HW228599   5.874   5.077   0.535
 9234SOL     OW28600   2.185   5.842   3.594
 9234SOL    HW128601   2.251   5.775   3.561
 9234SOL    HW228602   2.225   5.933   3.592
 9235SOL     OW28603   0.845   2.335   3.014
 9235SOL    HW128604   0.756   2.367   3.048
 9235SOL    HW228605   0.915   2.404   3.033
 9236SOL     OW28606   2.901   3.563   5.024
 9236SOL    HW128607   2.950   3.487   4.982
 9236SOL    HW228608   2.861   3.620   4.952
 9237SOL     OW28609   1.822   4.147   3.753
 9237SOL    HW128610   1.875   4.115   3.831
 9237SOL    HW228611   1.782   4.069   3.705
 9238SOL     OW28612   4.387   2.852   6.136
 9238SOL    HW128613   4.473   2.848   6.186
 9238SOL    HW228614   4.401   2.821   6.042
 9239SOL     OW28615   0.941   4.201   0.812
 9239SOL    HW128616   0.973   4.106   0.818
 9239SOL    HW228617   0.853   4.209   0.857
 9240SOL     OW28618   4.452   1.663   1.973
 9240SOL    HW128619   4.432   1.679   2.069
 9240SOL    HW228620   4.474   1.750   1.928
 9241SOL     OW28621   0.799   5.846   6.875
 9241SOL    HW128622   0.887   5.890   6.857
 9241SOL    HW228623   0.783   5.774   6.808
 9242SOL     OW28624   5.915   6.083   1.792
 9242SOL    HW128625   5.831   6.049   1.750
 9242SOL    HW228626   5.972   6.006   1.819
 9243SOL     OW28627   6.588   5.751   5.088
 9243SOL    HW128628   6.668   5.809   5.104
 9243SOL    HW228629   6.508   5.808   5.071
 9244SOL     OW28630   3.707   5.241   6.080
 9244SOL    HW128631   3.685   5.200   6.168
 9244SOL    HW228632   3.668   5.333   6.075
 9245SOL     OW28633   0.527   5.853   1.621
 9245SOL    HW128634   0.488   5.874   1.711
 9245SOL    HW228635   0.627   5.856   1.628
 9246SOL     OW28636   6.775   5.322   4.168
 9246SOL    HW128637   6.679   5.314   4.195
 9246SOL    HW228638   6.826   5.243   4.203
 9247SOL     OW28639   0.984   6.757   2.635
 9247SOL    HW128640   1.043   6.718   2.706
 9247SOL    HW228641   0.990   6.702   2.552
 9248SOL     OW28642   2.939   2.010   6.574
 9248SOL    HW128643   2.977   1.963   6.494
 9248SOL    HW228644   2.988   1.982   6.656
 9249SOL     OW28645   4.845   0.223   3.838
 9249SOL    HW128646   4.813   0.294   3.900
 9249SOL    HW228647   4.920   0.258   3.782
 9250SOL     OW28648   5.522   3.513   3.619
 9250SOL    HW128649   5.502   3.418   3.642
 9250SOL    HW228650   5.505   3.571   3.699
 9251SOL     OW28651   3.278   2.158   2.489
 9251SOL    HW128652   3.262   2.061   2.510
 9251SOL    HW228653   3.228   2.183   2.406
 9252SOL     OW28654   0.341   0.306   5.250
 9252SOL    HW128655   0.397   0.227   5.273
 9252SOL    HW228656   0.354   0.329   5.154
 9253SOL     OW28657   1.500   0.034   5.947
 9253SOL    HW128658   1.553   0.051   6.031
 9253SOL    HW228659   1.533   0.095   5.875
 9254SOL     OW28660   5.924   3.861   1.623
 9254SOL    HW128661   5.967   3.932   1.567
 9254SOL    HW228662   5.939   3.771   1.581
 9255SOL     OW28663   5.536   4.356   0.841
 9255SOL    HW128664   5.569   4.439   0.884
 9255SOL    HW228665   5.612   4.310   0.795
 9256SOL     OW28666   4.284   4.779   1.932
 9256SOL    HW128667   4.373   4.734   1.935
 9256SOL    HW228668   4.291   4.870   1.972
 9257SOL     OW28669   0.995   4.220   1.287
 9257SOL    HW128670   0.946   4.148   1.237
 9257SOL    HW228671   0.934   4.299   1.299
 9258SOL     OW28672   4.068   3.374   3.432
 9258SOL    HW128673   4.125   3.391   3.352
 9258SOL    HW228674   3.973   3.394   3.410
 9259SOL     OW28675   1.213   2.730   0.816
 9259SOL    HW128676   1.128   2.727   0.867
 9259SOL    HW228677   1.289   2.708   0.877
 9260SOL     OW28678   4.998   3.478   5.892
 9260SOL    HW128679   5.071   3.528   5.938
 9260SOL    HW228680   4.918   3.474   5.952
 9261SOL     OW28681   4.830   0.166   6.405
 9261SOL    HW128682   4.770   0.174   6.485
 9261SOL    HW228683   4.864   0.256   6.380
 9262SOL     OW28684   5.011   1.391   5.585
 9262SOL    HW128685   5.054   1.303   5.605
 9262SOL    HW228686   5.081   1.459   5.565
 9263SOL     OW28687   4.916   3.793   1.644
 9263SOL    HW128688   4.987   3.766   1.709
 9263SOL    HW228689   4.882   3.884   1.668
 9264SOL     OW28690   6.644   3.687   0.215
 9264SOL    HW128691   6.565   3.740   0.185
 9264SOL    HW228692   6.642   3.597   0.170
 9265SOL     OW28693   2.412   1.417   0.206
 9265SOL    HW128694   2.336   1.481   0.196
 9265SOL    HW228695   2.377   1.323   0.215
 9266SOL     OW28696   2.179   6.446   3.013
 9266SOL    HW128697   2.196   6.537   2.975
 9266SOL    HW228698   2.264   6.411   3.054
 9267SOL     OW28699   0.909   4.927   4.405
 9267SOL    HW128700   0.993   4.928   4.351
 9267SOL    HW228701   0.832   4.954   4.348
 9268SOL     OW28702   0.517   6.902   2.795
 9268SOL    HW128703   0.592   6.898   2.729
 9268SOL    HW228704   0.497   6.809   2.828
 9269SOL     OW28705   3.412   1.684   6.484
 9269SOL    HW128706   3.414   1.593   6.524
 9269SOL    HW228707   3.328   1.731   6.513
 9270SOL     OW28708   6.762   6.978   6.334
 9270SOL    HW128709   6.844   6.953   6.283
 9270SOL    HW228710   6.683   6.978   6.271
 9271SOL     OW28711   1.895   5.102   0.793
 9271SOL    HW128712   1.961   5.137   0.860
 9271SOL    HW228713   1.803   5.133   0.819
 9272SOL     OW28714   2.570   5.121   5.886
 9272SOL    HW128715   2.490   5.111   5.945
 9272SOL    HW228716   2.564   5.056   5.810
 9273SOL     OW28717   4.076   5.432   4.319
 9273SOL    HW128718   4.035   5.392   4.401
 9273SOL    HW228719   4.007   5.485   4.270
 9274SOL     OW28720   6.208   2.343   6.626
 9274SOL    HW128721   6.186   2.340   6.723
 9274SOL    HW228722   6.288   2.401   6.611
 9275SOL     OW28723   1.569   0.367   6.357
 9275SOL    HW128724   1.614   0.456   6.363
 9275SOL    HW228725   1.559   0.342   6.261
 9276SOL     OW28726   4.069   5.877   4.668
 9276SOL    HW128727   4.103   5.971   4.671
 9276SOL    HW228728   4.007   5.867   4.591
 9277SOL     OW28729   3.878   2.926   6.840
 9277SOL    HW128730   3.813   2.993   6.875
 9277SOL    HW228731   3.830   2.861   6.781
 9278SOL     OW28732   1.287   1.976   2.755
 9278SOL    HW128733   1.265   2.070   2.726
 9278SOL    HW228734   1.203   1.929   2.784
 9279SOL     OW28735   2.752   0.122   1.925
 9279SOL    HW128736   2.785   0.157   1.837
 9279SOL    HW228737   2.776   0.025   1.933
 9280SOL     OW28738   2.214   6.757   3.775
 9280SOL    HW128739   2.131   6.737   3.827
 9280SOL    HW228740   2.286   6.789   3.837
 9281SOL     OW28741   1.955   2.303   0.040
 9281SOL    HW128742   2.040   2.339   0.079
 9281SOL    HW228743   1.892   2.282   0.114
 9282SOL     OW28744   4.424   1.713   5.239
 9282SOL    HW128745   4.470   1.768   5.170
 9282SOL    HW228746   4.384   1.631   5.196
 9283SOL     OW28747   5.699   2.904   2.182
 9283SOL    HW128748   5.659   2.825   2.228
 9283SOL    HW228749   5.637   2.936   2.111
 9284SOL     OW28750   2.900   3.259   1.371
 9284SOL    HW128751   2.845   3.342   1.383
 9284SOL    HW228752   2.887   3.223   1.279
 9285SOL     OW28753   6.532   2.645   6.830
 9285SOL    HW128754   6.627   2.621   6.851
 9285SOL    HW228755   6.508   2.608   6.741
 9286SOL     OW28756   4.933   6.873   5.274
 9286SOL    HW128757   4.953   6.782   5.309
 9286SOL    HW228758   4.923   6.937   5.351
 9287SOL     OW28759   3.102   6.603   1.163
 9287SOL    HW128760   3.119   6.591   1.261
 9287SOL    HW228761   3.030   6.540   1.133
 9288SOL     OW28762   5.132   2.440   5.852
 9288SOL    HW128763   5.181   2.445   5.939
 9288SOL    HW228764   5.043   2.486   5.861
 9289SOL     OW28765   5.037   2.632   2.402
 9289SOL    HW128766   4.970   2.697   2.367
 9289SOL    HW228767   4.995   2.542   2.411
 9290SOL     OW28768   5.057   2.072   4.249
 9290SOL    HW128769   5.041   1.997   4.185
 9290SOL    HW228770   5.080   2.155   4.199
 9291SOL     OW28771   0.725   1.209   4.658
 9291SOL    HW128772   0.812   1.258   4.663
 9291SOL    HW228773   0.729   1.141   4.585
 9292SOL     OW28774   0.220   3.143   6.368
 9292SOL    HW128775   0.305   3.180   6.404
 9292SOL    HW228776   0.235   3.048   6.340
 9293SOL     OW28777   5.635   4.131   0.413
 9293SOL    HW128778   5.536   4.141   0.399
 9293SOL    HW228779   5.676   4.090   0.332
 9294SOL     OW28780   5.506   6.656   0.026
 9294SOL    HW128781   5.472   6.747   0.052
 9294SOL    HW228782   5.429   6.600   7.016
 9295SOL     OW28783   4.712   1.641   3.051
 9295SOL    HW128784   4.670   1.582   3.121
 9295SOL    HW228785   4.797   1.680   3.087
 9296SOL     OW28786   5.815   6.652   5.770
 9296SOL    HW128787   5.787   6.605   5.853
 9296SOL    HW228788   5.736   6.666   5.711
 9297SOL     OW28789   0.555   0.965   1.001
 9297SOL    HW128790   0.513   1.015   0.926
 9297SOL    HW228791   0.483   0.921   1.056
 9298SOL     OW28792   1.364   5.864   4.977
 9298SOL    HW128793   1.276   5.846   4.933
 9298SOL    HW228794   1.349   5.912   5.063
 9299SOL     OW28795   1.894   3.575   4.274
 9299SOL    HW128796   1.854   3.665   4.291
 9299SOL    HW228797   1.985   3.586   4.235
 9300SOL     OW28798   5.371   4.515   4.548
 9300SOL    HW128799   5.330   4.431   4.515
 9300SOL    HW228800   5.399   4.571   4.470
 9301SOL     OW28801   5.171   4.645   2.365
 9301SOL    HW128802   5.246   4.613   2.422
 9301SOL    HW228803   5.099   4.684   2.423
 9302SOL     OW28804   2.267   2.222   2.601
 9302SOL    HW128805   2.196   2.274   2.648
 9302SOL    HW228806   2.231   2.132   2.574
 9303SOL     OW28807   3.764   5.792   6.806
 9303SOL    HW128808   3.773   5.726   6.732
 9303SOL    HW228809   3.850   5.797   6.857
 9304SOL     OW28810   3.633   3.584   1.116
 9304SOL    HW128811   3.674   3.507   1.067
 9304SOL    HW228812   3.620   3.559   1.212
 9305SOL     OW28813   5.793   2.999   1.852
 9305SOL    HW128814   5.820   2.904   1.837
 9305SOL    HW228815   5.705   3.001   1.901
 9306SOL     OW28816   6.933   4.004   4.116
 9306SOL    HW128817   6.899   3.963   4.031
 9306SOL    HW228818   6.951   3.931   4.182
 9307SOL     OW28819   1.667   1.889   0.577
 9307SOL    HW128820   1.618   1.820   0.524
 9307SOL    HW228821   1.752   1.850   0.612
 9308SOL     OW28822   0.346   3.448   1.143
 9308SOL    HW128823   0.358   3.425   1.046
 9308SOL    HW228824   0.435   3.461   1.186
 9309SOL     OW28825   4.685   3.577   6.013
 9309SOL    HW128826   4.592   3.590   6.047
 9309SOL    HW228827   4.711   3.481   6.021
 9310SOL     OW28828   4.315   6.164   6.981
 9310SOL    HW128829   4.362   6.139   0.045
 9310SOL    HW228830   4.379   6.210   6.920
 9311SOL     OW28831   5.750   3.357   0.819
 9311SOL    HW128832   5.844   3.326   0.837
 9311SOL    HW228833   5.753   3.432   0.753
 9312SOL     OW28834   1.131   4.127   6.465
 9312SOL    HW128835   1.134   4.182   6.382
 9312SOL    HW228836   1.040   4.087   6.475
 9313SOL     OW28837   6.817   0.097   3.225
 9313SOL    HW128838   6.807   0.052   3.314
 9313SOL    HW228839   6.904   0.146   3.223
 9314SOL     OW28840   4.958   4.990   6.758
 9314SOL    HW128841   4.925   5.059   6.822
 9314SOL    HW228842   4.938   4.899   6.793
 9315SOL     OW28843   0.127   6.897   5.665
 9315SOL    HW128844   0.046   6.840   5.677
 9315SOL    HW228845   0.119   6.948   5.579
 9316SOL     OW28846   3.941   5.868   3.761
 9316SOL    HW128847   3.995   5.823   3.832
 9316SOL    HW228848   4.001   5.904   3.690
 9317SOL     OW28849   6.760   5.132   3.842
 9317SOL    HW128850   6.688   5.201   3.843
 9317SOL    HW228851   6.825   5.151   3.915
 9318SOL     OW28852   0.554   0.599   6.669
 9318SOL    HW128853   0.523   0.507   6.694
 9318SOL    HW228854   0.515   0.666   6.732
 9319SOL     OW28855   0.659   3.150   6.119
 9319SOL    HW128856   0.737   3.105   6.075
 9319SOL    HW228857   0.596   3.183   6.048
 9320SOL     OW28858   4.184   2.400   5.834
 9320SOL    HW128859   4.093   2.436   5.851
 9320SOL    HW228860   4.238   2.401   5.918
 9321SOL     OW28861   6.216   6.149   3.264
 9321SOL    HW128862   6.124   6.146   3.225
 9321SOL    HW228863   6.274   6.209   3.210
 9322SOL     OW28864   0.957   6.440   5.767
 9322SOL    HW128865   0.993   6.529   5.797
 9322SOL    HW228866   0.879   6.415   5.824
 9323SOL     OW28867   1.075   1.240   6.661
 9323SOL    HW128868   1.114   1.241   6.753
 9323SOL    HW228869   1.040   1.330   6.638
 9324SOL     OW28870   1.363   5.605   0.375
 9324SOL    HW128871   1.424   5.574   0.303
 9324SOL    HW228872   1.279   5.641   0.334
 9325SOL     OW28873   5.628   2.314   1.003
 9325SOL    HW128874   5.691   2.245   0.969
 9325SOL    HW228875   5.632   2.316   1.103
 9326SOL     OW28876   1.839   6.961   1.216
 9326SOL    HW128877   1.929   7.003   1.226
 9326SOL    HW228878   1.848   6.872   1.171
 9327SOL     OW28879   4.154   1.015   2.629
 9327SOL    HW128880   4.209   1.066   2.562
 9327SOL    HW228881   4.166   0.917   2.614
 9328SOL     OW28882   3.601   1.182   1.257
 9328SOL    HW128883   3.605   1.274   1.217
 9328SOL    HW228884   3.650   1.118   1.199
 9329SOL     OW28885   1.021   3.137   2.201
 9329SOL    HW128886   1.113   3.170   2.182
 9329SOL    HW228887   1.007   3.134   2.300
 9330SOL     OW28888   6.035   0.853   0.286
 9330SOL    HW128889   6.034   0.760   0.250
 9330SOL    HW228890   6.058   0.851   0.383
 9331SOL     OW28891   0.738   0.804   6.789
 9331SOL    HW128892   0.641   0.817   6.811
 9331SOL    HW228893   0.780   0.892   6.769
 9332SOL     OW28894   3.078   3.163   4.208
 9332SOL    HW128895   3.068   3.202   4.117
 9332SOL    HW228896   3.117   3.071   4.201
 9333SOL     OW28897   5.878   4.613   0.639
 9333SOL    HW128898   5.796   4.564   0.610
 9333SOL    HW228899   5.875   4.707   0.604
 9334SOL     OW28900   2.893   0.068   4.652
 9334SOL    HW128901   2.902   0.022   4.564
 9334SOL    HW228902   2.810   0.123   4.653
 9335SOL     OW28903   1.428   0.484   0.246
 9335SOL    HW128904   1.448   0.570   0.199
 9335SOL    HW228905   1.330   0.478   0.263
 9336SOL     OW28906   2.776   6.886   6.114
 9336SOL    HW128907   2.739   6.911   6.024
 9336SOL    HW228908   2.819   6.796   6.108
 9337SOL     OW28909   5.312   6.996   2.237
 9337SOL    HW128910   5.342   6.974   2.145
 9337SOL    HW228911   5.330   0.072   2.257
 9338SOL     OW28912   3.408   6.781   2.523
 9338SOL    HW128913   3.447   6.742   2.439
 9338SOL    HW228914   3.471   6.849   2.560
 9339SOL     OW28915   4.274   6.303   1.257
 9339SOL    HW128916   4.334   6.383   1.269
 9339SOL    HW228917   4.205   6.302   1.329
 9340SOL     OW28918   6.196   3.729   6.771
 9340SOL    HW128919   6.295   3.716   6.770
 9340SOL    HW228920   6.153   3.661   6.711
 9341SOL     OW28921   0.078   5.528   6.514
 9341SOL    HW128922   0.043   5.609   6.467
 9341SOL    HW228923   0.167   5.548   6.554
 9342SOL     OW28924   1.611   6.452   6.258
 9342SOL    HW128925   1.652   6.530   6.304
 9342SOL    HW228926   1.570   6.391   6.325
 9343SOL     OW28927   5.833   5.249   4.959
 9343SOL    HW128928   5.920   5.201   4.962
 9343SOL    HW228929   5.787   5.228   4.873
 9344SOL     OW28930   5.144   6.464   1.417
 9344SOL    HW128931   5.083   6.391   1.449
 9344SOL    HW228932   5.173   6.520   1.495
 9345SOL     OW28933   6.809   3.170   0.916
 9345SOL    HW128934   6.865   3.172   0.998
 9345SOL    HW228935   6.821   3.256   0.866
 9346SOL     OW28936   5.610   6.871   0.701
 9346SOL    HW128937   5.591   6.861   0.603
 9346SOL    HW228938   5.626   6.781   0.741
 9347SOL     OW28939   1.911   7.019   1.569
 9347SOL    HW128940   1.981   0.064   1.540
 9347SOL    HW228941   1.822   0.043   1.567
 9348SOL     OW28942   3.234   4.943   6.644
 9348SOL    HW128943   3.150   4.967   6.692
 9348SOL    HW228944   3.266   4.854   6.677
 9349SOL     OW28945   1.728   6.974   2.674
 9349SOL    HW128946   1.728   6.951   2.771
 9349SOL    HW228947   1.719   6.890   2.620
 9350SOL     OW28948   0.793   2.267   6.183
 9350SOL    HW128949   0.701   2.233   6.161
 9350SOL    HW228950   0.858   2.233   6.115
 9351SOL     OW28951   3.590   2.064   6.523
 9351SOL    HW128952   3.492   2.044   6.515
 9351SOL    HW228953   3.606   2.114   6.608
 9352SOL     OW28954   2.404   5.386   5.899
 9352SOL    HW128955   2.422   5.482   5.917
 9352SOL    HW228956   2.446   5.330   5.971
 9353SOL     OW28957   6.315   0.427   1.140
 9353SOL    HW128958   6.362   0.491   1.201
 9353SOL    HW228959   6.328   0.455   1.045
 9354SOL     OW28960   6.635   2.411   6.581
 9354SOL    HW128961   6.680   2.430   6.494
 9354SOL    HW228962   6.704   2.380   6.648
 9355SOL     OW28963   0.152   1.354   4.799
 9355SOL    HW128964   0.175   1.391   4.889
 9355SOL    HW228965   0.227   1.373   4.735
 9356SOL     OW28966   4.693   6.678   1.920
 9356SOL    HW128967   4.646   6.651   2.004
 9356SOL    HW228968   4.694   6.778   1.914
 9357SOL     OW28969   0.878   2.014   6.978
 9357SOL    HW128970   0.820   2.091   7.002
 9357SOL    HW228971   0.876   1.946   0.031
 9358SOL     OW28972   0.960   3.420   1.815
 9358SOL    HW128973   0.973   3.426   1.914
 9358SOL    HW228974   1.029   3.477   1.769
 9359SOL     OW28975   1.561   0.267   5.720
 9359SOL    HW128976   1.643   0.255   5.663
 9359SOL    HW228977   1.573   0.347   5.779
 9360SOL     OW28978   0.954   0.266   6.415
 9360SOL    HW128979   1.032   0.265   6.478
 9360SOL    HW228980   0.891   0.339   6.440
 9361SOL     OW28981   2.008   5.972   4.331
 9361SOL    HW128982   1.925   5.934   4.370
 9361SOL    HW228983   2.011   5.952   4.233
 9362SOL     OW28984   1.904   0.348   2.363
 9362SOL    HW128985   1.813   0.385   2.377
 9362SOL    HW228986   1.923   0.278   2.433
 9363SOL     OW28987   2.529   4.935   2.180
 9363SOL    HW128988   2.490   4.937   2.088
 9363SOL    HW228989   2.567   5.025   2.201
 9364SOL     OW28990   1.522   2.018   1.070
 9364SOL    HW128991   1.579   2.021   0.988
 9364SOL    HW228992   1.577   2.043   1.149
 9365SOL     OW28993   3.078   2.052   4.221
 9365SOL    HW128994   3.159   2.088   4.267
 9365SOL    HW228995   3.010   2.125   4.211
 9366SOL     OW28996   4.173   5.172   0.810
 9366SOL    HW128997   4.241   5.162   0.883
 9366SOL    HW228998   4.125   5.259   0.821
 9367SOL     OW28999   6.786   0.925   1.519
 9367SOL    HW129000   6.864   0.874   1.481
 9367SOL    HW229001   6.703   0.870   1.508
 9368SOL     OW29002   3.422   0.535   2.642
 9368SOL    HW129003   3.404   0.437   2.636
 9368SOL    HW229004   3.335   0.584   2.646
 9369SOL     OW29005   2.824   5.178   0.024
 9369SOL    HW129006   2.806   5.203   6.950
 9369SOL    HW229007   2.784   5.248   0.084
 9370SOL     OW29008   4.454   1.628   4.344
 9370SOL    HW129009   4.490   1.574   4.267
 9370SOL    HW229010   4.482   1.586   4.430
 9371SOL     OW29011   4.516   5.506   0.926
 9371SOL    HW129012   4.542   5.434   0.990
 9371SOL    HW229013   4.447   5.564   0.968
 9372SOL     OW29014   4.449   6.494   1.352
 9372SOL    HW129015   4.381   6.460   1.416
 9372SOL    HW229016   4.533   6.439   1.359
 9373SOL     OW29017   0.040   2.067   0.703
 9373SOL    HW129018   0.081   2.069   0.611
 9373SOL    HW229019   0.008   2.159   0.727
 9374SOL     OW29020   0.015   5.269   6.114
 9374SOL    HW129021   6.966   5.202   6.090
 9374SOL    HW229022   0.105   5.236   6.083
 9375SOL     OW29023   0.417   0.850   0.037
 9375SOL    HW129024   0.353   0.925   0.055
 9375SOL    HW229025   0.369   0.763   0.045
 9376SOL     OW29026   2.132   3.840   1.735
 9376SOL    HW129027   2.157   3.833   1.832
 9376SOL    HW229028   2.040   3.803   1.722
 9377SOL     OW29029   1.915   0.798   3.781
 9377SOL    HW129030   1.825   0.827   3.813
 9377SOL    HW229031   1.911   0.703   3.749
 9378SOL     OW29032   3.310   0.680   4.226
 9378SOL    HW129033   3.255   0.621   4.166
 9378SOL    HW229034   3.268   0.770   4.233
 9379SOL     OW29035   4.289   6.311   4.481
 9379SOL    HW129036   4.271   6.349   4.390
 9379SOL    HW229037   4.381   6.336   4.510
 9380SOL     OW29038   5.199   5.847   0.188
 9380SOL    HW129039   5.159   5.871   0.099
 9380SOL    HW229040   5.161   5.760   0.219
 9381SOL     OW29041   6.007   1.606   5.082
 9381SOL    HW129042   6.075   1.583   5.012
 9381SOL    HW229043   6.021   1.700   5.113
 9382SOL     OW29044   3.038   5.833   4.926
 9382SOL    HW129045   3.027   5.823   4.827
 9382SOL    HW229046   3.131   5.808   4.952
 9383SOL     OW29047   5.393   4.537   2.525
 9383SOL    HW129048   5.327   4.493   2.586
 9383SOL    HW229049   5.424   4.623   2.566
 9384SOL     OW29050   2.649   0.882   2.258
 9384SOL    HW129051   2.571   0.820   2.269
 9384SOL    HW229052   2.633   0.942   2.180
 9385SOL     OW29053   4.667   1.756   3.494
 9385SOL    HW129054   4.633   1.709   3.575
 9385SOL    HW229055   4.590   1.791   3.441
 9386SOL     OW29056   4.715   6.674   7.007
 9386SOL    HW129057   4.786   6.715   0.044
 9386SOL    HW229058   4.758   6.634   6.926
 9387SOL     OW29059   3.087   2.260   0.519
 9387SOL    HW129060   3.013   2.305   0.468
 9387SOL    HW229061   3.048   2.201   0.590
 9388SOL     OW29062   2.130   5.944   5.119
 9388SOL    HW129063   2.214   5.892   5.131
 9388SOL    HW229064   2.099   5.937   5.024
 9389SOL     OW29065   2.730   4.938   1.649
 9389SOL    HW129066   2.646   4.897   1.613
 9389SOL    HW229067   2.743   4.910   1.744
 9390SOL     OW29068   5.231   5.211   4.610
 9390SOL    HW129069   5.238   5.147   4.687
 9390SOL    HW229070   5.165   5.175   4.544
 9391SOL     OW29071   1.489   5.238   4.341
 9391SOL    HW129072   1.512   5.221   4.437
 9391SOL    HW229073   1.442   5.159   4.303
 9392SOL     OW29074   5.006   4.490   2.964
 9392SOL    HW129075   5.035   4.413   3.022
 9392SOL    HW229076   4.908   4.484   2.947
 9393SOL     OW29077   2.624   6.450   6.545
 9393SOL    HW129078   2.564   6.422   6.619
 9393SOL    HW229079   2.711   6.482   6.584
 9394SOL     OW29080   3.503   0.977   0.173
 9394SOL    HW129081   3.413   0.999   0.134
 9394SOL    HW229082   3.543   1.060   0.211
 9395SOL     OW29083   2.096   1.500   0.697
 9395SOL    HW129084   2.040   1.421   0.721
 9395SOL    HW229085   2.133   1.542   0.780
 9396SOL     OW29086   0.568   6.459   6.611
 9396SOL    HW129087   0.660   6.464   6.572
 9396SOL    HW229088   0.521   6.546   6.597
 9397SOL     OW29089   3.343   0.576   5.234
 9397SOL    HW129090   3.441   0.561   5.220
 9397SOL    HW229091   3.299   0.592   5.146
 9398SOL     OW29092   0.603   1.776   0.238
 9398SOL    HW129093   0.561   1.695   0.198
 9398SOL    HW229094   0.699   1.782   0.211
 9399SOL     OW29095   1.125   2.945   4.284
 9399SOL    HW129096   1.154   2.961   4.190
 9399SOL    HW229097   1.045   3.000   4.304
 9400SOL     OW29098   5.844   1.266   0.872
 9400SOL    HW129099   5.791   1.254   0.789
 9400SOL    HW229100   5.813   1.348   0.920
 9401SOL     OW29101   0.562   2.278   3.725
 9401SOL    HW129102   0.578   2.245   3.818
 9401SOL    HW229103   0.536   2.201   3.666
 9402SOL     OW29104   2.177   6.460   3.710
 9402SOL    HW129105   2.145   6.433   3.801
 9402SOL    HW229106   2.184   6.559   3.705
 9403SOL     OW29107   5.965   2.586   2.255
 9403SOL    HW129108   5.925   2.494   2.258
 9403SOL    HW229109   5.917   2.640   2.186
 9404SOL     OW29110   2.006   2.674   0.973
 9404SOL    HW129111   1.964   2.597   0.926
 9404SOL    HW229112   2.091   2.644   1.016
 9405SOL     OW29113   6.939   5.555   5.356
 9405SOL    HW129114   6.868   5.534   5.290
 9405SOL    HW229115   6.909   5.526   5.447
 9406SOL     OW29116   0.970   2.947   6.750
 9406SOL    HW129117   0.881   2.959   6.705
 9406SOL    HW229118   1.016   2.868   6.709
 9407SOL     OW29119   1.304   5.163   5.518
 9407SOL    HW129120   1.300   5.178   5.616
 9407SOL    HW229121   1.398   5.178   5.485
 9408SOL     OW29122   0.331   3.627   4.758
 9408SOL    HW129123   0.347   3.536   4.719
 9408SOL    HW229124   0.244   3.628   4.808
 9409SOL     OW29125   6.280   4.512   2.923
 9409SOL    HW129126   6.341   4.456   2.866
 9409SOL    HW229127   6.320   4.523   3.014
 9410SOL     OW29128   3.683   1.049   0.779
 9410SOL    HW129129   3.685   1.146   0.803
 9410SOL    HW229130   3.613   1.033   0.709
 9411SOL     OW29131   3.038   3.596   3.052
 9411SOL    HW129132   2.997   3.648   2.978
 9411SOL    HW229133   3.048   3.501   3.024
 9412SOL     OW29134   5.810   6.106   1.200
 9412SOL    HW129135   5.745   6.169   1.159
 9412SOL    HW229136   5.902   6.145   1.197
 9413SOL     OW29137   4.579   4.364   2.617
 9413SOL    HW129138   4.516   4.413   2.557
 9413SOL    HW229139   4.667   4.353   2.572
 9414SOL     OW29140   1.806   2.080   3.293
 9414SOL    HW129141   1.873   2.017   3.330
 9414SOL    HW229142   1.852   2.153   3.243
 9415SOL     OW29143   4.750   1.327   1.945
 9415SOL    HW129144   4.745   1.245   2.002
 9415SOL    HW229145   4.706   1.403   1.992
 9416SOL     OW29146   5.786   5.219   5.421
 9416SOL    HW129147   5.859   5.284   5.441
 9416SOL    HW229148   5.822   5.126   5.423
 9417SOL     OW29149   3.270   5.272   2.396
 9417SOL    HW129150   3.319   5.253   2.482
 9417SOL    HW229151   3.208   5.348   2.409
 9418SOL     OW29152   3.720   1.512   5.031
 9418SOL    HW129153   3.761   1.456   5.103
 9418SOL    HW229154   3.722   1.463   4.944
 9419SOL     OW29155   1.741   2.933   6.370
 9419SOL    HW129156   1.736   2.962   6.275
 9419SOL    HW229157   1.711   2.838   6.377
 9420SOL     OW29158   5.880   4.242   6.354
 9420SOL    HW129159   5.794   4.292   6.343
 9420SOL    HW229160   5.871   4.178   6.431
 9421SOL     OW29161   4.324   6.283   6.212
 9421SOL    HW129162   4.258   6.346   6.253
 9421SOL    HW229163   4.371   6.329   6.136
 9422SOL     OW29164   1.913   6.141   6.014
 9422SOL    HW129165   1.871   6.060   5.972
 9422SOL    HW229166   1.997   6.114   6.061
 9423SOL     OW29167   4.352   4.559   2.700
 9423SOL    HW129168   4.314   4.641   2.742
 9423SOL    HW229169   4.422   4.520   2.760
 9424SOL     OW29170   6.153   6.889   4.059
 9424SOL    HW129171   6.164   6.828   3.980
 9424SOL    HW229172   6.221   6.866   4.128
 9425SOL     OW29173   6.863   4.454   1.179
 9425SOL    HW129174   6.803   4.505   1.240
 9425SOL    HW229175   6.819   4.368   1.153
 9426SOL     OW29176   6.960   2.410   6.233
 9426SOL    HW129177   0.035   2.402   6.205
 9426SOL    HW229178   6.917   2.320   6.232
 9427SOL     OW29179   4.474   4.567   2.443
 9427SOL    HW129180   4.434   4.598   2.529
 9427SOL    HW229181   4.403   4.560   2.373
 9428SOL     OW29182   0.762   5.852   5.720
 9428SOL    HW129183   0.708   5.898   5.648
 9428SOL    HW229184   0.856   5.887   5.718
 9429SOL     OW29185   2.458   2.492   4.405
 9429SOL    HW129186   2.393   2.416   4.397
 9429SOL    HW229187   2.480   2.508   4.501
 9430SOL     OW29188   1.548   1.903   4.837
 9430SOL    HW129189   1.587   1.995   4.825
 9430SOL    HW229190   1.449   1.909   4.838
 9431SOL     OW29191   0.644   4.507   5.373
 9431SOL    HW129192   0.551   4.543   5.382
 9431SOL    HW229193   0.703   4.546   5.443
 9432SOL     OW29194   6.844   1.077   3.537
 9432SOL    HW129195   6.930   1.106   3.578
 9432SOL    HW229196   6.781   1.049   3.610
 9433SOL     OW29197   3.893   6.086   1.752
 9433SOL    HW129198   3.796   6.098   1.734
 9433SOL    HW229199   3.906   6.021   1.828
 9434SOL     OW29200   4.669   5.533   4.187
 9434SOL    HW129201   4.603   5.501   4.119
 9434SOL    HW229202   4.759   5.540   4.145
 9435SOL     OW29203   6.759   3.908   1.277
 9435SOL    HW129204   6.814   3.869   1.203
 9435SOL    HW229205   6.684   3.845   1.299
 9436SOL     OW29206   2.413   0.986   3.175
 9436SOL    HW129207   2.336   1.048   3.192
 9436SOL    HW229208   2.470   1.022   3.101
 9437SOL     OW29209   5.392   0.345   4.949
 9437SOL    HW129210   5.423   0.315   5.039
 9437SOL    HW229211   5.466   0.396   4.904
 9438SOL     OW29212   4.675   6.527   2.626
 9438SOL    HW129213   4.595   6.586   2.627
 9438SOL    HW229214   4.650   6.437   2.591
 9439SOL     OW29215   1.783   3.916   0.884
 9439SOL    HW129216   1.881   3.902   0.894
 9439SOL    HW229217   1.752   3.875   0.798
 9440SOL     OW29218   2.006   5.220   3.267
 9440SOL    HW129219   2.039   5.152   3.333
 9440SOL    HW229220   1.920   5.188   3.227
 9441SOL     OW29221   0.027   6.913   4.573
 9441SOL    HW129222   0.087   6.833   4.562
 9441SOL    HW229223   0.063   6.971   4.646
 9442SOL     OW29224   6.011   3.063   0.801
 9442SOL    HW129225   5.931   3.019   0.761
 9442SOL    HW229226   5.982   3.122   0.877
 9443SOL     OW29227   2.166   4.527   2.382
 9443SOL    HW129228   2.109   4.604   2.355
 9443SOL    HW229229   2.116   4.470   2.447
 9444SOL     OW29230   1.253   4.451   6.151
 9444SOL    HW129231   1.325   4.506   6.194
 9444SOL    HW229232   1.200   4.508   6.089
 9445SOL     OW29233   0.193   1.679   4.512
 9445SOL    HW129234   0.202   1.580   4.520
 9445SOL    HW229235   0.263   1.714   4.450
 9446SOL     OW29236   6.418   3.810   4.326
 9446SOL    HW129237   6.400   3.755   4.245
 9446SOL    HW229238   6.500   3.775   4.373
 9447SOL     OW29239   4.913   4.195   1.913
 9447SOL    HW129240   4.954   4.279   1.948
 9447SOL    HW229241   4.920   4.123   1.981
 9448SOL     OW29242   6.067   1.385   6.108
 9448SOL    HW129243   6.151   1.438   6.095
 9448SOL    HW229244   5.989   1.439   6.076
 9449SOL     OW29245   5.033   6.734   2.230
 9449SOL    HW129246   5.003   6.829   2.221
 9449SOL    HW229247   4.972   6.685   2.292
 9450SOL     OW29248   1.068   6.348   2.765
 9450SOL    HW129249   1.131   6.276   2.739
 9450SOL    HW229250   1.116   6.418   2.817
 9451SOL     OW29251   3.936   4.704   6.825
 9451SOL    HW129252   3.916   4.763   6.903
 9451SOL    HW229253   3.855   4.698   6.766
 9452SOL     OW29254   6.027   4.403   6.743
 9452SOL    HW129255   6.107   4.379   6.798
 9452SOL    HW229256   6.038   4.496   6.707
 9453SOL     OW29257   5.114   5.181   1.676
 9453SOL    HW129258   5.209   5.175   1.646
 9453SOL    HW229259   5.110   5.175   1.776
 9454SOL     OW29260   5.985   4.684   0.358
 9454SOL    HW129261   6.039   4.767   0.368
 9454SOL    HW229262   5.983   4.634   0.445
 9455SOL     OW29263   3.659   1.275   1.822
 9455SOL    HW129264   3.701   1.264   1.732
 9455SOL    HW229265   3.578   1.217   1.828
 9456SOL     OW29266   6.986   2.583   2.966
 9456SOL    HW129267   6.915   2.530   3.013
 9456SOL    HW229268   6.952   2.674   2.944
 9457SOL     OW29269   6.348   6.576   5.051
 9457SOL    HW129270   6.389   6.595   4.962
 9457SOL    HW229271   6.322   6.479   5.056
 9458SOL     OW29272   6.451   3.735   6.962
 9458SOL    HW129273   6.429   3.782   0.028
 9458SOL    HW229274   6.433   3.797   6.886
 9459SOL     OW29275   4.814   4.576   5.509
 9459SOL    HW129276   4.886   4.632   5.550
 9459SOL    HW229277   4.725   4.616   5.529
 9460SOL     OW29278   0.970   2.947   2.940
 9460SOL    HW129279   0.919   2.861   2.949
 9460SOL    HW229280   0.907   3.023   2.931
 9461SOL     OW29281   1.582   1.812   1.643
 9461SOL    HW129282   1.512   1.758   1.595
 9461SOL    HW229283   1.575   1.795   1.741
 9462SOL     OW29284   0.277   1.334   4.302
 9462SOL    HW129285   0.268   1.415   4.243
 9462SOL    HW229286   0.224   1.259   4.262
 9463SOL     OW29287   5.790   4.319   1.527
 9463SOL    HW129288   5.852   4.333   1.604
 9463SOL    HW229289   5.760   4.224   1.525
 9464SOL     OW29290   1.381   0.726   2.144
 9464SOL    HW129291   1.450   0.772   2.200
 9464SOL    HW229292   1.299   0.784   2.140
 9465SOL     OW29293   6.510   4.817   0.812
 9465SOL    HW129294   6.448   4.846   0.885
 9465SOL    HW229295   6.507   4.885   0.738
 9466SOL     OW29296   4.014   3.906   5.483
 9466SOL    HW129297   4.061   3.818   5.489
 9466SOL    HW229298   3.974   3.928   5.572
 9467SOL     OW29299   1.840   3.096   0.142
 9467SOL    HW129300   1.780   3.016   0.139
 9467SOL    HW229301   1.785   3.179   0.135
 9468SOL     OW29302   6.039   1.825   0.882
 9468SOL    HW129303   6.111   1.802   0.947
 9468SOL    HW229304   5.953   1.783   0.911
 9469SOL     OW29305   6.660   6.486   1.408
 9469SOL    HW129306   6.745   6.433   1.408
 9469SOL    HW229307   6.604   6.457   1.330
 9470SOL     OW29308   3.447   3.615   6.816
 9470SOL    HW129309   3.508   3.610   6.896
 9470SOL    HW229310   3.361   3.658   6.842
 9471SOL     OW29311   6.211   2.434   4.903
 9471SOL    HW129312   6.200   2.532   4.883
 9471SOL    HW229313   6.190   2.418   5.000
 9472SOL     OW29314   1.639   3.130   5.917
 9472SOL    HW129315   1.680   3.218   5.893
 9472SOL    HW229316   1.702   3.079   5.975
 9473SOL     OW29317   2.433   3.955   1.172
 9473SOL    HW129318   2.378   4.002   1.103
 9473SOL    HW229319   2.410   3.858   1.174
 9474SOL     OW29320   5.646   4.182   1.136
 9474SOL    HW129321   5.576   4.208   1.069
 9474SOL    HW229322   5.704   4.261   1.156
 9475SOL     OW29323   5.421   4.503   6.134
 9475SOL    HW129324   5.359   4.470   6.205
 9475SOL    HW229325   5.380   4.488   6.044
 9476SOL     OW29326   4.388   3.929   0.426
 9476SOL    HW129327   4.311   3.909   0.487
 9476SOL    HW229328   4.473   3.900   0.469
 9477SOL     OW29329   2.190   4.483   0.182
 9477SOL    HW129330   2.236   4.394   0.179
 9477SOL    HW229331   2.156   4.500   0.274
 9478SOL     OW29332   5.690   3.723   5.817
 9478SOL    HW129333   5.746   3.679   5.746
 9478SOL    HW229334   5.672   3.818   5.792
 9479SOL     OW29335   3.790   0.419   2.317
 9479SOL    HW129336   3.870   0.360   2.315
 9479SOL    HW229337   3.817   0.513   2.294
 9480SOL     OW29338   6.170   1.003   0.860
 9480SOL    HW129339   6.260   1.040   0.885
 9480SOL    HW229340   6.109   1.008   0.939
 9481SOL     OW29341   4.147   0.180   2.875
 9481SOL    HW129342   4.242   0.157   2.894
 9481SOL    HW229343   4.093   0.170   2.959
 9482SOL     OW29344   6.161   6.023   0.036
 9482SOL    HW129345   6.132   6.118   0.051
 9482SOL    HW229346   6.223   5.995   0.110
 9483SOL     OW29347   6.764   6.725   0.521
 9483SOL    HW129348   6.818   6.642   0.538
 9483SOL    HW229349   6.819   6.806   0.543
 9484SOL     OW29350   3.694   5.823   4.069
 9484SOL    HW129351   3.613   5.764   4.073
 9484SOL    HW229352   3.666   5.917   4.049
 9485SOL     OW29353   0.383   1.194   6.463
 9485SOL    HW129354   0.356   1.288   6.442
 9485SOL    HW229355   0.436   1.157   6.386
 9486SOL     OW29356   5.748   5.861   0.133
 9486SOL    HW129357   5.682   5.916   0.185
 9486SOL    HW229358   5.749   5.891   0.038
 9487SOL     OW29359   3.438   3.716   2.907
 9487SOL    HW129360   3.359   3.772   2.934
 9487SOL    HW229361   3.443   3.636   2.966
 9488SOL     OW29362   1.651   0.893   1.326
 9488SOL    HW129363   1.563   0.929   1.357
 9488SOL    HW229364   1.650   0.793   1.331
 9489SOL     OW29365   5.496   3.123   0.391
 9489SOL    HW129366   5.407   3.118   0.436
 9489SOL    HW229367   5.484   3.136   0.293
 9490SOL     OW29368   5.329   3.518   4.829
 9490SOL    HW129369   5.324   3.497   4.926
 9490SOL    HW229370   5.295   3.611   4.813
 9491SOL     OW29371   5.375   6.613   2.557
 9491SOL    HW129372   5.367   6.689   2.493
 9491SOL    HW229373   5.289   6.602   2.607
 9492SOL     OW29374   5.092   2.839   3.515
 9492SOL    HW129375   5.036   2.763   3.481
 9492SOL    HW229376   5.186   2.828   3.483
 9493SOL     OW29377   4.085   6.020   1.283
 9493SOL    HW129378   4.014   5.983   1.342
 9493SOL    HW229379   4.126   6.100   1.327
 9494SOL     OW29380   5.822   1.678   2.242
 9494SOL    HW129381   5.785   1.750   2.183
 9494SOL    HW229382   5.878   1.720   2.314
 9495SOL     OW29383   0.105   2.456   1.325
 9495SOL    HW129384   0.084   2.553   1.314
 9495SOL    HW229385   0.049   2.417   1.398
 9496SOL     OW29386   5.794   1.988   1.175
 9496SOL    HW129387   5.781   1.990   1.274
 9496SOL    HW229388   5.792   1.893   1.143
 9497SOL     OW29389   4.619   4.359   4.544
 9497SOL    HW129390   4.649   4.393   4.632
 9497SOL    HW229391   4.522   4.337   4.548
 9498SOL     OW29392   0.545   5.812   4.007
 9498SOL    HW129393   0.506   5.720   3.994
 9498SOL    HW229394   0.471   5.879   4.010
 9499SOL     OW29395   6.094   5.730   4.950
 9499SOL    HW129396   6.083   5.684   4.862
 9499SOL    HW229397   6.005   5.760   4.983
 9500SOL     OW29398   3.132   1.979   1.013
 9500SOL    HW129399   3.144   1.885   0.979
 9500SOL    HW229400   3.220   2.012   1.048
 9501SOL     OW29401   1.692   3.622   5.043
 9501SOL    HW129402   1.755   3.544   5.042
 9501SOL    HW229403   1.604   3.593   5.007
 9502SOL     OW29404   5.502   5.016   4.450
 9502SOL    HW129405   5.438   5.008   4.526
 9502SOL    HW229406   5.486   5.102   4.402
 9503SOL     OW29407   6.318   1.210   0.484
 9503SOL    HW129408   6.232   1.175   0.520
 9503SOL    HW229409   6.351   1.284   0.542
 9504SOL     OW29410   5.948   5.366   2.149
 9504SOL    HW129411   6.045   5.375   2.173
 9504SOL    HW229412   5.939   5.319   2.061
 9505SOL     OW29413   4.353   4.779   5.647
 9505SOL    HW129414   4.349   4.719   5.728
 9505SOL    HW229415   4.262   4.785   5.606
 9506SOL     OW29416   2.976   0.958   1.336
 9506SOL    HW129417   2.900   0.982   1.276
 9506SOL    HW229418   3.051   0.921   1.282
 9507SOL     OW29419   5.026   0.018   2.209
 9507SOL    HW129420   5.013   0.061   2.119
 9507SOL    HW229421   5.118   7.000   2.214
 9508SOL     OW29422   4.595   2.229   2.692
 9508SOL    HW129423   4.517   2.167   2.689
 9508SOL    HW229424   4.633   2.230   2.785
 9509SOL     OW29425   5.300   0.683   3.198
 9509SOL    HW129426   5.366   0.753   3.225
 9509SOL    HW229427   5.219   0.690   3.255
 9510SOL     OW29428   1.180   2.924   3.641
 9510SOL    HW129429   1.093   2.915   3.689
 9510SOL    HW229430   1.253   2.884   3.696
 9511SOL     OW29431   0.479   1.833   1.248
 9511SOL    HW129432   0.458   1.746   1.203
 9511SOL    HW229433   0.562   1.824   1.303
 9512SOL     OW29434   6.401   2.252   1.101
 9512SOL    HW129435   6.478   2.226   1.043
 9512SOL    HW229436   6.412   2.211   1.192
 9513SOL     OW29437   4.631   4.042   5.640
 9513SOL    HW129438   4.687   4.000   5.711
 9513SOL    HW229439   4.536   4.046   5.670
 9514SOL     OW29440   3.733   3.007   6.609
 9514SOL    HW129441   3.830   3.020   6.591
 9514SOL    HW229442   3.713   2.909   6.617
 9515SOL     OW29443   0.753   5.831   3.137
 9515SOL    HW129444   0.727   5.737   3.115
 9515SOL    HW229445   0.671   5.884   3.158
 9516SOL     OW29446   0.308   4.723   6.831
 9516SOL    HW129447   0.327   4.631   6.865
 9516SOL    HW229448   0.239   4.718   6.760
 9517SOL     OW29449   0.445   6.302   1.495
 9517SOL    HW129450   0.375   6.230   1.496
 9517SOL    HW229451   0.518   6.279   1.559
 9518SOL     OW29452   1.411   0.762   1.078
 9518SOL    HW129453   1.390   0.664   1.081
 9518SOL    HW229454   1.326   0.814   1.079
 9519SOL     OW29455   1.375   3.322   5.508
 9519SOL    HW129456   1.374   3.257   5.583
 9519SOL    HW229457   1.390   3.414   5.543
 9520SOL     OW29458   4.806   0.333   1.717
 9520SOL    HW129459   4.892   0.285   1.736
 9520SOL    HW229460   4.780   0.387   1.796
 9521SOL     OW29461   5.171   5.278   3.577
 9521SOL    HW129462   5.138   5.324   3.660
 9521SOL    HW229463   5.115   5.196   3.561
 9522SOL     OW29464   3.740   6.474   0.234
 9522SOL    HW129465   3.738   6.574   0.238
 9522SOL    HW229466   3.646   6.439   0.232
 9523SOL     OW29467   2.259   6.342   5.697
 9523SOL    HW129468   2.256   6.358   5.598
 9523SOL    HW229469   2.167   6.322   5.730
 9524SOL     OW29470   4.460   2.295   0.761
 9524SOL    HW129471   4.365   2.275   0.786
 9524SOL    HW229472   4.482   2.251   0.674
 9525SOL     OW29473   3.817   0.104   5.676
 9525SOL    HW129474   3.777   0.031   5.731
 9525SOL    HW229475   3.746   0.143   5.617
 9526SOL     OW29476   4.752   5.889   1.984
 9526SOL    HW129477   4.695   5.841   2.050
 9526SOL    HW229478   4.705   5.893   1.896
 9527SOL     OW29479   6.080   1.967   1.218
 9527SOL    HW129480   6.140   1.904   1.168
 9527SOL    HW229481   6.005   1.996   1.159
 9528SOL     OW29482   6.558   0.747   2.025
 9528SOL    HW129483   6.484   0.681   2.018
 9528SOL    HW229484   6.573   0.772   2.121
 9529SOL     OW29485   1.199   3.512   4.532
 9529SOL    HW129486   1.195   3.461   4.446
 9529SOL    HW229487   1.200   3.448   4.608
 9530SOL     OW29488   1.634   2.620   4.105
 9530SOL    HW129489   1.652   2.690   4.175
 9530SOL    HW229490   1.545   2.636   4.063
 9531SOL     OW29491   2.788   5.924   3.298
 9531SOL    HW129492   2.770   5.918   3.397
 9531SOL    HW229493   2.702   5.940   3.250
 9532SOL     OW29494   2.564   0.800   1.425
 9532SOL    HW129495   2.478   0.839   1.458
 9532SOL    HW229496   2.614   0.869   1.373
 9533SOL     OW29497   1.404   0.322   4.964
 9533SOL    HW129498   1.477   0.389   4.979
 9533SOL    HW229499   1.363   0.337   4.874
 9534SOL     OW29500   4.525   2.105   4.157
 9534SOL    HW129501   4.574   2.169   4.099
 9534SOL    HW229502   4.589   2.037   4.194
 9535SOL     OW29503   2.582   2.173   4.730
 9535SOL    HW129504   2.680   2.193   4.727
 9535SOL    HW229505   2.547   2.161   4.638
 9536SOL     OW29506   3.057   6.753   6.479
 9536SOL    HW129507   3.075   6.791   6.389
 9536SOL    HW229508   3.115   6.673   6.494
 9537SOL     OW29509   2.387   6.596   0.468
 9537SOL    HW129510   2.348   6.685   0.447
 9537SOL    HW229511   2.475   6.608   0.514
 9538SOL     OW29512   5.868   3.653   4.077
 9538SOL    HW129513   5.852   3.750   4.095
 9538SOL    HW229514   5.907   3.611   4.159
 9539SOL     OW29515   0.139   4.280   0.641
 9539SOL    HW129516   0.090   4.334   0.710
 9539SOL    HW229517   0.135   4.183   0.666
 9540SOL     OW29518   5.376   3.456   5.363
 9540SOL    HW129519   5.393   3.417   5.453
 9540SOL    HW229520   5.409   3.551   5.361
 9541SOL     OW29521   0.203   1.222   3.380
 9541SOL    HW129522   0.147   1.262   3.308
 9541SOL    HW229523   0.291   1.193   3.343
 9542SOL     OW29524   4.780   4.143   4.503
 9542SOL    HW129525   4.729   4.221   4.540
 9542SOL    HW229526   4.866   4.175   4.462
 9543SOL     OW29527   5.575   2.021   1.781
 9543SOL    HW129528   5.482   2.056   1.799
 9543SOL    HW229529   5.569   1.931   1.740
 9544SOL     OW29530   3.555   1.774   1.821
 9544SOL    HW129531   3.473   1.830   1.828
 9544SOL    HW229532   3.635   1.831   1.842
 9545SOL     OW29533   0.816   0.334   4.696
 9545SOL    HW129534   0.772   0.346   4.785
 9545SOL    HW229535   0.814   0.421   4.646
 9546SOL     OW29536   2.150   4.250   1.507
 9546SOL    HW129537   2.123   4.249   1.603
 9546SOL    HW229538   2.080   4.298   1.453
 9547SOL     OW29539   6.295   5.641   3.149
 9547SOL    HW129540   6.218   5.577   3.146
 9547SOL    HW229541   6.262   5.734   3.162
 9548SOL     OW29542   4.524   6.771   2.750
 9548SOL    HW129543   4.611   6.818   2.761
 9548SOL    HW229544   4.458   6.808   2.815
 9549SOL     OW29545   2.606   5.375   0.664
 9549SOL    HW129546   2.552   5.371   0.579
 9549SOL    HW229547   2.551   5.340   0.740
 9550SOL     OW29548   1.644   0.880   6.857
 9550SOL    HW129549   1.544   0.891   6.852
 9550SOL    HW229550   1.685   0.968   6.882
 9551SOL     OW29551   1.243   6.307   5.988
 9551SOL    HW129552   1.246   6.364   5.906
 9551SOL    HW229553   1.316   6.239   5.984
 9552SOL     OW29554   0.394   5.384   3.201
 9552SOL    HW129555   0.325   5.312   3.203
 9552SOL    HW229556   0.456   5.374   3.278
 9553SOL     OW29557   5.321   4.362   5.575
 9553SOL    HW129558   5.254   4.375   5.648
 9553SOL    HW229559   5.407   4.406   5.600
 9554SOL     OW29560   1.909   1.369   1.391
 9554SOL    HW129561   1.911   1.381   1.490
 9554SOL    HW229562   1.936   1.455   1.347
 9555SOL     OW29563   6.748   2.798   6.202
 9555SOL    HW129564   6.737   2.745   6.118
 9555SOL    HW229565   6.783   2.739   6.274
 9556SOL     OW29566   6.469   1.585   0.958
 9556SOL    HW129567   6.399   1.636   1.008
 9556SOL    HW229568   6.503   1.640   0.882
 9557SOL     OW29569   5.618   2.328   1.868
 9557SOL    HW129570   5.655   2.376   1.789
 9557SOL    HW229571   5.522   2.353   1.882
 9558SOL     OW29572   5.690   4.578   1.820
 9558SOL    HW129573   5.670   4.489   1.862
 9558SOL    HW229574   5.677   4.572   1.721
 9559SOL     OW29575   6.487   3.206   3.003
 9559SOL    HW129576   6.425   3.279   3.031
 9559SOL    HW229577   6.439   3.142   2.943
 9560SOL     OW29578   3.794   1.872   5.175
 9560SOL    HW129579   3.709   1.821   5.190
 9560SOL    HW229580   3.865   1.837   5.236
 9561SOL     OW29581   3.444   6.449   6.847
 9561SOL    HW129582   3.450   6.352   6.823
 9561SOL    HW229583   3.529   6.495   6.821
 9562SOL     OW29584   6.090   4.503   3.618
 9562SOL    HW129585   6.134   4.553   3.692
 9562SOL    HW229586   6.010   4.553   3.586
 9563SOL     OW29587   0.201   6.186   6.747
 9563SOL    HW129588   0.136   6.249   6.704
 9563SOL    HW229589   0.272   6.161   6.681
 9564SOL     OW29590   2.089   0.268   6.498
 9564SOL    HW129591   1.996   0.281   6.532
 9564SOL    HW229592   2.092   0.186   6.441
 9565SOL     OW29593   3.904   5.679   4.156
 9565SOL    HW129594   3.828   5.737   4.127
 9565SOL    HW229595   3.872   5.615   4.226
 9566SOL     OW29596   3.434   4.783   5.825
 9566SOL    HW129597   3.515   4.836   5.850
 9566SOL    HW229598   3.404   4.730   5.904
 9567SOL     OW29599   6.192   5.437   5.062
 9567SOL    HW129600   6.105   5.411   5.102
 9567SOL    HW229601   6.187   5.431   4.962
 9568SOL     OW29602   5.267   4.055   6.340
 9568SOL    HW129603   5.336   4.126   6.354
 9568SOL    HW229604   5.298   3.993   6.268
 9569SOL     OW29605   5.551   6.642   2.161
 9569SOL    HW129606   5.620   6.570   2.164
 9569SOL    HW229607   5.553   6.694   2.247
 9570SOL     OW29608   0.697   1.090   6.546
 9570SOL    HW129609   0.694   1.103   6.645
 9570SOL    HW229610   0.774   1.142   6.508
 9571SOL     OW29611   2.476   2.836   0.062
 9571SOL    HW129612   2.464   2.916   0.121
 9571SOL    HW229613   2.387   2.807   0.026
 9572SOL     OW29614   0.265   3.806   0.807
 9572SOL    HW129615   0.203   3.806   0.886
 9572SOL    HW229616   0.319   3.890   0.808
 9573SOL     OW29617   5.953   1.256   2.046
 9573SOL    HW129618   5.973   1.324   1.975
 9573SOL    HW229619   5.866   1.212   2.026
 9574SOL     OW29620   2.730   2.005   3.893
 9574SOL    HW129621   2.743   1.915   3.934
 9574SOL    HW229622   2.652   2.051   3.937
 9575SOL     OW29623   4.645   0.832   2.446
 9575SOL    HW129624   4.694   0.812   2.361
 9575SOL    HW229625   4.671   0.924   2.478
 9576SOL     OW29626   4.068   2.712   5.554
 9576SOL    HW129627   4.150   2.754   5.593
 9576SOL    HW229628   3.988   2.768   5.574
 9577SOL     OW29629   0.389   6.137   3.448
 9577SOL    HW129630   0.388   6.070   3.523
 9577SOL    HW229631   0.466   6.200   3.461
 9578SOL     OW29632   6.084   4.131   2.305
 9578SOL    HW129633   6.124   4.119   2.214
 9578SOL    HW229634   6.154   4.163   2.368
 9579SOL     OW29635   1.915   6.595   2.925
 9579SOL    HW129636   2.006   6.635   2.920
 9579SOL    HW229637   1.922   6.495   2.931
 9580SOL     OW29638   4.267   3.229   5.587
 9580SOL    HW129639   4.286   3.208   5.492
 9580SOL    HW229640   4.329   3.301   5.619
 9581SOL     OW29641   1.095   5.378   5.764
 9581SOL    HW129642   1.103   5.458   5.824
 9581SOL    HW229643   1.011   5.386   5.710
 9582SOL     OW29644   4.187   4.742   4.002
 9582SOL    HW129645   4.128   4.823   4.002
 9582SOL    HW229646   4.186   4.700   4.093
 9583SOL     OW29647   2.015   4.877   1.871
 9583SOL    HW129648   1.983   4.782   1.866
 9583SOL    HW229649   2.087   4.892   1.804
 9584SOL     OW29650   5.488   5.197   6.929
 9584SOL    HW129651   5.513   5.292   6.948
 9584SOL    HW229652   5.494   5.143   7.013
 9585SOL     OW29653   1.017   0.255   3.387
 9585SOL    HW129654   1.093   0.316   3.409
 9585SOL    HW229655   0.959   0.297   3.318
 9586SOL     OW29656   5.496   3.128   2.640
 9586SOL    HW129657   5.454   3.104   2.553
 9586SOL    HW229658   5.530   3.045   2.685
 9587SOL     OW29659   4.787   6.393   2.065
 9587SOL    HW129660   4.812   6.466   2.001
 9587SOL    HW229661   4.774   6.308   2.014
 9588SOL     OW29662   6.907   0.599   3.583
 9588SOL    HW129663   6.856   0.516   3.564
 9588SOL    HW229664   7.000   0.575   3.613
 9589SOL     OW29665   3.133   1.928   4.933
 9589SOL    HW129666   3.046   1.975   4.944
 9589SOL    HW229667   3.140   1.855   5.001
 9590SOL     OW29668   0.587   5.179   4.529
 9590SOL    HW129669   0.578   5.112   4.455
 9590SOL    HW229670   0.632   5.137   4.607
 9591SOL     OW29671   1.303   4.784   2.817
 9591SOL    HW129672   1.270   4.854   2.754
 9591SOL    HW229673   1.399   4.765   2.799
 9592SOL     OW29674   4.748   5.904   1.502
 9592SOL    HW129675   4.755   5.925   1.405
 9592SOL    HW229676   4.839   5.905   1.543
 9593SOL     OW29677   2.251   2.954   3.403
 9593SOL    HW129678   2.297   3.017   3.465
 9593SOL    HW229679   2.264   2.860   3.436
 9594SOL     OW29680   6.042   7.014   1.206
 9594SOL    HW129681   6.101   0.064   1.166
 9594SOL    HW229682   5.981   6.978   1.136
 9595SOL     OW29683   1.148   4.552   4.307
 9595SOL    HW129684   1.181   4.563   4.401
 9595SOL    HW229685   1.137   4.455   4.287
 9596SOL     OW29686   5.478   5.393   2.418
 9596SOL    HW129687   5.403   5.330   2.398
 9596SOL    HW229688   5.471   5.473   2.359
 9597SOL     OW29689   1.812   4.489   0.374
 9597SOL    HW129690   1.831   4.441   0.288
 9597SOL    HW229691   1.827   4.587   0.361
 9598SOL     OW29692   1.050   5.599   5.940
 9598SOL    HW129693   1.107   5.679   5.957
 9598SOL    HW229694   1.050   5.540   6.021
 9599SOL     OW29695   4.173   1.534   4.378
 9599SOL    HW129696   4.233   1.475   4.432
 9599SOL    HW229697   4.228   1.585   4.312
 9600SOL     OW29698   1.959   6.048   7.014
 9600SOL    HW129699   1.938   6.048   6.916
 9600SOL    HW229700   2.039   6.106   0.010
 9601SOL     OW29701   0.506   6.856   6.419
 9601SOL    HW129702   0.435   6.921   6.447
 9601SOL    HW229703   0.595   6.888   6.453
 9602SOL     OW29704   0.142   5.304   6.694
 9602SOL    HW129705   0.190   5.387   6.668
 9602SOL    HW229706   0.043   5.316   6.682
 9603SOL     OW29707   1.213   4.874   3.223
 9603SOL    HW129708   1.250   4.800   3.166
 9603SOL    HW229709   1.187   4.837   3.312
 9604SOL     OW29710   6.919   7.007   0.313
 9604SOL    HW129711   6.873   6.924   0.280
 9604SOL    HW229712   6.929   0.052   0.238
 9605SOL     OW29713   2.700   5.457   0.057
 9605SOL    HW129714   2.612   5.411   0.072
 9605SOL    HW229715   2.684   5.542   0.007
 9606SOL     OW29716   6.583   0.244   5.547
 9606SOL    HW129717   6.645   0.185   5.495
 9606SOL    HW229718   6.506   0.189   5.580
 9607SOL     OW29719   0.160   1.842   2.127
 9607SOL    HW129720   0.108   1.873   2.048
 9607SOL    HW229721   0.141   1.902   2.205
 9608SOL     OW29722   6.410   0.039   2.537
 9608SOL    HW129723   6.326   7.012   2.510
 9608SOL    HW229724   6.386   0.119   2.592
 9609SOL     OW29725   1.535   2.007   3.768
 9609SOL    HW129726   1.522   1.925   3.824
 9609SOL    HW229727   1.499   1.991   3.676
 9610SOL     OW29728   3.928   0.895   6.040
 9610SOL    HW129729   3.996   0.910   6.112
 9610SOL    HW229730   3.897   0.800   6.043
 9611SOL     OW29731   5.847   5.814   1.243
 9611SOL    HW129732   5.786   5.762   1.183
 9611SOL    HW229733   5.825   5.911   1.238
 9612SOL     OW29734   5.106   3.611   2.888
 9612SOL    HW129735   5.144   3.535   2.836
 9612SOL    HW229736   5.075   3.579   2.977
 9613SOL     OW29737   6.228   6.708   5.275
 9613SOL    HW129738   6.252   6.657   5.192
 9613SOL    HW229739   6.273   6.665   5.354
 9614SOL     OW29740   3.117   2.720   1.647
 9614SOL    HW129741   3.199   2.663   1.651
 9614SOL    HW229742   3.037   2.664   1.671
 9615SOL     OW29743   0.388   5.938   3.660
 9615SOL    HW129744   0.472   5.900   3.698
 9615SOL    HW229745   0.356   5.882   3.584
 9616SOL     OW29746   1.721   2.863   1.496
 9616SOL    HW129747   1.814   2.873   1.459
 9616SOL    HW229748   1.696   2.946   1.546
 9617SOL     OW29749   0.070   2.956   2.377
 9617SOL    HW129750   0.114   2.899   2.308
 9617SOL    HW229751   6.992   2.945   2.371
 9618SOL     OW29752   4.375   4.171   0.761
 9618SOL    HW129753   4.405   4.187   0.667
 9618SOL    HW229754   4.411   4.083   0.792
 9619SOL     OW29755   1.040   6.666   1.491
 9619SOL    HW129756   1.090   6.645   1.407
 9619SOL    HW229757   0.943   6.648   1.479
 9620SOL     OW29758   3.641   1.941   6.973
 9620SOL    HW129759   3.653   1.848   6.938
 9620SOL    HW229760   3.544   1.959   6.986
 9621SOL     OW29761   0.378   0.921   2.018
 9621SOL    HW129762   0.349   0.969   1.935
 9621SOL    HW229763   0.304   0.862   2.050
 9622SOL     OW29764   6.761   5.481   6.265
 9622SOL    HW129765   6.814   5.418   6.321
 9622SOL    HW229766   6.804   5.571   6.265
 9623SOL     OW29767   3.831   6.353   5.589
 9623SOL    HW129768   3.774   6.401   5.656
 9623SOL    HW229769   3.777   6.287   5.539
 9624SOL     OW29770   4.280   5.414   5.297
 9624SOL    HW129771   4.226   5.330   5.293
 9624SOL    HW229772   4.306   5.441   5.205
 9625SOL     OW29773   5.002   4.069   6.387
 9625SOL    HW129774   4.955   4.010   6.452
 9625SOL    HW229775   5.100   4.050   6.391
 9626SOL     OW29776   2.615   2.310   6.788
 9626SOL    HW129777   2.707   2.343   6.769
 9626SOL    HW229778   2.548   2.380   6.763
 9627SOL     OW29779   0.329   5.186   0.374
 9627SOL    HW129780   0.429   5.191   0.382
 9627SOL    HW229781   0.300   5.091   0.372
 9628SOL     OW29782   6.810   1.657   6.254
 9628SOL    HW129783   6.773   1.628   6.343
 9628SOL    HW229784   6.739   1.707   6.204
 9629SOL     OW29785   0.180   6.425   4.050
 9629SOL    HW129786   0.249   6.353   4.049
 9629SOL    HW229787   0.097   6.393   4.004
 9630SOL     OW29788   5.892   1.576   6.028
 9630SOL    HW129789   5.816   1.549   5.969
 9630SOL    HW229790   5.862   1.648   6.091
 9631SOL     OW29791   4.632   6.833   0.765
 9631SOL    HW129792   4.719   6.820   0.811
 9631SOL    HW229793   4.597   6.744   0.735
 9632SOL     OW29794   2.788   5.033   2.507
 9632SOL    HW129795   2.865   5.066   2.452
 9632SOL    HW229796   2.796   5.067   2.600
 9633SOL     OW29797   3.352   2.986   3.539
 9633SOL    HW129798   3.407   2.947   3.465
 9633SOL    HW229799   3.335   3.083   3.520
 9634SOL     OW29800   4.686   4.742   3.210
 9634SOL    HW129801   4.670   4.731   3.112
 9634SOL    HW229802   4.653   4.832   3.239
 9635SOL     OW29803   0.886   4.832   3.548
 9635SOL    HW129804   0.820   4.905   3.566
 9635SOL    HW229805   0.897   4.776   3.631
 9636SOL     OW29806   5.753   3.888   4.126
 9636SOL    HW129807   5.810   3.961   4.088
 9636SOL    HW229808   5.666   3.885   4.077
 9637SOL     OW29809   1.333   3.576   0.049
 9637SOL    HW129810   1.374   3.484   0.057
 9637SOL    HW229811   1.357   3.615   6.981
 9638SOL     OW29812   5.988   5.377   6.273
 9638SOL    HW129813   6.034   5.401   6.358
 9638SOL    HW229814   6.008   5.282   6.251
 9639SOL     OW29815   4.378   1.804   1.057
 9639SOL    HW129816   4.359   1.896   1.089
 9639SOL    HW229817   4.388   1.742   1.135
 9640SOL     OW29818   4.102   0.578   3.524
 9640SOL    HW129819   4.094   0.501   3.586
 9640SOL    HW229820   4.115   0.662   3.577
 9641SOL     OW29821   6.617   2.621   3.872
 9641SOL    HW129822   6.679   2.694   3.900
 9641SOL    HW229823   6.579   2.576   3.953
 9642SOL     OW29824   0.800   1.616   4.702
 9642SOL    HW129825   0.894   1.597   4.727
 9642SOL    HW229826   0.794   1.632   4.603
 9643SOL     OW29827   5.511   5.077   3.822
 9643SOL    HW129828   5.463   5.158   3.857
 9643SOL    HW229829   5.598   5.104   3.782
 9644SOL     OW29830   0.851   5.207   3.623
 9644SOL    HW129831   0.825   5.303   3.613
 9644SOL    HW229832   0.876   5.188   3.718
 9645SOL     OW29833   0.800   5.022   6.147
 9645SOL    HW129834   0.760   4.931   6.162
 9645SOL    HW229835   0.746   5.090   6.195
 9646SOL     OW29836   3.872   5.772   0.501
 9646SOL    HW129837   3.781   5.813   0.501
 9646SOL    HW229838   3.907   5.769   0.407
 9647SOL     OW29839   5.950   6.455   2.968
 9647SOL    HW129840   5.889   6.508   2.910
 9647SOL    HW229841   6.041   6.450   2.927
 9648SOL     OW29842   3.428   1.610   0.987
 9648SOL    HW129843   3.408   1.682   1.054
 9648SOL    HW229844   3.520   1.624   0.950
 9649SOL     OW29845   0.322   5.573   0.745
 9649SOL    HW129846   0.399   5.636   0.735
 9649SOL    HW229847   0.308   5.553   0.842
 9650SOL     OW29848   0.914   4.930   4.025
 9650SOL    HW129849   0.920   4.851   3.964
 9650SOL    HW229850   0.978   4.918   4.101
 9651SOL     OW29851   3.881   2.126   6.783
 9651SOL    HW129852   3.832   2.112   6.869
 9651SOL    HW229853   3.906   2.037   6.744
 9652SOL     OW29854   0.447   4.324   0.583
 9652SOL    HW129855   0.384   4.261   0.628
 9652SOL    HW229856   0.451   4.409   0.635
 9653SOL     OW29857   5.058   4.385   5.689
 9653SOL    HW129858   5.008   4.472   5.682
 9653SOL    HW229859   5.002   4.312   5.651
 9654SOL     OW29860   3.549   3.591   3.260
 9654SOL    HW129861   3.619   3.580   3.331
 9654SOL    HW229862   3.520   3.686   3.256
 9655SOL     OW29863   4.533   1.562   0.910
 9655SOL    HW129864   4.486   1.637   0.865
 9655SOL    HW229865   4.499   1.551   1.004
 9656SOL     OW29866   5.404   4.261   6.426
 9656SOL    HW129867   5.368   4.332   6.365
 9656SOL    HW229868   5.430   4.303   6.513
 9657SOL     OW29869   5.185   4.623   4.002
 9657SOL    HW129870   5.089   4.609   3.977
 9657SOL    HW229871   5.228   4.684   3.935
 9658SOL     OW29872   4.649   1.522   2.109
 9658SOL    HW129873   4.705   1.590   2.155
 9658SOL    HW229874   4.574   1.568   2.062
 9659SOL     OW29875   2.772   2.776   6.516
 9659SOL    HW129876   2.853   2.833   6.531
 9659SOL    HW229877   2.709   2.823   6.455
 9660SOL     OW29878   1.487   6.641   1.715
 9660SOL    HW129879   1.476   6.547   1.748
 9660SOL    HW229880   1.566   6.644   1.653
 9661SOL     OW29881   3.946   3.925   1.174
 9661SOL    HW129882   3.983   4.016   1.161
 9661SOL    HW229883   3.981   3.886   1.260
 9662SOL     OW29884   5.474   6.710   6.570
 9662SOL    HW129885   5.534   6.696   6.491
 9662SOL    HW229886   5.515   6.777   6.632
 9663SOL     OW29887   1.001   5.272   2.771
 9663SOL    HW129888   0.963   5.237   2.856
 9663SOL    HW229889   1.056   5.202   2.727
 9664SOL     OW29890   3.629   4.939   2.087
 9664SOL    HW129891   3.583   4.878   2.023
 9664SOL    HW229892   3.616   4.907   2.181
 9665SOL     OW29893   6.720   4.642   5.830
 9665SOL    HW129894   6.724   4.672   5.926
 9665SOL    HW229895   6.653   4.698   5.781
 9666SOL     OW29896   5.168   3.913   0.439
 9666SOL    HW129897   5.237   3.874   0.499
 9666SOL    HW229898   5.204   3.996   0.397
 9667SOL     OW29899   5.647   6.239   0.352
 9667SOL    HW129900   5.733   6.190   0.338
 9667SOL    HW229901   5.627   6.294   0.271
 9668SOL     OW29902   1.415   0.931   6.023
 9668SOL    HW129903   1.323   0.966   6.043
 9668SOL    HW229904   1.407   0.846   5.971
 9669SOL     OW29905   2.834   0.533   0.248
 9669SOL    HW129906   2.924   0.492   0.233
 9669SOL    HW229907   2.796   0.499   0.334
 9670SOL     OW29908   0.534   0.347   0.566
 9670SOL    HW129909   0.478   0.402   0.628
 9670SOL    HW229910   0.630   0.357   0.591
 9671SOL     OW29911   0.827   5.158   6.597
 9671SOL    HW129912   0.918   5.120   6.581
 9671SOL    HW229913   0.769   5.089   6.641
 9672SOL     OW29914   1.158   3.802   4.564
 9672SOL    HW129915   1.150   3.703   4.551
 9672SOL    HW229916   1.174   3.846   4.475
 9673SOL     OW29917   1.960   3.655   6.947
 9673SOL    HW129918   1.946   3.711   0.008
 9673SOL    HW229919   2.049   3.610   6.951
 9674SOL     OW29920   1.985   6.361   3.959
 9674SOL    HW129921   2.052   6.337   4.030
 9674SOL    HW229922   1.894   6.365   3.999
 9675SOL     OW29923   6.093   3.556   5.771
 9675SOL    HW129924   6.175   3.515   5.813
 9675SOL    HW229925   6.121   3.627   5.707
 9676SOL     OW29926   0.762   2.941   6.361
 9676SOL    HW129927   0.830   2.981   6.423
 9676SOL    HW229928   0.680   2.998   6.360
 9677SOL     OW29929   6.330   5.198   2.462
 9677SOL    HW129930   6.286   5.109   2.477
 9677SOL    HW229931   6.304   5.261   2.534
 9678SOL     OW29932   3.574   3.892   5.157
 9678SOL    HW129933   3.474   3.891   5.154
 9678SOL    HW229934   3.609   3.920   5.068
 9679SOL     OW29935   1.528   0.796   4.086
 9679SOL    HW129936   1.546   0.872   4.148
 9679SOL    HW229937   1.572   0.713   4.122
 9680SOL     OW29938   4.447   0.263   1.915
 9680SOL    HW129939   4.356   0.242   1.951
 9680SOL    HW229940   4.448   0.247   1.816
 9681SOL     OW29941   1.201   2.446   1.836
 9681SOL    HW129942   1.215   2.396   1.751
 9681SOL    HW229943   1.205   2.384   1.913
 9682SOL     OW29944   5.114   6.523   6.333
 9682SOL    HW129945   5.061   6.594   6.286
 9682SOL    HW229946   5.176   6.480   6.269
 9683SOL     OW29947   3.055   6.248   3.527
 9683SOL    HW129948   3.090   6.338   3.553
 9683SOL    HW229949   3.132   6.186   3.510
 9684SOL     OW29950   6.759   3.293   5.187
 9684SOL    HW129951   6.714   3.257   5.106
 9684SOL    HW229952   6.690   3.330   5.249
 9685SOL     OW29953   3.294   4.372   1.537
 9685SOL    HW129954   3.338   4.297   1.586
 9685SOL    HW229955   3.287   4.452   1.596
 9686SOL     OW29956   6.629   0.980   5.720
 9686SOL    HW129957   6.714   0.964   5.670
 9686SOL    HW229958   6.553   0.986   5.655
 9687SOL     OW29959   4.760   1.048   2.851
 9687SOL    HW129960   4.819   0.974   2.885
 9687SOL    HW229961   4.787   1.134   2.895
 9688SOL     OW29962   0.766   5.011   1.790
 9688SOL    HW129963   0.718   5.077   1.848
 9688SOL    HW229964   0.700   4.942   1.758
 9689SOL     OW29965   2.207   6.080   0.929
 9689SOL    HW129966   2.124   6.134   0.939
 9689SOL    HW229967   2.183   5.985   0.909
 9690SOL     OW29968   0.037   4.826   4.519
 9690SOL    HW129969   0.004   4.739   4.484
 9690SOL    HW229970   0.046   4.891   4.443
 9691SOL     OW29971   2.760   3.412   1.859
 9691SOL    HW129972   2.783   3.409   1.956
 9691SOL    HW229973   2.803   3.334   1.812
 9692SOL     OW29974   5.116   4.569   0.728
 9692SOL    HW129975   5.206   4.610   0.741
 9692SOL    HW229976   5.121   4.471   0.746
 9693SOL     OW29977   4.386   3.184   5.345
 9693SOL    HW129978   4.438   3.102   5.371
 9693SOL    HW229979   4.441   3.265   5.362
 9694SOL     OW29980   3.174   0.095   1.836
 9694SOL    HW129981   3.255   0.051   1.796
 9694SOL    HW229982   3.197   0.130   1.927
 9695SOL     OW29983   0.956   2.881   3.812
 9695SOL    HW129984   0.864   2.882   3.851
 9695SOL    HW229985   1.002   2.796   3.837
 9696SOL     OW29986   5.453   2.552   3.942
 9696SOL    HW129987   5.367   2.579   3.899
 9696SOL    HW229988   5.497   2.482   3.886
 9697SOL     OW29989   6.917   6.394   1.361
 9697SOL    HW129990   6.956   6.486   1.359
 9697SOL    HW229991   6.946   6.343   1.280
 9698SOL     OW29992   6.981   3.127   2.060
 9698SOL    HW129993   6.929   3.206   2.026
 9698SOL    HW229994   6.997   3.137   2.158
 9699SOL     OW29995   2.064   5.821   0.896
 9699SOL    HW129996   1.974   5.825   0.939
 9699SOL    HW229997   2.121   5.753   0.943
 9700SOL     OW29998   5.194   0.258   6.018
 9700SOL    HW129999   5.165   0.258   6.114
 9700SOL    HW230000   5.243   0.343   5.998
 9701SOL     OW30001   5.066   4.055   6.784
 9701SOL    HW130002   5.060   4.061   6.883
 9701SOL    HW230003   5.161   4.052   6.755
 9702SOL     OW30004   3.902   3.864   2.305
 9702SOL    HW130005   3.848   3.928   2.359
 9702SOL    HW230006   3.936   3.791   2.364
 9703SOL     OW30007   6.298   4.612   3.814
 9703SOL    HW130008   6.339   4.687   3.867
 9703SOL    HW230009   6.370   4.558   3.772
 9704SOL     OW30010   1.415   4.466   2.509
 9704SOL    HW130011   1.319   4.446   2.493
 9704SOL    HW230012   1.424   4.550   2.562
 9705SOL     OW30013   0.433   2.740   5.705
 9705SOL    HW130014   0.374   2.662   5.685
 9705SOL    HW230015   0.506   2.744   5.636
 9706SOL     OW30016   0.657   1.274   2.524
 9706SOL    HW130017   0.636   1.362   2.566
 9706SOL    HW230018   0.583   1.246   2.464
 9707SOL     OW30019   0.971   4.891   3.073
 9707SOL    HW130020   0.956   4.989   3.083
 9707SOL    HW230021   1.048   4.862   3.129
 9708SOL     OW30022   2.668   0.472   1.999
 9708SOL    HW130023   2.659   0.383   2.044
 9708SOL    HW230024   2.764   0.500   1.999
 9709SOL     OW30025   5.330   2.105   1.805
 9709SOL    HW130026   5.282   2.183   1.846
 9709SOL    HW230027   5.292   2.087   1.715
 9710SOL     OW30028   5.832   5.443   4.261
 9710SOL    HW130029   5.781   5.401   4.336
 9710SOL    HW230030   5.770   5.460   4.184
 9711SOL     OW30031   3.618   1.433   6.835
 9711SOL    HW130032   3.552   1.374   6.882
 9711SOL    HW230033   3.598   1.436   6.738
 9712SOL     OW30034   5.809   1.118   6.820
 9712SOL    HW130035   5.860   1.035   6.846
 9712SOL    HW230036   5.788   1.114   6.722
 9713SOL     OW30037   2.412   6.676   2.389
 9713SOL    HW130038   2.334   6.686   2.328
 9713SOL    HW230039   2.386   6.620   2.468
 9714SOL     OW30040   2.214   4.241   4.430
 9714SOL    HW130041   2.220   4.150   4.388
 9714SOL    HW230042   2.210   4.231   4.530
 9715SOL     OW30043   6.554   3.419   6.178
 9715SOL    HW130044   6.504   3.419   6.265
 9715SOL    HW230045   6.529   3.500   6.125
 9716SOL     OW30046   2.648   5.640   0.423
 9716SOL    HW130047   2.561   5.595   0.441
 9716SOL    HW230048   2.719   5.571   0.406
 9717SOL     OW30049   3.496   1.998   5.394
 9717SOL    HW130050   3.440   2.056   5.454
 9717SOL    HW230051   3.529   2.053   5.318
 9718SOL     OW30052   4.453   2.254   5.638
 9718SOL    HW130053   4.508   2.268   5.721
 9718SOL    HW230054   4.357   2.248   5.663
 9719SOL     OW30055   5.287   6.737   6.098
 9719SOL    HW130056   5.234   6.689   6.029
 9719SOL    HW230057   5.284   6.836   6.081
 9720SOL     OW30058   1.943   3.110   2.790
 9720SOL    HW130059   1.851   3.072   2.777
 9720SOL    HW230060   2.008   3.061   2.731
 9721SOL     OW30061   1.027   1.105   0.979
 9721SOL    HW130062   0.934   1.119   0.943
 9721SOL    HW230063   1.048   1.178   1.044
 9722SOL     OW30064   4.007   2.261   5.280
 9722SOL    HW130065   3.984   2.210   5.197
 9722SOL    HW230066   3.927   2.314   5.309
 9723SOL     OW30067   6.777   0.424   5.405
 9723SOL    HW130068   6.853   0.415   5.341
 9723SOL    HW230069   6.782   0.514   5.450
 9724SOL     OW30070   1.485   4.532   0.586
 9724SOL    HW130071   1.497   4.579   0.499
 9724SOL    HW230072   1.573   4.497   0.618
 9725SOL     OW30073   4.355   4.870   4.634
 9725SOL    HW130074   4.354   4.847   4.732
 9725SOL    HW230075   4.385   4.791   4.582
 9726SOL     OW30076   0.133   0.465   3.618
 9726SOL    HW130077   0.203   0.531   3.592
 9726SOL    HW230078   0.165   0.411   3.695
 9727SOL     OW30079   6.571   2.103   1.781
 9727SOL    HW130080   6.549   2.153   1.697
 9727SOL    HW230081   6.545   2.159   1.861
 9728SOL     OW30082   5.259   2.398   4.293
 9728SOL    HW130083   5.209   2.401   4.207
 9728SOL    HW230084   5.331   2.467   4.292
 9729SOL     OW30085   0.108   4.882   3.206
 9729SOL    HW130086   0.026   4.935   3.232
 9729SOL    HW230087   0.144   4.837   3.287
 9730SOL     OW30088   1.205   4.668   3.041
 9730SOL    HW130089   1.239   4.700   2.953
 9730SOL    HW230090   1.109   4.694   3.051
 9731SOL     OW30091   5.385   2.903   1.759
 9731SOL    HW130092   5.298   2.926   1.714
 9731SOL    HW230093   5.461   2.937   1.704
 9732SOL     OW30094   1.103   3.801   2.766
 9732SOL    HW130095   1.192   3.842   2.785
 9732SOL    HW230096   1.116   3.708   2.733
 9733SOL     OW30097   6.186   4.903   2.031
 9733SOL    HW130098   6.109   4.952   2.072
 9733SOL    HW230099   6.152   4.834   1.967
 9734SOL     OW30100   5.214   5.059   6.069
 9734SOL    HW130101   5.254   5.030   6.156
 9734SOL    HW230102   5.258   5.009   5.994
 9735SOL     OW30103   0.109   2.649   0.722
 9735SOL    HW130104   0.202   2.670   0.752
 9735SOL    HW230105   0.060   2.600   0.794
 9736SOL     OW30106   4.871   2.049   4.786
 9736SOL    HW130107   4.805   2.121   4.809
 9736SOL    HW230108   4.937   2.085   4.720
 9737SOL     OW30109   6.075   2.915   3.997
 9737SOL    HW130110   6.007   2.988   4.009
 9737SOL    HW230111   6.049   2.860   3.917
 9738SOL     OW30112   2.459   6.581   1.703
 9738SOL    HW130113   2.444   6.506   1.767
 9738SOL    HW230114   2.517   6.549   1.628
 9739SOL     OW30115   6.151   6.762   0.900
 9739SOL    HW130116   6.202   6.839   0.938
 9739SOL    HW230117   6.095   6.794   0.824
 9740SOL     OW30118   6.249   0.598   2.594
 9740SOL    HW130119   6.293   0.569   2.679
 9740SOL    HW230120   6.318   0.634   2.531
 9741SOL     OW30121   2.047   1.778   4.479
 9741SOL    HW130122   2.033   1.716   4.402
 9741SOL    HW230123   2.134   1.758   4.524
 9742SOL     OW30124   3.701   1.916   6.121
 9742SOL    HW130125   3.613   1.921   6.074
 9742SOL    HW230126   3.723   1.820   6.139
 9743SOL     OW30127   5.958   4.041   3.994
 9743SOL    HW130128   6.023   3.977   4.034
 9743SOL    HW230129   5.984   4.061   3.899
 9744SOL     OW30130   2.095   1.691   2.461
 9744SOL    HW130131   2.122   1.596   2.475
 9744SOL    HW230132   2.127   1.722   2.372
 9745SOL     OW30133   0.237   0.574   6.142
 9745SOL    HW130134   0.297   0.622   6.077
 9745SOL    HW230135   0.142   0.594   6.119
 9746SOL     OW30136   3.468   5.967   5.942
 9746SOL    HW130137   3.409   5.902   5.896
 9746SOL    HW230138   3.552   5.979   5.888
 9747SOL     OW30139   2.997   1.492   2.993
 9747SOL    HW130140   3.014   1.461   2.900
 9747SOL    HW230141   3.084   1.498   3.042
 9748SOL     OW30142   1.633   1.410   2.950
 9748SOL    HW130143   1.546   1.403   2.902
 9748SOL    HW230144   1.628   1.485   3.017
 9749SOL     OW30145   6.933   0.148   1.883
 9749SOL    HW130146   6.888   0.136   1.794
 9749SOL    HW230147   0.009   0.171   1.868
 9750SOL     OW30148   5.939   2.702   4.989
 9750SOL    HW130149   5.886   2.704   4.905
 9750SOL    HW230150   5.884   2.739   5.064
 9751SOL     OW30151   3.454   6.892   1.255
 9751SOL    HW130152   3.486   6.834   1.330
 9751SOL    HW230153   3.526   6.902   1.187
 9752SOL     OW30154   3.045   2.684   0.438
 9752SOL    HW130155   3.009   2.772   0.408
 9752SOL    HW230156   3.060   2.625   0.359
 9753SOL     OW30157   6.287   6.308   5.068
 9753SOL    HW130158   6.268   6.257   5.152
 9753SOL    HW230159   6.225   6.278   4.996
 9754SOL     OW30160   3.155   1.351   2.216
 9754SOL    HW130161   3.147   1.365   2.118
 9754SOL    HW230162   3.232   1.290   2.235
 9755SOL     OW30163   3.475   3.932   0.439
 9755SOL    HW130164   3.509   3.930   0.345
 9755SOL    HW230165   3.513   4.010   0.487
 9756SOL     OW30166   5.927   0.256   5.511
 9756SOL    HW130167   5.928   0.211   5.600
 9756SOL    HW230168   5.867   0.205   5.449
 9757SOL     OW30169   5.274   3.912   4.337
 9757SOL    HW130170   5.343   3.983   4.347
 9757SOL    HW230171   5.231   3.918   4.247
 9758SOL     OW30172   2.380   1.081   2.520
 9758SOL    HW130173   2.407   1.035   2.604
 9758SOL    HW230174   2.393   1.180   2.530
 9759SOL     OW30175   6.761   1.735   1.696
 9759SOL    HW130176   6.671   1.754   1.735
 9759SOL    HW230177   6.816   1.818   1.696
 9760SOL     OW30178   4.701   0.280   0.430
 9760SOL    HW130179   4.612   0.279   0.383
 9760SOL    HW230180   4.721   0.372   0.461
 9761SOL     OW30181   1.287   2.856   1.274
 9761SOL    HW130182   1.197   2.827   1.240
 9761SOL    HW230183   1.295   2.830   1.371
 9762SOL     OW30184   2.910   1.661   5.386
 9762SOL    HW130185   2.901   1.601   5.466
 9762SOL    HW230186   2.992   1.717   5.395
 9763SOL     OW30187   6.239   2.236   1.531
 9763SOL    HW130188   6.208   2.322   1.490
 9763SOL    HW230189   6.261   2.251   1.627
 9764SOL     OW30190   0.194   1.995   2.797
 9764SOL    HW130191   0.126   1.923   2.793
 9764SOL    HW230192   0.272   1.971   2.738
 9765SOL     OW30193   6.924   0.453   1.916
 9765SOL    HW130194   6.939   0.356   1.895
 9765SOL    HW230195   6.831   0.479   1.889
 9766SOL     OW30196   1.536   2.057   2.831
 9766SOL    HW130197   1.450   2.009   2.815
 9766SOL    HW230198   1.605   2.027   2.765
 9767SOL     OW30199   2.609   1.301   5.113
 9767SOL    HW130200   2.612   1.365   5.036
 9767SOL    HW230201   2.570   1.347   5.192
 9768SOL     OW30202   5.768   3.010   0.692
 9768SOL    HW130203   5.688   2.951   0.686
 9768SOL    HW230204   5.749   3.097   0.648
 9769SOL     OW30205   3.152   1.757   5.397
 9769SOL    HW130206   3.212   1.725   5.471
 9769SOL    HW230207   3.208   1.793   5.322
 9770SOL     OW30208   1.887   2.852   5.531
 9770SOL    HW130209   1.870   2.943   5.492
 9770SOL    HW230210   1.943   2.861   5.613
 9771SOL     OW30211   3.622   0.140   1.586
 9771SOL    HW130212   3.590   0.205   1.654
 9771SOL    HW230213   3.559   0.137   1.509
 9772SOL     OW30214   1.161   0.626   1.577
 9772SOL    HW130215   1.144   0.551   1.641
 9772SOL    HW230216   1.105   0.613   1.494
 9773SOL     OW30217   5.799   5.494   2.401
 9773SOL    HW130218   5.788   5.593   2.393
 9773SOL    HW230219   5.743   5.448   2.332
 9774SOL     OW30220   1.656   4.589   4.700
 9774SOL    HW130221   1.610   4.542   4.775
 9774SOL    HW230222   1.644   4.687   4.710
 9775SOL     OW30223   2.425   1.344   3.175
 9775SOL    HW130224   2.391   1.413   3.112
 9775SOL    HW230225   2.463   1.388   3.256
 9776SOL     OW30226   2.816   4.893   0.702
 9776SOL    HW130227   2.899   4.868   0.652
 9776SOL    HW230228   2.738   4.895   0.639
 9777SOL     OW30229   4.544   1.090   5.369
 9777SOL    HW130230   4.457   1.071   5.414
 9777SOL    HW230231   4.584   1.173   5.407
 9778SOL     OW30232   1.408   4.321   3.427
 9778SOL    HW130233   1.496   4.340   3.470
 9778SOL    HW230234   1.378   4.401   3.375
 9779SOL     OW30235   2.709   1.083   3.457
 9779SOL    HW130236   2.797   1.117   3.423
 9779SOL    HW230237   2.703   0.985   3.443
 9780SOL     OW30238   0.856   2.544   2.126
 9780SOL    HW130239   0.861   2.644   2.123
 9780SOL    HW230240   0.880   2.507   2.036
 9781SOL     OW30241   1.670   1.636   2.218
 9781SOL    HW130242   1.653   1.541   2.193
 9781SOL    HW230243   1.584   1.680   2.243
 9782SOL     OW30244   0.353   1.916   0.662
 9782SOL    HW130245   0.427   1.866   0.617
 9782SOL    HW230246   0.346   2.008   0.623
 9783SOL     OW30247   4.172   1.349   2.799
 9783SOL    HW130248   4.266   1.316   2.782
 9783SOL    HW230249   4.155   1.351   2.897
 9784SOL     OW30250   2.197   1.334   6.511
 9784SOL    HW130251   2.212   1.315   6.414
 9784SOL    HW230252   2.271   1.292   6.565
 9785SOL     OW30253   0.414   3.785   4.514
 9785SOL    HW130254   0.459   3.867   4.551
 9785SOL    HW230255   0.359   3.742   4.586
 9786SOL     OW30256   2.389   4.401   6.436
 9786SOL    HW130257   2.375   4.486   6.488
 9786SOL    HW230258   2.409   4.326   6.500
 9787SOL     OW30259   2.932   3.799   2.408
 9787SOL    HW130260   2.915   3.702   2.390
 9787SOL    HW230261   2.931   3.850   2.321
 9788SOL     OW30262   3.844   6.658   2.030
 9788SOL    HW130263   3.897   6.731   2.073
 9788SOL    HW230264   3.873   6.647   1.935
 9789SOL     OW30265   3.987   1.686   6.856
 9789SOL    HW130266   3.991   1.754   6.783
 9789SOL    HW230267   4.056   1.615   6.838
 9790SOL     OW30268   5.634   5.803   4.455
 9790SOL    HW130269   5.719   5.823   4.405
 9790SOL    HW230270   5.641   5.712   4.497
 9791SOL     OW30271   0.889   0.165   1.788
 9791SOL    HW130272   0.851   0.137   1.700
 9791SOL    HW230273   0.816   0.200   1.846
 9792SOL     OW30274   3.943   4.720   0.725
 9792SOL    HW130275   3.997   4.798   0.756
 9792SOL    HW230276   4.000   4.638   0.722
 9793SOL     OW30277   5.700   1.015   3.439
 9793SOL    HW130278   5.610   1.034   3.479
 9793SOL    HW230279   5.724   1.089   3.377
 9794SOL     OW30280   4.450   4.646   4.486
 9794SOL    HW130281   4.523   4.611   4.428
 9794SOL    HW230282   4.449   4.596   4.573
 9795SOL     OW30283   1.376   3.627   2.918
 9795SOL    HW130284   1.374   3.670   2.828
 9795SOL    HW230285   1.344   3.532   2.910
 9796SOL     OW30286   3.235   4.061   3.835
 9796SOL    HW130287   3.311   3.996   3.824
 9796SOL    HW230288   3.187   4.042   3.920
 9797SOL     OW30289   2.467   5.108   0.301
 9797SOL    HW130290   2.515   5.143   0.382
 9797SOL    HW230291   2.371   5.136   0.304
 9798SOL     OW30292   6.989   4.088   6.527
 9798SOL    HW130293   6.914   4.078   6.462
 9798SOL    HW230294   7.000   4.003   6.579
 9799SOL     OW30295   3.117   0.288   6.767
 9799SOL    HW130296   3.086   0.199   6.734
 9799SOL    HW230297   3.189   0.323   6.707
 9800SOL     OW30298   6.952   3.162   4.018
 9800SOL    HW130299   6.985   3.192   4.107
 9800SOL    HW230300   0.006   3.121   3.966
 9801SOL     OW30301   5.597   6.393   0.568
 9801SOL    HW130302   5.526   6.463   0.555
 9801SOL    HW230303   5.617   6.350   0.480
 9802SOL     OW30304   4.181   3.912   0.191
 9802SOL    HW130305   4.255   3.868   0.242
 9802SOL    HW230306   4.108   3.846   0.175
 9803SOL     OW30307   0.970   3.144   6.458
 9803SOL    HW130308   1.023   3.063   6.434
 9803SOL    HW230309   0.997   3.220   6.400
 9804SOL     OW30310   0.909   5.111   2.445
 9804SOL    HW130311   0.870   5.032   2.397
 9804SOL    HW230312   0.861   5.125   2.531
 9805SOL     OW30313   0.610   5.802   3.729
 9805SOL    HW130314   0.594   5.793   3.827
 9805SOL    HW230315   0.671   5.729   3.698
 9806SOL     OW30316   3.978   1.885   0.232
 9806SOL    HW130317   3.896   1.941   0.230
 9806SOL    HW230318   4.027   1.895   0.146
 9807SOL     OW30319   3.907   2.966   2.932
 9807SOL    HW130320   3.854   2.885   2.905
 9807SOL    HW230321   3.955   3.002   2.853
 9808SOL     OW30322   4.169   5.721   2.376
 9808SOL    HW130323   4.091   5.779   2.352
 9808SOL    HW230324   4.137   5.633   2.410
 9809SOL     OW30325   6.461   3.484   0.586
 9809SOL    HW130326   6.529   3.468   0.515
 9809SOL    HW230327   6.482   3.429   0.667
 9810SOL     OW30328   3.015   1.873   7.012
 9810SOL    HW130329   3.014   1.875   0.091
 9810SOL    HW230330   3.102   1.836   6.980
 9811SOL     OW30331   5.803   3.806   4.387
 9811SOL    HW130332   5.819   3.820   4.290
 9811SOL    HW230333   5.862   3.868   4.439
 9812SOL     OW30334   3.329   6.245   5.871
 9812SOL    HW130335   3.409   6.278   5.922
 9812SOL    HW230336   3.359   6.182   5.800
 9813SOL     OW30337   5.228   0.532   2.074
 9813SOL    HW130338   5.213   0.534   2.173
 9813SOL    HW230339   5.292   0.605   2.049
 9814SOL     OW30340   5.861   1.178   0.307
 9814SOL    HW130341   5.806   1.099   0.335
 9814SOL    HW230342   5.879   1.236   0.386
 9815SOL     OW30343   4.683   2.745   4.215
 9815SOL    HW130344   4.643   2.836   4.215
 9815SOL    HW230345   4.661   2.698   4.301
 9816SOL     OW30346   2.146   0.682   1.169
 9816SOL    HW130347   2.240   0.646   1.171
 9816SOL    HW230348   2.107   0.678   1.261
 9817SOL     OW30349   6.674   6.872   2.819
 9817SOL    HW130350   6.617   6.796   2.787
 9817SOL    HW230351   6.689   6.936   2.744
 9818SOL     OW30352   5.707   2.928   5.065
 9818SOL    HW130353   5.657   2.961   4.986
 9818SOL    HW230354   5.786   2.987   5.082
 9819SOL     OW30355   4.188   0.743   2.617
 9819SOL    HW130356   4.168   0.664   2.674
 9819SOL    HW230357   4.160   0.725   2.523
 9820SOL     OW30358   4.204   3.056   5.841
 9820SOL    HW130359   4.178   3.099   5.754
 9820SOL    HW230360   4.121   3.033   5.893
 9821SOL     OW30361   6.416   5.048   6.993
 9821SOL    HW130362   6.446   5.139   0.001
 9821SOL    HW230363   6.390   4.995   0.053
 9822SOL     OW30364   0.597   6.937   2.353
 9822SOL    HW130365   0.681   6.984   2.377
 9822SOL    HW230366   0.533   7.002   2.311
 9823SOL     OW30367   3.857   0.496   1.800
 9823SOL    HW130368   3.786   0.515   1.867
 9823SOL    HW230369   3.831   0.535   1.712
 9824SOL     OW30370   1.302   3.791   5.920
 9824SOL    HW130371   1.208   3.773   5.891
 9824SOL    HW230372   1.325   3.887   5.903
 9825SOL     OW30373   4.069   5.296   4.990
 9825SOL    HW130374   4.083   5.263   4.897
 9825SOL    HW230375   4.109   5.388   4.999
 9826SOL     OW30376   5.174   0.681   5.806
 9826SOL    HW130377   5.091   0.722   5.843
 9826SOL    HW230378   5.215   0.621   5.874
 9827SOL     OW30379   1.720   3.821   4.290
 9827SOL    HW130380   1.697   3.840   4.194
 9827SOL    HW230381   1.637   3.801   4.342
 9828SOL     OW30382   3.452   3.142   6.805
 9828SOL    HW130383   3.453   3.200   6.723
 9828SOL    HW230384   3.381   3.173   6.867
 9829SOL     OW30385   3.148   4.430   0.351
 9829SOL    HW130386   3.087   4.500   0.314
 9829SOL    HW230387   3.123   4.411   0.446
 9830SOL     OW30388   6.066   0.432   0.804
 9830SOL    HW130389   5.975   0.469   0.819
 9830SOL    HW230390   6.068   0.378   0.720
 9831SOL     OW30391   6.295   6.975   0.977
 9831SOL    HW130392   6.379   6.986   0.923
 9831SOL    HW230393   6.318   6.978   1.074
 9832SOL     OW30394   4.245   4.319   0.962
 9832SOL    HW130395   4.296   4.263   0.897
 9832SOL    HW230396   4.303   4.339   1.041
 9833SOL     OW30397   3.670   3.971   5.420
 9833SOL    HW130398   3.634   3.958   5.327
 9833SOL    HW230399   3.672   3.883   5.467
 9834SOL     OW30400   0.676   3.313   4.448
 9834SOL    HW130401   0.655   3.411   4.452
 9834SOL    HW230402   0.775   3.299   4.447
 9835SOL     OW30403   5.127   1.553   4.106
 9835SOL    HW130404   5.119   1.561   4.007
 9835SOL    HW230405   5.059   1.613   4.149
 9836SOL     OW30406   4.935   5.336   3.238
 9836SOL    HW130407   4.991   5.372   3.312
 9836SOL    HW230408   4.889   5.411   3.191
 9837SOL     OW30409   2.035   6.217   4.232
 9837SOL    HW130410   2.020   6.123   4.264
 9837SOL    HW230411   1.978   6.280   4.286
 9838SOL     OW30412   0.475   5.668   6.041
 9838SOL    HW130413   0.502   5.753   5.995
 9838SOL    HW230414   0.524   5.591   6.000
 9839SOL     OW30415   6.944   1.543   1.941
 9839SOL    HW130416   7.009   1.470   1.964
 9839SOL    HW230417   6.930   1.545   1.842
 9840SOL     OW30418   7.014   0.446   1.315
 9840SOL    HW130419   0.074   0.430   1.259
 9840SOL    HW230420   0.014   0.424   1.410
 9841SOL     OW30421   1.783   3.764   3.961
 9841SOL    HW130422   1.708   3.706   3.992
 9841SOL    HW230423   1.870   3.714   3.972
 9842SOL     OW30424   3.423   2.977   2.304
 9842SOL    HW130425   3.323   2.970   2.307
 9842SOL    HW230426   3.457   2.932   2.221
 9843SOL     OW30427   5.941   2.840   2.069
 9843SOL    HW130428   5.934   2.771   1.998
 9843SOL    HW230429   5.850   2.866   2.100
 9844SOL     OW30430   5.139   6.699   2.766
 9844SOL    HW130431   5.067   6.676   2.832
 9844SOL    HW230432   5.107   6.773   2.707
 9845SOL     OW30433   0.664   2.178   3.308
 9845SOL    HW130434   0.738   2.111   3.313
 9845SOL    HW230435   0.581   2.133   3.275
 9846SOL     OW30436   2.963   3.348   2.902
 9846SOL    HW130437   2.866   3.324   2.905
 9846SOL    HW230438   3.018   3.265   2.900
 9847SOL     OW30439   2.169   4.114   5.799
 9847SOL    HW130440   2.161   4.186   5.868
 9847SOL    HW230441   2.263   4.113   5.763
 9848SOL     OW30442   4.843   3.465   0.162
 9848SOL    HW130443   4.790   3.550   0.150
 9848SOL    HW230444   4.893   3.445   0.078
 9849SOL     OW30445   0.384   0.121   6.062
 9849SOL    HW130446   0.434   0.200   6.096
 9849SOL    HW230447   0.302   0.151   6.014
 9850SOL     OW30448   3.722   6.395   2.545
 9850SOL    HW130449   3.720   6.318   2.608
 9850SOL    HW230450   3.651   6.385   2.476
 9851SOL     OW30451   5.781   1.879   5.501
 9851SOL    HW130452   5.709   1.947   5.482
 9851SOL    HW230453   5.871   1.922   5.493
 9852SOL     OW30454   4.985   1.671   3.859
 9852SOL    HW130455   5.002   1.768   3.839
 9852SOL    HW230456   4.968   1.623   3.773
 9853SOL     OW30457   6.211   3.958   2.063
 9853SOL    HW130458   6.293   4.016   2.060
 9853SOL    HW230459   6.142   3.995   2.000
 9854SOL     OW30460   5.255   5.539   4.075
 9854SOL    HW130461   5.223   5.527   4.169
 9854SOL    HW230462   5.310   5.622   4.068
 9855SOL     OW30463   1.132   3.449   1.529
 9855SOL    HW130464   1.144   3.358   1.488
 9855SOL    HW230465   1.202   3.463   1.599
 9856SOL     OW30466   3.937   2.791   1.113
 9856SOL    HW130467   3.976   2.848   1.185
 9856SOL    HW230468   3.905   2.705   1.151
 9857SOL     OW30469   5.361   4.053   3.424
 9857SOL    HW130470   5.435   3.992   3.398
 9857SOL    HW230471   5.285   4.042   3.359
 9858SOL     OW30472   5.172   0.522   1.806
 9858SOL    HW130473   5.215   0.531   1.896
 9858SOL    HW230474   5.232   0.473   1.744
 9859SOL     OW30475   6.430   0.381   2.437
 9859SOL    HW130476   6.508   0.348   2.383
 9859SOL    HW230477   6.347   0.373   2.383
 9860SOL     OW30478   0.334   0.942   2.373
 9860SOL    HW130479   0.379   0.863   2.332
 9860SOL    HW230480   0.235   0.931   2.366
 9861SOL     OW30481   3.816   6.811   4.487
 9861SOL    HW130482   3.820   6.717   4.453
 9861SOL    HW230483   3.901   6.859   4.465
 9862SOL     OW30484   1.155   2.404   0.585
 9862SOL    HW130485   1.246   2.443   0.567
 9862SOL    HW230486   1.151   2.373   0.680
 9863SOL     OW30487   3.320   7.008   1.638
 9863SOL    HW130488   3.328   0.046   1.557
 9863SOL    HW230489   3.362   6.919   1.619
 9864SOL     OW30490   4.841   5.524   2.117
 9864SOL    HW130491   4.902   5.527   2.037
 9864SOL    HW230492   4.887   5.566   2.195
 9865SOL     OW30493   0.557   1.429   4.595
 9865SOL    HW130494   0.590   1.487   4.669
 9865SOL    HW230495   0.607   1.342   4.596
 9866SOL     OW30496   4.651   4.297   3.932
 9866SOL    HW130497   4.583   4.361   3.967
 9866SOL    HW230498   4.718   4.276   4.004
 9867SOL     OW30499   4.643   1.078   0.034
 9867SOL    HW130500   4.550   1.072   7.018
 9867SOL    HW230501   4.707   1.099   6.980
 9868SOL     OW30502   0.025   5.181   0.121
 9868SOL    HW130503   0.026   5.096   0.174
 9868SOL    HW230504   0.027   5.259   0.184
 9869SOL     OW30505   1.705   4.301   2.970
 9869SOL    HW130506   1.759   4.252   3.038
 9869SOL    HW230507   1.684   4.392   3.004
 9870SOL     OW30508   4.879   4.819   2.808
 9870SOL    HW130509   4.822   4.883   2.859
 9870SOL    HW230510   4.975   4.847   2.816
 9871SOL     OW30511   2.340   0.948   5.255
 9871SOL    HW130512   2.263   0.995   5.212
 9871SOL    HW230513   2.420   0.954   5.196
 9872SOL     OW30514   1.970   4.780   3.397
 9872SOL    HW130515   2.060   4.822   3.408
 9872SOL    HW230516   1.962   4.701   3.457
 9873SOL     OW30517   1.364   2.760   0.169
 9873SOL    HW130518   1.331   2.698   0.097
 9873SOL    HW230519   1.440   2.717   0.217
 9874SOL     OW30520   0.617   2.892   3.832
 9874SOL    HW130521   0.633   2.800   3.797
 9874SOL    HW230522   0.634   2.894   3.931
 9875SOL     OW30523   1.307   0.424   3.499
 9875SOL    HW130524   1.401   0.455   3.516
 9875SOL    HW230525   1.300   0.389   3.406
 9876SOL     OW30526   0.186   6.335   2.582
 9876SOL    HW130527   0.232   6.280   2.652
 9876SOL    HW230528   0.249   6.352   2.507
 9877SOL     OW30529   2.956   7.018   2.544
 9877SOL    HW130530   3.001   6.984   2.462
 9877SOL    HW230531   2.858   6.999   2.538
 9878SOL     OW30532   0.543   6.334   5.253
 9878SOL    HW130533   0.612   6.363   5.187
 9878SOL    HW230534   0.527   6.408   5.319
 9879SOL     OW30535   4.392   5.797   5.909
 9879SOL    HW130536   4.403   5.731   5.983
 9879SOL    HW230537   4.475   5.853   5.901
 9880SOL     OW30538   1.833   1.441   5.673
 9880SOL    HW130539   1.864   1.362   5.621
 9880SOL    HW230540   1.878   1.443   5.762
 9881SOL     OW30541   0.504   2.169   6.164
 9881SOL    HW130542   0.538   2.098   6.103
 9881SOL    HW230543   0.466   2.128   6.246
 9882SOL     OW30544   1.396   1.890   4.063
 9882SOL    HW130545   1.377   1.842   4.149
 9882SOL    HW230546   1.422   1.824   3.993
 9883SOL     OW30547   1.595   0.850   2.269
 9883SOL    HW130548   1.647   0.782   2.320
 9883SOL    HW230549   1.658   0.916   2.227
 9884SOL     OW30550   3.913   0.362   4.304
 9884SOL    HW130551   3.828   0.333   4.261
 9884SOL    HW230552   3.952   0.286   4.357
 9885SOL     OW30553   6.176   4.700   4.225
 9885SOL    HW130554   6.138   4.750   4.147
 9885SOL    HW230555   6.247   4.756   4.268
 9886SOL     OW30556   1.025   4.187   2.310
 9886SOL    HW130557   0.988   4.279   2.322
 9886SOL    HW230558   0.956   4.120   2.339
 9887SOL     OW30559   4.017   1.008   6.836
 9887SOL    HW130560   3.967   1.037   6.917
 9887SOL    HW230561   4.076   1.082   6.804
 9888SOL     OW30562   0.182   4.343   0.367
 9888SOL    HW130563   0.173   4.328   0.466
 9888SOL    HW230564   0.206   4.439   0.351
 9889SOL     OW30565   6.384   4.919   0.250
 9889SOL    HW130566   6.288   4.902   0.274
 9889SOL    HW230567   6.414   5.004   0.293
 9890SOL     OW30568   1.406   2.691   0.993
 9890SOL    HW130569   1.471   2.627   1.034
 9890SOL    HW230570   1.395   2.770   1.054
 9891SOL     OW30571   5.216   2.457   0.749
 9891SOL    HW130572   5.296   2.482   0.804
 9891SOL    HW230573   5.176   2.540   0.709
 9892SOL     OW30574   6.706   5.191   6.812
 9892SOL    HW130575   6.680   5.164   6.905
 9892SOL    HW230576   6.627   5.184   6.752
 9893SOL     OW30577   2.602   1.677   0.523
 9893SOL    HW130578   2.508   1.656   0.548
 9893SOL    HW230579   2.663   1.640   0.594
 9894SOL     OW30580   1.515   2.158   0.249
 9894SOL    HW130581   1.454   2.124   0.320
 9894SOL    HW230582   1.489   2.116   0.161
 9895SOL     OW30583   5.442   3.334   5.605
 9895SOL    HW130584   5.366   3.285   5.648
 9895SOL    HW230585   5.438   3.430   5.632
 9896SOL     OW30586   6.218   0.060   0.109
 9896SOL    HW130587   6.274   6.998   0.096
 9896SOL    HW230588   6.272   0.130   0.156
 9897SOL     OW30589   5.447   5.368   3.251
 9897SOL    HW130590   5.443   5.313   3.335
 9897SOL    HW230591   5.441   5.308   3.172
 9898SOL     OW30592   3.389   6.356   5.510
 9898SOL    HW130593   3.327   6.401   5.574
 9898SOL    HW230594   3.395   6.259   5.530
 9899SOL     OW30595   0.123   5.600   6.900
 9899SOL    HW130596   0.075   5.680   6.863
 9899SOL    HW230597   0.063   5.521   6.897
 9900SOL     OW30598   2.170   3.871   3.427
 9900SOL    HW130599   2.190   3.936   3.353
 9900SOL    HW230600   2.199   3.910   3.514
 9901SOL     OW30601   2.415   1.883   5.279
 9901SOL    HW130602   2.427   1.785   5.295
 9901SOL    HW230603   2.348   1.896   5.206
 9902SOL     OW30604   2.324   4.589   6.623
 9902SOL    HW130605   2.414   4.619   6.591
 9902SOL    HW230606   2.332   4.557   6.718
 9903SOL     OW30607   4.951   0.929   3.014
 9903SOL    HW130608   4.902   0.984   3.082
 9903SOL    HW230609   5.006   0.990   2.956
 9904SOL     OW30610   6.777   3.134   6.543
 9904SOL    HW130611   6.729   3.216   6.573
 9904SOL    HW230612   6.757   3.117   6.446
 9905SOL     OW30613   4.026   1.851   0.797
 9905SOL    HW130614   4.016   1.809   0.706
 9905SOL    HW230615   4.034   1.779   0.866
 9906SOL     OW30616   4.022   3.098   3.147
 9906SOL    HW130617   4.006   3.046   3.231
 9906SOL    HW230618   3.975   3.054   3.071
 9907SOL     OW30619   0.567   0.244   2.123
 9907SOL    HW130620   0.501   0.170   2.139
 9907SOL    HW230621   0.646   0.209   2.074
 9908SOL     OW30622   5.131   3.081   3.101
 9908SOL    HW130623   5.201   3.132   3.050
 9908SOL    HW230624   5.053   3.141   3.119
 9909SOL     OW30625   1.981   6.432   4.757
 9909SOL    HW130626   2.011   6.522   4.791
 9909SOL    HW230627   2.006   6.362   4.824
 9910SOL     OW30628   0.855   4.582   3.023
 9910SOL    HW130629   0.909   4.497   3.024
 9910SOL    HW230630   0.880   4.636   2.943
 9911SOL     OW30631   3.459   6.773   1.556
 9911SOL    HW130632   3.424   6.688   1.518
 9911SOL    HW230633   3.533   6.754   1.620
 9912SOL     OW30634   4.764   1.879   0.727
 9912SOL    HW130635   4.782   1.977   0.732
 9912SOL    HW230636   4.668   1.861   0.749
 9913SOL     OW30637   5.859   3.196   0.129
 9913SOL    HW130638   5.916   3.225   0.206
 9913SOL    HW230639   5.901   3.116   0.086
 9914SOL     OW30640   0.489   2.666   4.848
 9914SOL    HW130641   0.487   2.586   4.908
 9914SOL    HW230642   0.446   2.744   4.893
 9915SOL     OW30643   5.377   1.304   3.223
 9915SOL    HW130644   5.324   1.327   3.304
 9915SOL    HW230645   5.393   1.387   3.169
 9916SOL     OW30646   2.258   2.822   2.301
 9916SOL    HW130647   2.250   2.725   2.320
 9916SOL    HW230648   2.312   2.835   2.217
 9917SOL     OW30649   6.723   4.391   5.382
 9917SOL    HW130650   6.647   4.333   5.351
 9917SOL    HW230651   6.777   4.420   5.302
 9918SOL     OW30652   3.904   1.879   3.145
 9918SOL    HW130653   3.948   1.931   3.219
 9918SOL    HW230654   3.809   1.860   3.169
 9919SOL     OW30655   6.180   5.706   0.911
 9919SOL    HW130656   6.115   5.738   0.843
 9919SOL    HW230657   6.230   5.784   0.949
 9920SOL     OW30658   4.448   1.642   2.824
 9920SOL    HW130659   4.416   1.638   2.729
 9920SOL    HW230660   4.519   1.573   2.838
 9921SOL     OW30661   3.547   5.462   6.040
 9921SOL    HW130662   3.558   5.479   5.942
 9921SOL    HW230663   3.538   5.549   6.088
 9922SOL     OW30664   0.467   5.759   0.988
 9922SOL    HW130665   0.527   5.685   0.959
 9922SOL    HW230666   0.479   5.775   1.086
 9923SOL     OW30667   4.885   5.148   6.978
 9923SOL    HW130668   4.832   5.174   0.038
 9923SOL    HW230669   4.982   5.168   6.994
 9924SOL     OW30670   0.815   3.556   5.086
 9924SOL    HW130671   0.799   3.626   5.156
 9924SOL    HW230672   0.863   3.479   5.127
 9925SOL     OW30673   5.120   2.730   4.491
 9925SOL    HW130674   5.073   2.701   4.408
 9925SOL    HW230675   5.120   2.830   4.497
 9926SOL     OW30676   1.840   4.471   6.816
 9926SOL    HW130677   1.765   4.408   6.794
 9926SOL    HW230678   1.913   4.461   6.749
 9927SOL     OW30679   6.233   7.011   3.114
 9927SOL    HW130680   6.293   0.029   3.184
 9927SOL    HW230681   6.237   6.911   3.119
 9928SOL     OW30682   4.756   4.441   1.253
 9928SOL    HW130683   4.712   4.446   1.343
 9928SOL    HW230684   4.794   4.530   1.229
 9929SOL     OW30685   2.591   4.639   4.561
 9929SOL    HW130686   2.602   4.602   4.653
 9929SOL    HW230687   2.628   4.575   4.494
 9930SOL     OW30688   6.828   0.362   4.521
 9930SOL    HW130689   6.808   0.366   4.619
 9930SOL    HW230690   6.744   0.378   4.469
 9931SOL     OW30691   0.965   4.280   4.783
 9931SOL    HW130692   0.968   4.260   4.880
 9931SOL    HW230693   1.019   4.212   4.733
 9932SOL     OW30694   0.771   6.387   6.191
 9932SOL    HW130695   0.867   6.370   6.170
 9932SOL    HW230696   0.718   6.394   6.107
 9933SOL     OW30697   1.035   5.360   2.378
 9933SOL    HW130698   0.987   5.273   2.391
 9933SOL    HW230699   1.068   5.366   2.283
 9934SOL     OW30700   6.627   1.963   5.613
 9934SOL    HW130701   6.666   1.882   5.570
 9934SOL    HW230702   6.533   1.943   5.641
 9935SOL     OW30703   3.152   0.960   6.517
 9935SOL    HW130704   3.085   1.015   6.467
 9935SOL    HW230705   3.203   0.903   6.453
 9936SOL     OW30706   0.545   4.537   4.121
 9936SOL    HW130707   0.503   4.454   4.159
 9936SOL    HW230708   0.626   4.561   4.175
 9937SOL     OW30709   0.101   2.126   5.825
 9937SOL    HW130710   0.015   2.090   5.861
 9937SOL    HW230711   0.173   2.117   5.894
 9938SOL     OW30712   6.390   6.160   2.688
 9938SOL    HW130713   6.436   6.202   2.767
 9938SOL    HW230714   6.431   6.194   2.604
 9939SOL     OW30715   3.033   3.002   1.731
 9939SOL    HW130716   3.038   2.903   1.727
 9939SOL    HW230717   3.059   3.041   1.642
 9940SOL     OW30718   6.864   0.957   0.921
 9940SOL    HW130719   6.913   0.904   0.851
 9940SOL    HW230720   6.910   1.045   0.933
 9941SOL     OW30721   3.074   4.469   5.739
 9941SOL    HW130722   3.060   4.401   5.667
 9941SOL    HW230723   2.985   4.492   5.780
 9942SOL     OW30724   2.610   5.624   3.059
 9942SOL    HW130725   2.522   5.645   3.016
 9942SOL    HW230726   2.633   5.528   3.042
 9943SOL     OW30727   0.637   5.888   6.167
 9943SOL    HW130728   0.672   5.830   6.240
 9943SOL    HW230729   0.538   5.898   6.178
 9944SOL     OW30730   0.918   3.940   6.858
 9944SOL    HW130731   0.907   3.852   6.904
 9944SOL    HW230732   1.009   3.946   6.819
 9945SOL     OW30733   6.469   5.160   0.339
 9945SOL    HW130734   6.462   5.232   0.408
 9945SOL    HW230735   6.437   5.195   0.251
 9946SOL     OW30736   5.053   0.800   5.169
 9946SOL    HW130737   4.970   0.837   5.127
 9946SOL    HW230738   5.105   0.747   5.102
 9947SOL     OW30739   6.373   4.630   4.502
 9947SOL    HW130740   6.347   4.727   4.502
 9947SOL    HW230741   6.472   4.623   4.509
 9948SOL     OW30742   4.786   4.572   5.029
 9948SOL    HW130743   4.796   4.510   4.952
 9948SOL    HW230744   4.702   4.551   5.079
 9949SOL     OW30745   5.496   5.214   3.015
 9949SOL    HW130746   5.569   5.153   3.047
 9949SOL    HW230747   5.514   5.240   2.920
 9950SOL     OW30748   4.203   6.204   5.445
 9950SOL    HW130749   4.126   6.156   5.402
 9950SOL    HW230750   4.168   6.279   5.501
 9951SOL     OW30751   5.756   2.487   2.648
 9951SOL    HW130752   5.699   2.551   2.595
 9951SOL    HW230753   5.766   2.521   2.741
 9952SOL     OW30754   6.854   4.500   0.302
 9952SOL    HW130755   6.782   4.500   0.232
 9952SOL    HW230756   6.814   4.477   0.391
 9953SOL     OW30757   6.477   1.046   3.908
 9953SOL    HW130758   6.482   1.146   3.908
 9953SOL    HW230759   6.493   1.011   4.000
 9954SOL     OW30760   5.508   0.015   5.405
 9954SOL    HW130761   5.506   6.937   5.419
 9954SOL    HW230762   5.441   0.041   5.336
 9955SOL     OW30763   0.326   3.840   4.258
 9955SOL    HW130764   0.362   3.821   4.349
 9955SOL    HW230765   0.382   3.795   4.189
 9956SOL     OW30766   1.840   6.424   1.730
 9956SOL    HW130767   1.920   6.386   1.683
 9956SOL    HW230768   1.788   6.481   1.666
 9957SOL     OW30769   6.634   4.214   3.746
 9957SOL    HW130770   6.694   4.291   3.767
 9957SOL    HW230771   6.551   4.247   3.702
 9958SOL     OW30772   2.578   3.848   1.384
 9958SOL    HW130773   2.609   3.900   1.464
 9958SOL    HW230774   2.518   3.905   1.328
 9959SOL     OW30775   4.187   3.518   0.148
 9959SOL    HW130776   4.283   3.515   0.176
 9959SOL    HW230777   4.172   3.456   0.071
 9960SOL     OW30778   6.972   1.513   2.690
 9960SOL    HW130779   6.944   1.558   2.605
 9960SOL    HW230780   0.012   1.436   2.669
 9961SOL     OW30781   2.088   5.559   4.522
 9961SOL    HW130782   2.069   5.649   4.561
 9961SOL    HW230783   2.140   5.504   4.588
 9962SOL     OW30784   4.559   6.435   5.046
 9962SOL    HW130785   4.588   6.526   5.076
 9962SOL    HW230786   4.459   6.430   5.047
 9963SOL     OW30787   3.181   1.272   0.770
 9963SOL    HW130788   3.176   1.355   0.715
 9963SOL    HW230789   3.089   1.249   0.803
 9964SOL     OW30790   4.177   5.970   5.069
 9964SOL    HW130791   4.138   6.033   5.002
 9964SOL    HW230792   4.198   5.883   5.024
 9965SOL     OW30793   4.454   0.317   0.334
 9965SOL    HW130794   4.358   0.311   0.362
 9965SOL    HW230795   4.469   0.405   0.288
 9966SOL     OW30796   0.707   6.568   2.094
 9966SOL    HW130797   0.758   6.521   2.166
 9966SOL    HW230798   0.767   6.584   2.016
 9967SOL     OW30799   1.420   5.725   1.119
 9967SOL    HW130800   1.444   5.783   1.197
 9967SOL    HW230801   1.428   5.778   1.034
 9968SOL     OW30802   4.161   3.349   2.076
 9968SOL    HW130803   4.182   3.384   1.985
 9968SOL    HW230804   4.155   3.426   2.140
 9969SOL     OW30805   1.267   3.482   2.051
 9969SOL    HW130806   1.193   3.537   2.013
 9969SOL    HW230807   1.355   3.525   2.032
 9970SOL     OW30808   5.721   4.039   1.550
 9970SOL    HW130809   5.653   4.029   1.477
 9970SOL    HW230810   5.777   3.956   1.554
 9971SOL     OW30811   2.096   4.608   0.710
 9971SOL    HW130812   2.168   4.569   0.767
 9971SOL    HW230813   2.074   4.701   0.742
 9972SOL     OW30814   6.943   4.277   2.288
 9972SOL    HW130815   6.897   4.363   2.312
 9972SOL    HW230816   6.998   4.246   2.365
 9973SOL     OW30817   6.162   1.067   4.322
 9973SOL    HW130818   6.171   1.156   4.278
 9973SOL    HW230819   6.093   1.072   4.395
 9974SOL     OW30820   1.875   1.154   4.252
 9974SOL    HW130821   1.874   1.197   4.342
 9974SOL    HW230822   1.866   1.224   4.181
 9975SOL     OW30823   0.798   2.835   0.364
 9975SOL    HW130824   0.833   2.893   0.290
 9975SOL    HW230825   0.717   2.877   0.404
 9976SOL     OW30826   1.862   6.988   4.936
 9976SOL    HW130827   1.835   0.062   4.917
 9976SOL    HW230828   1.865   6.973   5.035
 9977SOL     OW30829   6.338   4.384   4.764
 9977SOL    HW130830   6.390   4.397   4.679
 9977SOL    HW230831   6.402   4.379   4.841
 9978SOL     OW30832   6.505   1.670   4.379
 9978SOL    HW130833   6.517   1.678   4.280
 9978SOL    HW230834   6.416   1.628   4.399
 9979SOL     OW30835   6.815   3.663   5.322
 9979SOL    HW130836   6.798   3.596   5.394
 9979SOL    HW230837   6.766   3.635   5.239
 9980SOL     OW30838   3.902   0.149   6.122
 9980SOL    HW130839   3.887   0.246   6.103
 9980SOL    HW230840   3.986   0.138   6.177
 9981SOL     OW30841   3.146   2.010   3.955
 9981SOL    HW130842   3.143   2.002   4.054
 9981SOL    HW230843   3.093   2.091   3.927
 9982SOL     OW30844   6.899   6.442   4.429
 9982SOL    HW130845   6.830   6.505   4.467
 9982SOL    HW230846   6.953   6.404   4.504
 9983SOL     OW30847   0.107   1.341   1.760
 9983SOL    HW130848   0.029   1.379   1.710
 9983SOL    HW230849   0.178   1.314   1.695
 9984SOL     OW30850   3.154   1.758   6.631
 9984SOL    HW130851   3.151   1.659   6.618
 9984SOL    HW230852   3.171   1.780   6.727
 9985SOL     OW30853   1.355   0.476   2.116
 9985SOL    HW130854   1.267   0.445   2.152
 9985SOL    HW230855   1.364   0.575   2.129
 9986SOL     OW30856   5.211   4.180   4.873
 9986SOL    HW130857   5.288   4.160   4.812
 9986SOL    HW230858   5.218   4.274   4.905
 9987SOL     OW30859   6.697   3.961   6.152
 9987SOL    HW130860   6.612   3.972   6.101
 9987SOL    HW230861   6.775   3.982   6.092
 9988SOL     OW30862   6.907   6.733   5.237
 9988SOL    HW130863   6.945   6.815   5.194
 9988SOL    HW230864   6.833   6.759   5.299
 9989SOL     OW30865   0.674   3.276   5.365
 9989SOL    HW130866   0.762   3.247   5.329
 9989SOL    HW230867   0.601   3.220   5.324
 9990SOL     OW30868   1.292   5.384   2.663
 9990SOL    HW130869   1.282   5.299   2.715
 9990SOL    HW230870   1.289   5.364   2.565
 9991SOL     OW30871   3.749   2.142   3.686
 9991SOL    HW130872   3.781   2.111   3.775
 9991SOL    HW230873   3.651   2.124   3.678
 9992SOL     OW30874   6.544   5.271   5.924
 9992SOL    HW130875   6.595   5.214   5.860
 9992SOL    HW230876   6.519   5.358   5.880
 9993SOL     OW30877   0.783   1.390   1.929
 9993SOL    HW130878   0.693   1.426   1.906
 9993SOL    HW230879   0.853   1.437   1.876
 9994SOL     OW30880   5.654   4.633   3.325
 9994SOL    HW130881   5.667   4.686   3.241
 9994SOL    HW230882   5.644   4.536   3.301
 9995SOL     OW30883   5.096   1.081   4.655
 9995SOL    HW130884   5.142   1.106   4.571
 9995SOL    HW230885   5.050   1.161   4.693
 9996SOL     OW30886   2.360   3.830   6.956
 9996SOL    HW130887   2.358   3.730   6.948
 9996SOL    HW230888   2.302   3.870   6.885
 9997SOL     OW30889   2.756   0.181   5.131
 9997SOL    HW130890   2.657   0.176   5.138
 9997SOL    HW230891   2.788   0.126   5.054
 9998SOL     OW30892   6.035   5.643   5.331
 9998SOL    HW130893   6.021   5.582   5.253
 9998SOL    HW230894   5.947   5.661   5.376
 9999SOL     OW30895   6.755   2.142   5.210
 9999SOL    HW130896   6.759   2.209   5.137
 9999SOL    HW230897   6.769   2.050   5.172
10000SOL     OW30898   0.227   2.901   6.603
10000SOL    HW130899   0.148   2.960   6.585
10000SOL    HW230900   0.239   2.890   6.702
10001SOL     OW30901   4.090   0.057   2.638
10001SOL    HW130902   4.093   0.099   2.728
10001SOL    HW230903   4.176   0.074   2.589
10002SOL     OW30904   0.647   1.048   2.178
10002SOL    HW130905   0.564   1.031   2.231
10002SOL    HW230906   0.622   1.086   2.089
10003SOL     OW30907   4.521   2.048   3.568
10003SOL    HW130908   4.472   2.089   3.645
10003SOL    HW230909   4.456   2.019   3.498
10004SOL     OW30910   0.232   1.530   3.178
10004SOL    HW130911   0.297   1.586   3.126
10004SOL    HW230912   0.163   1.493   3.115
10005SOL     OW30913   5.234   6.538   4.494
10005SOL    HW130914   5.304   6.481   4.539
10005SOL    HW230915   5.176   6.480   4.437
10006SOL     OW30916   3.556   0.358   4.494
10006SOL    HW130917   3.629   0.424   4.483
10006SOL    HW230918   3.469   0.406   4.510
10007SOL     OW30919   6.439   3.252   3.763
10007SOL    HW130920   6.486   3.179   3.712
10007SOL    HW230921   6.342   3.231   3.770
10008SOL     OW30922   3.428   6.961   4.059
10008SOL    HW130923   3.382   6.874   4.040
10008SOL    HW230924   3.390   7.001   4.142
10009SOL     OW30925   0.909   4.486   1.764
10009SOL    HW130926   0.987   4.491   1.701
10009SOL    HW230927   0.887   4.390   1.782
10010SOL     OW30928   0.904   1.191   6.324
10010SOL    HW130929   0.932   1.154   6.235
10010SOL    HW230930   0.825   1.251   6.311
10011SOL     OW30931   0.021   6.614   5.011
10011SOL    HW130932   6.987   6.591   5.091
10011SOL    HW230933   0.054   6.708   5.018
10012SOL     OW30934   5.713   1.372   3.791
10012SOL    HW130935   5.657   1.452   3.813
10012SOL    HW230936   5.688   1.296   3.851
10013SOL     OW30937   0.663   0.361   3.143
10013SOL    HW130938   0.618   0.448   3.125
10013SOL    HW230939   0.760   0.367   3.118
10014SOL     OW30940   1.181   4.590   5.874
10014SOL    HW130941   1.204   4.686   5.859
10014SOL    HW230942   1.082   4.580   5.880
10015SOL     OW30943   1.911   4.415   0.139
10015SOL    HW130944   1.901   4.497   0.083
10015SOL    HW230945   1.939   4.338   0.082
10016SOL     OW30946   2.348   0.562   5.725
10016SOL    HW130947   2.346   0.575   5.824
10016SOL    HW230948   2.440   0.533   5.698
10017SOL     OW30949   1.401   2.191   4.597
10017SOL    HW130950   1.498   2.191   4.573
10017SOL    HW230951   1.361   2.103   4.571
10018SOL     OW30952   5.046   0.023   6.509
10018SOL    HW130953   4.988   0.080   6.452
10018SOL    HW230954   5.097   6.980   6.451
10019SOL     OW30955   1.070   1.211   2.810
10019SOL    HW130956   1.153   1.263   2.787
10019SOL    HW230957   1.000   1.228   2.741
10020SOL     OW30958   0.649   3.041   0.998
10020SOL    HW130959   0.653   3.052   0.899
10020SOL    HW230960   0.737   3.006   1.031
10021SOL     OW30961   6.810   3.736   0.434
10021SOL    HW130962   6.761   3.690   0.360
10021SOL    HW230963   6.905   3.751   0.407
10022SOL     OW30964   1.721   1.102   6.547
10022SOL    HW130965   1.814   1.141   6.541
10022SOL    HW230966   1.654   1.174   6.526
10023SOL     OW30967   6.876   3.339   0.710
10023SOL    HW130968   6.914   3.418   0.662
10023SOL    HW230969   6.856   3.267   0.644
10024SOL     OW30970   1.688   4.674   3.858
10024SOL    HW130971   1.717   4.769   3.863
10024SOL    HW230972   1.766   4.614   3.873
10025SOL     OW30973   1.430   1.374   0.700
10025SOL    HW130974   1.486   1.378   0.617
10025SOL    HW230975   1.464   1.302   0.760
10026SOL     OW30976   6.898   0.630   3.914
10026SOL    HW130977   6.854   0.554   3.867
10026SOL    HW230978   6.903   0.709   3.852
10027SOL     OW30979   4.611   2.593   5.619
10027SOL    HW130980   4.533   2.591   5.681
10027SOL    HW230981   4.578   2.597   5.525
10028SOL     OW30982   1.656   0.865   1.059
10028SOL    HW130983   1.698   0.895   1.145
10028SOL    HW230984   1.559   0.848   1.073
10029SOL     OW30985   5.684   2.050   3.650
10029SOL    HW130986   5.770   2.004   3.670
10029SOL    HW230987   5.702   2.143   3.618
10030SOL     OW30988   1.964   0.537   3.679
10030SOL    HW130989   1.883   0.480   3.689
10030SOL    HW230990   1.980   0.557   3.582
10031SOL     OW30991   6.801   4.432   4.793
10031SOL    HW130992   6.741   4.511   4.808
10031SOL    HW230993   6.752   4.349   4.819
10032SOL     OW30994   2.947   1.499   4.810
10032SOL    HW130995   2.879   1.527   4.742
10032SOL    HW230996   2.974   1.404   4.793
10033SOL     OW30997   5.398   2.412   4.806
10033SOL    HW130998   5.356   2.432   4.717
10033SOL    HW230999   5.330   2.426   4.879
10034SOL     OW31000   5.386   0.814   6.322
10034SOL    HW131001   5.378   0.715   6.332
10034SOL    HW231002   5.457   0.835   6.255
10035SOL     OW31003   0.269   6.574   2.174
10035SOL    HW131004   0.277   6.647   2.241
10035SOL    HW231005   0.349   6.513   2.181
10036SOL     OW31006   0.087   0.913   0.566
10036SOL    HW131007   0.080   1.008   0.597
10036SOL    HW231008   0.014   0.859   0.610
10037SOL     OW31009   0.571   6.860   1.036
10037SOL    HW131010   0.600   6.942   0.987
10037SOL    HW231011   0.502   6.811   0.982
10038SOL     OW31012   6.634   0.850   1.203
10038SOL    HW131013   6.621   0.947   1.181
10038SOL    HW231014   6.732   0.832   1.216
10039SOL     OW31015   3.164   0.569   3.260
10039SOL    HW131016   3.160   0.489   3.200
10039SOL    HW231017   3.255   0.610   3.255
10040SOL     OW31018   0.881   3.086   1.180
10040SOL    HW131019   0.901   3.181   1.154
10040SOL    HW231020   0.913   3.070   1.274
10041SOL     OW31021   2.149   5.823   0.053
10041SOL    HW131022   2.086   5.874   7.016
10041SOL    HW231023   2.179   5.881   0.129
10042SOL     OW31024   5.765   3.277   2.699
10042SOL    HW131025   5.677   3.314   2.730
10042SOL    HW231026   5.750   3.187   2.657
10043SOL     OW31027   0.583   2.398   4.641
10043SOL    HW131028   0.595   2.494   4.618
10043SOL    HW231029   0.492   2.384   4.681
10044SOL     OW31030   3.758   1.370   5.653
10044SOL    HW131031   3.725   1.396   5.562
10044SOL    HW231032   3.722   1.280   5.676
10045SOL     OW31033   2.633   1.120   0.468
10045SOL    HW131034   2.621   1.025   0.500
10045SOL    HW231035   2.723   1.129   0.425
10046SOL     OW31036   0.831   5.256   0.897
10046SOL    HW131037   0.923   5.248   0.936
10046SOL    HW231038   0.826   5.203   0.813
10047SOL     OW31039   0.965   3.758   1.242
10047SOL    HW131040   1.014   3.730   1.159
10047SOL    HW231041   0.999   3.706   1.320
10048SOL     OW31042   5.754   5.068   3.107
10048SOL    HW131043   5.743   5.048   3.205
10048SOL    HW231044   5.769   5.166   3.095
10049SOL     OW31045   6.539   0.714   5.452
10049SOL    HW131046   6.502   0.684   5.365
10049SOL    HW231047   6.502   0.805   5.474
10050SOL     OW31048   0.286   2.645   6.802
10050SOL    HW131049   0.264   2.604   6.891
10050SOL    HW231050   0.378   2.683   6.806
10051SOL     OW31051   2.533   2.108   4.078
10051SOL    HW131052   2.573   2.048   4.148
10051SOL    HW231053   2.554   2.203   4.100
10052SOL     OW31054   1.077   6.758   3.425
10052SOL    HW131055   1.158   6.719   3.381
10052SOL    HW231056   0.996   6.710   3.392
10053SOL     OW31057   5.945   5.079   3.513
10053SOL    HW131058   6.003   4.998   3.504
10053SOL    HW231059   5.866   5.070   3.452
10054SOL     OW31060   6.849   3.716   4.724
10054SOL    HW131061   6.835   3.804   4.767
10054SOL    HW231062   6.770   3.657   4.739
10055SOL     OW31063   1.465   2.663   6.511
10055SOL    HW131064   1.563   2.649   6.503
10055SOL    HW231065   1.430   2.704   6.427
10056SOL     OW31066   5.946   1.965   3.590
10056SOL    HW131067   5.988   1.923   3.509
10056SOL    HW231068   5.984   1.923   3.672
10057SOL     OW31069   5.488   5.196   5.538
10057SOL    HW131070   5.457   5.153   5.623
10057SOL    HW231071   5.567   5.147   5.503
10058SOL     OW31072   0.093   3.642   4.902
10058SOL    HW131073   0.006   3.659   4.857
10058SOL    HW231074   0.084   3.567   4.968
10059SOL     OW31075   5.498   0.120   0.177
10059SOL    HW131076   5.590   0.132   0.215
10059SOL    HW231077   5.494   0.158   0.085
10060SOL     OW31078   2.735   2.079   1.737
10060SOL    HW131079   2.751   2.069   1.835
10060SOL    HW231080   2.759   1.994   1.690
10061SOL     OW31081   3.470   6.946   2.013
10061SOL    HW131082   3.515   6.950   1.924
10061SOL    HW231083   3.430   0.014   2.034
10062SOL     OW31084   0.799   6.625   4.965
10062SOL    HW131085   0.733   6.700   4.978
10062SOL    HW231086   0.878   6.639   5.024
10063SOL     OW31087   2.187   2.430   5.329
10063SOL    HW131088   2.260   2.488   5.292
10063SOL    HW231089   2.103   2.483   5.337
10064SOL     OW31090   2.600   6.935   0.419
10064SOL    HW131091   2.597   7.004   0.491
10064SOL    HW231092   2.507   6.904   0.398
10065SOL     OW31093   0.436   2.222   1.792
10065SOL    HW131094   0.529   2.208   1.827
10065SOL    HW231095   0.419   2.160   1.716
10066SOL     OW31096   6.358   4.463   4.244
10066SOL    HW131097   6.405   4.454   4.332
10066SOL    HW231098   6.311   4.551   4.241
10067SOL     OW31099   6.746   2.592   5.049
10067SOL    HW131100   6.690   2.628   5.124
10067SOL    HW231101   6.727   2.644   4.966
10068SOL     OW31102   1.483   3.685   2.628
10068SOL    HW131103   1.582   3.676   2.620
10068SOL    HW231104   1.439   3.607   2.585
10069SOL     OW31105   3.048   4.660   0.259
10069SOL    HW131106   3.000   4.676   0.345
10069SOL    HW231107   3.069   4.748   0.216
10070SOL     OW31108   4.683   6.940   6.832
10070SOL    HW131109   4.712   6.895   6.748
10070SOL    HW231110   4.764   6.960   6.888
10071SOL     OW31111   5.829   0.549   5.191
10071SOL    HW131112   5.856   0.543   5.287
10071SOL    HW231113   5.737   0.585   5.184
10072SOL     OW31114   6.188   3.271   1.559
10072SOL    HW131115   6.129   3.213   1.615
10072SOL    HW231116   6.204   3.225   1.471
10073SOL     OW31117   5.911   4.684   4.745
10073SOL    HW131118   5.830   4.628   4.724
10073SOL    HW231119   5.964   4.696   4.661
10074SOL     OW31120   2.404   4.864   0.535
10074SOL    HW131121   2.309   4.894   0.534
10074SOL    HW231122   2.429   4.829   0.445
10075SOL     OW31123   0.989   3.067   1.952
10075SOL    HW131124   1.088   3.072   1.938
10075SOL    HW231125   0.968   3.082   2.049
10076SOL     OW31126   5.604   5.196   4.120
10076SOL    HW131127   5.522   5.232   4.076
10076SOL    HW231128   5.611   5.233   4.213
10077SOL     OW31129   4.434   4.240   6.577
10077SOL    HW131130   4.394   4.195   6.657
10077SOL    HW231131   4.367   4.303   6.538
10078SOL     OW31132   6.474   5.514   4.893
10078SOL    HW131133   6.537   5.545   4.965
10078SOL    HW231134   6.415   5.590   4.865
10079SOL     OW31135   4.803   3.918   4.014
10079SOL    HW131136   4.780   3.989   4.081
10079SOL    HW231137   4.818   3.961   3.925
10080SOL     OW31138   5.192   1.508   5.849
10080SOL    HW131139   5.188   1.531   5.752
10080SOL    HW231140   5.154   1.584   5.902
10081SOL     OW31141   0.975   4.633   0.979
10081SOL    HW131142   1.029   4.684   1.046
10081SOL    HW231143   1.035   4.577   0.923
10082SOL     OW31144   1.087   4.613   1.573
10082SOL    HW131145   1.183   4.594   1.593
10082SOL    HW231146   1.056   4.692   1.625
10083SOL     OW31147   2.636   6.073   2.256
10083SOL    HW131148   2.735   6.079   2.240
10083SOL    HW231149   2.607   5.977   2.246
10084SOL     OW31150   0.604   1.960   4.649
10084SOL    HW131151   0.668   1.945   4.724
10084SOL    HW231152   0.520   1.999   4.684
10085SOL     OW31153   5.502   6.776   1.188
10085SOL    HW131154   5.405   6.754   1.193
10085SOL    HW231155   5.515   6.873   1.167
10086SOL     OW31156   4.529   6.264   3.255
10086SOL    HW131157   4.564   6.303   3.170
10086SOL    HW231158   4.533   6.164   3.249
10087SOL     OW31159   1.595   5.626   5.344
10087SOL    HW131160   1.687   5.643   5.379
10087SOL    HW231161   1.574   5.528   5.350
10088SOL     OW31162   6.304   2.897   1.818
10088SOL    HW131163   6.336   2.987   1.849
10088SOL    HW231164   6.335   2.882   1.724
10089SOL     OW31165   3.819   0.624   1.558
10089SOL    HW131166   3.778   0.714   1.570
10089SOL    HW231167   3.809   0.595   1.463
10090SOL     OW31168   1.961   6.736   3.315
10090SOL    HW131169   2.022   6.781   3.250
10090SOL    HW231170   1.986   6.639   3.322
10091SOL     OW31171   5.585   4.763   4.662
10091SOL    HW131172   5.650   4.753   4.586
10091SOL    HW231173   5.553   4.857   4.667
10092SOL     OW31174   1.131   2.497   4.182
10092SOL    HW131175   1.062   2.449   4.237
10092SOL    HW231176   1.222   2.460   4.202
10093SOL     OW31177   4.327   4.011   6.091
10093SOL    HW131178   4.332   4.080   6.019
10093SOL    HW231179   4.268   4.043   6.165
10094SOL     OW31180   3.399   1.983   1.124
10094SOL    HW131181   3.377   1.894   1.164
10094SOL    HW231182   3.478   2.023   1.171
10095SOL     OW31183   4.177   3.322   5.175
10095SOL    HW131184   4.241   3.287   5.243
10095SOL    HW231185   4.132   3.246   5.129
10096SOL     OW31186   6.719   3.291   2.188
10096SOL    HW131187   6.753   3.296   2.094
10096SOL    HW231188   6.622   3.315   2.189
10097SOL     OW31189   0.277   1.401   1.037
10097SOL    HW131190   0.367   1.404   0.993
10097SOL    HW231191   0.247   1.495   1.055
10098SOL     OW31192   3.324   5.421   4.454
10098SOL    HW131193   3.285   5.428   4.546
10098SOL    HW231194   3.286   5.341   4.408
10099SOL     OW31195   0.013   5.303   3.106
10099SOL    HW131196   0.052   5.391   3.080
10099SOL    HW231197   6.988   5.261   3.028
10100SOL     OW31198   5.464   4.775   3.884
10100SOL    HW131199   5.513   4.704   3.834
10100SOL    HW231200   5.482   4.864   3.842
10101SOL     OW31201   6.688   3.061   0.242
10101SOL    HW131202   6.648   3.001   0.173
10101SOL    HW231203   6.749   3.127   0.198
10102SOL     OW31204   6.848   4.814   3.546
10102SOL    HW131205   6.937   4.814   3.590
10102SOL    HW231206   6.789   4.883   3.588
10103SOL     OW31207   0.597   6.302   6.890
10103SOL    HW131208   0.577   6.364   6.814
10103SOL    HW231209   0.535   6.321   6.966
10104SOL     OW31210   2.990   0.954   4.634
10104SOL    HW131211   2.891   0.965   4.628
10104SOL    HW231212   3.035   1.028   4.584
10105SOL     OW31213   2.755   1.003   4.043
10105SOL    HW131214   2.811   1.080   4.012
10105SOL    HW231215   2.723   1.020   4.136
10106SOL     OW31216   5.277   4.269   1.506
10106SOL    HW131217   5.249   4.358   1.543
10106SOL    HW231218   5.311   4.212   1.580
10107SOL     OW31219   5.386   5.549   6.777
10107SOL    HW131220   5.366   5.616   6.706
10107SOL    HW231221   5.482   5.523   6.772
10108SOL     OW31222   1.981   2.744   4.877
10108SOL    HW131223   2.031   2.661   4.851
10108SOL    HW231224   2.040   2.824   4.862
10109SOL     OW31225   1.147   2.322   0.848
10109SOL    HW131226   1.103   2.392   0.904
10109SOL    HW231227   1.196   2.258   0.906
10110SOL     OW31228   5.703   5.981   2.456
10110SOL    HW131229   5.749   6.048   2.398
10110SOL    HW231230   5.690   6.018   2.547
10111SOL     OW31231   6.596   2.310   1.969
10111SOL    HW131232   6.682   2.350   1.999
10111SOL    HW231233   6.527   2.382   1.960
10112SOL     OW31234   6.234   2.410   3.646
10112SOL    HW131235   6.147   2.455   3.665
10112SOL    HW231236   6.246   2.332   3.707
10113SOL     OW31237   6.058   0.287   6.376
10113SOL    HW131238   6.121   0.239   6.316
10113SOL    HW231239   6.085   0.273   6.472
10114SOL     OW31240   5.808   3.222   2.025
10114SOL    HW131241   5.832   3.142   1.971
10114SOL    HW231242   5.890   3.257   2.071
10115SOL     OW31243   3.202   2.680   5.767
10115SOL    HW131244   3.228   2.735   5.687
10115SOL    HW231245   3.170   2.741   5.840
10116SOL     OW31246   0.589   0.421   6.367
10116SOL    HW131247   0.602   0.322   6.358
10116SOL    HW231248   0.632   0.452   6.452
10117SOL     OW31249   6.896   4.061   2.805
10117SOL    HW131250   6.925   4.000   2.879
10117SOL    HW231251   6.892   4.155   2.839
10118SOL     OW31252   3.854   5.035   3.706
10118SOL    HW131253   3.769   5.075   3.739
10118SOL    HW231254   3.909   5.105   3.661
10119SOL     OW31255   5.870   6.467   6.713
10119SOL    HW131256   5.885   6.547   6.772
10119SOL    HW231257   5.772   6.456   6.696
10120SOL     OW31258   2.635   2.084   3.457
10120SOL    HW131259   2.558   2.114   3.513
10120SOL    HW231260   2.695   2.025   3.512
10121SOL     OW31261   6.782   5.153   1.481
10121SOL    HW131262   6.738   5.170   1.569
10121SOL    HW231263   6.876   5.187   1.483
10122SOL     OW31264   2.240   0.376   3.358
10122SOL    HW131265   2.338   0.357   3.348
10122SOL    HW231266   2.217   0.380   3.455
10123SOL     OW31267   6.966   5.745   6.394
10123SOL    HW131268   6.954   5.739   6.294
10123SOL    HW231269   7.017   5.828   6.417
10124SOL     OW31270   2.287   5.499   2.243
10124SOL    HW131271   2.266   5.402   2.254
10124SOL    HW231272   2.265   5.528   2.150
10125SOL     OW31273   0.833   0.810   4.789
10125SOL    HW131274   0.912   0.871   4.802
10125SOL    HW231275   0.776   0.813   4.870
10126SOL     OW31276   6.608   6.140   5.724
10126SOL    HW131277   6.606   6.217   5.787
10126SOL    HW231278   6.621   6.173   5.630
10127SOL     OW31279   2.085   6.475   6.035
10127SOL    HW131280   2.136   6.560   6.042
10127SOL    HW231281   2.073   6.451   5.939
10128SOL     OW31282   2.233   2.515   6.895
10128SOL    HW131283   2.315   2.490   6.947
10128SOL    HW231284   2.225   2.614   6.892
10129SOL     OW31285   6.200   2.033   4.887
10129SOL    HW131286   6.231   2.124   4.861
10129SOL    HW231287   6.231   1.967   4.818
10130SOL     OW31288   0.599   1.885   3.775
10130SOL    HW131289   0.651   1.960   3.816
10130SOL    HW231290   0.658   1.805   3.765
10131SOL     OW31291   1.994   6.638   5.062
10131SOL    HW131292   1.954   6.669   4.976
10131SOL    HW231293   2.082   6.682   5.077
10132SOL     OW31294   5.320   6.877   2.477
10132SOL    HW131295   5.305   6.909   2.383
10132SOL    HW231296   5.418   6.871   2.494
10133SOL     OW31297   5.418   6.533   0.875
10133SOL    HW131298   5.347   6.581   0.926
10133SOL    HW231299   5.502   6.532   0.928
10134SOL     OW31300   0.336   6.807   3.547
10134SOL    HW131301   0.358   6.881   3.610
10134SOL    HW231302   0.243   6.818   3.512
10135SOL     OW31303   6.464   6.791   3.207
10135SOL    HW131304   6.493   6.703   3.170
10135SOL    HW231305   6.486   6.864   3.142
10136SOL     OW31306   4.696   1.312   3.225
10136SOL    HW131307   4.712   1.383   3.293
10136SOL    HW231308   4.602   1.279   3.232
10137SOL     OW31309   6.597   5.709   4.564
10137SOL    HW131310   6.695   5.722   4.578
10137SOL    HW231311   6.566   5.766   4.488
10138SOL     OW31312   6.979   2.648   2.010
10138SOL    HW131313   7.017   2.667   1.919
10138SOL    HW231314   6.912   2.575   2.003
10139SOL     OW31315   3.031   3.049   6.443
10139SOL    HW131316   2.995   3.143   6.445
10139SOL    HW231317   3.077   3.033   6.355
10140SOL     OW31318   0.649   5.847   5.170
10140SOL    HW131319   0.691   5.759   5.149
10140SOL    HW231320   0.690   5.919   5.114
10141SOL     OW31321   1.704   2.363   4.067
10141SOL    HW131322   1.684   2.460   4.082
10141SOL    HW231323   1.675   2.336   3.975
10142SOL     OW31324   4.858   5.569   3.125
10142SOL    HW131325   4.867   5.642   3.058
10142SOL    HW231326   4.879   5.603   3.216
10143SOL     OW31327   5.724   2.927   5.893
10143SOL    HW131328   5.795   2.969   5.835
10143SOL    HW231329   5.635   2.940   5.850
10144SOL     OW31330   3.222   0.373   0.866
10144SOL    HW131331   3.225   0.330   0.956
10144SOL    HW231332   3.281   0.454   0.866
10145SOL     OW31333   6.620   6.650   6.271
10145SOL    HW131334   6.635   6.618   6.178
10145SOL    HW231335   6.543   6.714   6.273
10146SOL     OW31336   1.540   2.922   5.449
10146SOL    HW131337   1.554   2.931   5.548
10146SOL    HW231338   1.578   3.003   5.403
10147SOL     OW31339   3.837   5.882   6.401
10147SOL    HW131340   3.893   5.876   6.483
10147SOL    HW231341   3.742   5.860   6.425
10148SOL     OW31342   0.559   4.735   6.679
10148SOL    HW131343   0.481   4.751   6.740
10148SOL    HW231344   0.599   4.646   6.699
10149SOL     OW31345   3.443   3.653   1.626
10149SOL    HW131346   3.396   3.671   1.713
10149SOL    HW231347   3.483   3.738   1.592
10150SOL     OW31348   4.793   4.232   1.087
10150SOL    HW131349   4.713   4.172   1.093
10150SOL    HW231350   4.785   4.305   1.154
10151SOL     OW31351   6.912   0.643   6.359
10151SOL    HW131352   6.897   0.700   6.278
10151SOL    HW231353   6.930   0.702   6.438
10152SOL     OW31354   3.854   6.825   2.710
10152SOL    HW131355   3.804   6.740   2.727
10152SOL    HW231356   3.845   6.850   2.613
10153SOL     OW31357   4.503   4.018   1.618
10153SOL    HW131358   4.535   4.070   1.539
10153SOL    HW231359   4.456   4.080   1.681
10154SOL     OW31360   3.630   5.459   5.289
10154SOL    HW131361   3.541   5.505   5.286
10154SOL    HW231362   3.648   5.416   5.201
10155SOL     OW31363   4.378   1.616   3.588
10155SOL    HW131364   4.397   1.678   3.511
10155SOL    HW231365   4.299   1.649   3.639
10156SOL     OW31366   4.067   1.528   6.005
10156SOL    HW131367   4.074   1.628   6.011
10156SOL    HW231368   4.047   1.491   6.096
10157SOL     OW31369   0.525   4.673   1.375
10157SOL    HW131370   0.484   4.592   1.418
10157SOL    HW231371   0.608   4.699   1.424
10158SOL     OW31372   5.620   5.386   6.673
10158SOL    HW131373   5.708   5.373   6.717
10158SOL    HW231374   5.559   5.311   6.696
10159SOL     OW31375   3.329   2.816   1.883
10159SOL    HW131376   3.237   2.815   1.923
10159SOL    HW231377   3.331   2.879   1.806
10160SOL     OW31378   0.162   3.831   2.516
10160SOL    HW131379   0.193   3.854   2.424
10160SOL    HW231380   0.239   3.838   2.580
10161SOL     OW31381   5.337   3.343   5.977
10161SOL    HW131382   5.420   3.355   6.031
10161SOL    HW231383   5.349   3.265   5.915
10162SOL     OW31384   1.857   2.949   2.496
10162SOL    HW131385   1.762   2.916   2.505
10162SOL    HW231386   1.914   2.875   2.460
10163SOL     OW31387   3.121   5.091   4.878
10163SOL    HW131388   3.040   5.126   4.831
10163SOL    HW231389   3.114   4.991   4.887
10164SOL     OW31390   0.087   1.139   3.635
10164SOL    HW131391   0.133   1.166   3.720
10164SOL    HW231392   0.152   1.145   3.559
10165SOL     OW31393   1.297   3.497   3.979
10165SOL    HW131394   1.281   3.586   3.937
10165SOL    HW231395   1.334   3.435   3.910
10166SOL     OW31396   2.757   6.122   2.662
10166SOL    HW131397   2.755   6.034   2.709
10166SOL    HW231398   2.673   6.173   2.684
10167SOL     OW31399   2.648   2.332   6.288
10167SOL    HW131400   2.716   2.322   6.215
10167SOL    HW231401   2.565   2.283   6.263
10168SOL     OW31402   0.297   0.255   0.072
10168SOL    HW131403   0.274   0.244   0.169
10168SOL    HW231404   0.368   0.324   0.063
10169SOL     OW31405   4.704   5.199   3.647
10169SOL    HW131406   4.726   5.108   3.681
10169SOL    HW231407   4.715   5.200   3.547
10170SOL     OW31408   5.064   6.524   0.455
10170SOL    HW131409   4.996   6.458   0.424
10170SOL    HW231410   5.091   6.501   0.549
10171SOL     OW31411   2.227   4.285   4.950
10171SOL    HW131412   2.278   4.206   4.983
10171SOL    HW231413   2.286   4.339   4.888
10172SOL     OW31414   0.149   0.959   2.626
10172SOL    HW131415   0.154   0.963   2.527
10172SOL    HW231416   0.240   0.939   2.663
10173SOL     OW31417   3.836   3.455   5.074
10173SOL    HW131418   3.769   3.521   5.109
10173SOL    HW231419   3.811   3.431   4.980
10174SOL     OW31420   4.569   5.126   0.871
10174SOL    HW131421   4.507   5.158   0.943
10174SOL    HW231422   4.651   5.184   0.870
10175SOL     OW31423   6.328   6.892   4.765
10175SOL    HW131424   6.313   6.932   4.675
10175SOL    HW231425   6.243   6.855   4.801
10176SOL     OW31426   0.415   0.441   4.583
10176SOL    HW131427   0.444   0.501   4.658
10176SOL    HW231428   0.316   0.451   4.568
10177SOL     OW31429   2.748   0.568   4.285
10177SOL    HW131430   2.806   0.506   4.233
10177SOL    HW231431   2.659   0.577   4.239
10178SOL     OW31432   0.702   1.840   1.424
10178SOL    HW131433   0.702   1.940   1.430
10178SOL    HW231434   0.780   1.810   1.370
10179SOL     OW31435   0.034   5.735   0.776
10179SOL    HW131436   0.117   5.787   0.794
10179SOL    HW231437   0.058   5.644   0.743
10180SOL     OW31438   3.709   6.708   6.615
10180SOL    HW131439   3.788   6.768   6.628
10180SOL    HW231440   3.722   6.624   6.668
10181SOL     OW31441   6.762   3.549   3.475
10181SOL    HW131442   6.708   3.563   3.558
10181SOL    HW231443   6.846   3.500   3.497
10182SOL     OW31444   4.111   0.768   0.909
10182SOL    HW131445   4.059   0.774   0.824
10182SOL    HW231446   4.070   0.699   0.969
10183SOL     OW31447   4.463   6.480   6.055
10183SOL    HW131448   4.540   6.485   6.119
10183SOL    HW231449   4.494   6.507   5.964
10184SOL     OW31450   5.125   2.261   5.481
10184SOL    HW131451   5.172   2.303   5.404
10184SOL    HW231452   5.156   2.303   5.566
10185SOL     OW31453   3.317   5.166   1.705
10185SOL    HW131454   3.348   5.149   1.799
10185SOL    HW231455   3.217   5.167   1.703
10186SOL     OW31456   3.680   3.048   6.993
10186SOL    HW131457   3.726   3.128   0.010
10186SOL    HW231458   3.607   3.078   6.932
10187SOL     OW31459   2.038   4.455   5.620
10187SOL    HW131460   2.098   4.512   5.563
10187SOL    HW231461   1.986   4.393   5.562
10188SOL     OW31462   2.712   0.029   6.392
10188SOL    HW131463   2.649   7.019   6.320
10188SOL    HW231464   2.730   6.973   6.454
10189SOL     OW31465   2.114   1.471   4.567
10189SOL    HW131466   2.107   1.517   4.655
10189SOL    HW231467   2.030   1.420   4.548
10190SOL     OW31468   4.441   3.917   0.831
10190SOL    HW131469   4.386   3.928   0.914
10190SOL    HW231470   4.475   3.823   0.826
10191SOL     OW31471   5.179   0.436   0.232
10191SOL    HW131472   5.097   0.488   0.255
10191SOL    HW231473   5.223   0.477   0.152
10192SOL     OW31474   1.652   0.882   4.456
10192SOL    HW131475   1.717   0.809   4.478
10192SOL    HW231476   1.594   0.900   4.535
10193SOL     OW31477   3.871   3.673   3.746
10193SOL    HW131478   3.893   3.771   3.741
10193SOL    HW231479   3.949   3.620   3.713
10194SOL     OW31480   3.140   0.329   3.097
10194SOL    HW131481   3.067   0.385   3.059
10194SOL    HW231482   3.101   0.245   3.135
10195SOL     OW31483   5.359   0.158   2.576
10195SOL    HW131484   5.408   0.102   2.644
10195SOL    HW231485   5.307   0.099   2.515
10196SOL     OW31486   5.161   3.932   4.592
10196SOL    HW131487   5.209   3.918   4.505
10196SOL    HW231488   5.219   3.902   4.668
10197SOL     OW31489   5.572   1.337   2.858
10197SOL    HW131490   5.590   1.335   2.759
10197SOL    HW231491   5.630   1.406   2.901
10198SOL     OW31492   3.165   0.875   1.791
10198SOL    HW131493   3.151   0.896   1.695
10198SOL    HW231494   3.080   0.842   1.831
10199SOL     OW31495   1.257   2.165   0.416
10199SOL    HW131496   1.178   2.105   0.402
10199SOL    HW231497   1.254   2.241   0.351
10200SOL     OW31498   5.916   5.438   5.120
10200SOL    HW131499   5.894   5.381   5.042
10200SOL    HW231500   5.834   5.456   5.174
10201SOL     OW31501   1.974   4.866   2.808
10201SOL    HW131502   2.016   4.866   2.899
10201SOL    HW231503   1.875   4.880   2.816
10202SOL     OW31504   0.556   2.429   3.037
10202SOL    HW131505   0.530   2.473   2.951
10202SOL    HW231506   0.561   2.498   3.110
10203SOL     OW31507   0.805   2.792   1.628
10203SOL    HW131508   0.832   2.807   1.723
10203SOL    HW231509   0.715   2.832   1.613
10204SOL     OW31510   2.969   4.945   3.861
10204SOL    HW131511   3.050   4.976   3.813
10204SOL    HW231512   2.915   5.024   3.890
10205SOL     OW31513   4.512   0.747   1.289
10205SOL    HW131514   4.561   0.689   1.354
10205SOL    HW231515   4.563   0.832   1.276
10206SOL     OW31516   5.151   0.251   6.305
10206SOL    HW131517   5.055   0.281   6.302
10206SOL    HW231518   5.186   0.264   6.398
10207SOL     OW31519   3.879   1.430   3.167
10207SOL    HW131520   3.806   1.475   3.115
10207SOL    HW231521   3.878   1.331   3.148
10208SOL     OW31522   6.684   3.838   5.522
10208SOL    HW131523   6.735   3.805   5.443
10208SOL    HW231524   6.725   3.801   5.605
10209SOL     OW31525   4.518   6.735   6.631
10209SOL    HW131526   4.439   6.722   6.690
10209SOL    HW231527   4.564   6.821   6.654
10210SOL     OW31528   5.526   6.068   0.809
10210SOL    HW131529   5.456   6.036   0.745
10210SOL    HW231530   5.518   6.017   0.895
10211SOL     OW31531   3.324   5.451   4.907
10211SOL    HW131532   3.387   5.529   4.900
10211SOL    HW231533   3.250   5.473   4.970
10212SOL     OW31534   5.801   5.987   5.883
10212SOL    HW131535   5.833   6.081   5.874
10212SOL    HW231536   5.841   5.945   5.965
10213SOL     OW31537   4.772   0.672   4.641
10213SOL    HW131538   4.679   0.688   4.607
10213SOL    HW231539   4.834   0.665   4.563
10214SOL     OW31540   0.480   1.214   1.404
10214SOL    HW131541   0.518   1.121   1.400
10214SOL    HW231542   0.385   1.209   1.435
10215SOL     OW31543   3.710   2.698   6.648
10215SOL    HW131544   3.757   2.643   6.717
10215SOL    HW231545   3.652   2.639   6.592
10216SOL     OW31546   4.760   0.007   2.599
10216SOL    HW131547   4.697   0.024   2.524
10216SOL    HW231548   4.851   0.041   2.574
10217SOL     OW31549   3.557   2.382   5.776
10217SOL    HW131550   3.482   2.367   5.711
10217SOL    HW231551   3.632   2.321   5.754
10218SOL     OW31552   2.849   2.351   0.033
10218SOL    HW131553   2.792   2.426   7.020
10218SOL    HW231554   2.946   2.378   0.026
10219SOL     OW31555   0.599   4.453   6.702
10219SOL    HW131556   0.601   4.409   6.612
10219SOL    HW231557   0.646   4.396   6.768
10220SOL     OW31558   4.127   2.897   0.227
10220SOL    HW131559   4.132   2.838   0.308
10220SOL    HW231560   4.093   2.987   0.254
10221SOL     OW31561   3.281   0.969   4.222
10221SOL    HW131562   3.190   0.927   4.227
10221SOL    HW231563   3.284   1.034   4.146
10222SOL     OW31564   1.529   4.860   5.704
10222SOL    HW131565   1.506   4.872   5.607
10222SOL    HW231566   1.552   4.949   5.744
10223SOL     OW31567   6.946   4.511   0.862
10223SOL    HW131568   6.899   4.596   0.836
10223SOL    HW231569   6.878   4.444   0.893
10224SOL     OW31570   2.451   0.170   4.946
10224SOL    HW131571   2.395   0.130   5.018
10224SOL    HW231572   2.401   0.243   4.900
10225SOL     OW31573   4.891   6.151   4.230
10225SOL    HW131574   4.859   6.084   4.163
10225SOL    HW231575   4.981   6.124   4.265
10226SOL     OW31576   0.333   2.801   0.124
10226SOL    HW131577   0.333   2.713   0.076
10226SOL    HW231578   0.349   2.786   0.221
10227SOL     OW31579   5.961   5.529   5.770
10227SOL    HW131580   6.002   5.618   5.791
10227SOL    HW231581   6.031   5.459   5.773
10228SOL     OW31582   1.220   3.960   2.570
10228SOL    HW131583   1.166   3.913   2.640
10228SOL    HW231584   1.190   4.055   2.562
10229SOL     OW31585   1.815   1.440   1.639
10229SOL    HW131586   1.717   1.453   1.659
10229SOL    HW231587   1.869   1.494   1.704
10230SOL     OW31588   5.981   6.582   4.313
10230SOL    HW131589   5.964   6.677   4.340
10230SOL    HW231590   6.033   6.581   4.227
10231SOL     OW31591   4.981   0.084   4.523
10231SOL    HW131592   5.009   0.050   4.613
10231SOL    HW231593   5.057   0.133   4.480
10232SOL     OW31594   4.416   1.774   3.365
10232SOL    HW131595   4.408   1.706   3.291
10232SOL    HW231596   4.383   1.862   3.332
10233SOL     OW31597   4.908   1.044   5.369
10233SOL    HW131598   4.867   1.033   5.460
10233SOL    HW231599   4.856   0.991   5.302
10234SOL     OW31600   4.627   5.534   1.572
10234SOL    HW131601   4.687   5.568   1.645
10234SOL    HW231602   4.613   5.436   1.583
10235SOL     OW31603   5.139   1.391   0.011
10235SOL    HW131604   5.120   1.321   0.079
10235SOL    HW231605   5.100   1.364   6.943
10236SOL     OW31606   2.331   5.961   1.763
10236SOL    HW131607   2.401   5.945   1.833
10236SOL    HW231608   2.358   5.915   1.678
10237SOL     OW31609   5.714   2.534   3.482
10237SOL    HW131610   5.812   2.547   3.464
10237SOL    HW231611   5.686   2.597   3.554
10238SOL     OW31612   4.526   5.889   4.910
10238SOL    HW131613   4.448   5.860   4.965
10238SOL    HW231614   4.593   5.814   4.903
10239SOL     OW31615   6.532   3.346   4.283
10239SOL    HW131616   6.484   3.305   4.205
10239SOL    HW231617   6.519   3.289   4.364
10240SOL     OW31618   5.773   3.593   3.789
10240SOL    HW131619   5.698   3.576   3.725
10240SOL    HW231620   5.736   3.629   3.875
10241SOL     OW31621   1.941   1.600   3.134
10241SOL    HW131622   1.997   1.518   3.134
10241SOL    HW231623   1.904   1.615   3.226
10242SOL     OW31624   0.768   6.045   6.507
10242SOL    HW131625   0.717   6.084   6.431
10242SOL    HW231626   0.711   6.043   6.589
10243SOL     OW31627   0.511   6.610   2.753
10243SOL    HW131628   0.598   6.611   2.803
10243SOL    HW231629   0.504   6.525   2.700
10244SOL     OW31630   1.474   5.781   0.056
10244SOL    HW131631   1.519   5.788   6.988
10244SOL    HW231632   1.464   5.685   0.081
10245SOL     OW31633   2.088   2.714   0.161
10245SOL    HW131634   1.990   2.709   0.141
10245SOL    HW231635   2.138   2.730   0.076
10246SOL     OW31636   3.438   3.468   3.822
10246SOL    HW131637   3.509   3.405   3.792
10246SOL    HW231638   3.428   3.464   3.921
10247SOL     OW31639   0.876   5.769   5.350
10247SOL    HW131640   0.794   5.821   5.371
10247SOL    HW231641   0.850   5.681   5.309
10248SOL     OW31642   4.757   1.048   2.568
10248SOL    HW131643   4.820   0.971   2.578
10248SOL    HW231644   4.768   1.111   2.646
10249SOL     OW31645   5.197   1.000   6.895
10249SOL    HW131646   5.185   0.923   6.832
10249SOL    HW231647   5.201   0.965   6.989
10250SOL     OW31648   4.773   0.525   0.544
10250SOL    HW131649   4.865   0.510   0.578
10250SOL    HW231650   4.745   0.620   0.563
10251SOL     OW31651   3.869   4.338   0.102
10251SOL    HW131652   3.841   4.405   0.171
10251SOL    HW231653   3.920   4.384   0.029
10252SOL     OW31654   6.591   4.812   1.836
10252SOL    HW131655   6.626   4.721   1.817
10252SOL    HW231656   6.509   4.805   1.893
10253SOL     OW31657   3.804   4.830   0.048
10253SOL    HW131658   3.796   4.930   0.043
10253SOL    HW231659   3.848   4.805   0.134
10254SOL     OW31660   2.326   1.579   4.302
10254SOL    HW131661   2.344   1.537   4.391
10254SOL    HW231662   2.239   1.545   4.267
10255SOL     OW31663   2.848   5.492   2.794
10255SOL    HW131664   2.864   5.520   2.889
10255SOL    HW231665   2.934   5.494   2.744
10256SOL     OW31666   5.971   6.487   0.244
10256SOL    HW131667   5.909   6.450   0.174
10256SOL    HW231668   5.922   6.492   0.332
10257SOL     OW31669   2.251   6.404   6.311
10257SOL    HW131670   2.301   6.350   6.243
10257SOL    HW231671   2.155   6.411   6.284
10258SOL     OW31672   4.494   0.610   3.561
10258SOL    HW131673   4.588   0.644   3.559
10258SOL    HW231674   4.490   0.531   3.622
10259SOL     OW31675   0.958   3.557   4.080
10259SOL    HW131676   0.893   3.535   4.007
10259SOL    HW231677   1.051   3.560   4.042
10260SOL     OW31678   6.988   6.339   1.811
10260SOL    HW131679   6.892   6.345   1.838
10260SOL    HW231680   0.020   6.408   1.861
10261SOL     OW31681   1.618   0.059   1.792
10261SOL    HW131682   1.582   0.150   1.773
10261SOL    HW231683   1.716   0.064   1.808
10262SOL     OW31684   1.038   5.680   4.506
10262SOL    HW131685   0.970   5.671   4.579
10262SOL    HW231686   1.129   5.658   4.541
10263SOL     OW31687   6.903   2.347   5.707
10263SOL    HW131688   6.956   2.378   5.787
10263SOL    HW231689   6.905   2.418   5.637
10264SOL     OW31690   0.162   0.042   0.365
10264SOL    HW131691   0.224   7.000   0.319
10264SOL    HW231692   0.068   0.009   0.356
10265SOL     OW31693   4.036   2.179   2.129
10265SOL    HW131694   4.022   2.226   2.042
10265SOL    HW231695   4.081   2.091   2.113
10266SOL     OW31696   4.328   3.474   6.550
10266SOL    HW131697   4.382   3.478   6.466
10266SOL    HW231698   4.388   3.488   6.629
10267SOL     OW31699   0.380   1.506   6.432
10267SOL    HW131700   0.286   1.477   6.417
10267SOL    HW231701   0.390   1.541   6.526
10268SOL     OW31702   6.181   4.477   1.552
10268SOL    HW131703   6.167   4.570   1.519
10268SOL    HW231704   6.179   4.477   1.652
10269SOL     OW31705   3.266   2.541   6.005
10269SOL    HW131706   3.268   2.544   5.905
10269SOL    HW231707   3.359   2.545   6.040
10270SOL     OW31708   3.093   0.017   0.825
10270SOL    HW131709   3.039   0.100   0.813
10270SOL    HW231710   3.033   6.960   0.845
10271SOL     OW31711   3.285   5.019   0.688
10271SOL    HW131712   3.248   5.103   0.648
10271SOL    HW231713   3.273   5.020   0.787
10272SOL     OW31714   1.393   1.493   4.944
10272SOL    HW131715   1.372   1.562   5.012
10272SOL    HW231716   1.464   1.432   4.979
10273SOL     OW31717   4.072   6.786   3.874
10273SOL    HW131718   4.155   6.731   3.883
10273SOL    HW231719   4.009   6.763   3.949
10274SOL     OW31720   2.225   5.374   6.581
10274SOL    HW131721   2.209   5.419   6.669
10274SOL    HW231722   2.324   5.365   6.566
10275SOL     OW31723   1.027   6.631   2.415
10275SOL    HW131724   1.119   6.593   2.421
10275SOL    HW231725   0.964   6.560   2.384
10276SOL     OW31726   7.017   6.539   0.136
10276SOL    HW131727   6.949   6.471   0.108
10276SOL    HW231728   7.008   6.556   0.234
10277SOL     OW31729   1.102   6.191   2.395
10277SOL    HW131730   1.176   6.171   2.331
10277SOL    HW231731   1.141   6.218   2.484
10278SOL     OW31732   6.766   0.251   6.369
10278SOL    HW131733   6.843   0.314   6.365
10278SOL    HW231734   6.798   0.158   6.356
10279SOL     OW31735   3.823   6.093   3.861
10279SOL    HW131736   3.850   6.005   3.823
10279SOL    HW231737   3.886   6.118   3.935
10280SOL     OW31738   3.326   2.518   6.355
10280SOL    HW131739   3.248   2.455   6.359
10280SOL    HW231740   3.292   2.612   6.353
10281SOL     OW31741   4.175   0.224   4.247
10281SOL    HW131742   4.133   0.211   4.337
10281SOL    HW231743   4.266   0.183   4.247
10282SOL     OW31744   0.781   2.775   4.926
10282SOL    HW131745   0.851   2.706   4.907
10282SOL    HW231746   0.712   2.772   4.854
10283SOL     OW31747   1.648   3.599   5.833
10283SOL    HW131748   1.694   3.636   5.752
10283SOL    HW231749   1.555   3.571   5.808
10284SOL     OW31750   5.255   2.597   6.990
10284SOL    HW131751   5.334   2.536   6.989
10284SOL    HW231752   5.277   2.678   0.023
10285SOL     OW31753   5.779   0.671   0.462
10285SOL    HW131754   5.791   0.584   0.509
10285SOL    HW231755   5.710   0.660   0.390
10286SOL     OW31756   4.139   0.913   4.015
10286SOL    HW131757   4.217   0.961   4.054
10286SOL    HW231758   4.056   0.968   4.027
10287SOL     OW31759   1.447   4.904   1.632
10287SOL    HW131760   1.373   4.944   1.578
10287SOL    HW231761   1.532   4.953   1.614
10288SOL     OW31762   4.984   6.453   4.360
10288SOL    HW131763   5.012   6.515   4.287
10288SOL    HW231764   4.908   6.397   4.328
10289SOL     OW31765   2.513   1.658   1.348
10289SOL    HW131766   2.507   1.744   1.399
10289SOL    HW231767   2.463   1.587   1.398
10290SOL     OW31768   2.884   3.443   2.103
10290SOL    HW131769   2.932   3.527   2.074
10290SOL    HW231770   2.844   3.458   2.193
10291SOL     OW31771   4.722   0.480   5.753
10291SOL    HW131772   4.785   0.406   5.727
10291SOL    HW231773   4.714   0.544   5.677
10292SOL     OW31774   0.234   0.719   5.378
10292SOL    HW131775   0.298   0.756   5.446
10292SOL    HW231776   0.218   0.622   5.399
10293SOL     OW31777   3.012   5.539   3.433
10293SOL    HW131778   2.936   5.566   3.374
10293SOL    HW231779   3.044   5.619   3.485
10294SOL     OW31780   6.328   1.250   3.284
10294SOL    HW131781   6.400   1.320   3.278
10294SOL    HW231782   6.334   1.204   3.373
10295SOL     OW31783   1.875   4.503   4.523
10295SOL    HW131784   1.901   4.589   4.479
10295SOL    HW231785   1.835   4.523   4.612
10296SOL     OW31786   6.797   2.532   1.491
10296SOL    HW131787   6.703   2.528   1.523
10296SOL    HW231788   6.806   2.603   1.422
10297SOL     OW31789   2.800   5.532   4.587
10297SOL    HW131790   2.727   5.477   4.628
10297SOL    HW231791   2.768   5.569   4.500
10298SOL     OW31792   5.950   3.466   2.948
10298SOL    HW131793   5.867   3.437   2.995
10298SOL    HW231794   5.926   3.529   2.874
10299SOL     OW31795   4.927   3.827   1.965
10299SOL    HW131796   4.923   3.896   2.037
10299SOL    HW231797   4.862   3.850   1.893
10300SOL     OW31798   1.814   5.944   1.714
10300SOL    HW131799   1.892   5.924   1.655
10300SOL    HW231800   1.807   5.875   1.786
10301SOL     OW31801   5.388   1.427   1.466
10301SOL    HW131802   5.370   1.381   1.379
10301SOL    HW231803   5.466   1.382   1.511
10302SOL     OW31804   1.344   5.258   3.819
10302SOL    HW131805   1.298   5.208   3.892
10302SOL    HW231806   1.320   5.355   3.824
10303SOL     OW31807   3.744   3.144   1.354
10303SOL    HW131808   3.741   3.044   1.363
10303SOL    HW231809   3.744   3.168   1.257
10304SOL     OW31810   6.110   6.565   4.065
10304SOL    HW131811   6.202   6.590   4.033
10304SOL    HW231812   6.042   6.613   4.009
10305SOL     OW31813   1.809   5.034   1.141
10305SOL    HW131814   1.807   4.935   1.129
10305SOL    HW231815   1.837   5.056   1.234
10306SOL     OW31816   3.909   4.695   0.279
10306SOL    HW131817   3.986   4.752   0.251
10306SOL    HW231818   3.867   4.735   0.361
10307SOL     OW31819   2.903   1.171   5.521
10307SOL    HW131820   2.966   1.148   5.447
10307SOL    HW231821   2.872   1.088   5.566
10308SOL     OW31822   2.852   5.468   3.821
10308SOL    HW131823   2.890   5.522   3.896
10308SOL    HW231824   2.762   5.504   3.796
10309SOL     OW31825   0.129   6.236   3.452
10309SOL    HW131826   0.120   6.334   3.437
10309SOL    HW231827   0.224   6.208   3.435
10310SOL     OW31828   3.023   3.283   3.972
10310SOL    HW131829   3.079   3.264   3.891
10310SOL    HW231830   2.947   3.343   3.947
10311SOL     OW31831   0.257   6.735   1.086
10311SOL    HW131832   0.306   6.791   1.152
10311SOL    HW231833   0.314   6.719   1.006
10312SOL     OW31834   2.322   4.539   0.827
10312SOL    HW131835   2.343   4.454   0.875
10312SOL    HW231836   2.380   4.546   0.745
10313SOL     OW31837   6.245   6.102   4.002
10313SOL    HW131838   6.312   6.165   4.041
10313SOL    HW231839   6.289   6.013   3.985
10314SOL     OW31840   6.247   5.002   5.171
10314SOL    HW131841   6.162   4.951   5.161
10314SOL    HW231842   6.257   5.065   5.094
10315SOL     OW31843   4.905   6.096   5.883
10315SOL    HW131844   4.857   6.051   5.808
10315SOL    HW231845   4.839   6.146   5.940
10316SOL     OW31846   0.392   3.260   2.593
10316SOL    HW131847   0.355   3.346   2.558
10316SOL    HW231848   0.320   3.191   2.594
10317SOL     OW31849   4.383   4.631   0.457
10317SOL    HW131850   4.316   4.591   0.394
10317SOL    HW231851   4.423   4.558   0.513
10318SOL     OW31852   6.313   5.779   2.398
10318SOL    HW131853   6.364   5.818   2.474
10318SOL    HW231854   6.375   5.759   2.323
10319SOL     OW31855   5.326   6.118   4.907
10319SOL    HW131856   5.283   6.036   4.869
10319SOL    HW231857   5.300   6.198   4.852
10320SOL     OW31858   4.570   6.163   1.372
10320SOL    HW131859   4.518   6.204   1.448
10320SOL    HW231860   4.528   6.077   1.345
10321SOL     OW31861   3.663   0.054   3.642
10321SOL    HW131862   3.658   0.141   3.593
10321SOL    HW231863   3.725   0.062   3.720
10322SOL     OW31864   0.679   2.456   0.184
10322SOL    HW131865   0.637   2.545   0.202
10322SOL    HW231866   0.609   2.391   0.156
10323SOL     OW31867   0.190   2.151   5.279
10323SOL    HW131868   0.162   2.183   5.370
10323SOL    HW231869   0.266   2.207   5.246
10324SOL     OW31870   3.820   3.038   3.892
10324SOL    HW131871   3.741   3.060   3.835
10324SOL    HW231872   3.799   2.960   3.951
10325SOL     OW31873   0.177   3.420   2.856
10325SOL    HW131874   0.129   3.404   2.942
10325SOL    HW231875   0.138   3.500   2.811
10326SOL     OW31876   5.254   1.601   1.168
10326SOL    HW131877   5.244   1.662   1.246
10326SOL    HW231878   5.247   1.654   1.083
10327SOL     OW31879   6.986   0.600   3.311
10327SOL    HW131880   6.896   0.620   3.272
10327SOL    HW231881   6.982   0.612   3.411
10328SOL     OW31882   6.178   3.572   2.369
10328SOL    HW131883   6.198   3.542   2.276
10328SOL    HW231884   6.123   3.503   2.415
10329SOL     OW31885   3.360   6.625   3.083
10329SOL    HW131886   3.451   6.663   3.065
10329SOL    HW231887   3.360   6.527   3.064
10330SOL     OW31888   3.348   4.251   1.014
10330SOL    HW131889   3.375   4.187   0.943
10330SOL    HW231890   3.283   4.207   1.076
10331SOL     OW31891   4.988   0.426   4.438
10331SOL    HW131892   4.895   0.410   4.404
10331SOL    HW231893   5.034   0.338   4.452
10332SOL     OW31894   0.327   1.670   6.996
10332SOL    HW131895   0.302   1.599   6.930
10332SOL    HW231896   0.250   1.684   0.039
10333SOL     OW31897   5.290   4.708   5.190
10333SOL    HW131898   5.222   4.702   5.117
10333SOL    HW231899   5.324   4.617   5.212
10334SOL     OW31900   1.027   4.906   4.742
10334SOL    HW131901   1.044   4.892   4.840
10334SOL    HW231902   0.946   4.854   4.714
10335SOL     OW31903   3.040   5.207   1.740
10335SOL    HW131904   3.043   5.243   1.647
10335SOL    HW231905   3.045   5.107   1.737
10336SOL     OW31906   4.799   6.002   3.032
10336SOL    HW131907   4.879   6.046   2.992
10336SOL    HW231908   4.729   6.070   3.051
10337SOL     OW31909   0.794   4.786   5.041
10337SOL    HW131910   0.736   4.832   4.974
10337SOL    HW231911   0.770   4.689   5.045
10338SOL     OW31912   3.071   4.947   3.143
10338SOL    HW131913   3.168   4.926   3.127
10338SOL    HW231914   3.051   4.935   3.241
10339SOL     OW31915   2.843   5.466   0.534
10339SOL    HW131916   2.911   5.513   0.590
10339SOL    HW231917   2.762   5.445   0.589
10340SOL     OW31918   1.490   6.565   0.266
10340SOL    HW131919   1.519   6.642   0.209
10340SOL    HW231920   1.570   6.528   0.314
10341SOL     OW31921   1.157   2.515   2.333
10341SOL    HW131922   1.062   2.489   2.315
10341SOL    HW231923   1.163   2.560   2.422
10342SOL     OW31924   3.438   6.246   3.840
10342SOL    HW131925   3.355   6.237   3.895
10342SOL    HW231926   3.416   6.230   3.744
10343SOL     OW31927   2.363   2.770   3.816
10343SOL    HW131928   2.361   2.691   3.754
10343SOL    HW231929   2.308   2.844   3.778
10344SOL     OW31930   4.246   3.800   0.648
10344SOL    HW131931   4.319   3.834   0.706
10344SOL    HW231932   4.176   3.756   0.704
10345SOL     OW31933   2.012   1.985   5.240
10345SOL    HW131934   2.105   2.015   5.260
10345SOL    HW231935   1.969   1.951   5.324
10346SOL     OW31936   5.507   4.887   0.229
10346SOL    HW131937   5.457   4.826   0.290
10346SOL    HW231938   5.604   4.861   0.227
10347SOL     OW31939   5.024   0.338   2.032
10347SOL    HW131940   5.018   0.330   1.933
10347SOL    HW231941   5.087   0.412   2.056
10348SOL     OW31942   6.459   4.761   5.699
10348SOL    HW131943   6.513   4.729   5.621
10348SOL    HW231944   6.418   4.682   5.745
10349SOL     OW31945   6.638   2.203   0.963
10349SOL    HW131946   6.732   2.213   0.998
10349SOL    HW231947   6.633   2.241   0.871
10350SOL     OW31948   2.197   4.935   4.964
10350SOL    HW131949   2.208   5.030   4.935
10350SOL    HW231950   2.277   4.882   4.938
10351SOL     OW31951   4.098   4.804   4.556
10351SOL    HW131952   4.114   4.759   4.468
10351SOL    HW231953   4.185   4.818   4.602
10352SOL     OW31954   6.579   0.891   0.328
10352SOL    HW131955   6.581   0.927   0.421
10352SOL    HW231956   6.492   0.918   0.284
10353SOL     OW31957   6.290   2.022   3.587
10353SOL    HW131958   6.327   2.059   3.671
10353SOL    HW231959   6.251   1.931   3.605
10354SOL     OW31960   6.366   3.015   1.120
10354SOL    HW131961   6.297   2.960   1.072
10354SOL    HW231962   6.450   3.018   1.065
10355SOL     OW31963   0.884   1.386   0.857
10355SOL    HW131964   0.891   1.410   0.954
10355SOL    HW231965   0.846   1.293   0.849
10356SOL     OW31966   5.688   2.702   6.056
10356SOL    HW131967   5.710   2.785   6.004
10356SOL    HW231968   5.594   2.675   6.036
10357SOL     OW31969   1.484   0.412   6.099
10357SOL    HW131970   1.454   0.494   6.147
10357SOL    HW231971   1.404   0.365   6.060
10358SOL     OW31972   0.115   2.892   2.947
10358SOL    HW131973   0.160   2.803   2.955
10358SOL    HW231974   0.129   2.944   3.031
10359SOL     OW31975   6.924   1.675   2.471
10359SOL    HW131976   6.923   1.701   2.374
10359SOL    HW231977   6.934   1.757   2.527
10360SOL     OW31978   5.425   3.766   1.628
10360SOL    HW131979   5.431   3.865   1.615
10360SOL    HW231980   5.467   3.719   1.551
10361SOL     OW31981   5.728   1.976   2.361
10361SOL    HW131982   5.691   1.923   2.284
10361SOL    HW231983   5.793   1.919   2.411
10362SOL     OW31984   1.360   6.125   1.313
10362SOL    HW131985   1.390   6.144   1.220
10362SOL    HW231986   1.260   6.135   1.319
10363SOL     OW31987   5.225   4.433   6.303
10363SOL    HW131988   5.142   4.378   6.292
10363SOL    HW231989   5.222   4.481   6.390
10364SOL     OW31990   5.550   4.791   2.525
10364SOL    HW131991   5.504   4.844   2.596
10364SOL    HW231992   5.633   4.838   2.496
10365SOL     OW31993   6.015   5.219   0.773
10365SOL    HW131994   6.078   5.221   0.851
10365SOL    HW231995   5.988   5.124   0.754
10366SOL     OW31996   3.175   6.134   3.947
10366SOL    HW131997   3.140   6.227   3.940
10366SOL    HW231998   3.100   6.070   3.965
10367SOL     OW31999   5.367   6.073   1.508
10367SOL    HW132000   5.450   6.062   1.562
10367SOL    HW232001   5.288   6.081   1.568
10368SOL     OW32002   1.626   6.264   1.318
10368SOL    HW132003   1.712   6.246   1.365
10368SOL    HW232004   1.634   6.240   1.222
10369SOL     OW32005   2.487   0.258   6.409
10369SOL    HW132006   2.414   0.194   6.385
10369SOL    HW232007   2.451   0.351   6.409
10370SOL     OW32008   1.930   1.226   5.534
10370SOL    HW132009   1.913   1.151   5.597
10370SOL    HW232010   2.003   1.202   5.471
10371SOL     OW32011   4.386   5.447   3.162
10371SOL    HW132012   4.383   5.518   3.233
10371SOL    HW232013   4.432   5.484   3.081
10372SOL     OW32014   2.248   6.722   0.937
10372SOL    HW132015   2.272   6.745   1.032
10372SOL    HW232016   2.256   6.803   0.880
10373SOL     OW32017   6.492   1.260   6.628
10373SOL    HW132018   6.510   1.329   6.699
10373SOL    HW232019   6.538   1.287   6.543
10374SOL     OW32020   3.377   4.940   3.388
10374SOL    HW132021   3.400   4.924   3.484
10374SOL    HW232022   3.458   4.921   3.331
10375SOL     OW32023   2.585   5.106   0.539
10375SOL    HW132024   2.578   5.007   0.521
10375SOL    HW232025   2.544   5.127   0.627
10376SOL     OW32026   2.525   4.934   4.570
10376SOL    HW132027   2.534   4.837   4.547
10376SOL    HW232028   2.615   4.975   4.579
10377SOL     OW32029   2.070   0.989   2.506
10377SOL    HW132030   2.167   0.978   2.530
10377SOL    HW232031   2.059   0.982   2.407
10378SOL     OW32032   0.055   5.848   3.958
10378SOL    HW132033   0.149   5.881   3.951
10378SOL    HW232034   7.016   5.907   3.903
10379SOL     OW32035   1.742   0.105   4.181
10379SOL    HW132036   1.684   0.181   4.152
10379SOL    HW232037   1.742   0.034   4.110
10380SOL     OW32038   2.638   2.414   4.202
10380SOL    HW132039   2.609   2.461   4.119
10380SOL    HW232040   2.574   2.435   4.276
10381SOL     OW32041   3.981   6.495   2.479
10381SOL    HW132042   3.884   6.472   2.485
10381SOL    HW232043   4.029   6.461   2.559
10382SOL     OW32044   4.287   5.643   1.075
10382SOL    HW132045   4.233   5.609   1.152
10382SOL    HW232046   4.278   5.743   1.069
10383SOL     OW32047   0.951   4.840   0.208
10383SOL    HW132048   0.891   4.778   0.158
10383SOL    HW232049   1.027   4.788   0.249
10384SOL     OW32050   5.135   5.621   0.956
10384SOL    HW132051   5.210   5.557   0.938
10384SOL    HW232052   5.170   5.715   0.953
10385SOL     OW32053   4.117   4.251   0.461
10385SOL    HW132054   4.126   4.224   0.366
10385SOL    HW232055   4.036   4.308   0.473
10386SOL     OW32056   0.290   0.808   0.889
10386SOL    HW132057   0.245   0.774   0.807
10386SOL    HW232058   0.284   0.738   0.961
10387SOL     OW32059   4.947   3.245   1.933
10387SOL    HW132060   4.874   3.187   1.898
10387SOL    HW232061   4.908   3.321   1.985
10388SOL     OW32062   2.006   6.335   5.795
10388SOL    HW132063   1.954   6.252   5.817
10388SOL    HW232064   1.945   6.402   5.754
10389SOL     OW32065   0.442   4.117   6.909
10389SOL    HW132066   0.471   4.207   6.875
10389SOL    HW232067   0.357   4.127   6.960
10390SOL     OW32068   2.430   2.490   2.005
10390SOL    HW132069   2.504   2.447   1.953
10390SOL    HW232070   2.426   2.451   2.097
10391SOL     OW32071   5.512   6.829   3.867
10391SOL    HW132072   5.474   6.739   3.889
10391SOL    HW232073   5.594   6.844   3.922
10392SOL     OW32074   6.495   3.444   4.660
10392SOL    HW132075   6.432   3.468   4.734
10392SOL    HW232076   6.470   3.354   4.623
10393SOL     OW32077   1.676   3.565   3.318
10393SOL    HW132078   1.756   3.587   3.261
10393SOL    HW232079   1.706   3.525   3.404
10394SOL     OW32080   3.311   0.499   4.473
10394SOL    HW132081   3.241   0.520   4.541
10394SOL    HW232082   3.286   0.539   4.385
10395SOL     OW32083   1.160   6.779   1.116
10395SOL    HW132084   1.187   6.690   1.154
10395SOL    HW232085   1.212   6.851   1.160
10396SOL     OW32086   3.321   2.112   4.354
10396SOL    HW132087   3.365   2.197   4.381
10396SOL    HW232088   3.390   2.039   4.348
10397SOL     OW32089   4.612   1.867   3.785
10397SOL    HW132090   4.531   1.829   3.830
10397SOL    HW232091   4.584   1.939   3.722
10398SOL     OW32092   6.005   3.096   1.660
10398SOL    HW132093   5.945   3.155   1.607
10398SOL    HW232094   5.957   3.063   1.741
10399SOL     OW32095   0.855   3.923   1.928
10399SOL    HW132096   0.843   3.865   1.847
10399SOL    HW232097   0.941   3.899   1.973
10400SOL     OW32098   3.025   6.182   0.911
10400SOL    HW132099   3.123   6.203   0.910
10400SOL    HW232100   2.976   6.256   0.956
10401SOL     OW32101   0.443   0.953   6.006
10401SOL    HW132102   0.420   0.864   5.965
10401SOL    HW232103   0.531   0.984   5.970
10402SOL     OW32104   0.247   2.590   5.137
10402SOL    HW132105   0.157   2.562   5.169
10402SOL    HW232106   0.271   2.679   5.175
10403SOL     OW32107   3.378   0.693   1.196
10403SOL    HW132108   3.310   0.619   1.199
10403SOL    HW232109   3.447   0.671   1.127
10404SOL     OW32110   0.022   6.349   6.622
10404SOL    HW132111   6.969   6.341   6.555
10404SOL    HW232112   0.091   6.412   6.588
10405SOL     OW32113   0.512   2.593   6.498
10405SOL    HW132114   0.450   2.558   6.568
10405SOL    HW232115   0.460   2.643   6.429
10406SOL     OW32116   2.800   5.012   1.388
10406SOL    HW132117   2.801   5.009   1.488
10406SOL    HW232118   2.870   4.950   1.353
10407SOL     OW32119   2.657   6.699   6.792
10407SOL    HW132120   2.563   6.690   6.758
10407SOL    HW232121   2.692   6.609   6.816
10408SOL     OW32122   4.109   1.929   7.007
10408SOL    HW132123   4.121   2.009   6.948
10408SOL    HW232124   4.046   1.864   6.964
10409SOL     OW32125   5.934   4.795   1.029
10409SOL    HW132126   5.932   4.767   1.125
10409SOL    HW232127   5.990   4.731   0.977
10410SOL     OW32128   5.811   0.519   0.847
10410SOL    HW132129   5.809   0.619   0.846
10410SOL    HW232130   5.767   0.486   0.931
10411SOL     OW32131   2.411   5.308   3.358
10411SOL    HW132132   2.328   5.353   3.324
10411SOL    HW232133   2.413   5.312   3.458
10412SOL     OW32134   6.518   0.653   0.847
10412SOL    HW132135   6.578   0.635   0.769
10412SOL    HW232136   6.423   0.646   0.818
10413SOL     OW32137   0.262   2.894   1.709
10413SOL    HW132138   0.275   2.954   1.631
10413SOL    HW232139   0.236   2.948   1.789
10414SOL     OW32140   4.783   3.025   3.976
10414SOL    HW132141   4.837   3.076   3.909
10414SOL    HW232142   4.761   3.086   4.053
10415SOL     OW32143   0.112   6.998   5.903
10415SOL    HW132144   0.126   6.971   5.808
10415SOL    HW232145   0.137   6.923   5.963
10416SOL     OW32146   5.610   2.808   4.396
10416SOL    HW132147   5.527   2.793   4.450
10416SOL    HW232148   5.625   2.907   4.387
10417SOL     OW32149   2.421   4.394   3.721
10417SOL    HW132150   2.369   4.309   3.727
10417SOL    HW232151   2.414   4.431   3.628
10418SOL     OW32152   0.923   4.481   5.573
10418SOL    HW132153   0.878   4.569   5.555
10418SOL    HW232154   0.912   4.457   5.669
10419SOL     OW32155   1.137   1.246   0.743
10419SOL    HW132156   1.223   1.286   0.774
10419SOL    HW232157   1.077   1.230   0.822
10420SOL     OW32158   0.057   3.553   3.834
10420SOL    HW132159   0.042   3.635   3.778
10420SOL    HW232160   0.119   3.491   3.786
10421SOL     OW32161   0.353   0.898   3.206
10421SOL    HW132162   0.312   0.807   3.205
10421SOL    HW232163   0.363   0.932   3.112
10422SOL     OW32164   5.976   3.362   6.021
10422SOL    HW132165   6.049   3.365   5.952
10422SOL    HW232166   5.958   3.266   6.045
10423SOL     OW32167   5.326   4.478   3.236
10423SOL    HW132168   5.401   4.429   3.281
10423SOL    HW232169   5.352   4.574   3.225
10424SOL     OW32170   4.786   1.999   6.328
10424SOL    HW132171   4.801   2.063   6.253
10424SOL    HW232172   4.834   2.032   6.410
10425SOL     OW32173   2.186   6.527   1.749
10425SOL    HW132174   2.145   6.462   1.685
10425SOL    HW232175   2.266   6.569   1.707
10426SOL     OW32176   6.724   3.979   6.750
10426SOL    HW132177   6.707   4.062   6.803
10426SOL    HW232178   6.814   3.943   6.774
10427SOL     OW32179   4.891   1.530   0.375
10427SOL    HW132180   4.896   1.589   0.456
10427SOL    HW232181   4.968   1.549   0.315
10428SOL     OW32182   4.866   0.979   4.442
10428SOL    HW132183   4.866   0.882   4.416
10428SOL    HW232184   4.960   1.012   4.445
10429SOL     OW32185   6.306   6.195   2.053
10429SOL    HW132186   6.303   6.177   1.955
10429SOL    HW232187   6.367   6.130   2.098
10430SOL     OW32188   3.614   6.463   3.281
10430SOL    HW132189   3.688   6.482   3.217
10430SOL    HW232190   3.652   6.451   3.373
10431SOL     OW32191   3.118   0.954   5.032
10431SOL    HW132192   3.189   0.984   4.969
10431SOL    HW232193   3.070   0.875   4.992
10432SOL     OW32194   6.177   0.622   5.522
10432SOL    HW132195   6.115   0.555   5.481
10432SOL    HW232196   6.231   0.666   5.449
10433SOL     OW32197   2.492   6.590   0.910
10433SOL    HW132198   2.416   6.579   0.846
10433SOL    HW232199   2.549   6.508   0.907
10434SOL     OW32200   2.420   1.397   3.713
10434SOL    HW132201   2.357   1.400   3.636
10434SOL    HW232202   2.474   1.481   3.715
10435SOL     OW32203   5.235   6.465   0.212
10435SOL    HW132204   5.249   6.367   0.225
10435SOL    HW232205   5.159   6.496   0.269
10436SOL     OW32206   1.304   6.443   2.905
10436SOL    HW132207   1.327   6.450   3.002
10436SOL    HW232208   1.283   6.534   2.869
10437SOL     OW32209   6.795   4.702   6.121
10437SOL    HW132210   6.789   4.669   6.215
10437SOL    HW232211   6.796   4.802   6.121
10438SOL     OW32212   2.991   5.837   6.863
10438SOL    HW132213   3.052   5.914   6.882
10438SOL    HW232214   2.912   5.870   6.811
10439SOL     OW32215   3.969   6.778   6.066
10439SOL    HW132216   3.985   6.796   6.163
10439SOL    HW232217   4.014   6.692   6.041
10440SOL     OW32218   1.918   5.526   0.530
10440SOL    HW132219   1.877   5.611   0.496
10440SOL    HW232220   2.001   5.547   0.581
10441SOL     OW32221   5.276   1.518   6.634
10441SOL    HW132222   5.351   1.568   6.678
10441SOL    HW232223   5.311   1.431   6.598
10442SOL     OW32224   4.622   5.329   5.714
10442SOL    HW132225   4.597   5.327   5.617
10442SOL    HW232226   4.551   5.283   5.767
10443SOL     OW32227   6.078   2.955   5.131
10443SOL    HW132228   6.028   2.897   5.195
10443SOL    HW232229   6.113   2.900   5.056
10444SOL     OW32230   3.914   5.197   4.058
10444SOL    HW132231   3.819   5.195   4.090
10444SOL    HW232232   3.924   5.267   3.988
10445SOL     OW32233   6.372   6.033   4.865
10445SOL    HW132234   6.448   6.097   4.878
10445SOL    HW232235   6.285   6.082   4.880
10446SOL     OW32236   0.689   5.246   6.355
10446SOL    HW132237   0.596   5.212   6.346
10446SOL    HW232238   0.718   5.242   6.451
10447SOL     OW32239   6.011   2.249   1.339
10447SOL    HW132240   6.033   2.152   1.327
10447SOL    HW232241   6.053   2.302   1.265
10448SOL     OW32242   3.514   4.135   2.483
10448SOL    HW132243   3.433   4.078   2.478
10448SOL    HW232244   3.501   4.207   2.551
10449SOL     OW32245   1.915   5.175   4.288
10449SOL    HW132246   1.999   5.172   4.343
10449SOL    HW232247   1.840   5.134   4.339
10450SOL     OW32248   0.412   2.883   1.069
10450SOL    HW132249   0.490   2.918   1.016
10450SOL    HW232250   0.349   2.958   1.088
10451SOL     OW32251   2.301   4.215   2.782
10451SOL    HW132252   2.261   4.164   2.706
10451SOL    HW232253   2.360   4.288   2.746
10452SOL     OW32254   1.459   3.536   4.947
10452SOL    HW132255   1.477   3.568   4.854
10452SOL    HW232256   1.363   3.555   4.971
10453SOL     OW32257   5.018   6.985   1.804
10453SOL    HW132258   4.939   6.970   1.745
10453SOL    HW232259   5.084   6.910   1.792
10454SOL     OW32260   4.911   3.456   2.507
10454SOL    HW132261   4.836   3.509   2.549
10454SOL    HW232262   4.899   3.359   2.527
10455SOL     OW32263   0.129   4.523   3.352
10455SOL    HW132264   0.172   4.610   3.330
10455SOL    HW232265   0.042   4.515   3.302
10456SOL     OW32266   4.118   5.975   0.612
10456SOL    HW132267   4.171   6.052   0.649
10456SOL    HW232268   4.171   5.930   0.541
10457SOL     OW32269   3.437   3.902   3.883
10457SOL    HW132270   3.442   3.887   3.982
10457SOL    HW232271   3.389   3.826   3.840
10458SOL     OW32272   0.109   6.974   1.469
10458SOL    HW132273   0.012   6.951   1.476
10458SOL    HW232274   0.130   0.027   1.533
10459SOL     OW32275   6.807   5.531   2.414
10459SOL    HW132276   6.800   5.525   2.514
10459SOL    HW232277   6.821   5.439   2.377
10460SOL     OW32278   1.918   5.753   2.160
10460SOL    HW132279   1.856   5.831   2.170
10460SOL    HW232280   2.013   5.785   2.157
10461SOL     OW32281   2.485   1.607   6.586
10461SOL    HW132282   2.448   1.650   6.503
10461SOL    HW232283   2.575   1.646   6.606
10462SOL     OW32284   6.679   0.093   1.318
10462SOL    HW132285   6.683   7.018   1.289
10462SOL    HW232286   6.737   0.149   1.259
10463SOL     OW32287   2.786   3.818   1.125
10463SOL    HW132288   2.712   3.860   1.177
10463SOL    HW232289   2.770   3.719   1.117
10464SOL     OW32290   5.409   0.028   1.957
10464SOL    HW132291   5.333   6.986   1.940
10464SOL    HW232292   5.376   0.122   1.950
10465SOL     OW32293   6.413   5.010   5.672
10465SOL    HW132294   6.342   5.031   5.739
10465SOL    HW232295   6.427   4.910   5.668
10466SOL     OW32296   5.125   5.894   6.176
10466SOL    HW132297   5.105   5.989   6.203
10466SOL    HW232298   5.091   5.878   6.083
10467SOL     OW32299   3.979   0.794   4.276
10467SOL    HW132300   3.912   0.784   4.350
10467SOL    HW232301   3.953   0.872   4.218
10468SOL     OW32302   3.545   5.597   2.725
10468SOL    HW132303   3.510   5.669   2.665
10468SOL    HW232304   3.470   5.552   2.771
10469SOL     OW32305   1.206   4.485   0.522
10469SOL    HW132306   1.171   4.392   0.509
10469SOL    HW232307   1.291   4.481   0.576
10470SOL     OW32308   3.016   1.579   4.401
10470SOL    HW132309   3.066   1.502   4.441
10470SOL    HW232310   2.947   1.544   4.338
10471SOL     OW32311   3.894   3.603   0.616
10471SOL    HW132312   3.979   3.602   0.564
10471SOL    HW232313   3.874   3.696   0.645
10472SOL     OW32314   4.380   1.325   2.475
10472SOL    HW132315   4.332   1.252   2.425
10472SOL    HW232316   4.461   1.353   2.423
10473SOL     OW32317   4.953   5.773   0.555
10473SOL    HW132318   4.881   5.767   0.624
10473SOL    HW232319   5.026   5.708   0.577
10474SOL     OW32320   4.330   7.005   4.355
10474SOL    HW132321   4.327   6.995   4.255
10474SOL    HW232322   4.376   6.925   4.395
10475SOL     OW32323   4.420   5.900   1.312
10475SOL    HW132324   4.367   5.919   1.230
10475SOL    HW232325   4.464   5.811   1.304
10476SOL     OW32326   0.163   4.626   0.870
10476SOL    HW132327   0.212   4.670   0.794
10476SOL    HW232328   0.084   4.577   0.833
10477SOL     OW32329   5.499   4.554   4.812
10477SOL    HW132330   5.542   4.636   4.774
10477SOL    HW232331   5.462   4.498   4.738
10478SOL     OW32332   0.492   6.332   1.815
10478SOL    HW132333   0.425   6.261   1.796
10478SOL    HW232334   0.578   6.309   1.769
10479SOL     OW32335   1.762   4.927   3.323
10479SOL    HW132336   1.686   4.950   3.384
10479SOL    HW232337   1.819   4.858   3.366
10480SOL     OW32338   6.132   0.071   2.715
10480SOL    HW132339   6.178   0.157   2.695
10480SOL    HW232340   6.046   0.067   2.664
10481SOL     OW32341   2.532   0.459   5.206
10481SOL    HW132342   2.554   0.478   5.111
10481SOL    HW232343   2.598   0.506   5.265
10482SOL     OW32344   0.937   5.251   5.980
10482SOL    HW132345   0.924   5.164   6.026
10482SOL    HW232346   0.947   5.236   5.882
10483SOL     OW32347   6.674   5.430   0.631
10483SOL    HW132348   6.582   5.406   0.600
10483SOL    HW232349   6.676   5.430   0.731
10484SOL     OW32350   5.955   2.180   1.652
10484SOL    HW132351   5.985   2.103   1.709
10484SOL    HW232352   6.035   2.224   1.611
10485SOL     OW32353   3.205   4.135   3.561
10485SOL    HW132354   3.208   4.139   3.661
10485SOL    HW232355   3.226   4.226   3.524
10486SOL     OW32356   6.147   5.908   5.289
10486SOL    HW132357   6.107   5.948   5.206
10486SOL    HW232358   6.109   5.818   5.305
10487SOL     OW32359   4.610   1.787   2.250
10487SOL    HW132360   4.604   1.863   2.314
10487SOL    HW232361   4.704   1.775   2.219
10488SOL     OW32362   6.832   2.115   5.483
10488SOL    HW132363   6.829   2.138   5.386
10488SOL    HW232364   6.925   2.132   5.518
10489SOL     OW32365   6.142   4.106   4.653
10489SOL    HW132366   6.121   4.162   4.733
10489SOL    HW232367   6.203   4.156   4.592
10490SOL     OW32368   5.797   6.907   0.480
10490SOL    HW132369   5.709   6.945   0.505
10490SOL    HW232370   5.810   6.914   0.381
10491SOL     OW32371   2.002   2.634   5.386
10491SOL    HW132372   2.091   2.661   5.423
10491SOL    HW232373   1.934   2.703   5.410
10492SOL     OW32374   3.982   6.639   6.887
10492SOL    HW132375   4.039   6.587   6.951
10492SOL    HW232376   3.957   6.727   6.928
10493SOL     OW32377   3.486   5.498   1.500
10493SOL    HW132378   3.528   5.536   1.418
10493SOL    HW232379   3.531   5.412   1.524
10494SOL     OW32380   1.256   4.222   4.472
10494SOL    HW132381   1.295   4.164   4.401
10494SOL    HW232382   1.330   4.266   4.524
10495SOL     OW32383   6.815   6.098   0.778
10495SOL    HW132384   6.745   6.102   0.850
10495SOL    HW232385   6.891   6.158   0.802
10496SOL     OW32386   0.488   3.548   5.964
10496SOL    HW132387   0.535   3.524   6.049
10496SOL    HW232388   0.443   3.467   5.927
10497SOL     OW32389   2.482   0.165   1.866
10497SOL    HW132390   2.423   0.140   1.943
10497SOL    HW232391   2.577   0.145   1.889
10498SOL     OW32392   4.774   4.115   6.845
10498SOL    HW132393   4.873   4.112   6.831
10498SOL    HW232394   4.734   4.179   6.779
10499SOL     OW32395   5.919   3.960   2.532
10499SOL    HW132396   5.926   3.906   2.616
10499SOL    HW232397   5.977   4.041   2.539
10500SOL     OW32398   0.895   3.682   5.364
10500SOL    HW132399   0.912   3.778   5.383
10500SOL    HW232400   0.972   3.644   5.312
10501SOL     OW32401   3.624   4.915   3.258
10501SOL    HW132402   3.624   4.844   3.187
10501SOL    HW232403   3.606   5.004   3.215
10502SOL     OW32404   3.684   3.595   2.318
10502SOL    HW132405   3.742   3.524   2.359
10502SOL    HW232406   3.698   3.597   2.219
10503SOL     OW32407   0.204   1.794   6.431
10503SOL    HW132408   0.137   1.735   6.477
10503SOL    HW232409   0.212   1.767   6.335
10504SOL     OW32410   0.712   3.031   5.693
10504SOL    HW132411   0.717   3.131   5.688
10504SOL    HW232412   0.674   3.004   5.782
10505SOL     OW32413   5.801   0.085   0.840
10505SOL    HW132414   5.897   0.080   0.813
10505SOL    HW232415   5.747   0.022   0.784
10506SOL     OW32416   1.110   3.305   6.261
10506SOL    HW132417   1.118   3.222   6.206
10506SOL    HW232418   1.057   3.374   6.209
10507SOL     OW32419   1.252   5.137   5.799
10507SOL    HW132420   1.229   5.046   5.833
10507SOL    HW232421   1.168   5.192   5.792
10508SOL     OW32422   1.664   5.457   5.593
10508SOL    HW132423   1.611   5.499   5.667
10508SOL    HW232424   1.616   5.376   5.560
10509SOL     OW32425   4.522   2.283   2.175
10509SOL    HW132426   4.579   2.294   2.256
10509SOL    HW232427   4.427   2.304   2.198
10510SOL     OW32428   5.731   5.793   3.567
10510SOL    HW132429   5.771   5.774   3.656
10510SOL    HW232430   5.801   5.832   3.507
10511SOL     OW32431   4.440   1.505   1.175
10511SOL    HW132432   4.514   1.491   1.241
10511SOL    HW232433   4.366   1.554   1.219
10512SOL     OW32434   4.536   0.942   4.784
10512SOL    HW132435   4.494   0.917   4.872
10512SOL    HW232436   4.532   0.864   4.722
10513SOL     OW32437   4.050   2.730   0.882
10513SOL    HW132438   3.980   2.722   0.812
10513SOL    HW232439   4.007   2.749   0.970
10514SOL     OW32440   1.766   3.611   1.909
10514SOL    HW132441   1.806   3.591   1.998
10514SOL    HW232442   1.829   3.667   1.856
10515SOL     OW32443   2.277   2.804   4.821
10515SOL    HW132444   2.318   2.715   4.844
10515SOL    HW232445   2.280   2.864   4.901
10516SOL     OW32446   4.843   2.641   1.511
10516SOL    HW132447   4.877   2.555   1.473
10516SOL    HW232448   4.751   2.659   1.478
10517SOL     OW32449   0.934   2.858   2.462
10517SOL    HW132450   1.019   2.811   2.487
10517SOL    HW232451   0.856   2.801   2.486
10518SOL     OW32452   0.668   5.302   2.901
10518SOL    HW132453   0.595   5.369   2.911
10518SOL    HW232454   0.716   5.293   2.989
10519SOL     OW32455   3.982   0.448   0.805
10519SOL    HW132456   4.055   0.379   0.803
10519SOL    HW232457   3.974   0.485   0.898
10520SOL     OW32458   0.716   2.596   5.616
10520SOL    HW132459   0.702   2.561   5.708
10520SOL    HW232460   0.781   2.673   5.619
10521SOL     OW32461   6.124   2.806   2.941
10521SOL    HW132462   6.183   2.728   2.959
10521SOL    HW232463   6.113   2.859   3.025
10522SOL     OW32464   5.737   2.149   4.008
10522SOL    HW132465   5.696   2.147   4.100
10522SOL    HW232466   5.695   2.222   3.955
10523SOL     OW32467   1.301   4.139   2.853
10523SOL    HW132468   1.309   4.039   2.858
10523SOL    HW232469   1.275   4.175   2.943
10524SOL     OW32470   6.510   6.587   5.462
10524SOL    HW132471   6.422   6.592   5.510
10524SOL    HW232472   6.499   6.534   5.378
10525SOL     OW32473   5.356   1.531   4.258
10525SOL    HW132474   5.345   1.574   4.348
10525SOL    HW232475   5.278   1.553   4.200
10526SOL     OW32476   0.658   4.902   6.992
10526SOL    HW132477   0.674   4.809   0.003
10526SOL    HW232478   0.561   4.913   6.971
10527SOL     OW32479   0.745   6.933   5.770
10527SOL    HW132480   0.759   6.839   5.742
10527SOL    HW232481   0.784   6.948   5.861
10528SOL     OW32482   1.402   3.914   5.439
10528SOL    HW132483   1.470   3.979   5.473
10528SOL    HW232484   1.432   3.877   5.351
10529SOL     OW32485   0.145   5.581   0.519
10529SOL    HW132486   0.192   5.607   0.603
10529SOL    HW232487   0.209   5.583   0.442
10530SOL     OW32488   6.908   6.083   1.278
10530SOL    HW132489   6.937   6.097   1.373
10530SOL    HW232490   6.827   6.137   1.259
10531SOL     OW32491   3.268   3.486   4.949
10531SOL    HW132492   3.191   3.433   4.915
10531SOL    HW232493   3.303   3.443   5.033
10532SOL     OW32494   5.390   5.988   6.825
10532SOL    HW132495   5.474   5.943   6.855
10532SOL    HW232496   5.396   6.010   6.728
10533SOL     OW32497   3.781   0.483   2.938
10533SOL    HW132498   3.789   0.456   2.842
10533SOL    HW232499   3.846   0.556   2.958
10534SOL     OW32500   1.451   6.138   3.692
10534SOL    HW132501   1.537   6.098   3.657
10534SOL    HW232502   1.387   6.064   3.714
10535SOL     OW32503   3.317   2.143   2.776
10535SOL    HW132504   3.361   2.155   2.687
10535SOL    HW232505   3.383   2.158   2.849
10536SOL     OW32506   5.074   3.203   4.696
10536SOL    HW132507   5.170   3.179   4.714
10536SOL    HW232508   5.054   3.292   4.739
10537SOL     OW32509   3.494   0.265   3.998
10537SOL    HW132510   3.494   0.242   4.095
10537SOL    HW232511   3.450   0.354   3.985
10538SOL     OW32512   6.916   3.110   3.004
10538SOL    HW132513   6.909   3.013   3.025
10538SOL    HW232514   6.848   3.161   3.057
10539SOL     OW32515   0.144   0.270   3.414
10539SOL    HW132516   0.114   0.328   3.489
10539SOL    HW232517   0.072   0.265   3.344
10540SOL     OW32518   1.432   4.619   6.660
10540SOL    HW132519   1.462   4.607   6.755
10540SOL    HW232520   1.344   4.574   6.647
10541SOL     OW32521   2.823   3.469   5.279
10541SOL    HW132522   2.823   3.482   5.180
10541SOL    HW232523   2.776   3.384   5.302
10542SOL     OW32524   5.231   6.745   3.371
10542SOL    HW132525   5.145   6.695   3.376
10542SOL    HW232526   5.286   6.709   3.296
10543SOL     OW32527   1.468   3.381   3.783
10543SOL    HW132528   1.531   3.385   3.705
10543SOL    HW232529   1.508   3.323   3.854
10544SOL     OW32530   2.650   1.579   3.077
10544SOL    HW132531   2.699   1.516   3.138
10544SOL    HW232532   2.685   1.570   2.984
10545SOL     OW32533   2.337   2.719   2.672
10545SOL    HW132534   2.327   2.765   2.584
10545SOL    HW232535   2.299   2.776   2.745
10546SOL     OW32536   2.899   0.199   6.480
10546SOL    HW132537   2.868   0.262   6.552
10546SOL    HW232538   2.820   0.154   6.438
10547SOL     OW32539   4.623   6.640   5.788
10547SOL    HW132540   4.528   6.671   5.793
10547SOL    HW232541   4.663   6.670   5.701
10548SOL     OW32542   6.908   6.178   2.838
10548SOL    HW132543   6.921   6.174   2.739
10548SOL    HW232544   6.811   6.195   2.858
10549SOL     OW32545   6.527   0.298   1.667
10549SOL    HW132546   6.446   0.264   1.619
10549SOL    HW232547   6.572   0.368   1.612
10550SOL     OW32548   5.272   5.942   3.060
10550SOL    HW132549   5.357   5.991   3.077
10550SOL    HW232550   5.292   5.846   3.041
10551SOL     OW32551   3.149   0.389   5.280
10551SOL    HW132552   3.214   0.463   5.265
10551SOL    HW232553   3.104   0.402   5.368
10552SOL     OW32554   2.793   6.978   3.958
10552SOL    HW132555   2.890   6.965   3.937
10552SOL    HW232556   2.752   0.019   3.891
10553SOL     OW32557   6.354   5.417   1.225
10553SOL    HW132558   6.278   5.470   1.187
10553SOL    HW232559   6.436   5.474   1.227
10554SOL     OW32560   5.881   6.210   2.803
10554SOL    HW132561   5.971   6.166   2.805
10554SOL    HW232562   5.862   6.250   2.892
10555SOL     OW32563   3.410   3.219   1.045
10555SOL    HW132564   3.425   3.296   0.984
10555SOL    HW232565   3.359   3.249   1.125
10556SOL     OW32566   2.375   1.626   2.289
10556SOL    HW132567   2.358   1.529   2.272
10556SOL    HW232568   2.450   1.636   2.354
10557SOL     OW32569   2.262   4.887   3.295
10557SOL    HW132570   2.339   4.943   3.324
10557SOL    HW232571   2.293   4.821   3.226
10558SOL     OW32572   3.425   4.980   5.485
10558SOL    HW132573   3.498   5.044   5.462
10558SOL    HW232574   3.372   4.959   5.403
10559SOL     OW32575   4.141   6.565   1.143
10559SOL    HW132576   4.063   6.503   1.134
10559SOL    HW232577   4.153   6.616   1.058
10560SOL     OW32578   5.885   6.796   3.107
10560SOL    HW132579   5.918   6.858   3.037
10560SOL    HW232580   5.960   6.738   3.139
10561SOL     OW32581   6.768   4.678   6.828
10561SOL    HW132582   6.815   4.682   6.916
10561SOL    HW232583   6.735   4.585   6.811
10562SOL     OW32584   4.760   5.704   2.353
10562SOL    HW132585   4.780   5.801   2.365
10562SOL    HW232586   4.686   5.693   2.287
10563SOL     OW32587   0.385   0.099   2.234
10563SOL    HW132588   0.412   0.133   2.324
10563SOL    HW232589   0.286   0.108   2.223
10564SOL     OW32590   5.008   4.156   3.504
10564SOL    HW132591   5.052   4.104   3.430
10564SOL    HW232592   4.913   4.128   3.512
10565SOL     OW32593   1.124   0.923   6.113
10565SOL    HW132594   1.107   0.842   6.058
10565SOL    HW232595   1.070   0.999   6.078
10566SOL     OW32596   3.693   2.299   7.015
10566SOL    HW132597   3.708   2.216   0.048
10566SOL    HW232598   3.771   2.361   0.006
10567SOL     OW32599   2.162   2.616   5.679
10567SOL    HW132600   2.242   2.556   5.688
10567SOL    HW232601   2.079   2.560   5.675
10568SOL     OW32602   4.406   2.345   6.046
10568SOL    HW132603   4.488   2.340   5.989
10568SOL    HW232604   4.396   2.437   6.083
10569SOL     OW32605   5.758   0.163   0.285
10569SOL    HW132606   5.804   0.075   0.273
10569SOL    HW232607   5.797   0.210   0.364
10570SOL     OW32608   1.220   4.021   3.269
10570SOL    HW132609   1.269   3.939   3.239
10570SOL    HW232610   1.262   4.057   3.352
10571SOL     OW32611   6.093   4.313   5.575
10571SOL    HW132612   6.022   4.336   5.509
10571SOL    HW232613   6.141   4.230   5.545
10572SOL     OW32614   6.044   4.176   1.037
10572SOL    HW132615   6.100   4.234   1.095
10572SOL    HW232616   6.012   4.097   1.089
10573SOL     OW32617   6.585   1.902   2.734
10573SOL    HW132618   6.522   1.944   2.670
10573SOL    HW232619   6.534   1.841   2.795
10574SOL     OW32620   5.680   2.749   2.535
10574SOL    HW132621   5.774   2.716   2.545
10574SOL    HW232622   5.643   2.720   2.447
10575SOL     OW32623   5.850   6.718   2.462
10575SOL    HW132624   5.935   6.753   2.424
10575SOL    HW232625   5.846   6.619   2.452
10576SOL     OW32626   1.440   4.360   4.187
10576SOL    HW132627   1.402   4.453   4.181
10576SOL    HW232628   1.539   4.365   4.196
10577SOL     OW32629   3.579   3.835   0.155
10577SOL    HW132630   3.612   3.780   0.078
10577SOL    HW232631   3.548   3.924   0.121
10578SOL     OW32632   0.492   3.834   3.775
10578SOL    HW132633   0.459   3.904   3.711
10578SOL    HW232634   0.538   3.761   3.724
10579SOL     OW32635   0.505   3.607   6.715
10579SOL    HW132636   0.467   3.694   6.746
10579SOL    HW232637   0.595   3.623   6.675
10580SOL     OW32638   6.129   0.207   0.366
10580SOL    HW132639   6.222   0.240   0.350
10580SOL    HW232640   6.097   0.155   0.287
10581SOL     OW32641   4.458   0.154   2.926
10581SOL    HW132642   4.500   0.170   2.837
10581SOL    HW232643   4.463   0.238   2.981
10582SOL     OW32644   6.422   3.645   6.435
10582SOL    HW132645   6.473   3.711   6.490
10582SOL    HW232646   6.325   3.668   6.437
10583SOL     OW32647   3.282   1.890   5.210
10583SOL    HW132648   3.349   1.910   5.281
10583SOL    HW232649   3.299   1.950   5.131
10584SOL     OW32650   0.721   6.768   3.709
10584SOL    HW132651   0.772   6.696   3.661
10584SOL    HW232652   0.773   6.853   3.706
10585SOL     OW32653   1.595   0.848   5.556
10585SOL    HW132654   1.570   0.925   5.615
10585SOL    HW232655   1.661   0.878   5.488
10586SOL     OW32656   4.112   4.254   5.259
10586SOL    HW132657   4.166   4.206   5.328
10586SOL    HW232658   4.171   4.318   5.209
10587SOL     OW32659   2.233   5.217   5.786
10587SOL    HW132660   2.244   5.187   5.691
10587SOL    HW232661   2.307   5.280   5.809
10588SOL     OW32662   1.557   3.924   3.374
10588SOL    HW132663   1.496   3.851   3.343
10588SOL    HW232664   1.507   3.989   3.431
10589SOL     OW32665   5.523   6.345   4.204
10589SOL    HW132666   5.491   6.409   4.134
10589SOL    HW232667   5.599   6.387   4.254
10590SOL     OW32668   0.352   4.997   2.197
10590SOL    HW132669   0.310   5.018   2.285
10590SOL    HW232670   0.358   5.080   2.142
10591SOL     OW32671   6.880   3.360   1.950
10591SOL    HW132672   6.883   3.459   1.962
10591SOL    HW232673   6.843   3.339   1.859
10592SOL     OW32674   7.017   1.048   5.187
10592SOL    HW132675   0.005   1.148   5.182
10592SOL    HW232676   6.925   1.021   5.161
10593SOL     OW32677   2.708   5.328   3.113
10593SOL    HW132678   2.721   5.292   3.205
10593SOL    HW232679   2.616   5.306   3.080
10594SOL     OW32680   3.407   5.343   3.645
10594SOL    HW132681   3.418   5.441   3.627
10594SOL    HW232682   3.395   5.294   3.559
10595SOL     OW32683   4.813   0.093   0.818
10595SOL    HW132684   4.744   0.137   0.760
10595SOL    HW232685   4.882   0.049   0.761
10596SOL     OW32686   5.186   3.623   0.079
10596SOL    HW132687   5.173   3.591   0.173
10596SOL    HW232688   5.229   3.550   0.025
10597SOL     OW32689   1.846   6.697   4.352
10597SOL    HW132690   1.872   6.681   4.257
10597SOL    HW232691   1.870   6.617   4.407
10598SOL     OW32692   3.275   1.019   6.242
10598SOL    HW132693   3.354   1.048   6.188
10598SOL    HW232694   3.203   1.089   6.235
10599SOL     OW32695   0.600   1.810   0.536
10599SOL    HW132696   0.676   1.861   0.576
10599SOL    HW232697   0.615   1.799   0.438
10600SOL     OW32698   3.611   2.015   1.586
10600SOL    HW132699   3.554   2.071   1.646
10600SOL    HW232700   3.706   2.045   1.593
10601SOL     OW32701   2.306   0.660   5.086
10601SOL    HW132702   2.401   0.693   5.087
10601SOL    HW232703   2.267   0.668   5.177
10602SOL     OW32704   6.882   6.885   1.539
10602SOL    HW132705   6.917   6.854   1.628
10602SOL    HW232706   6.795   6.841   1.520
10603SOL     OW32707   5.390   0.427   2.628
10603SOL    HW132708   5.415   0.334   2.599
10603SOL    HW232709   5.357   0.425   2.722
10604SOL     OW32710   5.140   0.708   4.933
10604SOL    HW132711   5.089   0.626   4.904
10604SOL    HW232712   5.135   0.777   4.862
10605SOL     OW32713   2.922   2.193   1.295
10605SOL    HW132714   2.891   2.170   1.203
10605SOL    HW232715   3.003   2.140   1.318
10606SOL     OW32716   6.812   0.982   0.174
10606SOL    HW132717   6.719   0.972   0.208
10606SOL    HW232718   6.831   0.909   0.108
10607SOL     OW32719   3.169   4.281   6.900
10607SOL    HW132720   3.157   4.280   7.000
10607SOL    HW232721   3.217   4.364   6.873
10608SOL     OW32722   5.483   4.091   4.309
10608SOL    HW132723   5.515   4.010   4.359
10608SOL    HW232724   5.544   4.109   4.232
10609SOL     OW32725   5.747   0.688   6.464
10609SOL    HW132726   5.828   0.632   6.483
10609SOL    HW232727   5.695   0.701   6.548
10610SOL     OW32728   0.712   1.015   3.323
10610SOL    HW132729   0.651   1.000   3.400
10610SOL    HW232730   0.773   1.092   3.343
10611SOL     OW32731   3.708   5.564   4.700
10611SOL    HW132732   3.799   5.599   4.721
10611SOL    HW232733   3.704   5.466   4.722
10612SOL     OW32734   6.518   2.174   3.347
10612SOL    HW132735   6.419   2.159   3.340
10612SOL    HW232736   6.563   2.089   3.375
10613SOL     OW32737   4.262   6.363   4.211
10613SOL    HW132738   4.202   6.395   4.139
10613SOL    HW232739   4.276   6.264   4.203
10614SOL     OW32740   4.116   1.834   5.912
10614SOL    HW132741   4.156   1.828   5.820
10614SOL    HW232742   4.052   1.910   5.915
10615SOL     OW32743   2.244   1.605   5.137
10615SOL    HW132744   2.271   1.701   5.140
10615SOL    HW232745   2.149   1.596   5.168
10616SOL     OW32746   1.766   5.990   6.776
10616SOL    HW132747   1.706   5.929   6.827
10616SOL    HW232748   1.814   5.938   6.705
10617SOL     OW32749   2.181   2.971   1.463
10617SOL    HW132750   2.128   3.052   1.437
10617SOL    HW232751   2.119   2.894   1.479
10618SOL     OW32752   1.108   5.273   4.010
10618SOL    HW132753   1.120   5.356   3.954
10618SOL    HW232754   1.126   5.294   4.106
10619SOL     OW32755   1.168   2.728   2.538
10619SOL    HW132756   1.257   2.716   2.495
10619SOL    HW232757   1.181   2.758   2.633
10620SOL     OW32758   3.506   0.496   5.841
10620SOL    HW132759   3.438   0.569   5.834
10620SOL    HW232760   3.556   0.489   5.754
10621SOL     OW32761   0.617   3.508   3.225
10621SOL    HW132762   0.651   3.472   3.138
10621SOL    HW232763   0.694   3.543   3.278
10622SOL     OW32764   4.410   2.027   6.893
10622SOL    HW132765   4.361   2.102   6.849
10622SOL    HW232766   4.500   2.058   6.922
10623SOL     OW32767   5.016   6.413   5.966
10623SOL    HW132768   5.021   6.315   5.946
10623SOL    HW232769   4.921   6.443   5.962
10624SOL     OW32770   0.714   2.213   0.410
10624SOL    HW132771   0.656   2.292   0.393
10624SOL    HW232772   0.808   2.243   0.426
10625SOL     OW32773   6.128   5.387   0.105
10625SOL    HW132774   6.160   5.480   0.124
10625SOL    HW232775   6.043   5.371   0.155
10626SOL     OW32776   5.404   2.981   0.922
10626SOL    HW132777   5.477   2.927   0.964
10626SOL    HW232778   5.437   3.074   0.906
10627SOL     OW32779   5.668   5.561   5.215
10627SOL    HW132780   5.621   5.497   5.275
10627SOL    HW232781   5.706   5.637   5.269
10628SOL     OW32782   3.163   6.512   0.113
10628SOL    HW132783   3.201   6.421   0.099
10628SOL    HW232784   3.225   6.580   0.073
10629SOL     OW32785   3.964   5.466   4.713
10629SOL    HW132786   3.974   5.377   4.668
10629SOL    HW232787   4.050   5.517   4.705
10630SOL     OW32788   3.841   1.574   1.555
10630SOL    HW132789   3.798   1.546   1.641
10630SOL    HW232790   3.769   1.604   1.491
10631SOL     OW32791   3.512   5.621   1.066
10631SOL    HW132792   3.571   5.680   1.010
10631SOL    HW232793   3.490   5.538   1.015
10632SOL     OW32794   5.160   6.097   4.017
10632SOL    HW132795   5.062   6.100   4.001
10632SOL    HW232796   5.208   6.142   3.941
10633SOL     OW32797   1.907   3.324   0.930
10633SOL    HW132798   1.859   3.343   0.845
10633SOL    HW232799   1.853   3.355   1.008
10634SOL     OW32800   0.142   4.284   6.880
10634SOL    HW132801   0.049   4.321   6.876
10634SOL    HW232802   0.206   4.350   6.842
10635SOL     OW32803   2.488   5.403   6.480
10635SOL    HW132804   2.566   5.342   6.488
10635SOL    HW232805   2.514   5.483   6.426
10636SOL     OW32806   6.678   2.112   0.014
10636SOL    HW132807   6.607   2.060   0.061
10636SOL    HW232808   6.663   2.210   0.028
10637SOL     OW32809   2.542   0.416   6.675
10637SOL    HW132810   2.633   0.430   6.636
10637SOL    HW232811   2.526   0.482   6.749
10638SOL     OW32812   5.688   5.034   1.088
10638SOL    HW132813   5.635   5.089   1.153
10638SOL    HW232814   5.785   5.059   1.095
10639SOL     OW32815   0.516   5.440   1.839
10639SOL    HW132816   0.496   5.413   1.744
10639SOL    HW232817   0.441   5.495   1.874
10640SOL     OW32818   4.637   6.570   3.652
10640SOL    HW132819   4.616   6.474   3.633
10640SOL    HW232820   4.629   6.586   3.750
10641SOL     OW32821   1.376   1.208   3.179
10641SOL    HW132822   1.470   1.196   3.212
10641SOL    HW232823   1.368   1.297   3.134
10642SOL     OW32824   0.044   3.170   5.905
10642SOL    HW132825   0.100   3.178   5.988
10642SOL    HW232826   6.977   3.216   5.920
10643SOL     OW32827   2.730   5.312   5.753
10643SOL    HW132828   2.817   5.282   5.794
10643SOL    HW232829   2.654   5.265   5.799
10644SOL     OW32830   6.429   2.921   2.808
10644SOL    HW132831   6.339   2.882   2.829
10644SOL    HW232832   6.417   3.008   2.760
10645SOL     OW32833   1.995   2.261   3.156
10645SOL    HW132834   2.025   2.356   3.154
10645SOL    HW232835   2.034   2.212   3.079
10646SOL     OW32836   5.111   0.558   3.497
10646SOL    HW132837   5.110   0.514   3.408
10646SOL    HW232838   5.202   0.597   3.514
10647SOL     OW32839   3.565   5.775   5.654
10647SOL    HW132840   3.508   5.739   5.728
10647SOL    HW232841   3.632   5.705   5.627
10648SOL     OW32842   4.790   4.315   5.633
10648SOL    HW132843   4.758   4.225   5.603
10648SOL    HW232844   4.796   4.377   5.555
10649SOL     OW32845   5.958   3.179   2.871
10649SOL    HW132846   5.993   3.270   2.893
10649SOL    HW232847   5.875   3.188   2.815
10650SOL     OW32848   0.865   6.995   3.729
10650SOL    HW132849   0.944   6.938   3.711
10650SOL    HW232850   0.895   0.068   3.748
10651SOL     OW32851   3.065   6.186   5.987
10651SOL    HW132852   3.112   6.226   5.909
10651SOL    HW232853   3.129   6.176   6.063
10652SOL     OW32854   2.054   0.507   0.587
10652SOL    HW132855   2.046   0.606   0.598
10652SOL    HW232856   2.018   0.480   0.498
10653SOL     OW32857   4.665   5.793   4.269
10653SOL    HW132858   4.660   5.695   4.246
10653SOL    HW232859   4.723   5.805   4.349
10654SOL     OW32860   6.072   1.526   4.470
10654SOL    HW132861   6.161   1.484   4.489
10654SOL    HW232862   6.034   1.488   4.386
10655SOL     OW32863   0.023   4.379   2.001
10655SOL    HW132864   0.074   4.408   2.083
10655SOL    HW232865   0.050   4.286   1.977
10656SOL     OW32866   6.118   2.540   3.853
10656SOL    HW132867   6.026   2.528   3.888
10656SOL    HW232868   6.124   2.626   3.803
10657SOL     OW32869   4.696   6.759   4.261
10657SOL    HW132870   4.762   6.778   4.333
10657SOL    HW232871   4.712   6.667   4.225
10658SOL     OW32872   0.740   2.733   5.312
10658SOL    HW132873   0.803   2.664   5.347
10658SOL    HW232874   0.682   2.693   5.240
10659SOL     OW32875   0.625   5.970   0.683
10659SOL    HW132876   0.687   5.897   0.710
10659SOL    HW232877   0.673   6.033   0.622
10660SOL     OW32878   5.484   3.105   5.468
10660SOL    HW132879   5.414   3.099   5.397
10660SOL    HW232880   5.476   3.192   5.516
10661SOL     OW32881   2.776   4.787   5.818
10661SOL    HW132882   2.852   4.825   5.764
10661SOL    HW232883   2.693   4.838   5.799
10662SOL     OW32884   2.269   1.050   1.374
10662SOL    HW132885   2.300   0.990   1.447
10662SOL    HW232886   2.241   1.138   1.413
10663SOL     OW32887   0.950   1.738   3.369
10663SOL    HW132888   1.042   1.772   3.386
10663SOL    HW232889   0.913   1.698   3.453
10664SOL     OW32890   0.699   5.294   5.007
10664SOL    HW132891   0.740   5.270   5.095
10664SOL    HW232892   0.743   5.241   4.934
10665SOL     OW32893   2.911   3.321   6.968
10665SOL    HW132894   2.911   3.227   6.937
10665SOL    HW232895   2.975   3.375   6.912
10666SOL     OW32896   3.615   4.097   1.351
10666SOL    HW132897   3.553   4.028   1.390
10666SOL    HW232898   3.623   4.173   1.415
10667SOL     OW32899   5.126   2.442   3.403
10667SOL    HW132900   5.213   2.448   3.451
10667SOL    HW232901   5.071   2.369   3.443
10668SOL     OW32902   3.184   2.988   5.640
10668SOL    HW132903   3.122   3.041   5.697
10668SOL    HW232904   3.136   2.906   5.607
10669SOL     OW32905   5.448   1.453   1.827
10669SOL    HW132906   5.524   1.452   1.762
10669SOL    HW232907   5.361   1.451   1.778
10670SOL     OW32908   4.906   3.952   4.677
10670SOL    HW132909   4.994   3.949   4.629
10670SOL    HW232910   4.837   3.994   4.618
10671SOL     OW32911   1.654   3.194   4.968
10671SOL    HW132912   1.672   3.288   4.998
10671SOL    HW232913   1.695   3.130   5.033
10672SOL     OW32914   5.873   3.453   1.804
10672SOL    HW132915   5.835   3.544   1.819
10672SOL    HW232916   5.878   3.404   1.891
10673SOL     OW32917   2.010   1.388   1.052
10673SOL    HW132918   1.992   1.299   1.094
10673SOL    HW232919   1.924   1.440   1.045
10674SOL     OW32920   3.851   3.964   3.411
10674SOL    HW132921   3.881   4.019   3.333
10674SOL    HW232922   3.757   3.990   3.434
10675SOL     OW32923   3.775   6.711   5.286
10675SOL    HW132924   3.849   6.644   5.278
10675SOL    HW232925   3.710   6.680   5.356
10676SOL     OW32926   1.750   0.564   5.449
10676SOL    HW132927   1.743   0.654   5.407
10676SOL    HW232928   1.682   0.556   5.522
10677SOL     OW32929   0.272   1.411   0.572
10677SOL    HW132930   0.284   1.364   0.485
10677SOL    HW232931   0.357   1.458   0.597
10678SOL     OW32932   3.850   5.636   3.177
10678SOL    HW132933   3.791   5.580   3.118
10678SOL    HW232934   3.941   5.641   3.137
10679SOL     OW32935   4.561   3.508   6.681
10679SOL    HW132936   4.629   3.559   6.627
10679SOL    HW232937   4.580   3.521   6.779
10680SOL     OW32938   4.245   1.215   4.327
10680SOL    HW132939   4.313   1.179   4.264
10680SOL    HW232940   4.289   1.238   4.414
10681SOL     OW32941   1.428   2.725   5.297
10681SOL    HW132942   1.463   2.802   5.351
10681SOL    HW232943   1.449   2.740   5.200
10682SOL     OW32944   5.026   3.252   6.205
10682SOL    HW132945   5.086   3.331   6.212
10682SOL    HW232946   5.043   3.189   6.281
10683SOL     OW32947   2.737   0.427   3.872
10683SOL    HW132948   2.680   0.350   3.843
10683SOL    HW232949   2.785   0.403   3.956
10684SOL     OW32950   4.265   4.857   2.317
10684SOL    HW132951   4.291   4.784   2.254
10684SOL    HW232952   4.334   4.930   2.314
10685SOL     OW32953   0.817   6.047   1.364
10685SOL    HW132954   0.734   6.082   1.321
10685SOL    HW232955   0.794   6.003   1.451
10686SOL     OW32956   2.921   1.579   6.486
10686SOL    HW132957   2.870   1.553   6.404
10686SOL    HW232958   2.902   1.514   6.559
10687SOL     OW32959   0.441   3.912   3.201
10687SOL    HW132960   0.430   3.863   3.287
10687SOL    HW232961   0.508   3.864   3.143
10688SOL     OW32962   4.880   1.997   2.330
10688SOL    HW132963   4.876   1.956   2.238
10688SOL    HW232964   4.787   2.015   2.362
10689SOL     OW32965   0.106   0.296   2.958
10689SOL    HW132966   0.061   0.206   2.954
10689SOL    HW232967   0.189   0.294   2.903
10690SOL     OW32968   6.977   6.840   4.129
10690SOL    HW132969   6.962   6.892   4.214
10690SOL    HW232970   0.055   6.828   4.115
10691SOL     OW32971   3.107   0.337   2.754
10691SOL    HW132972   3.199   0.308   2.727
10691SOL    HW232973   3.089   0.430   2.722
10692SOL     OW32974   2.027   0.678   4.051
10692SOL    HW132975   1.928   0.668   4.039
10692SOL    HW232976   2.048   0.771   4.081
10693SOL     OW32977   1.793   5.107   0.522
10693SOL    HW132978   1.837   5.083   0.608
10693SOL    HW232979   1.757   5.201   0.527
10694SOL     OW32980   4.455   6.686   5.353
10694SOL    HW132981   4.523   6.688   5.280
10694SOL    HW232982   4.501   6.681   5.442
10695SOL     OW32983   5.986   3.999   1.894
10695SOL    HW132984   5.999   3.959   1.803
10695SOL    HW232985   5.906   4.060   1.892
10696SOL     OW32986   6.367   4.918   4.487
10696SOL    HW132987   6.417   4.938   4.403
10696SOL    HW232988   6.390   4.987   4.556
10697SOL     OW32989   1.628   5.347   5.280
10697SOL    HW132990   1.723   5.351   5.247
10697SOL    HW232991   1.618   5.273   5.346
10698SOL     OW32992   4.518   2.973   0.209
10698SOL    HW132993   4.560   3.059   0.182
10698SOL    HW232994   4.577   2.926   0.275
10699SOL     OW32995   3.276   3.256   6.989
10699SOL    HW132996   3.222   3.185   0.013
10699SOL    HW232997   3.360   3.272   0.020
10700SOL     OW32998   5.271   0.964   1.508
10700SOL    HW132999   5.215   1.033   1.462
10700SOL    HW233000   5.212   0.892   1.544
10701SOL     OW33001   3.075   0.685   6.107
10701SOL    HW133002   3.093   0.701   6.204
10701SOL    HW233003   2.978   0.702   6.088
10702SOL     OW33004   5.928   2.349   1.909
10702SOL    HW133005   5.917   2.449   1.913
10702SOL    HW233006   5.937   2.321   1.813
10703SOL     OW33007   0.901   2.621   6.155
10703SOL    HW133008   0.874   2.716   6.138
10703SOL    HW233009   0.999   2.611   6.136
10704SOL     OW33010   6.003   6.893   1.436
10704SOL    HW133011   6.033   6.963   1.371
10704SOL    HW233012   5.921   6.848   1.402
10705SOL     OW33013   5.601   4.527   1.572
10705SOL    HW133014   5.581   4.565   1.481
10705SOL    HW233015   5.641   4.436   1.561
10706SOL     OW33016   4.663   0.323   1.485
10706SOL    HW133017   4.717   0.333   1.568
10706SOL    HW233018   4.711   0.264   1.420
10707SOL     OW33019   5.739   0.453   4.076
10707SOL    HW133020   5.732   0.365   4.122
10707SOL    HW233021   5.650   0.499   4.077
10708SOL     OW33022   4.372   1.691   2.246
10708SOL    HW133023   4.303   1.751   2.284
10708SOL    HW233024   4.460   1.738   2.242
10709SOL     OW33025   6.061   4.834   4.009
10709SOL    HW133026   6.007   4.855   3.928
10709SOL    HW233027   6.074   4.917   4.063
10710SOL     OW33028   5.007   0.870   3.439
10710SOL    HW133029   5.017   0.782   3.392
10710SOL    HW233030   4.916   0.907   3.421
10711SOL     OW33031   3.989   6.932   1.811
10711SOL    HW133032   3.908   6.989   1.796
10711SOL    HW233033   3.961   6.837   1.821
10712SOL     OW33034   4.834   6.585   3.083
10712SOL    HW133035   4.867   6.565   2.990
10712SOL    HW233036   4.890   6.657   3.123
10713SOL     OW33037   1.384   4.010   1.257
10713SOL    HW133038   1.370   4.107   1.242
10713SOL    HW233039   1.444   3.973   1.186
10714SOL     OW33040   3.691   3.861   4.262
10714SOL    HW133041   3.717   3.788   4.199
10714SOL    HW233042   3.745   3.854   4.346
10715SOL     OW33043   6.104   0.999   2.472
10715SOL    HW133044   6.162   1.076   2.499
10715SOL    HW233045   6.138   0.916   2.515
10716SOL     OW33046   6.002   2.221   3.498
10716SOL    HW133047   5.990   2.126   3.528
10716SOL    HW233048   6.087   2.229   3.446
10717SOL     OW33049   1.312   2.572   7.019
10717SOL    HW133050   1.216   2.551   7.000
10717SOL    HW233051   1.367   2.490   7.004
10718SOL     OW33052   1.167   4.943   5.348
10718SOL    HW133053   1.192   5.015   5.413
10718SOL    HW233054   1.247   4.918   5.294
10719SOL     OW33055   6.353   5.838   4.647
10719SOL    HW133056   6.365   5.931   4.611
10719SOL    HW233057   6.441   5.791   4.648
10720SOL     OW33058   6.190   5.602   4.061
10720SOL    HW133059   6.108   5.559   4.022
10720SOL    HW233060   6.168   5.642   4.150
10721SOL     OW33061   5.128   3.820   5.304
10721SOL    HW133062   5.042   3.869   5.319
10721SOL    HW233063   5.121   3.764   5.221
10722SOL     OW33064   0.173   4.118   6.082
10722SOL    HW133065   0.228   4.048   6.035
10722SOL    HW233066   0.194   4.117   6.179
10723SOL     OW33067   6.716   0.149   0.364
10723SOL    HW133068   6.640   0.137   0.428
10723SOL    HW233069   6.774   0.068   0.366
10724SOL     OW33070   6.368   6.937   0.681
10724SOL    HW133071   6.411   6.866   0.737
10724SOL    HW233072   6.335   6.895   0.596
10725SOL     OW33073   2.450   5.716   5.468
10725SOL    HW133074   2.362   5.730   5.514
10725SOL    HW233075   2.474   5.619   5.471
10726SOL     OW33076   4.525   0.465   4.197
10726SOL    HW133077   4.482   0.554   4.215
10726SOL    HW233078   4.474   0.419   4.124
10727SOL     OW33079   1.290   5.830   5.757
10727SOL    HW133080   1.334   5.860   5.841
10727SOL    HW233081   1.320   5.737   5.734
10728SOL     OW33082   6.377   5.249   0.799
10728SOL    HW133083   6.415   5.236   0.891
10728SOL    HW233084   6.353   5.346   0.787
10729SOL     OW33085   6.794   2.673   1.259
10729SOL    HW133086   6.782   2.581   1.221
10729SOL    HW233087   6.710   2.701   1.306
10730SOL     OW33088   4.425   6.929   1.859
10730SOL    HW133089   4.481   6.886   1.788
10730SOL    HW233090   4.412   0.005   1.837
10731SOL     OW33091   4.176   1.458   0.773
10731SOL    HW133092   4.082   1.479   0.745
10731SOL    HW233093   4.176   1.429   0.868
10732SOL     OW33094   0.812   5.221   5.250
10732SOL    HW133095   0.882   5.154   5.274
10732SOL    HW233096   0.747   5.231   5.325
10733SOL     OW33097   5.782   2.556   6.639
10733SOL    HW133098   5.871   2.562   6.593
10733SOL    HW233099   5.714   2.519   6.576
10734SOL     OW33100   0.707   2.118   1.445
10734SOL    HW133101   0.622   2.141   1.398
10734SOL    HW233102   0.779   2.182   1.419
10735SOL     OW33103   0.387   3.446   2.067
10735SOL    HW133104   0.315   3.424   2.133
10735SOL    HW233105   0.472   3.402   2.096
10736SOL     OW33106   3.309   6.882   3.731
10736SOL    HW133107   3.363   6.812   3.779
10736SOL    HW233108   3.355   6.907   3.646
10737SOL     OW33109   0.136   2.736   1.326
10737SOL    HW133110   0.089   2.768   1.243
10737SOL    HW233111   0.140   2.811   1.392
10738SOL     OW33112   4.456   0.789   2.711
10738SOL    HW133113   4.365   0.779   2.670
10738SOL    HW233114   4.455   0.865   2.776
10739SOL     OW33115   2.194   2.456   1.847
10739SOL    HW133116   2.110   2.503   1.873
10739SOL    HW233117   2.269   2.483   1.908
10740SOL     OW33118   4.845   4.397   4.141
10740SOL    HW133119   4.852   4.471   4.074
10740SOL    HW233120   4.936   4.365   4.165
10741SOL     OW33121   3.729   0.811   2.444
10741SOL    HW133122   3.817   0.828   2.488
10741SOL    HW233123   3.725   0.715   2.415
10742SOL     OW33124   5.492   5.322   0.805
10742SOL    HW133125   5.395   5.306   0.823
10742SOL    HW233126   5.512   5.303   0.709
10743SOL     OW33127   2.381   2.009   3.841
10743SOL    HW133128   2.422   2.057   3.919
10743SOL    HW233129   2.289   1.978   3.866
10744SOL     OW33130   3.615   2.803   0.904
10744SOL    HW133131   3.576   2.852   0.982
10744SOL    HW233132   3.620   2.864   0.825
10745SOL     OW33133   6.702   5.875   6.009
10745SOL    HW133134   6.622   5.890   5.951
10745SOL    HW233135   6.768   5.948   5.994
10746SOL     OW33136   0.451   4.192   5.043
10746SOL    HW133137   0.487   4.126   5.108
10746SOL    HW233138   0.461   4.284   5.080
10747SOL     OW33139   3.029   0.761   4.836
10747SOL    HW133140   3.085   0.686   4.800
10747SOL    HW233141   3.018   0.831   4.765
10748SOL     OW33142   5.016   0.901   2.108
10748SOL    HW133143   5.080   0.903   2.185
10748SOL    HW233144   5.050   0.839   2.038
10749SOL     OW33145   1.870   6.497   4.525
10749SOL    HW133146   1.817   6.424   4.482
10749SOL    HW233147   1.926   6.459   4.599
10750SOL     OW33148   3.900   0.812   5.319
10750SOL    HW133149   3.841   0.788   5.396
10750SOL    HW233150   3.860   0.778   5.235
10751SOL     OW33151   2.220   4.759   4.440
10751SOL    HW133152   2.195   4.825   4.512
10751SOL    HW233153   2.293   4.798   4.384
10752SOL     OW33154   5.330   4.871   4.613
10752SOL    HW133155   5.386   4.788   4.617
10752SOL    HW233156   5.233   4.846   4.613
10753SOL     OW33157   0.295   3.108   3.989
10753SOL    HW133158   0.350   3.186   3.959
10753SOL    HW233159   0.346   3.054   4.056
10754SOL     OW33160   1.634   0.425   3.379
10754SOL    HW133161   1.557   0.402   3.320
10754SOL    HW233162   1.607   0.499   3.442
10755SOL     OW33163   6.317   6.283   1.628
10755SOL    HW133164   6.365   6.343   1.691
10755SOL    HW233165   6.246   6.335   1.580
10756SOL     OW33166   6.514   6.782   5.180
10756SOL    HW133167   6.430   6.735   5.151
10756SOL    HW233168   6.500   6.881   5.176
10757SOL     OW33169   2.159   3.103   0.669
10757SOL    HW133170   2.109   3.034   0.722
10757SOL    HW233171   2.112   3.118   0.582
10758SOL     OW33172   0.806   5.846   3.524
10758SOL    HW133173   0.712   5.868   3.550
10758SOL    HW233174   0.864   5.850   3.605
10759SOL     OW33175   0.766   2.562   0.458
10759SOL    HW133176   0.760   2.658   0.429
10759SOL    HW233177   0.855   2.525   0.431
10760SOL     OW33178   5.900   1.435   3.420
10760SOL    HW133179   5.859   1.356   3.375
10760SOL    HW233180   5.832   1.508   3.431
10761SOL     OW33181   2.475   4.953   5.450
10761SOL    HW133182   2.382   4.980   5.476
10761SOL    HW233183   2.471   4.888   5.374
10762SOL     OW33184   3.122   0.571   4.641
10762SOL    HW133185   3.057   0.617   4.580
10762SOL    HW233186   3.076   0.496   4.689
10763SOL     OW33187   3.946   0.699   3.059
10763SOL    HW133188   4.014   0.653   3.116
10763SOL    HW233189   3.861   0.710   3.111
10764SOL     OW33190   5.260   0.966   4.175
10764SOL    HW133191   5.225   0.969   4.082
10764SOL    HW233192   5.295   0.874   4.195
10765SOL     OW33193   4.882   3.324   1.362
10765SOL    HW133194   4.916   3.324   1.456
10765SOL    HW233195   4.930   3.395   1.309
10766SOL     OW33196   3.141   3.240   1.168
10766SOL    HW133197   3.090   3.154   1.169
10766SOL    HW233198   3.223   3.230   1.225
10767SOL     OW33199   2.148   0.623   1.473
10767SOL    HW133200   2.048   0.617   1.485
10767SOL    HW233201   2.186   0.678   1.547
10768SOL     OW33202   6.563   4.551   0.751
10768SOL    HW133203   6.476   4.542   0.703
10768SOL    HW233204   6.581   4.647   0.770
10769SOL     OW33205   2.208   3.233   6.407
10769SOL    HW133206   2.175   3.144   6.437
10769SOL    HW233207   2.142   3.304   6.432
10770SOL     OW33208   4.890   5.897   3.398
10770SOL    HW133209   4.923   5.926   3.308
10770SOL    HW233210   4.865   5.977   3.452
10771SOL     OW33211   3.065   6.969   3.891
10771SOL    HW133212   3.148   7.012   3.856
10771SOL    HW233213   3.090   6.898   3.957
10772SOL     OW33214   6.095   5.834   3.518
10772SOL    HW133215   6.040   5.884   3.451
10772SOL    HW233216   6.098   5.884   3.604
10773SOL     OW33217   5.508   4.907   4.122
10773SOL    HW133218   5.550   4.997   4.128
10773SOL    HW233219   5.477   4.890   4.028
10774SOL     OW33220   1.316   1.191   4.180
10774SOL    HW133221   1.363   1.204   4.093
10774SOL    HW233222   1.348   1.107   4.224
10775SOL     OW33223   0.322   4.330   2.123
10775SOL    HW133224   0.330   4.410   2.064
10775SOL    HW233225   0.412   4.290   2.138
10776SOL     OW33226   2.018   0.239   6.918
10776SOL    HW133227   2.005   0.182   6.837
10776SOL    HW233228   2.052   0.329   6.889
10777SOL     OW33229   3.331   6.216   1.527
10777SOL    HW133230   3.242   6.176   1.506
10777SOL    HW233231   3.390   6.212   1.445
10778SOL     OW33232   5.936   6.361   3.449
10778SOL    HW133233   5.939   6.419   3.367
10778SOL    HW233234   5.841   6.349   3.477
10779SOL     OW33235   5.385   2.512   3.525
10779SOL    HW133236   5.351   2.592   3.476
10779SOL    HW233237   5.484   2.504   3.510
10780SOL     OW33238   1.136   1.162   3.308
10780SOL    HW133239   1.232   1.182   3.287
10780SOL    HW233240   1.085   1.150   3.223
10781SOL     OW33241   3.298   0.085   4.254
10781SOL    HW133242   3.233   0.012   4.276
10781SOL    HW233243   3.336   0.123   4.338
10782SOL     OW33244   6.198   6.283   4.556
10782SOL    HW133245   6.235   6.354   4.497
10782SOL    HW233246   6.253   6.200   4.547
10783SOL     OW33247   6.339   2.044   2.547
10783SOL    HW133248   6.409   2.011   2.484
10783SOL    HW233249   6.351   2.142   2.563
10784SOL     OW33250   2.760   1.315   3.874
10784SOL    HW133251   2.699   1.378   3.923
10784SOL    HW233252   2.826   1.276   3.938
10785SOL     OW33253   0.423   3.860   6.777
10785SOL    HW133254   0.461   3.949   6.804
10785SOL    HW233255   0.382   3.868   6.686
10786SOL     OW33256   6.713   5.634   2.987
10786SOL    HW133257   6.743   5.665   2.896
10786SOL    HW233258   6.671   5.710   3.036
10787SOL     OW33259   1.569   1.492   5.272
10787SOL    HW133260   1.601   1.497   5.366
10787SOL    HW233261   1.528   1.580   5.246
10788SOL     OW33262   6.374   4.094   6.219
10788SOL    HW133263   6.409   4.052   6.303
10788SOL    HW233264   6.282   4.128   6.234
10789SOL     OW33265   0.051   2.220   0.056
10789SOL    HW133266   7.014   2.221   0.138
10789SOL    HW233267   0.048   2.130   0.014
10790SOL     OW33268   0.125   0.165   2.174
10790SOL    HW133269   0.035   0.180   2.215
10790SOL    HW233270   0.128   0.205   2.083
10791SOL     OW33271   6.229   6.282   2.334
10791SOL    HW133272   6.202   6.187   2.350
10791SOL    HW233273   6.319   6.284   2.291
10792SOL     OW33274   4.019   3.805   5.026
10792SOL    HW133275   4.002   3.877   5.092
10792SOL    HW233276   3.969   3.824   4.941
10793SOL     OW33277   5.528   3.232   5.059
10793SOL    HW133278   5.597   3.234   5.132
10793SOL    HW233279   5.568   3.193   4.976
10794SOL     OW33280   3.313   3.696   3.748
10794SOL    HW133281   3.213   3.690   3.745
10794SOL    HW233282   3.352   3.604   3.757
10795SOL     OW33283   1.033   4.352   2.941
10795SOL    HW133284   1.074   4.399   2.862
10795SOL    HW233285   1.106   4.325   3.004
10796SOL     OW33286   1.106   5.870   4.822
10796SOL    HW133287   1.124   5.968   4.808
10796SOL    HW233288   1.007   5.854   4.816
10797SOL     OW33289   3.591   3.066   0.682
10797SOL    HW133290   3.579   3.023   0.592
10797SOL    HW233291   3.688   3.066   0.707
10798SOL     OW33292   1.016   1.490   1.091
10798SOL    HW133293   1.053   1.583   1.083
10798SOL    HW233294   0.957   1.485   1.171
10799SOL     OW33295   4.122   1.201   2.167
10799SOL    HW133296   4.175   1.202   2.082
10799SOL    HW233297   4.029   1.233   2.149
10800SOL     OW33298   0.985   6.610   0.135
10800SOL    HW133299   0.956   6.514   0.137
10800SOL    HW233300   0.985   6.647   0.228
10801SOL     OW33301   1.861   1.091   1.138
10801SOL    HW133302   1.796   1.081   1.063
10801SOL    HW233303   1.954   1.073   1.105
10802SOL     OW33304   6.277   6.937   3.647
10802SOL    HW133305   6.208   6.905   3.582
10802SOL    HW233306   6.368   6.926   3.606
10803SOL     OW33307   1.916   5.269   6.231
10803SOL    HW133308   1.973   5.231   6.158
10803SOL    HW233309   1.904   5.200   6.302
10804SOL     OW33310   7.010   2.992   3.681
10804SOL    HW133311   0.014   2.957   3.771
10804SOL    HW233312   6.917   3.029   3.684
10805SOL     OW33313   6.143   0.898   5.627
10805SOL    HW133314   6.044   0.912   5.638
10805SOL    HW233315   6.160   0.805   5.596
10806SOL     OW33316   1.698   4.826   6.776
10806SOL    HW133317   1.603   4.802   6.754
10806SOL    HW233318   1.728   4.775   6.856
10807SOL     OW33319   2.297   6.252   3.870
10807SOL    HW133320   2.323   6.342   3.834
10807SOL    HW233321   2.339   6.239   3.960
10808SOL     OW33322   0.379   2.018   6.360
10808SOL    HW133323   0.301   1.959   6.382
10808SOL    HW233324   0.441   2.023   6.438
10809SOL     OW33325   2.313   5.493   4.832
10809SOL    HW133326   2.362   5.574   4.864
10809SOL    HW233327   2.255   5.458   4.905
10810SOL     OW33328   0.159   0.105   4.722
10810SOL    HW133329   0.115   0.149   4.800
10810SOL    HW233330   0.257   0.123   4.725
10811SOL     OW33331   4.850   5.515   5.114
10811SOL    HW133332   4.877   5.541   5.206
10811SOL    HW233333   4.889   5.426   5.092
10812SOL     OW33334   6.988   2.657   6.601
10812SOL    HW133335   0.060   2.674   6.566
10812SOL    HW233336   6.962   2.732   6.663
10813SOL     OW33337   0.257   3.867   6.074
10813SOL    HW133338   0.204   3.832   6.151
10813SOL    HW233339   0.355   3.854   6.093
10814SOL     OW33340   2.386   0.519   0.967
10814SOL    HW133341   2.412   0.543   1.061
10814SOL    HW233342   2.339   0.597   0.925
10815SOL     OW33343   4.821   1.349   4.352
10815SOL    HW133344   4.742   1.306   4.308
10815SOL    HW233345   4.905   1.307   4.318
10816SOL     OW33346   3.725   3.142   3.289
10816SOL    HW133347   3.781   3.207   3.237
10816SOL    HW233348   3.725   3.168   3.386
10817SOL     OW33349   2.526   6.874   3.400
10817SOL    HW133350   2.574   6.816   3.335
10817SOL    HW233351   2.468   6.817   3.459
10818SOL     OW33352   4.476   5.210   5.951
10818SOL    HW133353   4.534   5.273   6.003
10818SOL    HW233354   4.490   5.117   5.985
10819SOL     OW33355   6.543   5.452   6.521
10819SOL    HW133356   6.528   5.503   6.436
10819SOL    HW233357   6.635   5.472   6.556
10820SOL     OW33358   2.510   4.610   5.902
10820SOL    HW133359   2.485   4.687   5.960
10820SOL    HW233360   2.472   4.623   5.810
10821SOL     OW33361   4.557   4.957   3.357
10821SOL    HW133362   4.535   5.047   3.318
10821SOL    HW233363   4.532   4.956   3.454
10822SOL     OW33364   5.830   2.609   1.265
10822SOL    HW133365   5.842   2.542   1.192
10822SOL    HW233366   5.758   2.673   1.241
10823SOL     OW33367   6.541   6.640   2.720
10823SOL    HW133368   6.604   6.575   2.678
10823SOL    HW233369   6.464   6.591   2.760
10824SOL     OW33370   1.143   2.087   4.290
10824SOL    HW133371   1.051   2.062   4.258
10824SOL    HW233372   1.135   2.156   4.361
10825SOL     OW33373   1.500   1.701   0.436
10825SOL    HW133374   1.410   1.721   0.475
10825SOL    HW233375   1.488   1.658   0.346
10826SOL     OW33376   1.046   2.506   2.650
10826SOL    HW133377   0.986   2.466   2.581
10826SOL    HW233378   1.103   2.577   2.608
10827SOL     OW33379   6.857   3.206   4.777
10827SOL    HW133380   6.911   3.147   4.836
10827SOL    HW233381   6.831   3.156   4.694
10828SOL     OW33382   6.009   4.863   5.714
10828SOL    HW133383   6.095   4.898   5.750
10828SOL    HW233384   5.976   4.790   5.773
10829SOL     OW33385   3.813   3.485   5.556
10829SOL    HW133386   3.903   3.443   5.548
10829SOL    HW233387   3.747   3.416   5.585
10830SOL     OW33388   4.579   1.004   3.610
10830SOL    HW133389   4.485   0.995   3.578
10830SOL    HW233390   4.600   0.930   3.673
10831SOL     OW33391   3.936   1.021   2.793
10831SOL    HW133392   3.906   0.926   2.796
10831SOL    HW233393   4.016   1.029   2.734
10832SOL     OW33394   0.123   3.428   6.814
10832SOL    HW133395   0.110   3.346   6.870
10832SOL    HW233396   0.175   3.496   6.865
10833SOL     OW33397   0.778   0.941   0.449
10833SOL    HW133398   0.850   0.936   0.380
10833SOL    HW233399   0.700   0.993   0.413
10834SOL     OW33400   6.858   6.402   0.612
10834SOL    HW133401   6.932   6.370   0.553
10834SOL    HW233402   6.770   6.382   0.568
10835SOL     OW33403   0.030   2.360   5.954
10835SOL    HW133404   0.039   2.270   5.912
10835SOL    HW233405   0.072   2.358   6.045
10836SOL     OW33406   0.162   1.521   3.678
10836SOL    HW133407   0.111   1.599   3.715
10836SOL    HW233408   0.228   1.553   3.611
10837SOL     OW33409   0.238   3.945   2.841
10837SOL    HW133410   0.319   3.913   2.890
10837SOL    HW233411   0.197   4.021   2.892
10838SOL     OW33412   6.475   5.709   3.359
10838SOL    HW133413   6.407   5.689   3.287
10838SOL    HW233414   6.443   5.786   3.414
10839SOL     OW33415   4.456   3.011   0.746
10839SOL    HW133416   4.473   3.025   0.649
10839SOL    HW233417   4.402   2.928   0.759
10840SOL     OW33418   2.994   0.706   1.036
10840SOL    HW133419   2.897   0.729   1.041
10840SOL    HW233420   3.024   0.708   0.940
10841SOL     OW33421   1.455   5.324   5.062
10841SOL    HW133422   1.443   5.226   5.046
10841SOL    HW233423   1.522   5.338   5.134
10842SOL     OW33424   5.359   4.167   0.407
10842SOL    HW133425   5.341   4.234   0.335
10842SOL    HW233426   5.335   4.206   0.496
10843SOL     OW33427   2.232   2.290   1.401
10843SOL    HW133428   2.292   2.302   1.480
10843SOL    HW233429   2.182   2.204   1.410
10844SOL     OW33430   1.175   5.328   5.122
10844SOL    HW133431   1.162   5.229   5.113
10844SOL    HW233432   1.268   5.352   5.093
10845SOL     OW33433   4.294   6.460   4.931
10845SOL    HW133434   4.315   6.379   4.877
10845SOL    HW233435   4.195   6.466   4.946
10846SOL     OW33436   5.041   0.450   0.620
10846SOL    HW133437   5.028   0.481   0.714
10846SOL    HW233438   5.059   0.351   0.619
10847SOL     OW33439   1.763   1.133   6.901
10847SOL    HW133440   1.834   1.200   6.883
10847SOL    HW233441   1.677   1.180   6.921
10848SOL     OW33442   1.605   4.376   1.684
10848SOL    HW133443   1.550   4.303   1.644
10848SOL    HW233444   1.641   4.435   1.611
10849SOL     OW33445   2.059   6.126   3.828
10849SOL    HW133446   1.989   6.197   3.822
10849SOL    HW233447   2.149   6.168   3.842
10850SOL     OW33448   3.186   6.030   0.263
10850SOL    HW133449   3.261   6.075   0.213
10850SOL    HW233450   3.115   6.002   0.199
10851SOL     OW33451   2.436   5.240   1.288
10851SOL    HW133452   2.456   5.335   1.265
10851SOL    HW233453   2.500   5.180   1.240
10852SOL     OW33454   1.997   1.643   1.383
10852SOL    HW133455   2.030   1.593   1.463
10852SOL    HW233456   2.073   1.686   1.336
10853SOL     OW33457   2.670   1.794   6.073
10853SOL    HW133458   2.764   1.779   6.042
10853SOL    HW233459   2.633   1.709   6.111
10854SOL     OW33460   4.059   6.144   5.837
10854SOL    HW133461   3.977   6.184   5.877
10854SOL    HW233462   4.125   6.125   5.909
10855SOL     OW33463   3.620   1.221   0.286
10855SOL    HW133464   3.677   1.304   0.285
10855SOL    HW233465   3.568   1.217   0.371
10856SOL     OW33466   0.701   0.815   0.179
10856SOL    HW133467   0.689   0.796   0.276
10856SOL    HW233468   0.611   0.819   0.135
10857SOL     OW33469   6.042   2.336   2.498
10857SOL    HW133470   6.002   2.335   2.590
10857SOL    HW233471   6.141   2.324   2.505
10858SOL     OW33472   2.967   6.097   1.619
10858SOL    HW133473   3.045   6.058   1.570
10858SOL    HW233474   2.997   6.176   1.672
10859SOL     OW33475   1.568   5.679   3.429
10859SOL    HW133476   1.532   5.649   3.517
10859SOL    HW233477   1.634   5.613   3.395
10860SOL     OW33478   6.990   1.968   3.221
10860SOL    HW133479   6.989   2.044   3.286
10860SOL    HW233480   6.907   1.914   3.230
10861SOL     OW33481   3.962   3.124   4.150
10861SOL    HW133482   4.048   3.099   4.105
10861SOL    HW233483   3.942   3.058   4.222
10862SOL     OW33484   1.343   0.406   4.714
10862SOL    HW133485   1.262   0.446   4.671
10862SOL    HW233486   1.394   0.354   4.645
10863SOL     OW33487   3.118   5.703   4.519
10863SOL    HW133488   3.037   5.745   4.559
10863SOL    HW233489   3.155   5.635   4.582
10864SOL     OW33490   3.138   6.163   2.748
10864SOL    HW133491   3.093   6.097   2.687
10864SOL    HW233492   3.077   6.240   2.764
10865SOL     OW33493   6.282   2.083   6.105
10865SOL    HW133494   6.248   2.160   6.051
10865SOL    HW233495   6.212   2.055   6.170
10866SOL     OW33496   5.623   4.540   0.306
10866SOL    HW133497   5.634   4.590   0.220
10866SOL    HW233498   5.532   4.556   0.343
10867SOL     OW33499   3.345   2.903   0.463
10867SOL    HW133500   3.347   3.002   0.453
10867SOL    HW233501   3.294   2.880   0.546
10868SOL     OW33502   3.092   1.809   2.749
10868SOL    HW133503   3.044   1.832   2.665
10868SOL    HW233504   3.027   1.778   2.818
10869NA      NA33505   6.724   2.176   5.695
10870NA      NA33506   4.220   4.658   5.199
10871NA      NA33507   2.228   3.565   1.416
10872NA      NA33508   4.846   3.657   5.297
10873NA      NA33509   4.241   2.361   5.276
10874NA      NA33510   3.671   4.559   1.631
10875NA      NA33511   6.667   5.924   5.626
10876NA      NA33512   4.048   3.572   5.099
10877NA      NA33513   4.502   0.006   6.969
10878NA      NA33514   3.679   6.933   5.229
10879NA      NA33515   6.624   4.759   2.654
10880NA      NA33516   2.436   0.747   3.141
10881NA      NA33517   3.331   4.435   0.867
10882NA      NA33518   3.600   3.738   2.736
   7.02068   7.02068   7.02068
