Generated by trjconv : CNT in water t= 301.00000
33518
    1C        C    1   2.842   2.770   4.744
    1C        C    2   2.892   2.714   4.863
    1C        C    3   2.839   2.770   4.980
    1C        C    4   2.846   2.775   4.259
    1C        C    5   2.901   2.730   4.381
    1C        C    6   2.844   2.773   4.503
    1C        C    7   3.010   2.637   4.620
    1C        C    8   2.897   2.721   4.623
    1C        C    9   3.072   2.601   4.742
    1C        C   10   3.004   2.627   4.863
    1C        C   11   3.176   2.489   4.973
    1C        C   12   3.057   2.561   4.974
    1C        C   13   2.847   2.774   3.771
    1C        C   14   2.899   2.726   3.893
    1C        C   15   2.853   2.780   4.016
    1C        C   16   3.020   2.649   4.134
    1C        C   17   2.905   2.731   4.138
    1C        C   18   3.081   2.614   4.257
    1C        C   19   3.015   2.646   4.377
    1C        C   20   3.208   2.557   4.499
    1C        C   21   3.075   2.605   4.499
    1C        C   22   3.273   2.534   4.622
    1C        C   23   3.206   2.553   4.745
    1C        C   24   3.408   2.482   4.860
    1C        C   25   3.266   2.501   4.863
    1C        C   26   3.485   2.479   4.978
    1C        C   27   2.849   2.769   3.282
    1C        C   28   2.906   2.726   3.404
    1C        C   29   2.849   2.772   3.525
    1C        C   30   3.014   2.643   3.649
    1C        C   31   2.901   2.728   3.649
    1C        C   32   3.077   2.610   3.771
    1C        C   33   3.015   2.647   3.893
    1C        C   34   3.213   2.560   4.012
    1C        C   35   3.080   2.610   4.013
    1C        C   36   3.278   2.534   4.134
    1C        C   37   3.210   2.556   4.256
    1C        C   38   3.415   2.507   4.379
    1C        C   39   3.277   2.535   4.378
    1C        C   40   3.485   2.498   4.501
    1C        C   41   3.411   2.506   4.621
    1C        C   42   3.627   2.483   4.743
    1C        C   43   3.484   2.484   4.740
    1C        C   44   3.704   2.482   4.861
    1C        C   45   3.624   2.472   4.976
    1C        C   46   2.840   2.753   2.793
    1C        C   47   2.893   2.710   2.917
    1C        C   48   2.838   2.758   3.038
    1C        C   49   3.011   2.634   3.158
    1C        C   50   2.898   2.719   3.159
    1C        C   51   3.076   2.604   3.280
    1C        C   52   3.019   2.641   3.404
    1C        C   53   3.204   2.546   3.526
    1C        C   54   3.075   2.604   3.528
    1C        C   55   3.273   2.522   3.647
    1C        C   56   3.205   2.549   3.767
    1C        C   57   3.415   2.506   3.890
    1C        C   58   3.277   2.536   3.888
    1C        C   59   3.486   2.500   4.012
    1C        C   60   3.416   2.504   4.135
    1C        C   61   3.628   2.497   4.258
    1C        C   62   3.487   2.496   4.257
    1C        C   63   3.699   2.505   4.380
    1C        C   64   3.626   2.498   4.501
    1C        C   65   3.833   2.542   4.621
    1C        C   66   3.698   2.500   4.622
    1C        C   67   3.903   2.562   4.742
    1C        C   68   3.838   2.525   4.862
    1C        C   69   4.050   2.583   4.974
    1C        C   70   3.920   2.533   4.975
    1C        C   71   2.817   2.727   2.309
    1C        C   72   2.879   2.684   2.429
    1C        C   73   2.831   2.744   2.547
    1C        C   74   3.006   2.625   2.668
    1C        C   75   2.890   2.705   2.670
    1C        C   76   3.069   2.596   2.791
    1C        C   77   3.009   2.630   2.914
    1C        C   78   3.205   2.548   3.037
    1C        C   79   3.074   2.600   3.036
    1C        C   80   3.274   2.532   3.159
    1C        C   81   3.205   2.548   3.281
    1C        C   82   3.412   2.503   3.400
    1C        C   83   3.273   2.528   3.404
    1C        C   84   3.482   2.490   3.522
    1C        C   85   3.413   2.499   3.644
    1C        C   86   3.624   2.498   3.767
    1C        C   87   3.483   2.498   3.767
    1C        C   88   3.695   2.508   3.889
    1C        C   89   3.627   2.505   4.012
    1C        C   90   3.832   2.547   4.133
    1C        C   91   3.696   2.510   4.135
    1C        C   92   3.900   2.569   4.255
    1C        C   93   3.836   2.540   4.378
    1C        C   94   4.028   2.630   4.496
    1C        C   95   3.901   2.568   4.500
    1C        C   96   4.090   2.669   4.617
    1C        C   97   4.030   2.627   4.737
    1C        C   98   4.187   2.766   4.859
    1C        C   99   4.098   2.654   4.859
    1C        C  100   4.209   2.843   4.974
    1C        C  101   2.820   2.728   2.068
    1C        C  102   2.985   2.588   2.190
    1C        C  103   2.873   2.677   2.187
    1C        C  104   3.060   2.570   2.310
    1C        C  105   2.999   2.609   2.431
    1C        C  106   3.202   2.532   2.548
    1C        C  107   3.071   2.584   2.550
    1C        C  108   3.270   2.520   2.672
    1C        C  109   3.200   2.544   2.793
    1C        C  110   3.408   2.493   2.912
    1C        C  111   3.270   2.522   2.914
    1C        C  112   3.481   2.490   3.034
    1C        C  113   3.412   2.502   3.157
    1C        C  114   3.624   2.493   3.278
    1C        C  115   3.483   2.490   3.278
    1C        C  116   3.694   2.506   3.400
    1C        C  117   3.624   2.493   3.522
    1C        C  118   3.830   2.541   3.644
    1C        C  119   3.694   2.502   3.644
    1C        C  120   3.898   2.565   3.766
    1C        C  121   3.833   2.539   3.889
    1C        C  122   4.024   2.635   4.009
    1C        C  123   3.900   2.567   4.010
    1C        C  124   4.086   2.668   4.131
    1C        C  125   4.029   2.628   4.253
    1C        C  126   4.193   2.765   4.373
    1C        C  127   4.086   2.673   4.374
    1C        C  128   4.244   2.816   4.494
    1C        C  129   4.192   2.767   4.617
    1C        C  130   4.324   2.935   4.740
    1C        C  131   4.238   2.822   4.738
    1C        C  132   4.351   3.004   4.860
    1C        C  133   4.279   2.964   4.973
    1C        C  134   3.168   2.465   2.080
    1C        C  135   3.035   2.511   2.081
    1C        C  136   3.257   2.477   2.187
    1C        C  137   3.191   2.516   2.305
    1C        C  138   3.403   2.475   2.422
    1C        C  139   3.264   2.499   2.425
    1C        C  140   3.473   2.477   2.544
    1C        C  141   3.408   2.493   2.669
    1C        C  142   3.620   2.489   2.788
    1C        C  143   3.479   2.481   2.790
    1C        C  144   3.691   2.500   2.910
    1C        C  145   3.622   2.489   3.033
    1C        C  146   3.829   2.537   3.154
    1C        C  147   3.693   2.500   3.155
    1C        C  148   3.898   2.559   3.275
    1C        C  149   3.832   2.537   3.398
    1C        C  150   4.025   2.620   3.521
    1C        C  151   3.898   2.559   3.521
    1C        C  152   4.083   2.664   3.642
    1C        C  153   4.021   2.634   3.766
    1C        C  154   4.193   2.762   3.885
    1C        C  155   4.083   2.674   3.886
    1C        C  156   4.243   2.811   4.008
    1C        C  157   4.193   2.761   4.130
    1C        C  158   4.332   2.926   4.249
    1C        C  159   4.242   2.817   4.250
    1C        C  160   4.372   2.983   4.371
    1C        C  161   4.326   2.930   4.494
    1C        C  162   4.438   3.111   4.615
    1C        C  163   4.361   2.992   4.617
    1C        C  164   4.462   3.184   4.733
    1C        C  165   4.427   3.123   4.855
    1C        C  166   4.506   3.320   4.971
    1C        C  167   4.473   3.185   4.973
    1C        C  168   3.475   2.425   2.068
    1C        C  169   3.397   2.455   2.181
    1C        C  170   3.615   2.469   2.304
    1C        C  171   3.473   2.462   2.300
    1C        C  172   3.688   2.486   2.423
    1C        C  173   3.614   2.483   2.544
    1C        C  174   3.823   2.536   2.664
    1C        C  175   3.687   2.499   2.664
    1C        C  176   3.892   2.557   2.786
    1C        C  177   3.828   2.532   2.910
    1C        C  178   4.024   2.618   3.030
    1C        C  179   3.896   2.556   3.031
    1C        C  180   4.082   2.662   3.151
    1C        C  181   4.022   2.626   3.274
    1C        C  182   4.192   2.747   3.396
    1C        C  183   4.082   2.659   3.397
    1C        C  184   4.244   2.799   3.517
    1C        C  185   4.193   2.752   3.640
    1C        C  186   4.334   2.914   3.760
    1C        C  187   4.245   2.804   3.761
    1C        C  188   4.371   2.974   3.882
    1C        C  189   4.336   2.918   4.007
    1C        C  190   4.446   3.104   4.128
    1C        C  191   4.379   2.979   4.126
    1C        C  192   4.473   3.169   4.250
    1C        C  193   4.445   3.104   4.372
    1C        C  194   4.502   3.311   4.493
    1C        C  195   4.471   3.173   4.492
    1C        C  196   4.525   3.385   4.611
    1C        C  197   4.510   3.318   4.735
    1C        C  198   4.552   3.535   4.852
    1C        C  199   4.526   3.394   4.854
    1C        C  200   4.578   3.616   4.966
    1C        C  201   3.614   2.409   2.069
    1C        C  202   3.820   2.511   2.178
    1C        C  203   3.686   2.461   2.181
    1C        C  204   3.892   2.541   2.297
    1C        C  205   3.825   2.518   2.420
    1C        C  206   4.016   2.615   2.539
    1C        C  207   3.892   2.548   2.541
    1C        C  208   4.077   2.655   2.660
    1C        C  209   4.018   2.621   2.784
    1C        C  210   4.188   2.746   2.903
    1C        C  211   4.081   2.653   2.906
    1C        C  212   4.244   2.792   3.025
    1C        C  213   4.195   2.747   3.149
    1C        C  214   4.328   2.908   3.268
    1C        C  215   4.242   2.796   3.273
    1C        C  216   4.361   2.971   3.391
    1C        C  217   4.329   2.912   3.515
    1C        C  218   4.427   3.101   3.636
    1C        C  219   4.370   2.972   3.636
    1C        C  220   4.459   3.164   3.758
    1C        C  221   4.439   3.098   3.882
    1C        C  222   4.501   3.302   4.001
    1C        C  223   4.468   3.165   4.003
    1C        C  224   4.514   3.377   4.121
    1C        C  225   4.503   3.307   4.243
    1C        C  226   4.516   3.516   4.365
    1C        C  227   4.512   3.374   4.367
    1C        C  228   4.514   3.592   4.484
    1C        C  229   4.529   3.526   4.608
    1C        C  230   4.507   3.740   4.722
    1C        C  231   4.539   3.602   4.727
    1C        C  232   4.501   3.819   4.839
    1C        C  233   4.547   3.752   4.953
    1C        C  234   4.018   2.605   2.058
    1C        C  235   3.893   2.545   2.063
    1C        C  236   4.081   2.648   2.176
    1C        C  237   4.016   2.610   2.295
    1C        C  238   4.192   2.733   2.416
    1C        C  239   4.078   2.649   2.416
    1C        C  240   4.244   2.783   2.538
    1C        C  241   4.188   2.742   2.661
    1C        C  242   4.331   2.902   2.781
    1C        C  243   4.240   2.794   2.781
    1C        C  244   4.374   2.958   2.904
    1C        C  245   4.335   2.899   3.026
    1C        C  246   4.435   3.089   3.146
    1C        C  247   4.375   2.961   3.146
    1C        C  248   4.459   3.159   3.267
    1C        C  249   4.424   3.097   3.389
    1C        C  250   4.497   3.297   3.511
    1C        C  251   4.454   3.162   3.511
    1C        C  252   4.508   3.368   3.633
    1C        C  253   4.495   3.301   3.756
    1C        C  254   4.517   3.512   3.877
    1C        C  255   4.512   3.371   3.878
    1C        C  256   4.513   3.585   3.998
    1C        C  257   4.515   3.518   4.123
    1C        C  258   4.495   3.729   4.240
    1C        C  259   4.513   3.589   4.245
    1C        C  260   4.478   3.802   4.360
    1C        C  261   4.492   3.731   4.481
    1C        C  262   4.424   3.937   4.601
    1C        C  263   4.476   3.805   4.601
    1C        C  264   4.400   4.007   4.720
    1C        C  265   4.434   3.944   4.842
    1C        C  266   4.317   4.127   4.958
    1C        C  267   4.387   4.007   4.957
    1C        C  268   4.262   2.773   2.059
    1C        C  269   4.194   2.733   2.175
    1C        C  270   4.346   2.883   2.296
    1C        C  271   4.252   2.777   2.296
    1C        C  272   4.380   2.949   2.417
    1C        C  273   4.335   2.891   2.538
    1C        C  274   4.438   3.082   2.656
    1C        C  275   4.370   2.958   2.657
    1C        C  276   4.467   3.148   2.778
    1C        C  277   4.440   3.083   2.901
    1C        C  278   4.505   3.287   3.022
    1C        C  279   4.462   3.152   3.022
    1C        C  280   4.514   3.360   3.142
    1C        C  281   4.502   3.293   3.266
    1C        C  282   4.508   3.505   3.389
    1C        C  283   4.511   3.364   3.388
    1C        C  284   4.511   3.578   3.510
    1C        C  285   4.510   3.509   3.633
    1C        C  286   4.488   3.721   3.752
    1C        C  287   4.513   3.582   3.754
    1C        C  288   4.471   3.792   3.873
    1C        C  289   4.486   3.723   3.996
    1C        C  290   4.428   3.930   4.113
    1C        C  291   4.473   3.796   4.117
    1C        C  292   4.400   3.997   4.234
    1C        C  293   4.431   3.935   4.358
    1C        C  294   4.323   4.122   4.477
    1C        C  295   4.395   4.000   4.478
    1C        C  296   4.284   4.185   4.597
    1C        C  297   4.326   4.129   4.719
    1C        C  298   4.199   4.309   4.836
    1C        C  299   4.283   4.193   4.839
    1C        C  300   4.170   4.402   4.941
    1C        C  301   4.344   2.885   2.057
    1C        C  302   4.464   3.066   2.173
    1C        C  303   4.393   2.942   2.175
    1C        C  304   4.477   3.140   2.294
    1C        C  305   4.443   3.075   2.415
    1C        C  306   4.507   3.282   2.532
    1C        C  307   4.470   3.145   2.534
    1C        C  308   4.513   3.353   2.654
    1C        C  309   4.495   3.286   2.777
    1C        C  310   4.520   3.497   2.899
    1C        C  311   4.513   3.356   2.899
    1C        C  312   4.515   3.571   3.019
    1C        C  313   4.512   3.501   3.142
    1C        C  314   4.486   3.711   3.263
    1C        C  315   4.505   3.572   3.264
    1C        C  316   4.469   3.784   3.383
    1C        C  317   4.491   3.718   3.506
    1C        C  318   4.419   3.918   3.625
    1C        C  319   4.472   3.787   3.628
    1C        C  320   4.392   3.984   3.747
    1C        C  321   4.426   3.926   3.871
    1C        C  322   4.312   4.107   3.989
    1C        C  323   4.393   3.992   3.991
    1C        C  324   4.271   4.165   4.111
    1C        C  325   4.314   4.109   4.233
    1C        C  326   4.177   4.274   4.351
    1C        C  327   4.273   4.170   4.354
    1C        C  328   4.132   4.331   4.472
    1C        C  329   4.189   4.290   4.594
    1C        C  330   4.021   4.427   4.710
    1C        C  331   4.139   4.347   4.713
    1C        C  332   3.969   4.485   4.828
    1C        C  333   4.048   4.471   4.942
    1C        C  334   4.550   3.270   2.058
    1C        C  335   4.533   3.131   2.065
    1C        C  336   4.532   3.349   2.172
    1C        C  337   4.515   3.277   2.292
    1C        C  338   4.525   3.493   2.408
    1C        C  339   4.527   3.351   2.411
    1C        C  340   4.522   3.563   2.531
    1C        C  341   4.523   3.494   2.654
    1C        C  342   4.493   3.705   2.772
    1C        C  343   4.515   3.565   2.776
    1C        C  344   4.477   3.776   2.893
    1C        C  345   4.496   3.711   3.018
    1C        C  346   4.423   3.911   3.137
    1C        C  347   4.475   3.779   3.140
    1C        C  348   4.387   3.976   3.257
    1C        C  349   4.420   3.916   3.380
    1C        C  350   4.320   4.103   3.502
    1C        C  351   4.391   3.981   3.502
    1C        C  352   4.277   4.164   3.622
    1C        C  353   4.316   4.103   3.744
    1C        C  354   4.177   4.267   3.864
    1C        C  355   4.267   4.158   3.865
    1C        C  356   4.121   4.314   3.985
    1C        C  357   4.172   4.266   4.107
    1C        C  358   4.007   4.400   4.226
    1C        C  359   4.122   4.318   4.229
    1C        C  360   3.949   4.441   4.348
    1C        C  361   4.016   4.412   4.469
    1C        C  362   3.823   4.508   4.593
    1C        C  363   3.952   4.449   4.589
    1C        C  364   3.757   4.540   4.713
    1C        C  365   3.836   4.532   4.830
    1C        C  366   3.625   4.590   4.948
    1C        C  367   3.763   4.571   4.943
    1C        C  368   4.502   3.563   2.047
    1C        C  369   4.523   3.490   2.165
    1C        C  370   4.501   3.703   2.285
    1C        C  371   4.517   3.563   2.286
    1C        C  372   4.483   3.773   2.407
    1C        C  373   4.501   3.703   2.528
    1C        C  374   4.428   3.904   2.646
    1C        C  375   4.478   3.772   2.649
    1C        C  376   4.398   3.970   2.767
    1C        C  377   4.424   3.907   2.891
    1C        C  378   4.322   4.093   3.009
    1C        C  379   4.393   3.971   3.013
    1C        C  380   4.275   4.148   3.130
    1C        C  381   4.309   4.094   3.256
    1C        C  382   4.167   4.248   3.372
    1C        C  383   4.269   4.151   3.379
    1C        C  384   4.113   4.294   3.495
    1C        C  385   4.168   4.253   3.618
    1C        C  386   4.003   4.384   3.739
    1C        C  387   4.120   4.306   3.741
    1C        C  388   3.939   4.425   3.858
    1C        C  389   4.002   4.390   3.980
    1C        C  390   3.814   4.484   4.103
    1C        C  391   3.943   4.426   4.103
    1C        C  392   3.747   4.506   4.226
    1C        C  393   3.817   4.493   4.348
    1C        C  394   3.615   4.549   4.472
    1C        C  395   3.754   4.526   4.471
    1C        C  396   3.543   4.559   4.593
    1C        C  397   3.618   4.567   4.713
    1C        C  398   3.406   4.557   4.837
    1C        C  399   3.546   4.577   4.833
    1C        C  400   3.340   4.514   4.953
    1C        C  401   4.497   3.702   2.048
    1C        C  402   4.457   3.915   2.164
    1C        C  403   4.489   3.777   2.166
    1C        C  404   4.415   3.976   2.284
    1C        C  405   4.436   3.906   2.405
    1C        C  406   4.326   4.091   2.522
    1C        C  407   4.403   3.973   2.525
    1C        C  408   4.279   4.145   2.643
    1C        C  409   4.317   4.086   2.765
    1C        C  410   4.171   4.240   2.885
    1C        C  411   4.276   4.146   2.886
    1C        C  412   4.118   4.285   3.008
    1C        C  413   4.173   4.246   3.132
    1C        C  414   3.995   4.372   3.251
    1C        C  415   4.113   4.294   3.250
    1C        C  416   3.936   4.406   3.374
    1C        C  417   4.002   4.381   3.496
    1C        C  418   3.808   4.471   3.614
    1C        C  419   3.937   4.415   3.617
    1C        C  420   3.741   4.500   3.736
    1C        C  421   3.808   4.477   3.858
    1C        C  422   3.606   4.533   3.982
    1C        C  423   3.744   4.503   3.982
    1C        C  424   3.538   4.541   4.106
    1C        C  425   3.609   4.535   4.227
    1C        C  426   3.401   4.545   4.355
    1C        C  427   3.542   4.550   4.351
    1C        C  428   3.328   4.541   4.476
    1C        C  429   3.402   4.552   4.595
    1C        C  430   3.191   4.523   4.719
    1C        C  431   3.332   4.542   4.718
    1C        C  432   3.122   4.499   4.840
    1C        C  433   3.203   4.490   4.954
    1C        C  434   4.371   4.114   2.047
    1C        C  435   4.450   3.998   2.051
    1C        C  436   4.295   4.155   2.161
    1C        C  437   4.336   4.094   2.283
    1C        C  438   4.180   4.247   2.400
    1C        C  439   4.281   4.149   2.401
    1C        C  440   4.124   4.291   2.522
    1C        C  441   4.179   4.245   2.644
    1C        C  442   4.001   4.369   2.764
    1C        C  443   4.117   4.289   2.763
    1C        C  444   3.940   4.404   2.886
    1C        C  445   4.002   4.366   3.007
    1C        C  446   3.809   4.465   3.128
    1C        C  447   3.938   4.406   3.126
    1C        C  448   3.740   4.486   3.250
    1C        C  449   3.807   4.464   3.372
    1C        C  450   3.603   4.530   3.492
    1C        C  451   3.740   4.495   3.493
    1C        C  452   3.534   4.540   3.615
    1C        C  453   3.605   4.536   3.737
    1C        C  454   3.394   4.542   3.864
    1C        C  455   3.535   4.543   3.860
    1C        C  456   3.326   4.530   3.987
    1C        C  457   3.397   4.540   4.108
    1C        C  458   3.193   4.506   4.235
    1C        C  459   3.331   4.536   4.233
    1C        C  460   3.121   4.489   4.356
    1C        C  461   3.190   4.511   4.477
    1C        C  462   2.993   4.436   4.600
    1C        C  463   3.121   4.495   4.600
    1C        C  464   2.926   4.404   4.720
    1C        C  465   2.988   4.447   4.841
    1C        C  466   2.803   4.334   4.958
    1C        C  467   2.907   4.426   4.957
    1C        C  468   4.128   4.293   2.042
    1C        C  469   4.185   4.247   2.161
    1C        C  470   4.000   4.366   2.275
    1C        C  471   4.124   4.296   2.280
    1C        C  472   3.939   4.399   2.398
    1C        C  473   4.004   4.366   2.519
    1C        C  474   3.811   4.457   2.641
    1C        C  475   3.938   4.396   2.640
    1C        C  476   3.742   4.479   2.762
    1C        C  477   3.810   4.459   2.885
    1C        C  478   3.604   4.516   3.005
    1C        C  479   3.741   4.483   3.006
    1C        C  480   3.533   4.520   3.127
    1C        C  481   3.601   4.511   3.250
    1C        C  482   3.390   4.534   3.371
    1C        C  483   3.531   4.535   3.370
    1C        C  484   3.322   4.530   3.495
    1C        C  485   3.393   4.542   3.617
    1C        C  486   3.189   4.500   3.742
    1C        C  487   3.325   4.539   3.741
    1C        C  488   3.123   4.481   3.865
    1C        C  489   3.187   4.501   3.989
    1C        C  490   3.000   4.415   4.111
    1C        C  491   3.125   4.481   4.114
    1C        C  492   2.940   4.380   4.234
    1C        C  493   2.995   4.425   4.355
    1C        C  494   2.831   4.296   4.481
    1C        C  495   2.935   4.391   4.479
    1C        C  496   2.775   4.249   4.602
    1C        C  497   2.820   4.309   4.722
    1C        C  498   2.674   4.156   4.845
    1C        C  499   2.760   4.268   4.843
    1C        C  500   2.598   4.116   4.956
    1C        C  501   4.002   4.352   2.037
    1C        C  502   3.811   4.460   2.153
    1C        C  503   3.938   4.398   2.152
    1C        C  504   3.740   4.471   2.275
    1C        C  505   3.805   4.445   2.397
    1C        C  506   3.602   4.502   2.518
    1C        C  507   3.741   4.474   2.519
    1C        C  508   3.531   4.515   2.639
    1C        C  509   3.604   4.506   2.760
    1C        C  510   3.393   4.524   2.883
    1C        C  511   3.534   4.523   2.882
    1C        C  512   3.319   4.522   3.004
    1C        C  513   3.391   4.527   3.125
    1C        C  514   3.183   4.498   3.251
    1C        C  515   3.321   4.529   3.247
    1C        C  516   3.119   4.470   3.374
    1C        C  517   3.184   4.499   3.496
    1C        C  518   2.996   4.410   3.623
    1C        C  519   3.121   4.475   3.620
    1C        C  520   2.936   4.373   3.745
    1C        C  521   3.000   4.410   3.866
    1C        C  522   2.838   4.278   3.993
    1C        C  523   2.944   4.372   3.989
    1C        C  524   2.786   4.231   4.116
    1C        C  525   2.827   4.294   4.236
    1C        C  526   2.700   4.128   4.362
    1C        C  527   2.781   4.244   4.359
    1C        C  528   2.659   4.070   4.484
    1C        C  529   2.691   4.136   4.605
    1C        C  530   2.585   3.954   4.732
    1C        C  531   2.645   4.083   4.728
    1C        C  532   2.535   3.899   4.852
    1C        C  533   2.523   3.998   4.955
    1C        C  534   3.616   4.554   2.037
    1C        C  535   3.747   4.505   2.037
    1C        C  536   3.534   4.533   2.152
    1C        C  537   3.602   4.503   2.274
    1C        C  538   3.390   4.516   2.397
    1C        C  539   3.531   4.512   2.396
    1C        C  540   3.318   4.506   2.519
    1C        C  541   3.390   4.513   2.640
    1C        C  542   3.182   4.481   2.763
    1C        C  543   3.321   4.509   2.763
    1C        C  544   3.112   4.466   2.885
    1C        C  545   3.182   4.489   3.005
    1C        C  546   2.995   4.400   3.132
    1C        C  547   3.118   4.469   3.130
    1C        C  548   2.938   4.361   3.255
    1C        C  549   2.994   4.404   3.378
    1C        C  550   2.829   4.277   3.505
    1C        C  551   2.937   4.368   3.502
    1C        C  552   2.773   4.232   3.626
    1C        C  553   2.828   4.282   3.747
    1C        C  554   2.703   4.115   3.873
    1C        C  555   2.787   4.230   3.871
    1C        C  556   2.660   4.061   3.995
    1C        C  557   2.702   4.118   4.118
    1C        C  558   2.602   3.937   4.245
    1C        C  559   2.663   4.064   4.242
    1C        C  560   2.569   3.875   4.368
    1C        C  561   2.594   3.945   4.488
    1C        C  562   2.534   3.744   4.615
    1C        C  563   2.570   3.881   4.612
    1C        C  564   2.520   3.677   4.738
    1C        C  565   2.520   3.756   4.856
    1C        C  566   2.518   3.541   4.975
    1C        C  567   2.523   3.680   4.973
    1C        C  568   3.327   4.474   2.037
    1C        C  569   3.394   4.510   2.155
    1C        C  570   3.181   4.474   2.278
    1C        C  571   3.319   4.509   2.276
    1C        C  572   3.110   4.458   2.399
    1C        C  573   3.179   4.481   2.520
    1C        C  574   2.983   4.404   2.644
    1C        C  575   3.111   4.464   2.642
    1C        C  576   2.925   4.363   2.766
    1C        C  577   2.984   4.406   2.887
    1C        C  578   2.826   4.268   3.015
    1C        C  579   2.931   4.364   3.011
    1C        C  580   2.777   4.220   3.138
    1C        C  581   2.831   4.269   3.259
    1C        C  582   2.697   4.109   3.380
    1C        C  583   2.785   4.220   3.383
    1C        C  584   2.660   4.053   3.505
    1C        C  585   2.692   4.116   3.627
    1C        C  586   2.596   3.931   3.754
    1C        C  587   2.660   4.057   3.751
    1C        C  588   2.568   3.869   3.877
    1C        C  589   2.601   3.933   3.999
    1C        C  590   2.537   3.734   4.124
    1C        C  591   2.574   3.871   4.123
    1C        C  592   2.519   3.670   4.248
    1C        C  593   2.531   3.739   4.371
    1C        C  594   2.507   3.531   4.495
    1C        C  595   2.518   3.672   4.494
    1C        C  596   2.508   3.461   4.618
    1C        C  597   2.512   3.535   4.738
    1C        C  598   2.524   3.322   4.860
    1C        C  599   2.519   3.463   4.859
    1C        C  600   2.532   3.246   4.977
    1C        C  601   3.194   4.437   2.041
    1C        C  602   2.983   4.387   2.159
    1C        C  603   3.115   4.441   2.157
    1C        C  604   2.920   4.357   2.283
    1C        C  605   2.984   4.393   2.403
    1C        C  606   2.817   4.264   2.525
    1C        C  607   2.922   4.359   2.525
    1C        C  608   2.769   4.215   2.648
    1C        C  609   2.820   4.269   2.769
    1C        C  610   2.691   4.105   2.894
    1C        C  611   2.774   4.219   2.893
    1C        C  612   2.649   4.050   3.017
    1C        C  613   2.689   4.109   3.139
    1C        C  614   2.593   3.919   3.263
    1C        C  615   2.652   4.048   3.261
    1C        C  616   2.570   3.859   3.388
    1C        C  617   2.598   3.926   3.509
    1C        C  618   2.528   3.729   3.633
    1C        C  619   2.567   3.865   3.633
    1C        C  620   2.515   3.661   3.756
    1C        C  621   2.530   3.733   3.876
    1C        C  622   2.509   3.526   4.004
    1C        C  623   2.522   3.666   4.001
    1C        C  624   2.508   3.456   4.127
    1C        C  625   2.512   3.529   4.248
    1C        C  626   2.531   3.321   4.375
    1C        C  627   2.514   3.461   4.372
    1C        C  628   2.549   3.251   4.496
    1C        C  629   2.527   3.321   4.617
    1C        C  630   2.595   3.119   4.740
    1C        C  631   2.546   3.253   4.739
    1C        C  632   2.618   3.049   4.861
    1C        C  633   2.569   3.111   4.981
    1C        C  634   2.776   4.305   2.051
    1C        C  635   2.889   4.389   2.051
    1C        C  636   2.745   4.229   2.164
    1C        C  637   2.802   4.276   2.284
    1C        C  638   2.671   4.106   2.408
    1C        C  639   2.760   4.216   2.405
    1C        C  640   2.638   4.045   2.531
    1C        C  641   2.683   4.103   2.651
    1C        C  642   2.583   3.918   2.775
    1C        C  643   2.648   4.044   2.774
    1C        C  644   2.559   3.855   2.899
    1C        C  645   2.582   3.926   3.019
    1C        C  646   2.522   3.721   3.146
    1C        C  647   2.562   3.856   3.140
    1C        C  648   2.509   3.651   3.269
    1C        C  649   2.526   3.725   3.388
    1C        C  650   2.504   3.517   3.514
    1C        C  651   2.512   3.658   3.512
    1C        C  652   2.507   3.448   3.637
    1C        C  653   2.507   3.520   3.759
    1C        C  654   2.522   3.312   3.885
    1C        C  655   2.503   3.453   3.883
    1C        C  656   2.549   3.249   4.008
    1C        C  657   2.529   3.317   4.130
    1C        C  658   2.601   3.120   4.254
    1C        C  659   2.547   3.250   4.254
    1C        C  660   2.634   3.055   4.375
    1C        C  661   2.595   3.117   4.495
    1C        C  662   2.701   2.937   4.623
    1C        C  663   2.619   3.052   4.618
    1C        C  664   2.752   2.880   4.742
    1C        C  665   2.696   2.929   4.863
    1C        C  666   2.741   2.868   4.981
    1C        C  667   2.674   4.023   2.052
    1C        C  668   2.680   4.103   2.167
    1C        C  669   2.586   3.909   2.290
    1C        C  670   2.639   4.042   2.287
    1C        C  671   2.557   3.845   2.412
    1C        C  672   2.580   3.916   2.532
    1C        C  673   2.517   3.715   2.658
    1C        C  674   2.551   3.852   2.654
    1C        C  675   2.509   3.646   2.781
    1C        C  676   2.522   3.718   2.901
    1C        C  677   2.501   3.509   3.027
    1C        C  678   2.511   3.650   3.024
    1C        C  679   2.499   3.438   3.149
    1C        C  680   2.496   3.511   3.270
    1C        C  681   2.519   3.303   3.399
    1C        C  682   2.497   3.442   3.394
    1C        C  683   2.530   3.233   3.521
    1C        C  684   2.521   3.307   3.641
    1C        C  685   2.581   3.105   3.767
    1C        C  686   2.540   3.241   3.764
    1C        C  687   2.627   3.051   3.889
    1C        C  688   2.597   3.116   4.011
    1C        C  689   2.713   2.938   4.136
    1C        C  690   2.630   3.053   4.133
    1C        C  691   2.754   2.881   4.259
    1C        C  692   2.708   2.935   4.381
    1C        C  693   2.747   2.876   4.504
    1C        C  694   2.624   3.893   2.056
    1C        C  695   2.527   3.700   2.175
    1C        C  696   2.572   3.834   2.172
    1C        C  697   2.498   3.633   2.296
    1C        C  698   2.514   3.710   2.413
    1C        C  699   2.486   3.503   2.539
    1C        C  700   2.503   3.643   2.537
    1C        C  701   2.490   3.435   2.663
    1C        C  702   2.489   3.506   2.785
    1C        C  703   2.522   3.296   2.909
    1C        C  704   2.497   3.435   2.907
    1C        C  705   2.541   3.229   3.032
    1C        C  706   2.522   3.298   3.154
    1C        C  707   2.592   3.101   3.279
    1C        C  708   2.538   3.232   3.278
    1C        C  709   2.623   3.039   3.402
    1C        C  710   2.588   3.104   3.523
    1C        C  711   2.703   2.930   3.647
    1C        C  712   2.614   3.040   3.646
    1C        C  713   2.755   2.882   3.769
    1C        C  714   2.712   2.939   3.891
    1C        C  715   2.757   2.884   4.013
    1C        C  716   2.443   3.498   2.063
    1C        C  717   2.486   3.631   2.060
    1C        C  718   2.457   3.416   2.179
    1C        C  719   2.474   3.493   2.297
    1C        C  720   2.512   3.289   2.425
    1C        C  721   2.477   3.426   2.421
    1C        C  722   2.531   3.220   2.547
    1C        C  723   2.516   3.296   2.665
    1C        C  724   2.585   3.095   2.788
    1C        C  725   2.533   3.226   2.787
    1C        C  726   2.619   3.032   2.910
    1C        C  727   2.589   3.096   3.033
    1C        C  728   2.702   2.921   3.157
    1C        C  729   2.618   3.035   3.157
    1C        C  730   2.750   2.870   3.279
    1C        C  731   2.707   2.926   3.402
    1C        C  732   2.750   2.873   3.526
    1C        C  733   2.482   3.191   2.071
    1C        C  734   2.480   3.275   2.184
    1C        C  735   2.582   3.085   2.305
    1C        C  736   2.524   3.215   2.305
    1C        C  737   2.611   3.019   2.426
    1C        C  738   2.581   3.088   2.546
    1C        C  739   2.696   2.910   2.669
    1C        C  740   2.619   3.029   2.668
    1C        C  741   2.741   2.854   2.791
    1C        C  742   2.701   2.917   2.911
    1C        C  743   2.744   2.864   3.035
    1C        C  744   2.549   3.070   2.070
    1C        C  745   2.682   2.896   2.187
    1C        C  746   2.609   3.017   2.184
    1C        C  747   2.726   2.836   2.307
    1C        C  748   2.688   2.900   2.427
    1C        C  749   2.733   2.846   2.549
    1C        C  750   2.735   2.839   2.071
    1C        C  751   3.664   2.314   1.967
    1C        O  752   3.709   2.202   2.004
    1C        O  753   3.612   2.329   1.838
    1C        C  754   4.626   3.060   1.975
    1C        O  755   4.598   3.021   1.858
    1C        O  756   4.752   3.021   2.024
    1C        C  757   4.442   4.217   1.969
    1C        O  758   4.516   4.306   2.018
    1C        O  759   4.451   4.216   1.829
    1C        C  760   3.598   4.676   1.955
    1C        O  761   3.618   4.791   2.002
    1C        O  762   3.587   4.670   1.815
    1C        C  763   2.868   4.514   1.974
    1C        O  764   2.910   4.523   1.855
    1C        O  765   2.777   4.618   1.995
    1C        C  766   2.329   3.488   1.969
    1C        O  767   2.353   3.456   1.850
    1C        O  768   2.200   3.530   2.003
    1C        C  769   4.677   3.590   5.074
    1C        O  770   4.649   3.588   5.197
    1C        O  771   4.813   3.598   5.042
    1C        C  772   4.281   4.458   5.022
    1C        O  773   4.315   4.432   5.141
    1C        O  774   4.398   4.504   4.960
    1C        C  775   4.153   2.493   5.032
    1C        O  776   4.229   2.416   4.967
    1C        O  777   4.131   2.435   5.157
    1C        C  778   2.873   4.536   5.051
    1C        O  779   2.810   4.635   5.005
    1C        O  780   2.923   4.537   5.182
    1C        C  781   2.465   3.047   5.064
    1C        O  782   2.378   2.967   5.021
    1C        O  783   2.480   3.038   5.202
    1C        C  784   2.409   3.999   5.049
    1C        O  785   2.291   4.014   5.009
    1C        O  786   2.426   3.959   5.183
    1C        C  787   2.941   2.424   2.007
    1C        O  788   2.912   2.446   1.887
    1C        O  789   2.879   2.314   2.067
    1C        C  790   3.190   2.368   5.059
    1C        O  791   3.149   2.256   5.018
    1C        O  792   3.196   2.380   5.198
    1C        H  793   4.263   3.029   5.056
    1C        H  794   4.155   2.822   5.064
    1C        H  795   4.500   3.126   5.058
    1C        H  796   4.559   3.351   5.059
    1C        H  797   4.578   3.815   5.034
    1C        H  798   4.348   3.937   5.028
    1C        H  799   4.302   4.180   5.050
    1C        H  800   4.025   4.525   5.032
    1C        H  801   3.816   4.603   5.030
    1C        H  802   3.579   4.633   5.035
    1C        H  803   3.387   4.434   5.007
    1C        H  804   3.161   4.477   5.052
    1C        H  805   3.879   2.514   5.072
    1C        H  806   3.654   2.398   5.047
    1C        H  807   3.015   2.575   5.072
    1C        H  808   3.438   2.525   5.062
    1C        H  809   2.892   2.762   5.073
    1C        H  810   2.705   2.894   5.078
    1C        H  811   2.547   3.298   5.070
    1C        H  812   2.481   3.500   5.067
    1C        H  813   2.531   3.735   5.065
    1C        H  814   2.545   4.197   5.003
    1C        H  815   2.778   4.288   5.052
    1C        H  816   2.687   2.850   1.976
    1C        H  817   2.852   2.680   1.978
    1C        H  818   3.199   2.420   1.988
    1C        H  819   3.429   2.436   1.972
    1C        H  820   3.833   2.566   1.976
    1C        H  821   4.043   2.657   1.968
    1C        H  822   4.266   2.706   1.976
    1C        H  823   4.413   2.893   1.976
    1C        H  824   4.609   3.314   1.981
    1C        H  825   4.449   3.526   1.962
    1C        H  826   4.538   3.752   1.963
    1C        H  827   3.797   4.506   1.942
    1C        H  828   3.951   4.354   1.943
    1C        H  829   4.196   4.330   1.968
    1C        H  830   4.519   3.975   1.973
    1C        H  831   2.650   3.823   1.979
    1C        H  832   2.671   4.068   1.955
    1C        H  833   2.719   4.286   1.963
    1C        H  834   3.380   4.477   1.944
    1C        H  835   3.155   4.380   1.960
    1C        H  836   2.528   3.005   1.986
    1C        H  837   2.452   3.240   1.980
    1C        H  838   2.486   3.691   1.971
    2V3OU   H29  839   2.809   3.543   3.211
    2V3OU   C27  840   2.791   3.501   3.313
    2V3OU   H27  841   2.730   3.561   3.385
    2V3OU   H28  842   2.737   3.403   3.302
    2V3OU   O11  843   2.914   3.474   3.381
    2V3OU   C15  844   2.923   3.394   3.493
    2V3OU   C13  845   3.051   3.374   3.549
    2V3OU   C14  846   3.074   3.268   3.638
    2V3OU   C16  847   2.975   3.186   3.691
    2V3OU    H6  848   2.994   3.102   3.760
    2V3OU   C12  849   3.211   3.230   3.679
    2V3OU    O2  850   3.237   3.124   3.739
    2V3OU   C10  851   3.323   3.304   3.619
    2V3OU    C8  852   3.454   3.269   3.647
    2V3OU   O10  853   3.488   3.155   3.712
    2V3OU   H26  854   3.401   3.114   3.726
    2V3OU    C6  855   3.564   3.350   3.604
    2V3OU    C5  856   3.534   3.469   3.540
    2V3OU    C4  857   3.703   3.295   3.597
    2V3OU    H4  858   3.723   3.225   3.683
    2V3OU    H5  859   3.712   3.232   3.504
    2V3OU    C2  860   3.817   3.397   3.598
    2V3OU    O6  861   3.797   3.470   3.719
    2V3OU   H21  862   3.761   3.554   3.684
    2V3OU    C3  863   3.777   3.488   3.481
    2V3OU    H2  864   3.856   3.568   3.474
    2V3OU    H3  865   3.771   3.436   3.383
    2V3OU   C25  866   3.951   3.324   3.591
    2V3OU    O7  867   3.993   3.290   3.481
    2V3OU   C26  868   4.023   3.285   3.719
    2V3OU   H22  869   4.060   3.376   3.773
    2V3OU   H23  870   4.113   3.223   3.696
    2V3OU    O8  871   3.954   3.210   3.817
    2V3OU   H24  872   3.920   3.265   3.890
    2V3OU    C1  873   3.645   3.562   3.500
    2V3OU    H1  874   3.618   3.613   3.403
    2V3OU    O3  875   3.658   3.655   3.608
    2V3OU   C19  876   3.617   3.791   3.597
    2V3OU    H9  877   3.516   3.802   3.547
    2V3OU    O4  878   3.715   3.852   3.514
    2V3OU   C20  879   3.846   3.869   3.569
    2V3OU   H10  880   3.898   3.773   3.597
    2V3OU   C24  881   3.611   3.854   3.736
    2V3OU   H16  882   3.543   3.790   3.798
    2V3OU   H17  883   3.571   3.959   3.728
    2V3OU   C23  884   3.749   3.875   3.798
    2V3OU   H15  885   3.791   3.771   3.817
    2V3OU    N1  886   3.728   3.954   3.917
    2V3OU   H19  887   3.803   3.922   3.976
    2V3OU   H20  888   3.651   3.930   3.975
    2V3OU   C21  889   3.851   3.945   3.702
    2V3OU   H11  890   3.953   3.926   3.746
    2V3OU    O5  891   3.824   4.084   3.695
    2V3OU   H18  892   3.776   4.106   3.777
    2V3OU   C22  893   3.909   3.945   3.453
    2V3OU   H12  894   3.862   4.045   3.435
    2V3OU   H13  895   3.901   3.882   3.361
    2V3OU   H14  896   4.018   3.960   3.470
    2V3OU   C11  897   3.154   3.477   3.537
    2V3OU    O1  898   3.135   3.589   3.484
    2V3OU    C9  899   3.292   3.426   3.553
    2V3OU    C7  900   3.398   3.507   3.515
    2V3OU    O9  901   3.384   3.612   3.427
    2V3OU   H25  902   3.287   3.624   3.425
    2V3OU   C17  903   2.824   3.311   3.549
    2V3OU    H7  904   2.728   3.345   3.509
    2V3OU   C18  905   2.847   3.216   3.648
    2V3OU    H8  906   2.783   3.171   3.726
    3SOL     OW  907   2.956   5.305   5.984
    3SOL    HW1  908   2.944   5.378   6.051
    3SOL    HW2  909   2.867   5.271   5.954
    4SOL     OW  910   6.800   0.308   1.066
    4SOL    HW1  911   6.873   0.317   0.998
    4SOL    HW2  912   6.714   0.286   1.018
    5SOL     OW  913   4.596   2.259   2.073
    5SOL    HW1  914   4.675   2.310   2.106
    5SOL    HW2  915   4.513   2.289   2.121
    6SOL     OW  916   4.363   1.931   1.918
    6SOL    HW1  917   4.297   1.856   1.927
    6SOL    HW2  918   4.316   2.018   1.929
    7SOL     OW  919   0.822   4.196   3.512
    7SOL    HW1  920   0.803   4.116   3.569
    7SOL    HW2  921   0.815   4.279   3.567
    8SOL     OW  922   2.496   2.055   5.354
    8SOL    HW1  923   2.468   2.138   5.404
    8SOL    HW2  924   2.442   2.047   5.270
    9SOL     OW  925   5.547   1.796   5.719
    9SOL    HW1  926   5.567   1.864   5.789
    9SOL    HW2  927   5.481   1.834   5.654
   10SOL     OW  928   3.083   5.160   5.185
   10SOL    HW1  929   2.991   5.122   5.185
   10SOL    HW2  930   3.144   5.098   5.136
   11SOL     OW  931   2.165   1.703   6.093
   11SOL    HW1  932   2.228   1.735   6.022
   11SOL    HW2  933   2.177   1.759   6.175
   12SOL     OW  934   3.050   4.826   3.359
   12SOL    HW1  935   2.954   4.803   3.374
   12SOL    HW2  936   3.094   4.850   3.445
   13SOL     OW  937   3.153   6.591   4.390
   13SOL    HW1  938   3.239   6.617   4.346
   13SOL    HW2  939   3.090   6.669   4.387
   14SOL     OW  940   3.863   5.072   5.968
   14SOL    HW1  941   3.908   5.130   5.901
   14SOL    HW2  942   3.922   5.061   6.049
   15SOL     OW  943   0.894   6.425   1.024
   15SOL    HW1  944   0.831   6.493   1.061
   15SOL    HW2  945   0.849   6.335   1.020
   16SOL     OW  946   5.103   3.208   6.313
   16SOL    HW1  947   5.190   3.183   6.270
   16SOL    HW2  948   5.055   3.125   6.342
   17SOL     OW  949   5.924   0.002   6.893
   17SOL    HW1  950   5.973   6.947   6.845
   17SOL    HW2  951   5.984   0.044   6.960
   18SOL     OW  952   3.315   0.915   5.397
   18SOL    HW1  953   3.366   0.984   5.346
   18SOL    HW2  954   3.311   0.831   5.343
   19SOL     OW  955   6.991   2.111   2.285
   19SOL    HW1  956   0.065   2.089   2.253
   19SOL    HW2  957   6.933   2.030   2.276
   20SOL     OW  958   4.999   1.698   5.549
   20SOL    HW1  959   4.915   1.728   5.505
   20SOL    HW2  960   4.998   1.599   5.559
   21SOL     OW  961   2.827   0.885   2.157
   21SOL    HW1  962   2.843   0.789   2.133
   21SOL    HW2  963   2.742   0.892   2.209
   22SOL     OW  964   1.093   5.843   0.206
   22SOL    HW1  965   1.058   5.931   0.173
   22SOL    HW2  966   1.140   5.796   0.132
   23SOL     OW  967   4.332   5.468   1.965
   23SOL    HW1  968   4.421   5.480   2.009
   23SOL    HW2  969   4.333   5.385   1.910
   24SOL     OW  970   3.467   0.450   2.673
   24SOL    HW1  971   3.411   0.445   2.755
   24SOL    HW2  972   3.563   0.466   2.699
   25SOL     OW  973   2.653   6.963   3.528
   25SOL    HW1  974   2.741   6.916   3.528
   25SOL    HW2  975   2.619   6.971   3.434
   26SOL     OW  976   6.120   1.792   0.296
   26SOL    HW1  977   6.173   1.765   0.376
   26SOL    HW2  978   6.093   1.888   0.305
   27SOL     OW  979   1.532   1.261   2.197
   27SOL    HW1  980   1.631   1.275   2.199
   27SOL    HW2  981   1.503   1.216   2.281
   28SOL     OW  982   1.472   0.420   5.345
   28SOL    HW1  983   1.514   0.468   5.267
   28SOL    HW2  984   1.434   0.333   5.313
   29SOL     OW  985   6.541   1.803   1.569
   29SOL    HW1  986   6.613   1.871   1.576
   29SOL    HW2  987   6.477   1.830   1.497
   30SOL     OW  988   4.318   0.730   4.006
   30SOL    HW1  989   4.378   0.665   4.052
   30SOL    HW2  990   4.369   0.776   3.933
   31SOL     OW  991   0.261   2.127   6.646
   31SOL    HW1  992   0.218   2.063   6.709
   31SOL    HW2  993   0.333   2.177   6.693
   32SOL     OW  994   0.500   1.877   2.260
   32SOL    HW1  995   0.556   1.942   2.312
   32SOL    HW2  996   0.453   1.816   2.323
   33SOL     OW  997   0.830   4.384   5.226
   33SOL    HW1  998   0.920   4.425   5.240
   33SOL    HW2  999   0.837   4.310   5.160
   34SOL     OW 1000   2.699   6.421   5.017
   34SOL    HW1 1001   2.682   6.519   5.030
   34SOL    HW2 1002   2.764   6.389   5.086
   35SOL     OW 1003   4.598   2.119   5.611
   35SOL    HW1 1004   4.539   2.057   5.558
   35SOL    HW2 1005   4.545   2.161   5.684
   36SOL     OW 1006   4.117   2.233   4.390
   36SOL    HW1 1007   4.176   2.166   4.345
   36SOL    HW2 1008   4.144   2.325   4.361
   37SOL     OW 1009   1.878   1.473   5.618
   37SOL    HW1 1010   1.950   1.458   5.551
   37SOL    HW2 1011   1.919   1.476   5.710
   38SOL     OW 1012   1.401   5.029   2.122
   38SOL    HW1 1013   1.443   5.005   2.035
   38SOL    HW2 1014   1.467   5.077   2.179
   39SOL     OW 1015   6.153   4.676   6.279
   39SOL    HW1 1016   6.211   4.668   6.198
   39SOL    HW2 1017   6.208   4.705   6.357
   40SOL     OW 1018   3.868   2.488   0.589
   40SOL    HW1 1019   3.786   2.523   0.635
   40SOL    HW2 1020   3.844   2.409   0.533
   41SOL     OW 1021   6.696   3.757   3.431
   41SOL    HW1 1022   6.623   3.695   3.400
   41SOL    HW2 1023   6.766   3.705   3.480
   42SOL     OW 1024   3.299   5.829   4.790
   42SOL    HW1 1025   3.229   5.889   4.752
   42SOL    HW2 1026   3.377   5.824   4.728
   43SOL     OW 1027   4.480   0.725   4.994
   43SOL    HW1 1028   4.496   0.626   4.992
   43SOL    HW2 1029   4.436   0.750   5.080
   44SOL     OW 1030   5.404   2.420   5.102
   44SOL    HW1 1031   5.454   2.440   5.017
   44SOL    HW2 1032   5.469   2.391   5.172
   45SOL     OW 1033   4.400   5.316   1.373
   45SOL    HW1 1034   4.315   5.315   1.320
   45SOL    HW2 1035   4.421   5.409   1.400
   46SOL     OW 1036   0.676   2.504   3.890
   46SOL    HW1 1037   0.581   2.524   3.867
   46SOL    HW2 1038   0.683   2.484   3.988
   47SOL     OW 1039   4.353   4.217   0.797
   47SOL    HW1 1040   4.432   4.205   0.737
   47SOL    HW2 1041   4.385   4.248   0.887
   48SOL     OW 1042   6.437   2.621   0.126
   48SOL    HW1 1043   6.358   2.682   0.138
   48SOL    HW2 1044   6.424   2.565   0.044
   49SOL     OW 1045   6.074   2.792   2.116
   49SOL    HW1 1046   6.012   2.802   2.038
   49SOL    HW2 1047   6.166   2.821   2.090
   50SOL     OW 1048   6.231   1.041   5.538
   50SOL    HW1 1049   6.286   1.124   5.529
   50SOL    HW2 1050   6.183   1.023   5.452
   51SOL     OW 1051   2.300   6.486   3.014
   51SOL    HW1 1052   2.299   6.578   2.974
   51SOL    HW2 1053   2.380   6.436   2.980
   52SOL     OW 1054   5.606   3.495   1.842
   52SOL    HW1 1055   5.668   3.548   1.783
   52SOL    HW2 1056   5.519   3.543   1.850
   53SOL     OW 1057   4.767   1.378   3.733
   53SOL    HW1 1058   4.845   1.408   3.789
   53SOL    HW2 1059   4.797   1.369   3.638
   54SOL     OW 1060   5.764   6.068   1.215
   54SOL    HW1 1061   5.716   6.083   1.301
   54SOL    HW2 1062   5.843   6.128   1.210
   55SOL     OW 1063   2.440   2.758   5.186
   55SOL    HW1 1064   2.432   2.844   5.136
   55SOL    HW2 1065   2.351   2.713   5.191
   56SOL     OW 1066   0.511   0.887   1.198
   56SOL    HW1 1067   0.459   0.970   1.220
   56SOL    HW2 1068   0.576   0.907   1.124
   57SOL     OW 1069   4.296   1.361   1.676
   57SOL    HW1 1070   4.196   1.354   1.668
   57SOL    HW2 1071   4.324   1.455   1.655
   58SOL     OW 1072   0.791   6.590   5.780
   58SOL    HW1 1073   0.796   6.660   5.708
   58SOL    HW2 1074   0.766   6.633   5.866
   59SOL     OW 1075   6.976   3.573   6.267
   59SOL    HW1 1076   0.054   3.586   6.242
   59SOL    HW2 1077   6.971   3.525   6.355
   60SOL     OW 1078   5.249   2.824   4.251
   60SOL    HW1 1079   5.208   2.733   4.253
   60SOL    HW2 1080   5.267   2.851   4.157
   61SOL     OW 1081   6.913   1.539   4.390
   61SOL    HW1 1082   6.898   1.623   4.443
   61SOL    HW2 1083   6.900   1.459   4.448
   62SOL     OW 1084   2.156   1.278   1.863
   62SOL    HW1 1085   2.242   1.289   1.913
   62SOL    HW2 1086   2.176   1.250   1.769
   63SOL     OW 1087   3.589   0.354   4.562
   63SOL    HW1 1088   3.532   0.275   4.584
   63SOL    HW2 1089   3.534   0.438   4.567
   64SOL     OW 1090   0.152   2.580   6.407
   64SOL    HW1 1091   0.116   2.486   6.413
   64SOL    HW2 1092   0.249   2.580   6.432
   65SOL     OW 1093   0.356   4.868   5.932
   65SOL    HW1 1094   0.294   4.916   5.994
   65SOL    HW2 1095   0.325   4.881   5.838
   66SOL     OW 1096   3.157   0.536   3.113
   66SOL    HW1 1097   3.193   0.444   3.098
   66SOL    HW2 1098   3.060   0.532   3.136
   67SOL     OW 1099   0.304   2.958   6.338
   67SOL    HW1 1100   0.312   3.037   6.276
   67SOL    HW2 1101   0.235   2.895   6.303
   68SOL     OW 1102   0.272   1.689   6.969
   68SOL    HW1 1103   0.182   1.650   6.990
   68SOL    HW2 1104   0.316   1.718   0.036
   69SOL     OW 1105   1.618   2.614   5.425
   69SOL    HW1 1106   1.716   2.633   5.420
   69SOL    HW2 1107   1.570   2.667   5.355
   70SOL     OW 1108   5.192   4.868   4.236
   70SOL    HW1 1109   5.194   4.824   4.326
   70SOL    HW2 1110   5.285   4.892   4.208
   71SOL     OW 1111   4.689   2.220   3.349
   71SOL    HW1 1112   4.713   2.127   3.377
   71SOL    HW2 1113   4.703   2.283   3.426
   72SOL     OW 1114   0.955   1.466   3.307
   72SOL    HW1 1115   0.997   1.531   3.370
   72SOL    HW2 1116   0.884   1.512   3.254
   73SOL     OW 1117   3.249   0.352   0.734
   73SOL    HW1 1118   3.278   0.267   0.776
   73SOL    HW2 1119   3.191   0.333   0.654
   74SOL     OW 1120   3.792   1.305   0.170
   74SOL    HW1 1121   3.787   1.331   0.267
   74SOL    HW2 1122   3.700   1.287   0.136
   75SOL     OW 1123   4.705   0.920   1.526
   75SOL    HW1 1124   4.644   0.922   1.606
   75SOL    HW2 1125   4.699   1.008   1.479
   76SOL     OW 1126   3.243   3.377   0.062
   76SOL    HW1 1127   3.219   3.279   0.059
   76SOL    HW2 1128   3.266   3.408   6.988
   77SOL     OW 1129   1.032   0.491   3.437
   77SOL    HW1 1130   1.003   0.399   3.463
   77SOL    HW2 1131   1.052   0.493   3.339
   78SOL     OW 1132   4.847   1.440   0.924
   78SOL    HW1 1133   4.919   1.493   0.970
   78SOL    HW2 1134   4.885   1.392   0.846
   79SOL     OW 1135   2.885   6.054   1.961
   79SOL    HW1 1136   2.898   5.956   1.945
   79SOL    HW2 1137   2.906   6.105   1.877
   80SOL     OW 1138   4.099   1.900   3.967
   80SOL    HW1 1139   4.060   1.992   3.970
   80SOL    HW2 1140   4.102   1.869   3.872
   81SOL     OW 1141   1.841   6.810   1.976
   81SOL    HW1 1142   1.778   6.874   1.931
   81SOL    HW2 1143   1.807   6.717   1.965
   82SOL     OW 1144   5.896   5.660   1.337
   82SOL    HW1 1145   5.818   5.722   1.349
   82SOL    HW2 1146   5.922   5.621   1.425
   83SOL     OW 1147   0.477   0.949   6.868
   83SOL    HW1 1148   0.547   0.908   6.811
   83SOL    HW2 1149   0.486   1.048   6.867
   84SOL     OW 1150   6.102   3.599   2.989
   84SOL    HW1 1151   6.160   3.541   2.932
   84SOL    HW2 1152   6.155   3.677   3.022
   85SOL     OW 1153   1.518   1.402   3.035
   85SOL    HW1 1154   1.484   1.495   3.024
   85SOL    HW2 1155   1.512   1.375   3.131
   86SOL     OW 1156   6.824   1.507   0.151
   86SOL    HW1 1157   6.743   1.560   0.175
   86SOL    HW2 1158   6.797   1.414   0.124
   87SOL     OW 1159   4.467   4.288   1.079
   87SOL    HW1 1160   4.422   4.200   1.096
   87SOL    HW2 1161   4.492   4.330   1.166
   88SOL     OW 1162   3.072   2.342   6.030
   88SOL    HW1 1163   3.135   2.412   5.996
   88SOL    HW2 1164   3.121   2.257   6.045
   89SOL     OW 1165   3.389   2.749   6.812
   89SOL    HW1 1166   3.333   2.718   6.888
   89SOL    HW2 1167   3.381   2.683   6.736
   90SOL     OW 1168   3.593   5.364   2.609
   90SOL    HW1 1169   3.660   5.351   2.683
   90SOL    HW2 1170   3.605   5.292   2.540
   91SOL     OW 1171   6.441   3.697   6.087
   91SOL    HW1 1172   6.535   3.671   6.108
   91SOL    HW2 1173   6.413   3.774   6.144
   92SOL     OW 1174   4.609   4.856   0.973
   92SOL    HW1 1175   4.687   4.899   0.928
   92SOL    HW2 1176   4.525   4.879   0.924
   93SOL     OW 1177   3.150   3.041   6.871
   93SOL    HW1 1178   3.108   3.119   6.826
   93SOL    HW2 1179   3.119   2.957   6.827
   94SOL     OW 1180   2.972   5.619   6.518
   94SOL    HW1 1181   2.919   5.678   6.459
   94SOL    HW2 1182   3.046   5.576   6.466
   95SOL     OW 1183   2.168   1.414   2.916
   95SOL    HW1 1184   2.158   1.372   3.006
   95SOL    HW2 1185   2.214   1.502   2.925
   96SOL     OW 1186   4.672   5.332   5.227
   96SOL    HW1 1187   4.600   5.398   5.250
   96SOL    HW2 1188   4.630   5.251   5.186
   97SOL     OW 1189   2.112   3.493   5.455
   97SOL    HW1 1190   2.104   3.395   5.440
   97SOL    HW2 1191   2.100   3.541   5.368
   98SOL     OW 1192   1.150   2.118   0.361
   98SOL    HW1 1193   1.092   2.094   0.282
   98SOL    HW2 1194   1.138   2.215   0.382
   99SOL     OW 1195   4.024   3.660   1.951
   99SOL    HW1 1196   4.104   3.672   1.892
   99SOL    HW2 1197   4.050   3.673   2.046
  100SOL     OW 1198   0.152   0.013   3.927
  100SOL    HW1 1199   0.208   0.084   3.971
  100SOL    HW2 1200   0.205   6.989   3.853
  101SOL     OW 1201   0.233   4.853   1.917
  101SOL    HW1 1202   0.311   4.801   1.952
  101SOL    HW2 1203   0.160   4.853   1.985
  102SOL     OW 1204   3.479   5.528   2.207
  102SOL    HW1 1205   3.433   5.468   2.272
  102SOL    HW2 1206   3.439   5.619   2.211
  103SOL     OW 1207   1.893   2.543   2.405
  103SOL    HW1 1208   1.934   2.463   2.361
  103SOL    HW2 1209   1.906   2.623   2.347
  104SOL     OW 1210   1.487   6.000   2.966
  104SOL    HW1 1211   1.572   5.948   2.955
  104SOL    HW2 1212   1.437   5.964   3.045
  105SOL     OW 1213   5.985   1.022   6.395
  105SOL    HW1 1214   5.968   0.925   6.378
  105SOL    HW2 1215   6.008   1.068   6.309
  106SOL     OW 1216   3.809   5.994   3.727
  106SOL    HW1 1217   3.843   5.938   3.803
  106SOL    HW2 1218   3.724   6.038   3.755
  107SOL     OW 1219   0.416   0.729   0.413
  107SOL    HW1 1220   0.500   0.711   0.363
  107SOL    HW2 1221   0.436   0.786   0.492
  108SOL     OW 1222   4.150   6.560   6.391
  108SOL    HW1 1223   4.086   6.622   6.347
  108SOL    HW2 1224   4.101   6.503   6.458
  109SOL     OW 1225   2.656   1.197   2.246
  109SOL    HW1 1226   2.681   1.112   2.293
  109SOL    HW2 1227   2.738   1.254   2.236
  110SOL     OW 1228   3.163   5.205   4.540
  110SOL    HW1 1229   3.132   5.123   4.492
  110SOL    HW2 1230   3.149   5.193   4.639
  111SOL     OW 1231   1.851   1.231   3.980
  111SOL    HW1 1232   1.758   1.266   3.969
  111SOL    HW2 1233   1.916   1.306   3.972
  112SOL     OW 1234   4.436   6.164   0.112
  112SOL    HW1 1235   4.383   6.084   0.140
  112SOL    HW2 1236   4.509   6.181   0.177
  113SOL     OW 1237   0.968   6.156   3.231
  113SOL    HW1 1238   1.002   6.118   3.317
  113SOL    HW2 1239   0.925   6.084   3.177
  114SOL     OW 1240   1.466   5.912   1.892
  114SOL    HW1 1241   1.433   5.945   1.981
  114SOL    HW2 1242   1.560   5.880   1.901
  115SOL     OW 1243   5.423   6.789   2.895
  115SOL    HW1 1244   5.400   6.696   2.863
  115SOL    HW2 1245   5.497   6.825   2.839
  116SOL     OW 1246   0.507   5.645   1.396
  116SOL    HW1 1247   0.483   5.740   1.373
  116SOL    HW2 1248   0.504   5.633   1.495
  117SOL     OW 1249   0.620   0.679   0.828
  117SOL    HW1 1250   0.679   0.617   0.776
  117SOL    HW2 1251   0.551   0.625   0.878
  118SOL     OW 1252   1.424   1.875   2.410
  118SOL    HW1 1253   1.432   1.830   2.321
  118SOL    HW2 1254   1.338   1.926   2.415
  119SOL     OW 1255   0.152   0.424   0.040
  119SOL    HW1 1256   0.168   0.395   6.963
  119SOL    HW2 1257   0.056   0.408   0.063
  120SOL     OW 1258   5.349   0.515   4.297
  120SOL    HW1 1259   5.436   0.548   4.331
  120SOL    HW2 1260   5.274   0.565   4.342
  121SOL     OW 1261   1.513   3.845   0.316
  121SOL    HW1 1262   1.550   3.938   0.317
  121SOL    HW2 1263   1.517   3.807   0.409
  122SOL     OW 1264   1.509   3.209   0.465
  122SOL    HW1 1265   1.581   3.153   0.423
  122SOL    HW2 1266   1.535   3.305   0.462
  123SOL     OW 1267   1.067   1.241   1.778
  123SOL    HW1 1268   1.164   1.253   1.755
  123SOL    HW2 1269   1.011   1.300   1.719
  124SOL     OW 1270   3.023   2.551   1.083
  124SOL    HW1 1271   3.046   2.496   1.002
  124SOL    HW2 1272   3.103   2.557   1.143
  125SOL     OW 1273   4.022   3.241   0.694
  125SOL    HW1 1274   3.938   3.250   0.641
  125SOL    HW2 1275   4.069   3.157   0.668
  126SOL     OW 1276   3.484   2.892   2.782
  126SOL    HW1 1277   3.393   2.931   2.798
  126SOL    HW2 1278   3.522   2.859   2.868
  127SOL     OW 1279   6.889   5.148   6.652
  127SOL    HW1 1280   6.974   5.119   6.608
  127SOL    HW2 1281   6.813   5.141   6.587
  128SOL     OW 1282   4.795   3.052   1.417
  128SOL    HW1 1283   4.883   3.096   1.437
  128SOL    HW2 1284   4.750   3.101   1.342
  129SOL     OW 1285   2.978   3.332   0.296
  129SOL    HW1 1286   2.988   3.233   0.307
  129SOL    HW2 1287   3.003   3.358   0.203
  130SOL     OW 1288   6.979   0.307   4.444
  130SOL    HW1 1289   6.930   0.393   4.437
  130SOL    HW2 1290   7.011   0.279   4.353
  131SOL     OW 1291   5.260   0.626   3.691
  131SOL    HW1 1292   5.339   0.685   3.675
  131SOL    HW2 1293   5.250   0.562   3.615
  132SOL     OW 1294   2.907   2.483   1.499
  132SOL    HW1 1295   2.846   2.551   1.540
  132SOL    HW2 1296   2.970   2.449   1.569
  133SOL     OW 1297   5.607   1.142   3.374
  133SOL    HW1 1298   5.521   1.095   3.398
  133SOL    HW2 1299   5.682   1.076   3.372
  134SOL     OW 1300   0.105   0.453   3.075
  134SOL    HW1 1301   0.055   0.521   3.023
  134SOL    HW2 1302   0.204   0.468   3.064
  135SOL     OW 1303   5.011   3.938   4.365
  135SOL    HW1 1304   5.072   3.879   4.313
  135SOL    HW2 1305   5.027   3.926   4.463
  136SOL     OW 1306   1.853   5.482   4.939
  136SOL    HW1 1307   1.931   5.426   4.913
  136SOL    HW2 1308   1.868   5.520   5.030
  137SOL     OW 1309   4.457   1.574   3.648
  137SOL    HW1 1310   4.440   1.671   3.630
  137SOL    HW2 1311   4.546   1.563   3.692
  138SOL     OW 1312   1.124   3.987   3.253
  138SOL    HW1 1313   1.218   3.956   3.262
  138SOL    HW2 1314   1.118   4.055   3.179
  139SOL     OW 1315   1.970   6.068   5.561
  139SOL    HW1 1316   1.948   6.124   5.481
  139SOL    HW2 1317   1.912   6.095   5.638
  140SOL     OW 1318   1.520   6.275   3.888
  140SOL    HW1 1319   1.513   6.232   3.978
  140SOL    HW2 1320   1.513   6.205   3.817
  141SOL     OW 1321   6.718   2.820   5.415
  141SOL    HW1 1322   6.718   2.906   5.364
  141SOL    HW2 1323   6.626   2.780   5.413
  142SOL     OW 1324   2.023   3.471   2.176
  142SOL    HW1 1325   2.077   3.491   2.095
  142SOL    HW2 1326   2.075   3.412   2.237
  143SOL     OW 1327   5.505   5.589   1.198
  143SOL    HW1 1328   5.535   5.552   1.286
  143SOL    HW2 1329   5.520   5.688   1.196
  144SOL     OW 1330   2.235   4.563   5.314
  144SOL    HW1 1331   2.172   4.571   5.391
  144SOL    HW2 1332   2.183   4.562   5.228
  145SOL     OW 1333   2.618   5.440   1.216
  145SOL    HW1 1334   2.623   5.374   1.141
  145SOL    HW2 1335   2.630   5.393   1.303
  146SOL     OW 1336   5.412   0.117   6.840
  146SOL    HW1 1337   5.415   0.179   6.762
  146SOL    HW2 1338   5.324   0.069   6.840
  147SOL     OW 1339   5.387   0.935   5.875
  147SOL    HW1 1340   5.289   0.940   5.892
  147SOL    HW2 1341   5.429   0.867   5.935
  148SOL     OW 1342   0.569   5.376   1.382
  148SOL    HW1 1343   0.634   5.341   1.449
  148SOL    HW2 1344   0.545   5.470   1.405
  149SOL     OW 1345   3.448   2.045   4.983
  149SOL    HW1 1346   3.521   2.037   4.915
  149SOL    HW2 1347   3.363   2.073   4.937
  150SOL     OW 1348   5.111   0.174   6.648
  150SOL    HW1 1349   5.134   0.260   6.693
  150SOL    HW2 1350   5.171   0.101   6.682
  151SOL     OW 1351   3.727   0.686   2.072
  151SOL    HW1 1352   3.762   0.690   2.166
  151SOL    HW2 1353   3.793   0.727   2.010
  152SOL     OW 1354   6.937   1.607   0.404
  152SOL    HW1 1355   6.918   1.553   0.321
  152SOL    HW2 1356   6.853   1.649   0.436
  153SOL     OW 1357   3.120   6.367   3.123
  153SOL    HW1 1358   3.093   6.319   3.207
  153SOL    HW2 1359   3.210   6.335   3.094
  154SOL     OW 1360   0.284   3.566   1.132
  154SOL    HW1 1361   0.239   3.478   1.143
  154SOL    HW2 1362   0.231   3.637   1.178
  155SOL     OW 1363   0.890   0.953   3.269
  155SOL    HW1 1364   0.852   1.015   3.199
  155SOL    HW2 1365   0.958   0.893   3.226
  156SOL     OW 1366   6.751   0.024   7.010
  156SOL    HW1 1367   6.824   0.062   0.048
  156SOL    HW2 1368   6.771   0.040   6.913
  157SOL     OW 1369   5.691   3.363   0.537
  157SOL    HW1 1370   5.734   3.452   0.552
  157SOL    HW2 1371   5.758   3.300   0.498
  158SOL     OW 1372   1.937   3.102   1.106
  158SOL    HW1 1373   1.849   3.150   1.102
  158SOL    HW2 1374   2.004   3.151   1.050
  159SOL     OW 1375   4.180   5.048   1.432
  159SOL    HW1 1376   4.184   4.976   1.501
  159SOL    HW2 1377   4.247   5.029   1.360
  160SOL     OW 1378   5.934   0.267   0.800
  160SOL    HW1 1379   5.836   0.263   0.820
  160SOL    HW2 1380   5.950   0.327   0.722
  161SOL     OW 1381   1.408   0.341   2.787
  161SOL    HW1 1382   1.458   0.276   2.730
  161SOL    HW2 1383   1.374   0.416   2.732
  162SOL     OW 1384   3.624   5.792   6.643
  162SOL    HW1 1385   3.711   5.841   6.641
  162SOL    HW2 1386   3.641   5.693   6.650
  163SOL     OW 1387   0.240   5.974   2.518
  163SOL    HW1 1388   0.150   5.984   2.475
  163SOL    HW2 1389   0.311   5.987   2.449
  164SOL     OW 1390   0.884   3.484   2.775
  164SOL    HW1 1391   0.830   3.569   2.779
  164SOL    HW2 1392   0.960   3.491   2.839
  165SOL     OW 1393   5.123   5.302   6.846
  165SOL    HW1 1394   5.069   5.379   6.880
  165SOL    HW2 1395   5.178   5.332   6.767
  166SOL     OW 1396   0.445   3.588   2.065
  166SOL    HW1 1397   0.505   3.537   2.127
  166SOL    HW2 1398   0.401   3.663   2.115
  167SOL     OW 1399   6.159   1.693   6.221
  167SOL    HW1 1400   6.206   1.767   6.268
  167SOL    HW2 1401   6.219   1.614   6.215
  168SOL     OW 1402   4.265   2.235   0.892
  168SOL    HW1 1403   4.167   2.254   0.886
  168SOL    HW2 1404   4.294   2.184   0.811
  169SOL     OW 1405   5.668   2.806   7.009
  169SOL    HW1 1406   5.739   2.790   6.940
  169SOL    HW2 1407   5.637   2.719   0.028
  170SOL     OW 1408   6.961   5.727   2.163
  170SOL    HW1 1409   7.015   5.810   2.177
  170SOL    HW2 1410   6.921   5.728   2.071
  171SOL     OW 1411   2.565   4.585   0.323
  171SOL    HW1 1412   2.615   4.535   0.252
  171SOL    HW2 1413   2.622   4.658   0.360
  172SOL     OW 1414   5.967   1.899   3.074
  172SOL    HW1 1415   6.062   1.874   3.093
  172SOL    HW2 1416   5.957   1.920   2.977
  173SOL     OW 1417   5.747   1.261   4.635
  173SOL    HW1 1418   5.716   1.355   4.621
  173SOL    HW2 1419   5.782   1.251   4.728
  174SOL     OW 1420   4.458   5.317   3.127
  174SOL    HW1 1421   4.404   5.337   3.208
  174SOL    HW2 1422   4.404   5.262   3.064
  175SOL     OW 1423   3.738   0.879   0.671
  175SOL    HW1 1424   3.787   0.800   0.633
  175SOL    HW2 1425   3.770   0.897   0.764
  176SOL     OW 1426   5.529   4.677   2.380
  176SOL    HW1 1427   5.618   4.716   2.402
  176SOL    HW2 1428   5.529   4.643   2.286
  177SOL     OW 1429   4.934   3.135   4.384
  177SOL    HW1 1430   4.982   3.202   4.441
  177SOL    HW2 1431   4.977   3.045   4.394
  178SOL     OW 1432   2.861   4.902   5.405
  178SOL    HW1 1433   2.838   4.874   5.498
  178SOL    HW2 1434   2.960   4.894   5.392
  179SOL     OW 1435   4.155   0.376   6.951
  179SOL    HW1 1436   4.112   0.458   6.988
  179SOL    HW2 1437   4.097   0.338   6.879
  180SOL     OW 1438   2.440   0.252   0.608
  180SOL    HW1 1439   2.350   0.272   0.571
  180SOL    HW2 1440   2.509   0.261   0.535
  181SOL     OW 1441   3.071   3.616   5.519
  181SOL    HW1 1442   2.978   3.636   5.549
  181SOL    HW2 1443   3.111   3.697   5.477
  182SOL     OW 1444   4.116   2.259   6.311
  182SOL    HW1 1445   4.017   2.250   6.312
  182SOL    HW2 1446   4.156   2.199   6.380
  183SOL     OW 1447   3.266   2.132   3.726
  183SOL    HW1 1448   3.188   2.193   3.709
  183SOL    HW2 1449   3.308   2.107   3.639
  184SOL     OW 1450   0.286   6.399   3.262
  184SOL    HW1 1451   0.299   6.414   3.164
  184SOL    HW2 1452   0.341   6.321   3.292
  185SOL     OW 1453   1.122   1.360   4.946
  185SOL    HW1 1454   1.150   1.327   5.036
  185SOL    HW2 1455   1.055   1.297   4.907
  186SOL     OW 1456   6.084   0.898   4.085
  186SOL    HW1 1457   6.161   0.835   4.080
  186SOL    HW2 1458   6.049   0.916   3.993
  187SOL     OW 1459   5.948   6.766   2.193
  187SOL    HW1 1460   5.892   6.827   2.138
  187SOL    HW2 1461   6.017   6.722   2.134
  188SOL     OW 1462   0.556   3.182   3.957
  188SOL    HW1 1463   0.591   3.089   3.944
  188SOL    HW2 1464   0.472   3.178   4.011
  189SOL     OW 1465   1.920   5.242   0.080
  189SOL    HW1 1466   1.880   5.276   0.165
  189SOL    HW2 1467   1.849   5.239   0.009
  190SOL     OW 1468   6.292   4.518   5.743
  190SOL    HW1 1469   6.244   4.437   5.711
  190SOL    HW2 1470   6.388   4.513   5.715
  191SOL     OW 1471   6.499   1.325   6.351
  191SOL    HW1 1472   6.407   1.299   6.381
  191SOL    HW2 1473   6.560   1.246   6.357
  192SOL     OW 1474   0.273   4.501   1.579
  192SOL    HW1 1475   0.293   4.483   1.482
  192SOL    HW2 1476   0.310   4.427   1.635
  193SOL     OW 1477   4.971   3.883   5.402
  193SOL    HW1 1478   4.976   3.874   5.502
  193SOL    HW2 1479   4.970   3.791   5.361
  194SOL     OW 1480   3.820   6.545   3.572
  194SOL    HW1 1481   3.726   6.512   3.568
  194SOL    HW2 1482   3.835   6.612   3.498
  195SOL     OW 1483   1.613   1.332   4.040
  195SOL    HW1 1484   1.561   1.366   3.961
  195SOL    HW2 1485   1.551   1.314   4.116
  196SOL     OW 1486   2.822   0.158   6.588
  196SOL    HW1 1487   2.751   0.225   6.610
  196SOL    HW2 1488   2.897   0.204   6.540
  197SOL     OW 1489   2.841   0.095   0.467
  197SOL    HW1 1490   2.795   0.183   0.466
  197SOL    HW2 1491   2.858   0.067   0.562
  198SOL     OW 1492   4.565   6.830   2.346
  198SOL    HW1 1493   4.553   6.925   2.376
  198SOL    HW2 1494   4.477   6.794   2.313
  199SOL     OW 1495   6.596   1.197   3.176
  199SOL    HW1 1496   6.674   1.137   3.191
  199SOL    HW2 1497   6.608   1.282   3.227
  200SOL     OW 1498   0.888   3.911   1.758
  200SOL    HW1 1499   0.791   3.929   1.776
  200SOL    HW2 1500   0.933   3.996   1.732
  201SOL     OW 1501   4.823   0.014   6.392
  201SOL    HW1 1502   4.911   7.015   6.348
  201SOL    HW2 1503   4.827   7.004   6.488
  202SOL     OW 1504   5.338   0.308   6.071
  202SOL    HW1 1505   5.311   0.401   6.047
  202SOL    HW2 1506   5.432   0.308   6.106
  203SOL     OW 1507   4.738   1.990   4.783
  203SOL    HW1 1508   4.709   1.931   4.858
  203SOL    HW2 1509   4.708   1.951   4.696
  204SOL     OW 1510   0.055   0.856   6.573
  204SOL    HW1 1511   0.106   0.918   6.513
  204SOL    HW2 1512   0.113   0.828   6.649
  205SOL     OW 1513   0.839   0.821   2.405
  205SOL    HW1 1514   0.922   0.770   2.385
  205SOL    HW2 1515   0.781   0.824   2.324
  206SOL     OW 1516   0.002   4.831   2.715
  206SOL    HW1 1517   6.930   4.868   2.739
  206SOL    HW2 1518   0.052   4.898   2.659
  207SOL     OW 1519   4.072   0.809   4.077
  207SOL    HW1 1520   4.021   0.754   4.143
  207SOL    HW2 1521   4.169   0.784   4.080
  208SOL     OW 1522   5.476   3.677   5.619
  208SOL    HW1 1523   5.420   3.629   5.686
  208SOL    HW2 1524   5.470   3.775   5.634
  209SOL     OW 1525   1.237   4.918   4.688
  209SOL    HW1 1526   1.202   4.910   4.781
  209SOL    HW2 1527   1.165   4.891   4.623
  210SOL     OW 1528   4.516   1.864   1.530
  210SOL    HW1 1529   4.457   1.873   1.450
  210SOL    HW2 1530   4.514   1.949   1.582
  211SOL     OW 1531   1.228   6.371   3.626
  211SOL    HW1 1532   1.271   6.281   3.621
  211SOL    HW2 1533   1.275   6.434   3.565
  212SOL     OW 1534   2.176   4.561   2.417
  212SOL    HW1 1535   2.211   4.591   2.506
  212SOL    HW2 1536   2.247   4.507   2.370
  213SOL     OW 1537   3.491   0.869   6.027
  213SOL    HW1 1538   3.403   0.860   5.981
  213SOL    HW2 1539   3.562   0.892   5.960
  214SOL     OW 1540   4.257   5.728   1.992
  214SOL    HW1 1541   4.158   5.746   1.997
  214SOL    HW2 1542   4.273   5.629   1.992
  215SOL     OW 1543   3.061   4.143   1.794
  215SOL    HW1 1544   3.120   4.149   1.875
  215SOL    HW2 1545   2.966   4.137   1.822
  216SOL     OW 1546   1.700   6.243   4.904
  216SOL    HW1 1547   1.791   6.220   4.872
  216SOL    HW2 1548   1.634   6.176   4.869
  217SOL     OW 1549   2.606   2.383   3.470
  217SOL    HW1 1550   2.676   2.313   3.451
  217SOL    HW2 1551   2.631   2.468   3.424
  218SOL     OW 1552   0.341   3.376   4.451
  218SOL    HW1 1553   0.254   3.414   4.483
  218SOL    HW2 1554   0.365   3.417   4.363
  219SOL     OW 1555   3.159   6.564   6.355
  219SOL    HW1 1556   3.206   6.646   6.389
  219SOL    HW2 1557   3.220   6.485   6.361
  220SOL     OW 1558   3.654   6.675   6.596
  220SOL    HW1 1559   3.664   6.581   6.564
  220SOL    HW2 1560   3.696   6.738   6.531
  221SOL     OW 1561   0.176   3.850   2.562
  221SOL    HW1 1562   0.085   3.850   2.520
  221SOL    HW2 1563   0.170   3.891   2.653
  222SOL     OW 1564   2.215   5.079   5.718
  222SOL    HW1 1565   2.130   5.096   5.668
  222SOL    HW2 1566   2.286   5.141   5.685
  223SOL     OW 1567   5.881   3.540   0.986
  223SOL    HW1 1568   5.841   3.547   1.078
  223SOL    HW2 1569   5.861   3.623   0.934
  224SOL     OW 1570   2.773   1.481   3.872
  224SOL    HW1 1571   2.815   1.489   3.781
  224SOL    HW2 1572   2.674   1.467   3.861
  225SOL     OW 1573   5.425   1.196   5.812
  225SOL    HW1 1574   5.429   1.100   5.841
  225SOL    HW2 1575   5.452   1.202   5.716
  226SOL     OW 1576   0.785   0.196   5.758
  226SOL    HW1 1577   0.839   0.212   5.840
  226SOL    HW2 1578   0.827   0.242   5.680
  227SOL     OW 1579   1.368   3.941   2.116
  227SOL    HW1 1580   1.450   3.906   2.161
  227SOL    HW2 1581   1.376   3.926   2.017
  228SOL     OW 1582   3.343   6.367   3.972
  228SOL    HW1 1583   3.330   6.315   4.057
  228SOL    HW2 1584   3.282   6.330   3.902
  229SOL     OW 1585   5.040   7.004   0.488
  229SOL    HW1 1586   4.975   6.963   0.553
  229SOL    HW2 1587   4.996   7.013   0.398
  230SOL     OW 1588   2.572   4.849   2.436
  230SOL    HW1 1589   2.603   4.905   2.513
  230SOL    HW2 1590   2.651   4.809   2.389
  231SOL     OW 1591   6.548   2.221   6.257
  231SOL    HW1 1592   6.474   2.167   6.218
  231SOL    HW2 1593   6.546   2.213   6.357
  232SOL     OW 1594   1.497   3.851   6.050
  232SOL    HW1 1595   1.422   3.897   6.003
  232SOL    HW2 1596   1.498   3.754   6.025
  233SOL     OW 1597   2.346   1.050   3.941
  233SOL    HW1 1598   2.385   1.085   4.026
  233SOL    HW2 1599   2.419   1.033   3.875
  234SOL     OW 1600   3.051   6.002   5.389
  234SOL    HW1 1601   3.016   6.095   5.379
  234SOL    HW2 1602   3.130   5.990   5.329
  235SOL     OW 1603   3.032   3.848   2.467
  235SOL    HW1 1604   3.003   3.846   2.563
  235SOL    HW2 1605   3.020   3.757   2.427
  236SOL     OW 1606   5.917   2.756   6.833
  236SOL    HW1 1607   5.836   2.759   6.775
  236SOL    HW2 1608   5.999   2.759   6.776
  237SOL     OW 1609   6.656   6.637   0.909
  237SOL    HW1 1610   6.642   6.664   1.005
  237SOL    HW2 1611   6.566   6.623   0.866
  238SOL     OW 1612   5.856   1.882   6.749
  238SOL    HW1 1613   5.931   1.836   6.700
  238SOL    HW2 1614   5.783   1.904   6.685
  239SOL     OW 1615   6.949   5.877   0.023
  239SOL    HW1 1616   6.972   5.809   6.971
  239SOL    HW2 1617   7.013   5.869   0.099
  240SOL     OW 1618   0.618   2.635   6.225
  240SOL    HW1 1619   0.518   2.634   6.214
  240SOL    HW2 1620   0.650   2.729   6.226
  241SOL     OW 1621   1.400   0.187   4.138
  241SOL    HW1 1622   1.454   0.126   4.081
  241SOL    HW2 1623   1.354   0.254   4.081
  242SOL     OW 1624   2.304   2.908   6.222
  242SOL    HW1 1625   2.374   2.852   6.265
  242SOL    HW2 1626   2.301   2.998   6.265
  243SOL     OW 1627   5.443   0.344   6.660
  243SOL    HW1 1628   5.413   0.439   6.667
  243SOL    HW2 1629   5.448   0.317   6.564
  244SOL     OW 1630   4.800   3.033   4.138
  244SOL    HW1 1631   4.831   2.947   4.178
  244SOL    HW2 1632   4.810   3.106   4.206
  245SOL     OW 1633   0.124   2.522   5.069
  245SOL    HW1 1634   0.203   2.485   5.117
  245SOL    HW2 1635   0.041   2.502   5.121
  246SOL     OW 1636   5.324   3.295   3.488
  246SOL    HW1 1637   5.259   3.220   3.491
  246SOL    HW2 1638   5.276   3.383   3.491
  247SOL     OW 1639   2.425   1.324   1.978
  247SOL    HW1 1640   2.432   1.423   1.994
  247SOL    HW2 1641   2.515   1.289   1.952
  248SOL     OW 1642   4.114   1.755   4.357
  248SOL    HW1 1643   4.156   1.845   4.368
  248SOL    HW2 1644   4.024   1.756   4.401
  249SOL     OW 1645   4.693   6.879   5.804
  249SOL    HW1 1646   4.638   6.799   5.828
  249SOL    HW2 1647   4.683   6.899   5.707
  250SOL     OW 1648   4.911   1.895   6.233
  250SOL    HW1 1649   4.889   1.933   6.323
  250SOL    HW2 1650   4.980   1.953   6.188
  251SOL     OW 1651   4.423   4.916   6.686
  251SOL    HW1 1652   4.408   4.985   6.615
  251SOL    HW2 1653   4.520   4.912   6.709
  252SOL     OW 1654   0.050   0.714   6.902
  252SOL    HW1 1655   0.016   0.627   6.866
  252SOL    HW2 1656   0.019   0.725   6.996
  253SOL     OW 1657   2.055   4.195   0.100
  253SOL    HW1 1658   1.957   4.182   0.089
  253SOL    HW2 1659   2.082   4.284   0.063
  254SOL     OW 1660   6.400   2.767   3.734
  254SOL    HW1 1661   6.420   2.724   3.645
  254SOL    HW2 1662   6.387   2.866   3.720
  255SOL     OW 1663   1.852   3.237   4.010
  255SOL    HW1 1664   1.907   3.179   3.951
  255SOL    HW2 1665   1.774   3.272   3.960
  256SOL     OW 1666   6.255   4.452   0.199
  256SOL    HW1 1667   6.292   4.473   0.290
  256SOL    HW2 1668   6.166   4.496   0.189
  257SOL     OW 1669   3.806   5.576   4.692
  257SOL    HW1 1670   3.891   5.523   4.689
  257SOL    HW2 1671   3.827   5.670   4.721
  258SOL     OW 1672   5.349   5.001   4.645
  258SOL    HW1 1673   5.448   4.990   4.633
  258SOL    HW2 1674   5.306   4.911   4.652
  259SOL     OW 1675   2.119   3.020   2.248
  259SOL    HW1 1676   2.098   3.010   2.345
  259SOL    HW2 1677   2.185   2.950   2.221
  260SOL     OW 1678   4.627   1.190   1.540
  260SOL    HW1 1679   4.568   1.189   1.620
  260SOL    HW2 1680   4.605   1.269   1.483
  261SOL     OW 1681   6.518   4.018   1.046
  261SOL    HW1 1682   6.565   4.023   1.133
  261SOL    HW2 1683   6.433   4.070   1.051
  262SOL     OW 1684   0.697   3.730   1.226
  262SOL    HW1 1685   0.663   3.813   1.182
  262SOL    HW2 1686   0.620   3.676   1.260
  263SOL     OW 1687   0.449   1.385   3.711
  263SOL    HW1 1688   0.457   1.314   3.780
  263SOL    HW2 1689   0.367   1.440   3.730
  264SOL     OW 1690   5.434   4.193   5.176
  264SOL    HW1 1691   5.462   4.215   5.082
  264SOL    HW2 1692   5.341   4.155   5.174
  265SOL     OW 1693   4.476   4.435   2.922
  265SOL    HW1 1694   4.538   4.386   2.983
  265SOL    HW2 1695   4.511   4.429   2.828
  266SOL     OW 1696   3.208   3.200   5.720
  266SOL    HW1 1697   3.194   3.227   5.625
  266SOL    HW2 1698   3.123   3.214   5.771
  267SOL     OW 1699   6.845   2.749   6.307
  267SOL    HW1 1700   6.821   2.800   6.224
  267SOL    HW2 1701   6.856   2.813   6.383
  268SOL     OW 1702   4.532   6.572   5.229
  268SOL    HW1 1703   4.482   6.620   5.301
  268SOL    HW2 1704   4.525   6.473   5.243
  269SOL     OW 1705   1.839   2.109   0.392
  269SOL    HW1 1706   1.850   2.011   0.372
  269SOL    HW2 1707   1.764   2.122   0.456
  270SOL     OW 1708   0.294   0.202   1.980
  270SOL    HW1 1709   0.246   0.262   1.916
  270SOL    HW2 1710   0.243   0.116   1.989
  271SOL     OW 1711   2.456   2.524   0.384
  271SOL    HW1 1712   2.437   2.596   0.318
  271SOL    HW2 1713   2.373   2.504   0.437
  272SOL     OW 1714   3.117   5.729   4.348
  272SOL    HW1 1715   3.110   5.654   4.414
  272SOL    HW2 1716   3.031   5.780   4.345
  273SOL     OW 1717   1.688   5.191   5.250
  273SOL    HW1 1718   1.701   5.288   5.231
  273SOL    HW2 1719   1.776   5.144   5.245
  274SOL     OW 1720   5.355   2.117   4.020
  274SOL    HW1 1721   5.293   2.039   4.009
  274SOL    HW2 1722   5.372   2.132   4.118
  275SOL     OW 1723   0.009   5.730   6.417
  275SOL    HW1 1724   6.972   5.651   6.445
  275SOL    HW2 1725   6.985   5.814   6.453
  276SOL     OW 1726   6.837   5.117   3.441
  276SOL    HW1 1727   6.804   5.208   3.416
  276SOL    HW2 1728   6.929   5.105   3.405
  277SOL     OW 1729   2.675   1.562   0.330
  277SOL    HW1 1730   2.626   1.624   0.393
  277SOL    HW2 1731   2.773   1.574   0.341
  278SOL     OW 1732   6.599   3.815   1.684
  278SOL    HW1 1733   6.644   3.827   1.772
  278SOL    HW2 1734   6.515   3.869   1.681
  279SOL     OW 1735   6.109   2.873   4.768
  279SOL    HW1 1736   6.070   2.956   4.727
  279SOL    HW2 1737   6.209   2.878   4.764
  280SOL     OW 1738   4.089   6.789   2.583
  280SOL    HW1 1739   4.024   6.861   2.605
  280SOL    HW2 1740   4.055   6.736   2.505
  281SOL     OW 1741   2.537   4.548   2.429
  281SOL    HW1 1742   2.536   4.579   2.525
  281SOL    HW2 1743   2.580   4.618   2.372
  282SOL     OW 1744   3.995   2.274   5.317
  282SOL    HW1 1745   4.026   2.343   5.252
  282SOL    HW2 1746   3.916   2.226   5.281
  283SOL     OW 1747   6.482   1.085   5.882
  283SOL    HW1 1748   6.510   1.018   5.812
  283SOL    HW2 1749   6.421   1.041   5.947
  284SOL     OW 1750   0.220   4.640   4.792
  284SOL    HW1 1751   0.160   4.665   4.717
  284SOL    HW2 1752   0.205   4.544   4.816
  285SOL     OW 1753   5.185   5.691   6.875
  285SOL    HW1 1754   5.218   5.728   6.962
  285SOL    HW2 1755   5.122   5.615   6.893
  286SOL     OW 1756   4.112   4.816   5.075
  286SOL    HW1 1757   4.083   4.900   5.120
  286SOL    HW2 1758   4.160   4.758   5.140
  287SOL     OW 1759   0.122   5.065   6.571
  287SOL    HW1 1760   0.165   5.051   6.660
  287SOL    HW2 1761   0.124   4.980   6.519
  288SOL     OW 1762   3.843   1.626   0.551
  288SOL    HW1 1763   3.806   1.713   0.517
  288SOL    HW2 1764   3.855   1.632   0.650
  289SOL     OW 1765   0.374   5.002   4.713
  289SOL    HW1 1766   0.311   5.060   4.660
  289SOL    HW2 1767   0.357   5.015   4.811
  290SOL     OW 1768   4.929   1.986   3.276
  290SOL    HW1 1769   5.013   2.039   3.284
  290SOL    HW2 1770   4.861   2.040   3.227
  291SOL     OW 1771   3.839   1.240   4.250
  291SOL    HW1 1772   3.917   1.274   4.197
  291SOL    HW2 1773   3.755   1.249   4.196
  292SOL     OW 1774   4.396   1.844   3.671
  292SOL    HW1 1775   4.444   1.931   3.675
  292SOL    HW2 1776   4.299   1.858   3.693
  293SOL     OW 1777   3.908   6.072   1.456
  293SOL    HW1 1778   3.941   6.134   1.528
  293SOL    HW2 1779   3.841   6.009   1.496
  294SOL     OW 1780   6.385   5.573   6.952
  294SOL    HW1 1781   6.419   5.623   0.014
  294SOL    HW2 1782   6.329   5.496   6.982
  295SOL     OW 1783   3.148   1.698   5.351
  295SOL    HW1 1784   3.207   1.738   5.281
  295SOL    HW2 1785   3.058   1.680   5.311
  296SOL     OW 1786   6.215   2.610   1.666
  296SOL    HW1 1787   6.290   2.627   1.730
  296SOL    HW2 1788   6.135   2.578   1.717
  297SOL     OW 1789   2.944   4.792   2.676
  297SOL    HW1 1790   2.881   4.823   2.748
  297SOL    HW2 1791   3.038   4.801   2.709
  298SOL     OW 1792   4.159   0.034   7.003
  298SOL    HW1 1793   4.117   0.076   6.923
  298SOL    HW2 1794   4.250   7.018   6.979
  299SOL     OW 1795   4.556   2.311   6.366
  299SOL    HW1 1796   4.534   2.216   6.342
  299SOL    HW2 1797   4.504   2.373   6.307
  300SOL     OW 1798   4.779   1.104   2.261
  300SOL    HW1 1799   4.768   1.117   2.360
  300SOL    HW2 1800   4.715   1.035   2.228
  301SOL     OW 1801   4.923   1.568   0.596
  301SOL    HW1 1802   4.976   1.638   0.547
  301SOL    HW2 1803   4.826   1.578   0.573
  302SOL     OW 1804   6.906   0.295   2.642
  302SOL    HW1 1805   6.904   0.390   2.612
  302SOL    HW2 1806   6.909   0.292   2.742
  303SOL     OW 1807   6.520   6.268   2.048
  303SOL    HW1 1808   6.469   6.279   2.133
  303SOL    HW2 1809   6.617   6.287   2.064
  304SOL     OW 1810   2.131   6.186   5.840
  304SOL    HW1 1811   2.165   6.248   5.910
  304SOL    HW2 1812   2.200   6.177   5.767
  305SOL     OW 1813   1.255   3.076   0.489
  305SOL    HW1 1814   1.344   3.109   0.457
  305SOL    HW2 1815   1.182   3.119   0.435
  306SOL     OW 1816   0.825   0.926   2.847
  306SOL    HW1 1817   0.923   0.922   2.866
  306SOL    HW2 1818   0.781   0.841   2.875
  307SOL     OW 1819   4.611   4.413   0.796
  307SOL    HW1 1820   4.698   4.388   0.839
  307SOL    HW2 1821   4.556   4.467   0.859
  308SOL     OW 1822   5.877   3.709   4.577
  308SOL    HW1 1823   5.863   3.725   4.479
  308SOL    HW2 1824   5.887   3.797   4.624
  309SOL     OW 1825   1.249   6.028   0.387
  309SOL    HW1 1826   1.208   5.962   0.324
  309SOL    HW2 1827   1.285   6.106   0.335
  310SOL     OW 1828   5.299   5.656   4.467
  310SOL    HW1 1829   5.203   5.655   4.437
  310SOL    HW2 1830   5.307   5.715   4.548
  311SOL     OW 1831   3.189   4.911   2.873
  311SOL    HW1 1832   3.233   4.992   2.911
  311SOL    HW2 1833   3.130   4.869   2.941
  312SOL     OW 1834   3.889   1.677   4.054
  312SOL    HW1 1835   3.979   1.659   4.093
  312SOL    HW2 1836   3.886   1.646   3.959
  313SOL     OW 1837   3.318   3.755   2.347
  313SOL    HW1 1838   3.361   3.819   2.284
  313SOL    HW2 1839   3.227   3.789   2.372
  314SOL     OW 1840   2.673   4.500   6.203
  314SOL    HW1 1841   2.730   4.418   6.192
  314SOL    HW2 1842   2.597   4.480   6.264
  315SOL     OW 1843   0.978   3.037   4.410
  315SOL    HW1 1844   1.013   3.033   4.316
  315SOL    HW2 1845   1.049   3.071   4.471
  316SOL     OW 1846   3.373   0.522   4.572
  316SOL    HW1 1847   3.289   0.489   4.529
  316SOL    HW2 1848   3.380   0.621   4.559
  317SOL     OW 1849   6.832   1.698   1.110
  317SOL    HW1 1850   6.830   1.768   1.039
  317SOL    HW2 1851   6.859   1.610   1.070
  318SOL     OW 1852   0.094   6.252   6.859
  318SOL    HW1 1853   0.042   6.212   6.934
  318SOL    HW2 1854   0.159   6.184   6.823
  319SOL     OW 1855   6.361   1.265   3.823
  319SOL    HW1 1856   6.326   1.172   3.837
  319SOL    HW2 1857   6.300   1.331   3.864
  320SOL     OW 1858   5.595   2.559   0.105
  320SOL    HW1 1859   5.541   2.491   0.055
  320SOL    HW2 1860   5.553   2.576   0.195
  321SOL     OW 1861   3.665   1.903   6.944
  321SOL    HW1 1862   3.719   1.820   6.936
  321SOL    HW2 1863   3.711   1.978   6.897
  322SOL     OW 1864   3.049   3.293   4.014
  322SOL    HW1 1865   3.057   3.316   4.111
  322SOL    HW2 1866   2.974   3.345   3.973
  323SOL     OW 1867   1.005   2.646   6.299
  323SOL    HW1 1868   0.982   2.712   6.227
  323SOL    HW2 1869   1.055   2.569   6.258
  324SOL     OW 1870   2.873   0.413   3.111
  324SOL    HW1 1871   2.853   0.315   3.104
  324SOL    HW2 1872   2.843   0.447   3.201
  325SOL     OW 1873   0.607   2.977   2.248
  325SOL    HW1 1874   0.688   3.002   2.301
  325SOL    HW2 1875   0.622   2.887   2.206
  326SOL     OW 1876   1.348   4.234   5.962
  326SOL    HW1 1877   1.364   4.239   6.060
  326SOL    HW2 1878   1.435   4.231   5.913
  327SOL     OW 1879   1.686   4.507   2.172
  327SOL    HW1 1880   1.766   4.512   2.232
  327SOL    HW2 1881   1.675   4.594   2.125
  328SOL     OW 1882   1.677   5.650   1.697
  328SOL    HW1 1883   1.646   5.661   1.792
  328SOL    HW2 1884   1.611   5.692   1.635
  329SOL     OW 1885   2.956   3.516   5.220
  329SOL    HW1 1886   2.938   3.612   5.198
  329SOL    HW2 1887   3.037   3.485   5.171
  330SOL     OW 1888   3.389   6.400   1.407
  330SOL    HW1 1889   3.455   6.325   1.410
  330SOL    HW2 1890   3.368   6.430   1.500
  331SOL     OW 1891   4.356   5.644   0.648
  331SOL    HW1 1892   4.449   5.675   0.669
  331SOL    HW2 1893   4.311   5.711   0.589
  332SOL     OW 1894   5.351   2.458   5.598
  332SOL    HW1 1895   5.325   2.537   5.654
  332SOL    HW2 1896   5.446   2.433   5.620
  333SOL     OW 1897   4.422   1.014   5.514
  333SOL    HW1 1898   4.517   1.028   5.540
  333SOL    HW2 1899   4.374   1.101   5.513
  334SOL     OW 1900   3.478   1.703   0.443
  334SOL    HW1 1901   3.474   1.654   0.356
  334SOL    HW2 1902   3.478   1.637   0.518
  335SOL     OW 1903   4.671   6.627   6.192
  335SOL    HW1 1904   4.694   6.573   6.273
  335SOL    HW2 1905   4.632   6.714   6.221
  336SOL     OW 1906   2.737   1.228   3.414
  336SOL    HW1 1907   2.641   1.221   3.386
  336SOL    HW2 1908   2.773   1.138   3.436
  337SOL     OW 1909   0.429   3.110   6.103
  337SOL    HW1 1910   0.444   3.209   6.094
  337SOL    HW2 1911   0.503   3.061   6.058
  338SOL     OW 1912   2.961   2.200   1.464
  338SOL    HW1 1913   2.975   2.198   1.563
  338SOL    HW2 1914   2.939   2.293   1.435
  339SOL     OW 1915   4.613   5.772   4.896
  339SOL    HW1 1916   4.566   5.717   4.827
  339SOL    HW2 1917   4.595   5.735   4.987
  340SOL     OW 1918   5.334   3.731   5.362
  340SOL    HW1 1919   5.260   3.707   5.299
  340SOL    HW2 1920   5.348   3.657   5.428
  341SOL     OW 1921   6.187   6.766   4.185
  341SOL    HW1 1922   6.089   6.771   4.201
  341SOL    HW2 1923   6.226   6.688   4.234
  342SOL     OW 1924   5.526   3.783   0.356
  342SOL    HW1 1925   5.489   3.832   0.277
  342SOL    HW2 1926   5.581   3.846   0.411
  343SOL     OW 1927   0.946   6.288   1.312
  343SOL    HW1 1928   0.987   6.329   1.230
  343SOL    HW2 1929   0.977   6.336   1.393
  344SOL     OW 1930   1.040   3.234   1.550
  344SOL    HW1 1931   1.021   3.293   1.472
  344SOL    HW2 1932   1.005   3.276   1.633
  345SOL     OW 1933   5.477   2.330   3.578
  345SOL    HW1 1934   5.462   2.250   3.636
  345SOL    HW2 1935   5.491   2.411   3.635
  346SOL     OW 1936   1.718   1.051   2.680
  346SOL    HW1 1937   1.801   1.085   2.726
  346SOL    HW2 1938   1.643   1.049   2.746
  347SOL     OW 1939   2.713   5.461   6.979
  347SOL    HW1 1940   2.762   5.379   6.947
  347SOL    HW2 1941   2.698   5.454   0.060
  348SOL     OW 1942   4.989   4.087   2.256
  348SOL    HW1 1943   4.945   4.167   2.216
  348SOL    HW2 1944   4.935   4.055   2.334
  349SOL     OW 1945   0.102   4.857   0.745
  349SOL    HW1 1946   0.195   4.823   0.729
  349SOL    HW2 1947   0.107   4.944   0.795
  350SOL     OW 1948   2.891   2.014   0.975
  350SOL    HW1 1949   2.951   2.092   0.959
  350SOL    HW2 1950   2.841   1.992   0.891
  351SOL     OW 1951   2.796   3.689   0.838
  351SOL    HW1 1952   2.875   3.630   0.825
  351SOL    HW2 1953   2.714   3.634   0.851
  352SOL     OW 1954   3.120   6.865   3.888
  352SOL    HW1 1955   3.199   6.880   3.947
  352SOL    HW2 1956   3.150   6.844   3.795
  353SOL     OW 1957   3.034   0.074   0.195
  353SOL    HW1 1958   2.994   0.020   0.269
  353SOL    HW2 1959   2.963   0.098   0.129
  354SOL     OW 1960   4.239   3.007   1.063
  354SOL    HW1 1961   4.326   2.964   1.085
  354SOL    HW2 1962   4.183   3.014   1.145
  355SOL     OW 1963   1.821   3.906   2.935
  355SOL    HW1 1964   1.723   3.912   2.956
  355SOL    HW2 1965   1.833   3.870   2.843
  356SOL     OW 1966   2.028   6.965   5.879
  356SOL    HW1 1967   1.974   6.949   5.797
  356SOL    HW2 1968   2.112   6.910   5.875
  357SOL     OW 1969   6.969   6.242   5.579
  357SOL    HW1 1970   0.024   6.310   5.587
  357SOL    HW2 1971   6.995   6.160   5.630
  358SOL     OW 1972   4.826   6.617   0.504
  358SOL    HW1 1973   4.811   6.520   0.486
  358SOL    HW2 1974   4.738   6.663   0.514
  359SOL     OW 1975   2.865   2.204   1.733
  359SOL    HW1 1976   2.847   2.111   1.765
  359SOL    HW2 1977   2.852   2.268   1.809
  360SOL     OW 1978   1.461   4.000   5.751
  360SOL    HW1 1979   1.398   3.941   5.801
  360SOL    HW2 1980   1.530   3.944   5.704
  361SOL     OW 1981   6.465   6.130   2.533
  361SOL    HW1 1982   6.545   6.168   2.486
  361SOL    HW2 1983   6.493   6.049   2.586
  362SOL     OW 1984   3.603   3.023   1.567
  362SOL    HW1 1985   3.577   2.928   1.585
  362SOL    HW2 1986   3.621   3.070   1.653
  363SOL     OW 1987   5.691   4.066   2.978
  363SOL    HW1 1988   5.611   4.009   2.956
  363SOL    HW2 1989   5.734   4.097   2.893
  364SOL     OW 1990   6.292   4.840   6.436
  364SOL    HW1 1991   6.229   4.868   6.508
  364SOL    HW2 1992   6.347   4.763   6.468
  365SOL     OW 1993   5.331   6.954   2.068
  365SOL    HW1 1994   5.390   0.011   2.097
  365SOL    HW2 1995   5.379   6.898   2.000
  366SOL     OW 1996   5.342   0.542   6.956
  366SOL    HW1 1997   5.399   0.493   0.005
  366SOL    HW2 1998   5.388   0.543   6.867
  367SOL     OW 1999   5.974   2.777   1.677
  367SOL    HW1 2000   5.941   2.861   1.720
  367SOL    HW2 2001   5.938   2.698   1.725
  368SOL     OW 2002   0.674   2.555   5.555
  368SOL    HW1 2003   0.719   2.500   5.625
  368SOL    HW2 2004   0.738   2.624   5.521
  369SOL     OW 2005   6.258   5.123   2.632
  369SOL    HW1 2006   6.165   5.136   2.599
  369SOL    HW2 2007   6.258   5.064   2.712
  370SOL     OW 2008   1.768   1.814   4.926
  370SOL    HW1 2009   1.675   1.835   4.896
  370SOL    HW2 2010   1.827   1.799   4.847
  371SOL     OW 2011   1.731   4.742   5.510
  371SOL    HW1 2012   1.829   4.722   5.516
  371SOL    HW2 2013   1.699   4.729   5.416
  372SOL     OW 2014   1.307   6.344   6.537
  372SOL    HW1 2015   1.341   6.316   6.448
  372SOL    HW2 2016   1.262   6.267   6.582
  373SOL     OW 2017   5.963   6.878   4.617
  373SOL    HW1 2018   6.022   6.815   4.566
  373SOL    HW2 2019   5.872   6.878   4.577
  374SOL     OW 2020   2.659   1.594   4.096
  374SOL    HW1 2021   2.658   1.691   4.070
  374SOL    HW2 2022   2.714   1.542   4.031
  375SOL     OW 2023   1.025   4.851   4.481
  375SOL    HW1 2024   0.947   4.869   4.421
  375SOL    HW2 2025   0.999   4.784   4.550
  376SOL     OW 2026   2.656   0.909   5.379
  376SOL    HW1 2027   2.563   0.896   5.344
  376SOL    HW2 2028   2.699   0.987   5.333
  377SOL     OW 2029   1.153   1.841   1.271
  377SOL    HW1 2030   1.191   1.776   1.205
  377SOL    HW2 2031   1.215   1.918   1.282
  378SOL     OW 2032   4.807   2.445   6.437
  378SOL    HW1 2033   4.901   2.410   6.443
  378SOL    HW2 2034   4.746   2.371   6.407
  379SOL     OW 2035   5.922   2.551   1.455
  379SOL    HW1 2036   5.892   2.477   1.516
  379SOL    HW2 2037   5.951   2.629   1.510
  380SOL     OW 2038   3.219   1.253   0.730
  380SOL    HW1 2039   3.191   1.184   0.797
  380SOL    HW2 2040   3.215   1.214   0.638
  381SOL     OW 2041   1.262   3.958   2.819
  381SOL    HW1 2042   1.230   3.863   2.827
  381SOL    HW2 2043   1.230   4.011   2.897
  382SOL     OW 2044   5.849   0.363   6.956
  382SOL    HW1 2045   5.887   0.306   0.011
  382SOL    HW2 2046   5.795   0.306   6.894
  383SOL     OW 2047   4.044   3.896   6.664
  383SOL    HW1 2048   4.120   3.951   6.700
  383SOL    HW2 2049   3.959   3.924   6.709
  384SOL     OW 2050   6.889   5.232   3.718
  384SOL    HW1 2051   6.892   5.168   3.641
  384SOL    HW2 2052   6.941   5.315   3.695
  385SOL     OW 2053   3.143   4.659   5.281
  385SOL    HW1 2054   3.059   4.610   5.257
  385SOL    HW2 2055   3.197   4.603   5.344
  386SOL     OW 2056   2.718   0.011   4.960
  386SOL    HW1 2057   2.808   0.055   4.949
  386SOL    HW2 2058   2.708   6.955   4.894
  387SOL     OW 2059   1.555   6.570   2.118
  387SOL    HW1 2060   1.632   6.539   2.062
  387SOL    HW2 2061   1.484   6.500   2.119
  388SOL     OW 2062   1.211   1.798   5.210
  388SOL    HW1 2063   1.296   1.838   5.244
  388SOL    HW2 2064   1.160   1.865   5.156
  389SOL     OW 2065   3.659   3.460   1.692
  389SOL    HW1 2066   3.626   3.479   1.599
  389SOL    HW2 2067   3.683   3.546   1.737
  390SOL     OW 2068   2.984   1.741   1.712
  390SOL    HW1 2069   3.074   1.698   1.700
  390SOL    HW2 2070   2.957   1.785   1.627
  391SOL     OW 2071   1.751   2.806   6.958
  391SOL    HW1 2072   1.782   2.879   6.898
  391SOL    HW2 2073   1.693   2.743   6.907
  392SOL     OW 2074   1.799   4.164   0.913
  392SOL    HW1 2075   1.742   4.085   0.932
  392SOL    HW2 2076   1.894   4.133   0.899
  393SOL     OW 2077   1.716   4.745   6.595
  393SOL    HW1 2078   1.677   4.724   6.684
  393SOL    HW2 2079   1.800   4.693   6.581
  394SOL     OW 2080   6.738   1.910   0.112
  394SOL    HW1 2081   6.673   1.835   0.128
  394SOL    HW2 2082   6.735   1.974   0.189
  395SOL     OW 2083   4.835   3.840   3.000
  395SOL    HW1 2084   4.904   3.870   2.935
  395SOL    HW2 2085   4.860   3.749   3.035
  396SOL     OW 2086   3.259   4.033   1.627
  396SOL    HW1 2087   3.291   4.096   1.556
  396SOL    HW2 2088   3.174   4.068   1.667
  397SOL     OW 2089   5.910   1.688   5.284
  397SOL    HW1 2090   5.923   1.652   5.376
  397SOL    HW2 2091   5.934   1.618   5.217
  398SOL     OW 2092   1.262   6.996   2.016
  398SOL    HW1 2093   1.338   0.040   1.993
  398SOL    HW2 2094   1.220   0.007   2.102
  399SOL     OW 2095   6.212   5.888   2.172
  399SOL    HW1 2096   6.253   5.964   2.221
  399SOL    HW2 2097   6.116   5.909   2.152
  400SOL     OW 2098   6.173   6.167   5.583
  400SOL    HW1 2099   6.135   6.257   5.558
  400SOL    HW2 2100   6.109   6.095   5.554
  401SOL     OW 2101   5.838   0.539   6.147
  401SOL    HW1 2102   5.830   0.455   6.201
  401SOL    HW2 2103   5.755   0.594   6.158
  402SOL     OW 2104   6.005   0.017   3.587
  402SOL    HW1 2105   6.060   6.953   3.603
  402SOL    HW2 2106   6.032   0.059   3.501
  403SOL     OW 2107   3.429   2.088   4.154
  403SOL    HW1 2108   3.497   2.092   4.228
  403SOL    HW2 2109   3.343   2.052   4.190
  404SOL     OW 2110   1.432   5.080   3.822
  404SOL    HW1 2111   1.437   5.171   3.782
  404SOL    HW2 2112   1.369   5.023   3.770
  405SOL     OW 2113   1.473   3.381   2.200
  405SOL    HW1 2114   1.407   3.389   2.274
  405SOL    HW2 2115   1.484   3.470   2.155
  406SOL     OW 2116   1.028   3.974   4.794
  406SOL    HW1 2117   1.027   3.942   4.699
  406SOL    HW2 2118   1.073   3.906   4.852
  407SOL     OW 2119   1.421   1.073   4.611
  407SOL    HW1 2120   1.415   0.977   4.638
  407SOL    HW2 2121   1.451   1.127   4.689
  408SOL     OW 2122   1.330   2.779   3.150
  408SOL    HW1 2123   1.352   2.721   3.229
  408SOL    HW2 2124   1.299   2.868   3.182
  409SOL     OW 2125   0.062   3.004   2.096
  409SOL    HW1 2126   0.059   3.103   2.107
  409SOL    HW2 2127   0.013   2.960   2.171
  410SOL     OW 2128   1.785   1.416   1.028
  410SOL    HW1 2129   1.876   1.449   1.051
  410SOL    HW2 2130   1.752   1.463   0.946
  411SOL     OW 2131   5.841   6.894   1.727
  411SOL    HW1 2132   5.828   6.986   1.690
  411SOL    HW2 2133   5.843   6.828   1.652
  412SOL     OW 2134   3.746   5.581   3.781
  412SOL    HW1 2135   3.700   5.600   3.694
  412SOL    HW2 2136   3.807   5.503   3.769
  413SOL     OW 2137   5.274   3.515   1.479
  413SOL    HW1 2138   5.350   3.558   1.527
  413SOL    HW2 2139   5.280   3.534   1.382
  414SOL     OW 2140   3.516   5.419   3.883
  414SOL    HW1 2141   3.529   5.339   3.824
  414SOL    HW2 2142   3.540   5.502   3.832
  415SOL     OW 2143   1.048   5.905   6.828
  415SOL    HW1 2144   0.994   5.974   6.781
  415SOL    HW2 2145   0.988   5.843   6.877
  416SOL     OW 2146   4.767   6.591   4.443
  416SOL    HW1 2147   4.866   6.598   4.433
  416SOL    HW2 2148   4.738   6.640   4.525
  417SOL     OW 2149   2.187   5.867   6.503
  417SOL    HW1 2150   2.095   5.829   6.497
  417SOL    HW2 2151   2.253   5.792   6.510
  418SOL     OW 2152   4.071   6.667   6.936
  418SOL    HW1 2153   4.013   6.619   7.003
  418SOL    HW2 2154   4.016   6.734   6.887
  419SOL     OW 2155   2.300   6.846   1.363
  419SOL    HW1 2156   2.296   6.770   1.427
  419SOL    HW2 2157   2.301   6.932   1.414
  420SOL     OW 2158   5.981   1.022   0.073
  420SOL    HW1 2159   5.919   0.958   0.028
  420SOL    HW2 2160   5.989   1.105   0.017
  421SOL     OW 2161   0.065   4.035   5.522
  421SOL    HW1 2162   6.986   4.027   5.500
  421SOL    HW2 2163   0.117   4.057   5.440
  422SOL     OW 2164   5.698   3.576   1.243
  422SOL    HW1 2165   5.616   3.544   1.197
  422SOL    HW2 2166   5.718   3.670   1.215
  423SOL     OW 2167   0.825   1.730   6.135
  423SOL    HW1 2168   0.748   1.703   6.077
  423SOL    HW2 2169   0.910   1.691   6.099
  424SOL     OW 2170   1.676   5.524   1.019
  424SOL    HW1 2171   1.704   5.553   0.928
  424SOL    HW2 2172   1.750   5.539   1.084
  425SOL     OW 2173   4.857   1.705   3.305
  425SOL    HW1 2174   4.880   1.802   3.306
  425SOL    HW2 2175   4.781   1.690   3.242
  426SOL     OW 2176   3.276   2.127   4.546
  426SOL    HW1 2177   3.262   2.132   4.645
  426SOL    HW2 2178   3.203   2.177   4.500
  427SOL     OW 2179   5.710   6.538   3.645
  427SOL    HW1 2180   5.683   6.632   3.665
  427SOL    HW2 2181   5.633   6.477   3.663
  428SOL     OW 2182   4.188   0.602   3.807
  428SOL    HW1 2183   4.223   0.660   3.881
  428SOL    HW2 2184   4.227   0.511   3.815
  429SOL     OW 2185   1.061   4.687   1.656
  429SOL    HW1 2186   0.976   4.646   1.623
  429SOL    HW2 2187   1.134   4.671   1.590
  430SOL     OW 2188   0.863   0.180   4.394
  430SOL    HW1 2189   0.839   0.182   4.297
  430SOL    HW2 2190   0.780   0.191   4.449
  431SOL     OW 2191   2.608   0.381   0.837
  431SOL    HW1 2192   2.533   0.354   0.776
  431SOL    HW2 2193   2.684   0.317   0.826
  432SOL     OW 2194   6.222   1.598   0.938
  432SOL    HW1 2195   6.294   1.637   0.880
  432SOL    HW2 2196   6.147   1.565   0.881
  433SOL     OW 2197   1.749   6.744   4.748
  433SOL    HW1 2198   1.779   6.723   4.841
  433SOL    HW2 2199   1.758   6.842   4.732
  434SOL     OW 2200   3.650   5.246   3.173
  434SOL    HW1 2201   3.586   5.226   3.099
  434SOL    HW2 2202   3.719   5.311   3.140
  435SOL     OW 2203   4.671   2.873   6.463
  435SOL    HW1 2204   4.709   2.863   6.371
  435SOL    HW2 2205   4.663   2.783   6.506
  436SOL     OW 2206   3.391   5.793   2.154
  436SOL    HW1 2207   3.400   5.804   2.055
  436SOL    HW2 2208   3.318   5.852   2.188
  437SOL     OW 2209   0.637   1.471   0.041
  437SOL    HW1 2210   0.666   1.378   0.061
  437SOL    HW2 2211   0.573   1.470   6.982
  438SOL     OW 2212   2.262   4.033   3.346
  438SOL    HW1 2213   2.201   4.099   3.390
  438SOL    HW2 2214   2.287   4.066   3.255
  439SOL     OW 2215   6.024   5.166   2.524
  439SOL    HW1 2216   6.000   5.262   2.512
  439SOL    HW2 2217   5.947   5.116   2.564
  440SOL     OW 2218   2.550   1.555   4.778
  440SOL    HW1 2219   2.533   1.654   4.784
  440SOL    HW2 2220   2.640   1.539   4.737
  441SOL     OW 2221   0.519   2.974   4.190
  441SOL    HW1 2222   0.431   3.023   4.182
  441SOL    HW2 2223   0.520   2.898   4.125
  442SOL     OW 2224   4.430   5.500   5.309
  442SOL    HW1 2225   4.395   5.584   5.351
  442SOL    HW2 2226   4.433   5.512   5.210
  443SOL     OW 2227   6.097   4.552   3.509
  443SOL    HW1 2228   6.055   4.511   3.589
  443SOL    HW2 2229   6.132   4.480   3.449
  444SOL     OW 2230   4.931   0.725   6.828
  444SOL    HW1 2231   5.008   0.712   6.890
  444SOL    HW2 2232   4.889   0.814   6.845
  445SOL     OW 2233   0.591   5.804   2.763
  445SOL    HW1 2234   0.599   5.814   2.664
  445SOL    HW2 2235   0.494   5.803   2.788
  446SOL     OW 2236   3.196   4.855   3.577
  446SOL    HW1 2237   3.290   4.881   3.600
  446SOL    HW2 2238   3.139   4.859   3.659
  447SOL     OW 2239   0.450   2.825   6.553
  447SOL    HW1 2240   0.399   2.887   6.493
  447SOL    HW2 2241   0.548   2.847   6.548
  448SOL     OW 2242   1.718   0.652   3.623
  448SOL    HW1 2243   1.624   0.618   3.624
  448SOL    HW2 2244   1.722   0.738   3.673
  449SOL     OW 2245   2.810   1.143   3.748
  449SOL    HW1 2246   2.829   1.235   3.713
  449SOL    HW2 2247   2.812   1.077   3.672
  450SOL     OW 2248   1.699   4.788   2.907
  450SOL    HW1 2249   1.692   4.689   2.919
  450SOL    HW2 2250   1.620   4.821   2.855
  451SOL     OW 2251   1.087   2.432   4.051
  451SOL    HW1 2252   1.022   2.462   3.981
  451SOL    HW2 2253   1.090   2.500   4.124
  452SOL     OW 2254   5.504   6.495   0.208
  452SOL    HW1 2255   5.517   6.526   0.114
  452SOL    HW2 2256   5.508   6.395   0.212
  453SOL     OW 2257   4.395   0.450   6.386
  453SOL    HW1 2258   4.297   0.434   6.400
  453SOL    HW2 2259   4.416   0.442   6.289
  454SOL     OW 2260   6.888   4.357   5.833
  454SOL    HW1 2261   6.831   4.333   5.755
  454SOL    HW2 2262   6.985   4.355   5.806
  455SOL     OW 2263   5.640   2.390   4.432
  455SOL    HW1 2264   5.610   2.478   4.395
  455SOL    HW2 2265   5.720   2.358   4.382
  456SOL     OW 2266   0.042   6.833   3.670
  456SOL    HW1 2267   0.081   6.750   3.711
  456SOL    HW2 2268   0.116   6.886   3.627
  457SOL     OW 2269   1.789   2.498   4.225
  457SOL    HW1 2270   1.750   2.412   4.192
  457SOL    HW2 2271   1.737   2.575   4.187
  458SOL     OW 2272   4.081   5.869   2.883
  458SOL    HW1 2273   4.064   5.961   2.917
  458SOL    HW2 2274   4.143   5.873   2.805
  459SOL     OW 2275   1.583   6.985   5.722
  459SOL    HW1 2276   1.594   6.928   5.804
  459SOL    HW2 2277   1.671   0.008   5.698
  460SOL     OW 2278   2.841   6.841   4.775
  460SOL    HW1 2279   2.898   6.845   4.692
  460SOL    HW2 2280   2.878   6.771   4.837
  461SOL     OW 2281   6.849   5.861   5.415
  461SOL    HW1 2282   6.949   5.863   5.410
  461SOL    HW2 2283   6.820   5.855   5.511
  462SOL     OW 2284   3.939   3.518   0.210
  462SOL    HW1 2285   3.937   3.436   0.153
  462SOL    HW2 2286   4.014   3.511   0.276
  463SOL     OW 2287   5.458   6.028   3.637
  463SOL    HW1 2288   5.549   6.002   3.605
  463SOL    HW2 2289   5.398   5.948   3.635
  464SOL     OW 2290   3.045   1.117   5.412
  464SOL    HW1 2291   3.120   1.070   5.458
  464SOL    HW2 2292   2.992   1.169   5.479
  465SOL     OW 2293   0.668   2.667   0.470
  465SOL    HW1 2294   0.600   2.729   0.509
  465SOL    HW2 2295   0.709   2.709   0.389
  466SOL     OW 2296   1.824   6.378   3.728
  466SOL    HW1 2297   1.737   6.350   3.768
  466SOL    HW2 2298   1.893   6.387   3.800
  467SOL     OW 2299   1.882   1.284   0.773
  467SOL    HW1 2300   1.901   1.343   0.695
  467SOL    HW2 2301   1.965   1.271   0.827
  468SOL     OW 2302   4.133   6.305   5.572
  468SOL    HW1 2303   4.164   6.289   5.666
  468SOL    HW2 2304   4.038   6.338   5.574
  469SOL     OW 2305   3.019   3.624   6.636
  469SOL    HW1 2306   3.000   3.567   6.556
  469SOL    HW2 2307   2.933   3.651   6.679
  470SOL     OW 2308   4.731   6.664   1.414
  470SOL    HW1 2309   4.748   6.571   1.446
  470SOL    HW2 2310   4.816   6.706   1.384
  471SOL     OW 2311   2.519   2.567   3.871
  471SOL    HW1 2312   2.582   2.508   3.819
  471SOL    HW2 2313   2.518   2.538   3.967
  472SOL     OW 2314   4.101   3.804   6.389
  472SOL    HW1 2315   4.066   3.796   6.483
  472SOL    HW2 2316   4.150   3.890   6.379
  473SOL     OW 2317   1.259   2.200   2.530
  473SOL    HW1 2318   1.311   2.179   2.447
  473SOL    HW2 2319   1.167   2.161   2.522
  474SOL     OW 2320   5.450   5.632   4.959
  474SOL    HW1 2321   5.506   5.701   4.913
  474SOL    HW2 2322   5.386   5.591   4.894
  475SOL     OW 2323   6.038   1.871   6.521
  475SOL    HW1 2324   5.952   1.868   6.471
  475SOL    HW2 2325   6.074   1.778   6.529
  476SOL     OW 2326   0.442   3.513   2.794
  476SOL    HW1 2327   0.462   3.447   2.721
  476SOL    HW2 2328   0.432   3.464   2.881
  477SOL     OW 2329   2.766   6.433   3.306
  477SOL    HW1 2330   2.817   6.455   3.389
  477SOL    HW2 2331   2.744   6.335   3.306
  478SOL     OW 2332   3.671   6.447   2.754
  478SOL    HW1 2333   3.699   6.397   2.672
  478SOL    HW2 2334   3.740   6.516   2.776
  479SOL     OW 2335   3.941   2.429   6.028
  479SOL    HW1 2336   3.898   2.394   6.111
  479SOL    HW2 2337   3.993   2.512   6.049
  480SOL     OW 2338   2.593   0.827   0.401
  480SOL    HW1 2339   2.520   0.887   0.370
  480SOL    HW2 2340   2.627   0.774   0.324
  481SOL     OW 2341   2.229   6.549   1.586
  481SOL    HW1 2342   2.302   6.504   1.637
  481SOL    HW2 2343   2.205   6.494   1.506
  482SOL     OW 2344   4.163   4.652   2.215
  482SOL    HW1 2345   4.082   4.594   2.217
  482SOL    HW2 2346   4.198   4.657   2.122
  483SOL     OW 2347   6.805   2.535   3.101
  483SOL    HW1 2348   6.786   2.442   3.069
  483SOL    HW2 2349   6.878   2.574   3.045
  484SOL     OW 2350   1.890   3.138   5.241
  484SOL    HW1 2351   1.875   3.237   5.235
  484SOL    HW2 2352   1.803   3.091   5.228
  485SOL     OW 2353   3.956   4.786   2.607
  485SOL    HW1 2354   3.877   4.739   2.645
  485SOL    HW2 2355   3.939   4.807   2.510
  486SOL     OW 2356   6.266   0.781   0.327
  486SOL    HW1 2357   6.248   0.724   0.246
  486SOL    HW2 2358   6.363   0.773   0.351
  487SOL     OW 2359   1.097   0.810   3.109
  487SOL    HW1 2360   1.076   0.713   3.121
  487SOL    HW2 2361   1.131   0.825   3.016
  488SOL     OW 2362   1.138   1.160   2.041
  488SOL    HW1 2363   1.134   1.070   2.084
  488SOL    HW2 2364   1.118   1.151   1.943
  489SOL     OW 2365   4.525   5.749   5.442
  489SOL    HW1 2366   4.572   5.668   5.476
  489SOL    HW2 2367   4.476   5.793   5.517
  490SOL     OW 2368   0.720   6.216   2.867
  490SOL    HW1 2369   0.809   6.242   2.904
  490SOL    HW2 2370   0.657   6.294   2.874
  491SOL     OW 2371   1.352   3.807   1.881
  491SOL    HW1 2372   1.312   3.739   1.820
  491SOL    HW2 2373   1.451   3.812   1.865
  492SOL     OW 2374   1.401   0.648   5.500
  492SOL    HW1 2375   1.457   0.725   5.468
  492SOL    HW2 2376   1.416   0.569   5.441
  493SOL     OW 2377   4.101   6.634   5.736
  493SOL    HW1 2378   4.157   6.557   5.766
  493SOL    HW2 2379   4.106   6.707   5.804
  494SOL     OW 2380   0.887   6.560   6.973
  494SOL    HW1 2381   0.931   6.616   0.025
  494SOL    HW2 2382   0.901   6.601   6.883
  495SOL     OW 2383   4.254   5.659   3.674
  495SOL    HW1 2384   4.178   5.622   3.620
  495SOL    HW2 2385   4.337   5.659   3.618
  496SOL     OW 2386   5.196   3.065   2.085
  496SOL    HW1 2387   5.184   3.057   2.184
  496SOL    HW2 2388   5.255   3.143   2.064
  497SOL     OW 2389   3.000   2.020   4.746
  497SOL    HW1 2390   2.965   1.982   4.661
  497SOL    HW2 2391   2.963   1.968   4.823
  498SOL     OW 2392   0.581   4.486   1.680
  498SOL    HW1 2393   0.606   4.480   1.777
  498SOL    HW2 2394   0.535   4.573   1.663
  499SOL     OW 2395   1.358   5.415   4.157
  499SOL    HW1 2396   1.456   5.402   4.141
  499SOL    HW2 2397   1.342   5.503   4.201
  500SOL     OW 2398   0.113   1.707   5.836
  500SOL    HW1 2399   0.090   1.733   5.930
  500SOL    HW2 2400   0.043   1.644   5.802
  501SOL     OW 2401   3.475   0.389   0.904
  501SOL    HW1 2402   3.430   0.388   0.815
  501SOL    HW2 2403   3.509   0.297   0.925
  502SOL     OW 2404   1.142   3.505   6.136
  502SOL    HW1 2405   1.101   3.426   6.181
  502SOL    HW2 2406   1.090   3.587   6.160
  503SOL     OW 2407   6.926   4.868   6.632
  503SOL    HW1 2408   6.909   4.961   6.665
  503SOL    HW2 2409   6.971   4.873   6.543
  504SOL     OW 2410   0.865   4.949   2.262
  504SOL    HW1 2411   0.933   4.904   2.321
  504SOL    HW2 2412   0.833   4.884   2.193
  505SOL     OW 2413   2.767   5.877   4.680
  505SOL    HW1 2414   2.801   5.892   4.587
  505SOL    HW2 2415   2.713   5.956   4.709
  506SOL     OW 2416   3.228   4.979   3.890
  506SOL    HW1 2417   3.138   4.942   3.866
  506SOL    HW2 2418   3.223   5.079   3.891
  507SOL     OW 2419   3.113   0.324   3.449
  507SOL    HW1 2420   3.195   0.289   3.403
  507SOL    HW2 2421   3.037   0.261   3.436
  508SOL     OW 2422   0.194   3.632   2.813
  508SOL    HW1 2423   0.288   3.596   2.818
  508SOL    HW2 2424   0.136   3.566   2.765
  509SOL     OW 2425   2.887   1.071   1.361
  509SOL    HW1 2426   2.799   1.038   1.394
  509SOL    HW2 2427   2.937   1.113   1.436
  510SOL     OW 2428   6.045   4.403   6.819
  510SOL    HW1 2429   6.026   4.368   6.911
  510SOL    HW2 2430   5.964   4.392   6.762
  511SOL     OW 2431   0.701   2.147   6.135
  511SOL    HW1 2432   0.769   2.184   6.071
  511SOL    HW2 2433   0.685   2.214   6.208
  512SOL     OW 2434   0.113   2.430   6.741
  512SOL    HW1 2435   0.067   2.492   6.677
  512SOL    HW2 2436   0.104   2.336   6.708
  513SOL     OW 2437   6.179   6.437   3.121
  513SOL    HW1 2438   6.163   6.477   3.211
  513SOL    HW2 2439   6.092   6.402   3.084
  514SOL     OW 2440   6.394   0.988   4.664
  514SOL    HW1 2441   6.384   0.958   4.759
  514SOL    HW2 2442   6.304   0.989   4.620
  515SOL     OW 2443   1.364   6.456   1.222
  515SOL    HW1 2444   1.431   6.528   1.240
  515SOL    HW2 2445   1.274   6.497   1.210
  516SOL     OW 2446   2.738   4.711   2.271
  516SOL    HW1 2447   2.748   4.652   2.191
  516SOL    HW2 2448   2.824   4.715   2.322
  517SOL     OW 2449   4.256   5.272   1.780
  517SOL    HW1 2450   4.200   5.206   1.731
  517SOL    HW2 2451   4.280   5.348   1.720
  518SOL     OW 2452   2.305   1.727   3.808
  518SOL    HW1 2453   2.356   1.813   3.802
  518SOL    HW2 2454   2.232   1.727   3.741
  519SOL     OW 2455   0.724   6.356   4.152
  519SOL    HW1 2456   0.665   6.298   4.208
  519SOL    HW2 2457   0.819   6.344   4.181
  520SOL     OW 2458   5.864   3.856   6.787
  520SOL    HW1 2459   5.962   3.871   6.771
  520SOL    HW2 2460   5.819   3.836   6.700
  521SOL     OW 2461   6.091   6.132   4.900
  521SOL    HW1 2462   6.153   6.189   4.846
  521SOL    HW2 2463   6.018   6.189   4.939
  522SOL     OW 2464   3.427   3.298   4.435
  522SOL    HW1 2465   3.366   3.334   4.505
  522SOL    HW2 2466   3.452   3.204   4.458
  523SOL     OW 2467   1.053   5.638   2.022
  523SOL    HW1 2468   1.020   5.558   2.073
  523SOL    HW2 2469   1.138   5.615   1.976
  524SOL     OW 2470   0.229   2.002   2.200
  524SOL    HW1 2471   0.284   1.958   2.270
  524SOL    HW2 2472   0.209   1.938   2.126
  525SOL     OW 2473   2.057   3.954   5.912
  525SOL    HW1 2474   2.039   3.885   5.982
  525SOL    HW2 2475   2.155   3.954   5.890
  526SOL     OW 2476   3.314   5.709   4.122
  526SOL    HW1 2477   3.260   5.693   4.205
  526SOL    HW2 2478   3.345   5.804   4.120
  527SOL     OW 2479   6.076   2.799   0.692
  527SOL    HW1 2480   6.057   2.854   0.774
  527SOL    HW2 2481   6.147   2.843   0.638
  528SOL     OW 2482   1.401   2.651   3.868
  528SOL    HW1 2483   1.460   2.680   3.792
  528SOL    HW2 2484   1.377   2.555   3.856
  529SOL     OW 2485   1.370   5.903   4.646
  529SOL    HW1 2486   1.276   5.905   4.611
  529SOL    HW2 2487   1.392   5.810   4.675
  530SOL     OW 2488   3.668   3.533   4.003
  530SOL    HW1 2489   3.637   3.518   3.909
  530SOL    HW2 2490   3.768   3.542   4.004
  531SOL     OW 2491   0.405   1.941   2.663
  531SOL    HW1 2492   0.485   1.949   2.603
  531SOL    HW2 2493   0.431   1.891   2.746
  532SOL     OW 2494   0.788   3.230   0.029
  532SOL    HW1 2495   0.749   3.308   0.078
  532SOL    HW2 2496   0.884   3.248   0.009
  533SOL     OW 2497   4.048   6.718   4.096
  533SOL    HW1 2498   3.989   6.762   4.028
  533SOL    HW2 2499   4.080   6.631   4.061
  534SOL     OW 2500   5.337   6.731   2.339
  534SOL    HW1 2501   5.408   6.672   2.301
  534SOL    HW2 2502   5.379   6.807   2.388
  535SOL     OW 2503   6.963   3.325   4.453
  535SOL    HW1 2504   6.864   3.332   4.459
  535SOL    HW2 2505   6.989   3.298   4.360
  536SOL     OW 2506   6.231   4.538   2.599
  536SOL    HW1 2507   6.315   4.586   2.572
  536SOL    HW2 2508   6.162   4.606   2.624
  537SOL     OW 2509   2.106   6.517   4.803
  537SOL    HW1 2510   2.117   6.454   4.725
  537SOL    HW2 2511   2.161   6.599   4.787
  538SOL     OW 2512   1.196   4.985   4.271
  538SOL    HW1 2513   1.277   5.044   4.276
  538SOL    HW2 2514   1.193   4.926   4.352
  539SOL     OW 2515   2.144   5.578   1.266
  539SOL    HW1 2516   2.186   5.632   1.339
  539SOL    HW2 2517   2.209   5.508   1.235
  540SOL     OW 2518   1.879   1.712   2.917
  540SOL    HW1 2519   1.855   1.711   2.820
  540SOL    HW2 2520   1.805   1.753   2.970
  541SOL     OW 2521   5.064   5.283   3.741
  541SOL    HW1 2522   5.067   5.188   3.774
  541SOL    HW2 2523   5.109   5.342   3.808
  542SOL     OW 2524   5.545   5.666   6.948
  542SOL    HW1 2525   5.487   5.586   6.930
  542SOL    HW2 2526   5.623   5.665   6.885
  543SOL     OW 2527   0.606   3.159   4.411
  543SOL    HW1 2528   0.638   3.254   4.404
  543SOL    HW2 2529   0.608   3.116   4.321
  544SOL     OW 2530   1.988   4.984   0.476
  544SOL    HW1 2531   1.963   4.964   0.381
  544SOL    HW2 2532   2.036   5.072   0.480
  545SOL     OW 2533   3.233   1.624   1.655
  545SOL    HW1 2534   3.274   1.715   1.664
  545SOL    HW2 2535   3.287   1.569   1.591
  546SOL     OW 2536   2.320   2.954   0.767
  546SOL    HW1 2537   2.261   2.984   0.691
  546SOL    HW2 2538   2.277   2.876   0.813
  547SOL     OW 2539   3.379   1.146   0.492
  547SOL    HW1 2540   3.414   1.199   0.415
  547SOL    HW2 2541   3.316   1.076   0.458
  548SOL     OW 2542   3.532   3.351   2.282
  548SOL    HW1 2543   3.437   3.382   2.282
  548SOL    HW2 2544   3.593   3.430   2.282
  549SOL     OW 2545   5.602   3.205   1.015
  549SOL    HW1 2546   5.581   3.161   0.928
  549SOL    HW2 2547   5.552   3.290   1.024
  550SOL     OW 2548   0.760   5.644   3.954
  550SOL    HW1 2549   0.664   5.648   3.928
  550SOL    HW2 2550   0.812   5.594   3.884
  551SOL     OW 2551   1.565   0.462   1.996
  551SOL    HW1 2552   1.495   0.532   1.982
  551SOL    HW2 2553   1.656   0.503   1.983
  552SOL     OW 2554   6.118   4.697   6.792
  552SOL    HW1 2555   6.084   4.606   6.814
  552SOL    HW2 2556   6.120   4.708   6.692
  553SOL     OW 2557   3.176   6.103   2.907
  553SOL    HW1 2558   3.257   6.154   2.936
  553SOL    HW2 2559   3.123   6.077   2.988
  554SOL     OW 2560   6.000   6.817   6.703
  554SOL    HW1 2561   6.075   6.878   6.677
  554SOL    HW2 2562   5.927   6.824   6.635
  555SOL     OW 2563   2.214   4.612   4.797
  555SOL    HW1 2564   2.224   4.522   4.754
  555SOL    HW2 2565   2.305   4.650   4.814
  556SOL     OW 2566   3.773   2.105   3.792
  556SOL    HW1 2567   3.676   2.096   3.817
  556SOL    HW2 2568   3.825   2.131   3.873
  557SOL     OW 2569   0.466   5.259   0.744
  557SOL    HW1 2570   0.514   5.309   0.816
  557SOL    HW2 2571   0.368   5.278   0.750
  558SOL     OW 2572   2.886   3.477   3.936
  558SOL    HW1 2573   2.874   3.520   4.025
  558SOL    HW2 2574   2.891   3.548   3.865
  559SOL     OW 2575   6.657   6.019   0.200
  559SOL    HW1 2576   6.664   5.948   0.130
  559SOL    HW2 2577   6.684   6.107   0.161
  560SOL     OW 2578   5.345   4.277   5.989
  560SOL    HW1 2579   5.394   4.293   5.903
  560SOL    HW2 2580   5.354   4.180   6.014
  561SOL     OW 2581   0.919   1.591   1.373
  561SOL    HW1 2582   0.823   1.579   1.399
  561SOL    HW2 2583   0.960   1.502   1.355
  562SOL     OW 2584   4.788   0.722   5.995
  562SOL    HW1 2585   4.810   0.814   6.029
  562SOL    HW2 2586   4.865   0.687   5.943
  563SOL     OW 2587   2.467   0.332   3.593
  563SOL    HW1 2588   2.386   0.390   3.589
  563SOL    HW2 2589   2.448   0.254   3.653
  564SOL     OW 2590   1.423   2.004   6.835
  564SOL    HW1 2591   1.332   2.041   6.857
  564SOL    HW2 2592   1.415   1.906   6.815
  565SOL     OW 2593   2.819   2.730   5.592
  565SOL    HW1 2594   2.889   2.746   5.523
  565SOL    HW2 2595   2.730   2.720   5.547
  566SOL     OW 2596   6.668   4.937   3.374
  566SOL    HW1 2597   6.738   5.006   3.391
  566SOL    HW2 2598   6.702   4.847   3.400
  567SOL     OW 2599   2.737   2.794   1.413
  567SOL    HW1 2600   2.809   2.862   1.415
  567SOL    HW2 2601   2.753   2.730   1.337
  568SOL     OW 2602   4.985   0.586   0.254
  568SOL    HW1 2603   5.042   0.513   0.292
  568SOL    HW2 2604   4.964   0.653   0.325
  569SOL     OW 2605   1.638   3.335   6.519
  569SOL    HW1 2606   1.643   3.236   6.518
  569SOL    HW2 2607   1.542   3.364   6.513
  570SOL     OW 2608   3.235   6.456   6.652
  570SOL    HW1 2609   3.194   6.544   6.629
  570SOL    HW2 2610   3.326   6.472   6.691
  571SOL     OW 2611   3.463   0.082   2.169
  571SOL    HW1 2612   3.486   0.145   2.096
  571SOL    HW2 2613   3.495   0.119   2.257
  572SOL     OW 2614   2.477   4.710   5.394
  572SOL    HW1 2615   2.395   4.657   5.371
  572SOL    HW2 2616   2.524   4.737   5.310
  573SOL     OW 2617   5.534   1.218   5.515
  573SOL    HW1 2618   5.536   1.148   5.444
  573SOL    HW2 2619   5.578   1.301   5.482
  574SOL     OW 2620   3.783   1.948   4.110
  574SOL    HW1 2621   3.805   1.852   4.123
  574SOL    HW2 2622   3.724   1.959   4.030
  575SOL     OW 2623   5.103   4.384   6.816
  575SOL    HW1 2624   5.112   4.316   6.744
  575SOL    HW2 2625   5.191   4.393   6.864
  576SOL     OW 2626   0.876   2.409   2.846
  576SOL    HW1 2627   0.845   2.488   2.899
  576SOL    HW2 2628   0.842   2.416   2.753
  577SOL     OW 2629   1.517   1.371   2.668
  577SOL    HW1 2630   1.583   1.376   2.743
  577SOL    HW2 2631   1.535   1.444   2.602
  578SOL     OW 2632   5.915   6.360   3.580
  578SOL    HW1 2633   5.836   6.418   3.600
  578SOL    HW2 2634   5.889   6.293   3.509
  579SOL     OW 2635   1.933   3.007   3.012
  579SOL    HW1 2636   1.872   3.068   2.962
  579SOL    HW2 2637   1.925   2.914   2.976
  580SOL     OW 2638   5.719   5.563   0.700
  580SOL    HW1 2639   5.816   5.550   0.720
  580SOL    HW2 2640   5.665   5.506   0.761
  581SOL     OW 2641   2.407   3.205   1.292
  581SOL    HW1 2642   2.490   3.246   1.328
  581SOL    HW2 2643   2.413   3.105   1.300
  582SOL     OW 2644   4.326   6.853   1.588
  582SOL    HW1 2645   4.285   6.823   1.674
  582SOL    HW2 2646   4.283   6.805   1.512
  583SOL     OW 2647   3.103   5.620   5.581
  583SOL    HW1 2648   3.025   5.581   5.532
  583SOL    HW2 2649   3.069   5.684   5.651
  584SOL     OW 2650   2.923   4.273   6.477
  584SOL    HW1 2651   2.863   4.247   6.402
  584SOL    HW2 2652   2.957   4.365   6.462
  585SOL     OW 2653   5.329   2.835   6.289
  585SOL    HW1 2654   5.310   2.777   6.210
  585SOL    HW2 2655   5.350   2.927   6.257
  586SOL     OW 2656   3.683   1.233   6.072
  586SOL    HW1 2657   3.675   1.332   6.067
  586SOL    HW2 2658   3.638   1.199   6.154
  587SOL     OW 2659   4.482   1.868   5.135
  587SOL    HW1 2660   4.549   1.942   5.140
  587SOL    HW2 2661   4.404   1.897   5.080
  588SOL     OW 2662   1.420   4.239   1.932
  588SOL    HW1 2663   1.429   4.336   1.911
  588SOL    HW2 2664   1.455   4.221   2.023
  589SOL     OW 2665   3.327   4.727   1.408
  589SOL    HW1 2666   3.276   4.785   1.472
  589SOL    HW2 2667   3.262   4.675   1.353
  590SOL     OW 2668   4.971   3.033   3.620
  590SOL    HW1 2669   4.932   3.122   3.643
  590SOL    HW2 2670   4.903   2.980   3.568
  591SOL     OW 2671   3.281   5.250   3.975
  591SOL    HW1 2672   3.200   5.263   4.031
  591SOL    HW2 2673   3.323   5.339   3.956
  592SOL     OW 2674   3.651   0.849   1.109
  592SOL    HW1 2675   3.717   0.815   1.043
  592SOL    HW2 2676   3.686   0.933   1.152
  593SOL     OW 2677   4.637   2.556   3.641
  593SOL    HW1 2678   4.660   2.637   3.696
  593SOL    HW2 2679   4.605   2.584   3.551
  594SOL     OW 2680   6.381   2.155   6.984
  594SOL    HW1 2681   6.359   2.205   6.901
  594SOL    HW2 2682   6.475   2.121   6.980
  595SOL     OW 2683   5.888   6.847   3.237
  595SOL    HW1 2684   5.853   6.757   3.261
  595SOL    HW2 2685   5.986   6.851   3.258
  596SOL     OW 2686   0.977   4.899   3.439
  596SOL    HW1 2687   0.944   4.868   3.528
  596SOL    HW2 2688   0.967   4.998   3.434
  597SOL     OW 2689   3.370   0.900   0.043
  597SOL    HW1 2690   3.429   0.829   0.080
  597SOL    HW2 2691   3.289   0.858   0.001
  598SOL     OW 2692   4.453   5.010   5.328
  598SOL    HW1 2693   4.443   5.096   5.279
  598SOL    HW2 2694   4.520   5.021   5.401
  599SOL     OW 2695   2.349   6.149   2.265
  599SOL    HW1 2696   2.285   6.102   2.204
  599SOL    HW2 2697   2.420   6.194   2.212
  600SOL     OW 2698   0.113   1.364   6.948
  600SOL    HW1 2699   0.101   1.266   6.961
  600SOL    HW2 2700   0.099   1.387   6.851
  601SOL     OW 2701   2.762   0.591   4.313
  601SOL    HW1 2702   2.667   0.619   4.296
  601SOL    HW2 2703   2.794   0.537   4.235
  602SOL     OW 2704   1.737   2.825   6.426
  602SOL    HW1 2705   1.691   2.874   6.501
  602SOL    HW2 2706   1.821   2.784   6.460
  603SOL     OW 2707   2.434   2.201   4.932
  603SOL    HW1 2708   2.510   2.255   4.894
  603SOL    HW2 2709   2.347   2.241   4.904
  604SOL     OW 2710   1.208   3.044   1.618
  604SOL    HW1 2711   1.138   2.981   1.651
  604SOL    HW2 2712   1.164   3.129   1.587
  605SOL     OW 2713   6.616   6.944   1.881
  605SOL    HW1 2714   6.581   6.891   1.958
  605SOL    HW2 2715   6.547   7.010   1.852
  606SOL     OW 2716   4.476   0.060   6.607
  606SOL    HW1 2717   4.450   0.155   6.626
  606SOL    HW2 2718   4.508   0.053   6.513
  607SOL     OW 2719   6.690   6.671   6.191
  607SOL    HW1 2720   6.692   6.571   6.192
  607SOL    HW2 2721   6.783   6.707   6.182
  608SOL     OW 2722   3.273   6.261   6.133
  608SOL    HW1 2723   3.327   6.177   6.120
  608SOL    HW2 2724   3.290   6.298   6.224
  609SOL     OW 2725   3.851   3.066   3.318
  609SOL    HW1 2726   3.800   2.985   3.346
  609SOL    HW2 2727   3.940   3.067   3.364
  610SOL     OW 2728   5.344   3.750   2.083
  610SOL    HW1 2729   5.371   3.770   1.989
  610SOL    HW2 2730   5.411   3.790   2.146
  611SOL     OW 2731   3.738   6.677   0.935
  611SOL    HW1 2732   3.749   6.760   0.880
  611SOL    HW2 2733   3.731   6.598   0.874
  612SOL     OW 2734   4.127   6.897   5.851
  612SOL    HW1 2735   4.205   6.931   5.797
  612SOL    HW2 2736   4.130   6.938   5.942
  613SOL     OW 2737   3.844   6.520   5.723
  613SOL    HW1 2738   3.780   6.539   5.797
  613SOL    HW2 2739   3.922   6.582   5.730
  614SOL     OW 2740   4.651   5.225   1.223
  614SOL    HW1 2741   4.568   5.236   1.277
  614SOL    HW2 2742   4.725   5.278   1.264
  615SOL     OW 2743   6.218   2.405   1.920
  615SOL    HW1 2744   6.139   2.458   1.888
  615SOL    HW2 2745   6.212   2.393   2.019
  616SOL     OW 2746   7.014   1.833   3.905
  616SOL    HW1 2747   7.011   1.863   3.809
  616SOL    HW2 2748   0.078   1.778   3.920
  617SOL     OW 2749   6.312   4.363   6.315
  617SOL    HW1 2750   6.339   4.391   6.407
  617SOL    HW2 2751   6.216   4.335   6.315
  618SOL     OW 2752   6.290   2.498   6.315
  618SOL    HW1 2753   6.351   2.463   6.386
  618SOL    HW2 2754   6.338   2.570   6.264
  619SOL     OW 2755   4.515   1.242   6.837
  619SOL    HW1 2756   4.530   1.287   6.749
  619SOL    HW2 2757   4.566   1.156   6.840
  620SOL     OW 2758   4.379   3.047   1.414
  620SOL    HW1 2759   4.289   3.022   1.378
  620SOL    HW2 2760   4.387   3.014   1.508
  621SOL     OW 2761   2.843   6.110   6.801
  621SOL    HW1 2762   2.855   6.048   6.878
  621SOL    HW2 2763   2.769   6.077   6.743
  622SOL     OW 2764   1.649   0.847   4.953
  622SOL    HW1 2765   1.704   0.903   4.890
  622SOL    HW2 2766   1.556   0.884   4.958
  623SOL     OW 2767   0.236   5.886   6.070
  623SOL    HW1 2768   0.274   5.961   6.018
  623SOL    HW2 2769   0.275   5.885   6.162
  624SOL     OW 2770   0.118   2.215   1.314
  624SOL    HW1 2771   0.029   2.203   1.357
  624SOL    HW2 2772   0.160   2.125   1.299
  625SOL     OW 2773   1.456   1.723   2.170
  625SOL    HW1 2774   1.448   1.645   2.109
  625SOL    HW2 2775   1.537   1.776   2.147
  626SOL     OW 2776   1.298   5.621   3.139
  626SOL    HW1 2777   1.319   5.568   3.057
  626SOL    HW2 2778   1.214   5.673   3.124
  627SOL     OW 2779   6.097   6.399   0.575
  627SOL    HW1 2780   6.156   6.404   0.495
  627SOL    HW2 2781   6.023   6.466   0.566
  628SOL     OW 2782   5.482   5.510   5.313
  628SOL    HW1 2783   5.486   5.582   5.383
  628SOL    HW2 2784   5.567   5.510   5.261
  629SOL     OW 2785   0.300   0.639   6.630
  629SOL    HW1 2786   0.296   0.722   6.684
  629SOL    HW2 2787   0.395   0.611   6.619
  630SOL     OW 2788   0.411   1.447   1.010
  630SOL    HW1 2789   0.419   1.481   0.916
  630SOL    HW2 2790   0.475   1.371   1.023
  631SOL     OW 2791   4.099   0.634   5.151
  631SOL    HW1 2792   4.001   0.654   5.160
  631SOL    HW2 2793   4.111   0.548   5.102
  632SOL     OW 2794   3.711   1.287   1.407
  632SOL    HW1 2795   3.713   1.225   1.329
  632SOL    HW2 2796   3.626   1.274   1.458
  633SOL     OW 2797   3.192   3.703   6.967
  633SOL    HW1 2798   3.242   3.776   6.920
  633SOL    HW2 2799   3.225   3.614   6.937
  634SOL     OW 2800   3.915   3.079   2.251
  634SOL    HW1 2801   3.815   3.081   2.256
  634SOL    HW2 2802   3.952   3.071   2.344
  635SOL     OW 2803   4.884   5.445   0.856
  635SOL    HW1 2804   4.872   5.449   0.757
  635SOL    HW2 2805   4.797   5.469   0.900
  636SOL     OW 2806   2.600   6.497   0.154
  636SOL    HW1 2807   2.504   6.492   0.181
  636SOL    HW2 2808   2.609   6.472   0.057
  637SOL     OW 2809   0.051   3.064   3.220
  637SOL    HW1 2810   0.052   3.150   3.168
  637SOL    HW2 2811   0.075   2.988   3.160
  638SOL     OW 2812   6.016   2.345   4.067
  638SOL    HW1 2813   6.085   2.341   3.996
  638SOL    HW2 2814   5.925   2.342   4.026
  639SOL     OW 2815   4.840   3.655   3.343
  639SOL    HW1 2816   4.867   3.575   3.398
  639SOL    HW2 2817   4.820   3.625   3.250
  640SOL     OW 2818   0.323   5.592   3.769
  640SOL    HW1 2819   0.289   5.686   3.771
  640SOL    HW2 2820   0.423   5.593   3.756
  641SOL     OW 2821   6.918   5.146   4.462
  641SOL    HW1 2822   6.890   5.063   4.509
  641SOL    HW2 2823   6.898   5.138   4.364
  642SOL     OW 2824   6.762   2.849   4.420
  642SOL    HW1 2825   6.712   2.918   4.472
  642SOL    HW2 2826   6.848   2.828   4.467
  643SOL     OW 2827   6.074   5.207   5.347
  643SOL    HW1 2828   6.038   5.262   5.422
  643SOL    HW2 2829   6.008   5.206   5.271
  644SOL     OW 2830   1.250   6.478   4.186
  644SOL    HW1 2831   1.288   6.402   4.238
  644SOL    HW2 2832   1.306   6.493   4.104
  645SOL     OW 2833   4.140   0.778   4.540
  645SOL    HW1 2834   4.048   0.818   4.533
  645SOL    HW2 2835   4.191   0.826   4.612
  646SOL     OW 2836   3.334   0.950   4.435
  646SOL    HW1 2837   3.426   0.916   4.454
  646SOL    HW2 2838   3.267   0.890   4.479
  647SOL     OW 2839   5.593   1.433   5.366
  647SOL    HW1 2840   5.577   1.389   5.278
  647SOL    HW2 2841   5.622   1.528   5.351
  648SOL     OW 2842   0.629   3.804   3.568
  648SOL    HW1 2843   0.677   3.883   3.606
  648SOL    HW2 2844   0.692   3.751   3.511
  649SOL     OW 2845   2.973   4.376   0.428
  649SOL    HW1 2846   3.051   4.315   0.411
  649SOL    HW2 2847   2.891   4.321   0.446
  650SOL     OW 2848   5.768   4.234   0.322
  650SOL    HW1 2849   5.826   4.178   0.381
  650SOL    HW2 2850   5.741   4.181   0.241
  651SOL     OW 2851   0.551   6.202   6.136
  651SOL    HW1 2852   0.635   6.243   6.171
  651SOL    HW2 2853   0.472   6.248   6.178
  652SOL     OW 2854   4.675   0.736   3.540
  652SOL    HW1 2855   4.760   0.722   3.489
  652SOL    HW2 2856   4.691   0.716   3.637
  653SOL     OW 2857   0.760   5.412   6.004
  653SOL    HW1 2858   0.677   5.462   6.030
  653SOL    HW2 2859   0.774   5.336   6.067
  654SOL     OW 2860   0.618   4.483   6.002
  654SOL    HW1 2861   0.689   4.477   5.931
  654SOL    HW2 2862   0.643   4.554   6.068
  655SOL     OW 2863   0.433   6.050   1.892
  655SOL    HW1 2864   0.353   5.991   1.890
  655SOL    HW2 2865   0.416   6.132   1.837
  656SOL     OW 2866   2.009   5.891   1.117
  656SOL    HW1 2867   1.982   5.878   1.212
  656SOL    HW2 2868   1.998   5.987   1.091
  657SOL     OW 2869   2.333   3.667   1.722
  657SOL    HW1 2870   2.425   3.702   1.706
  657SOL    HW2 2871   2.337   3.592   1.788
  658SOL     OW 2872   2.760   4.029   6.820
  658SOL    HW1 2873   2.859   4.027   6.835
  658SOL    HW2 2874   2.713   4.005   6.905
  659SOL     OW 2875   1.411   5.460   5.415
  659SOL    HW1 2876   1.407   5.360   5.406
  659SOL    HW2 2877   1.426   5.484   5.510
  660SOL     OW 2878   5.619   3.553   2.447
  660SOL    HW1 2879   5.588   3.475   2.502
  660SOL    HW2 2880   5.699   3.595   2.489
  661SOL     OW 2881   4.988   4.695   3.384
  661SOL    HW1 2882   4.973   4.775   3.442
  661SOL    HW2 2883   4.970   4.718   3.289
  662SOL     OW 2884   3.868   0.828   4.505
  662SOL    HW1 2885   3.870   0.928   4.507
  662SOL    HW2 2886   3.878   0.796   4.411
  663SOL     OW 2887   1.821   3.776   0.141
  663SOL    HW1 2888   1.723   3.760   0.150
  663SOL    HW2 2889   1.864   3.773   0.232
  664SOL     OW 2890   6.876   4.989   6.246
  664SOL    HW1 2891   6.818   4.971   6.166
  664SOL    HW2 2892   6.826   5.046   6.311
  665SOL     OW 2893   4.331   4.943   1.202
  665SOL    HW1 2894   4.299   4.854   1.233
  665SOL    HW2 2895   4.431   4.943   1.197
  666SOL     OW 2896   4.701   2.038   2.960
  666SOL    HW1 2897   4.629   2.078   2.903
  666SOL    HW2 2898   4.667   1.957   3.006
  667SOL     OW 2899   6.120   3.928   3.999
  667SOL    HW1 2900   6.166   3.846   3.964
  667SOL    HW2 2901   6.182   3.977   4.060
  668SOL     OW 2902   4.885   6.051   6.531
  668SOL    HW1 2903   4.925   5.998   6.456
  668SOL    HW2 2904   4.820   5.995   6.581
  669SOL     OW 2905   3.911   6.509   3.845
  669SOL    HW1 2906   3.863   6.514   3.758
  669SOL    HW2 2907   3.873   6.433   3.899
  670SOL     OW 2908   2.596   2.947   0.720
  670SOL    HW1 2909   2.661   2.871   0.724
  670SOL    HW2 2910   2.507   2.915   0.753
  671SOL     OW 2911   2.388   5.982   0.811
  671SOL    HW1 2912   2.426   5.895   0.841
  671SOL    HW2 2913   2.321   5.967   0.739
  672SOL     OW 2914   1.157   4.670   2.104
  672SOL    HW1 2915   1.071   4.637   2.142
  672SOL    HW2 2916   1.174   4.627   2.016
  673SOL     OW 2917   0.384   0.651   1.253
  673SOL    HW1 2918   0.307   0.665   1.191
  673SOL    HW2 2919   0.436   0.736   1.261
  674SOL     OW 2920   0.279   3.116   4.912
  674SOL    HW1 2921   0.251   3.056   4.837
  674SOL    HW2 2922   0.216   3.194   4.917
  675SOL     OW 2923   0.285   0.561   4.276
  675SOL    HW1 2924   0.240   0.650   4.278
  675SOL    HW2 2925   0.250   0.508   4.199
  676SOL     OW 2926   4.217   6.253   2.904
  676SOL    HW1 2927   4.282   6.179   2.884
  676SOL    HW2 2928   4.160   6.269   2.824
  677SOL     OW 2929   6.466   1.670   6.956
  677SOL    HW1 2930   6.484   1.757   6.910
  677SOL    HW2 2931   6.375   1.636   6.931
  678SOL     OW 2932   2.004   1.407   5.056
  678SOL    HW1 2933   2.003   1.320   5.105
  678SOL    HW2 2934   1.910   1.434   5.034
  679SOL     OW 2935   4.399   1.914   4.047
  679SOL    HW1 2936   4.321   1.913   3.984
  679SOL    HW2 2937   4.474   1.966   4.006
  680SOL     OW 2938   5.862   5.374   5.580
  680SOL    HW1 2939   5.768   5.365   5.546
  680SOL    HW2 2940   5.860   5.390   5.678
  681SOL     OW 2941   5.338   5.289   1.931
  681SOL    HW1 2942   5.335   5.389   1.931
  681SOL    HW2 2943   5.373   5.257   2.020
  682SOL     OW 2944   1.385   1.035   0.289
  682SOL    HW1 2945   1.319   1.094   0.244
  682SOL    HW2 2946   1.460   1.015   0.226
  683SOL     OW 2947   3.321   3.027   0.330
  683SOL    HW1 2948   3.296   3.023   0.234
  683SOL    HW2 2949   3.418   3.003   0.340
  684SOL     OW 2950   0.109   1.062   6.987
  684SOL    HW1 2951   0.157   0.975   6.997
  684SOL    HW2 2952   0.035   1.068   0.036
  685SOL     OW 2953   4.946   1.401   3.947
  685SOL    HW1 2954   4.934   1.320   4.005
  685SOL    HW2 2955   5.029   1.450   3.975
  686SOL     OW 2956   5.740   2.303   3.848
  686SOL    HW1 2957   5.743   2.398   3.816
  686SOL    HW2 2958   5.702   2.245   3.776
  687SOL     OW 2959   0.358   2.268   4.760
  687SOL    HW1 2960   0.380   2.174   4.788
  687SOL    HW2 2961   0.374   2.278   4.662
  688SOL     OW 2962   0.821   2.425   0.430
  688SOL    HW1 2963   0.792   2.382   0.345
  688SOL    HW2 2964   0.781   2.517   0.436
  689SOL     OW 2965   0.091   4.143   6.269
  689SOL    HW1 2966   0.086   4.043   6.265
  689SOL    HW2 2967   0.163   4.170   6.332
  690SOL     OW 2968   0.568   4.290   3.223
  690SOL    HW1 2969   0.572   4.334   3.313
  690SOL    HW2 2970   0.648   4.232   3.210
  691SOL     OW 2971   2.500   0.150   6.275
  691SOL    HW1 2972   2.452   0.076   6.322
  691SOL    HW2 2973   2.476   0.237   6.318
  692SOL     OW 2974   3.413   5.716   3.847
  692SOL    HW1 2975   3.470   5.785   3.892
  692SOL    HW2 2976   3.358   5.669   3.915
  693SOL     OW 2977   6.264   0.696   3.368
  693SOL    HW1 2978   6.209   0.637   3.427
  693SOL    HW2 2979   6.217   0.783   3.355
  694SOL     OW 2980   4.474   6.221   2.515
  694SOL    HW1 2981   4.412   6.278   2.569
  694SOL    HW2 2982   4.455   6.234   2.418
  695SOL     OW 2983   4.067   6.178   4.477
  695SOL    HW1 2984   4.022   6.097   4.512
  695SOL    HW2 2985   4.101   6.234   4.553
  696SOL     OW 2986   3.938   4.794   2.334
  696SOL    HW1 2987   3.888   4.809   2.249
  696SOL    HW2 2988   4.035   4.813   2.320
  697SOL     OW 2989   2.098   3.113   3.512
  697SOL    HW1 2990   2.075   3.204   3.479
  697SOL    HW2 2991   2.067   3.044   3.446
  698SOL     OW 2992   5.869   6.411   0.088
  698SOL    HW1 2993   5.918   6.357   0.019
  698SOL    HW2 2994   5.780   6.437   0.052
  699SOL     OW 2995   1.996   3.559   6.433
  699SOL    HW1 2996   1.988   3.650   6.474
  699SOL    HW2 2997   2.012   3.491   6.504
  700SOL     OW 2998   2.657   1.297   2.960
  700SOL    HW1 2999   2.667   1.397   2.954
  700SOL    HW2 3000   2.563   1.275   2.987
  701SOL     OW 3001   5.867   3.731   5.110
  701SOL    HW1 3002   5.842   3.676   5.030
  701SOL    HW2 3003   5.952   3.781   5.091
  702SOL     OW 3004   0.734   6.181   5.446
  702SOL    HW1 3005   0.748   6.273   5.481
  702SOL    HW2 3006   0.650   6.142   5.485
  703SOL     OW 3007   3.770   4.074   6.437
  703SOL    HW1 3008   3.750   4.082   6.339
  703SOL    HW2 3009   3.708   4.009   6.479
  704SOL     OW 3010   1.612   2.016   0.038
  704SOL    HW1 3011   1.552   1.995   6.979
  704SOL    HW2 3012   1.707   1.994   0.013
  705SOL     OW 3013   6.527   5.868   2.639
  705SOL    HW1 3014   6.466   5.840   2.565
  705SOL    HW2 3015   6.500   5.822   2.724
  706SOL     OW 3016   4.462   2.488   4.527
  706SOL    HW1 3017   4.504   2.515   4.441
  706SOL    HW2 3018   4.508   2.535   4.603
  707SOL     OW 3019   5.195   6.722   2.601
  707SOL    HW1 3020   5.225   6.708   2.507
  707SOL    HW2 3021   5.212   6.639   2.654
  708SOL     OW 3022   4.223   0.102   1.571
  708SOL    HW1 3023   4.310   0.151   1.578
  708SOL    HW2 3024   4.240   0.003   1.569
  709SOL     OW 3025   1.223   5.466   1.515
  709SOL    HW1 3026   1.271   5.433   1.596
  709SOL    HW2 3027   1.288   5.489   1.443
  710SOL     OW 3028   3.750   2.987   2.768
  710SOL    HW1 3029   3.796   2.979   2.856
  710SOL    HW2 3030   3.669   2.930   2.767
  711SOL     OW 3031   6.940   2.533   5.236
  711SOL    HW1 3032   6.847   2.567   5.246
  711SOL    HW2 3033   6.940   2.433   5.238
  712SOL     OW 3034   3.999   3.426   1.403
  712SOL    HW1 3035   3.949   3.372   1.469
  712SOL    HW2 3036   3.948   3.509   1.381
  713SOL     OW 3037   4.268   2.545   6.326
  713SOL    HW1 3038   4.222   2.458   6.308
  713SOL    HW2 3039   4.256   2.606   6.248
  714SOL     OW 3040   6.742   4.408   4.058
  714SOL    HW1 3041   6.714   4.439   3.967
  714SOL    HW2 3042   6.682   4.449   4.127
  715SOL     OW 3043   5.666   6.011   0.345
  715SOL    HW1 3044   5.714   6.024   0.431
  715SOL    HW2 3045   5.577   5.967   0.362
  716SOL     OW 3046   0.851   0.114   1.390
  716SOL    HW1 3047   0.777   0.076   1.334
  716SOL    HW2 3048   0.819   0.122   1.485
  717SOL     OW 3049   6.191   4.722   5.570
  717SOL    HW1 3050   6.214   4.643   5.627
  717SOL    HW2 3051   6.274   4.758   5.528
  718SOL     OW 3052   5.129   2.215   6.154
  718SOL    HW1 3053   5.214   2.192   6.107
  718SOL    HW2 3054   5.052   2.202   6.091
  719SOL     OW 3055   5.930   0.610   1.846
  719SOL    HW1 3056   5.957   0.707   1.846
  719SOL    HW2 3057   5.986   0.560   1.912
  720SOL     OW 3058   3.374   0.914   6.318
  720SOL    HW1 3059   3.409   0.875   6.233
  720SOL    HW2 3060   3.275   0.927   6.310
  721SOL     OW 3061   2.809   1.477   4.284
  721SOL    HW1 3062   2.753   1.434   4.355
  721SOL    HW2 3063   2.753   1.540   4.231
  722SOL     OW 3064   2.462   0.662   5.073
  722SOL    HW1 3065   2.517   0.695   4.997
  722SOL    HW2 3066   2.504   0.580   5.112
  723SOL     OW 3067   2.050   3.909   3.282
  723SOL    HW1 3068   1.979   3.972   3.250
  723SOL    HW2 3069   2.120   3.960   3.330
  724SOL     OW 3070   1.144   3.003   4.158
  724SOL    HW1 3071   1.092   3.067   4.101
  724SOL    HW2 3072   1.145   2.913   4.115
  725SOL     OW 3073   2.718   5.468   0.233
  725SOL    HW1 3074   2.816   5.484   0.250
  725SOL    HW2 3075   2.681   5.410   0.306
  726SOL     OW 3076   4.094   4.871   0.917
  726SOL    HW1 3077   4.032   4.855   0.994
  726SOL    HW2 3078   4.153   4.949   0.937
  727SOL     OW 3079   5.731   4.260   5.534
  727SOL    HW1 3080   5.781   4.338   5.571
  727SOL    HW2 3081   5.705   4.279   5.439
  728SOL     OW 3082   6.469   2.872   5.225
  728SOL    HW1 3083   6.429   2.961   5.247
  728SOL    HW2 3084   6.556   2.886   5.176
  729SOL     OW 3085   1.359   1.881   0.957
  729SOL    HW1 3086   1.337   1.843   1.047
  729SOL    HW2 3087   1.318   1.972   0.948
  730SOL     OW 3088   5.960   0.896   3.857
  730SOL    HW1 3089   6.009   0.954   3.792
  730SOL    HW2 3090   5.876   0.942   3.887
  731SOL     OW 3091   5.530   4.382   6.327
  731SOL    HW1 3092   5.460   4.430   6.275
  731SOL    HW2 3093   5.512   4.284   6.325
  732SOL     OW 3094   6.778   2.493   1.547
  732SOL    HW1 3095   6.834   2.430   1.600
  732SOL    HW2 3096   6.736   2.561   1.608
  733SOL     OW 3097   5.661   6.134   5.353
  733SOL    HW1 3098   5.604   6.215   5.339
  733SOL    HW2 3099   5.692   6.131   5.448
  734SOL     OW 3100   0.124   4.879   2.942
  734SOL    HW1 3101   0.081   4.848   2.857
  734SOL    HW2 3102   0.076   4.960   2.975
  735SOL     OW 3103   3.633   2.336   0.343
  735SOL    HW1 3104   3.665   2.427   0.315
  735SOL    HW2 3105   3.644   2.272   0.268
  736SOL     OW 3106   0.405   1.325   3.451
  736SOL    HW1 3107   0.435   1.350   3.543
  736SOL    HW2 3108   0.480   1.279   3.403
  737SOL     OW 3109   4.997   1.955   5.283
  737SOL    HW1 3110   4.921   1.992   5.335
  737SOL    HW2 3111   4.964   1.883   5.222
  738SOL     OW 3112   1.991   4.334   1.543
  738SOL    HW1 3113   2.015   4.390   1.465
  738SOL    HW2 3114   2.012   4.238   1.523
  739SOL     OW 3115   4.412   0.061   4.098
  739SOL    HW1 3116   4.381   0.123   4.170
  739SOL    HW2 3117   4.497   0.097   4.058
  740SOL     OW 3118   5.926   0.482   1.403
  740SOL    HW1 3119   5.966   0.559   1.353
  740SOL    HW2 3120   5.830   0.472   1.379
  741SOL     OW 3121   2.368   6.182   3.394
  741SOL    HW1 3122   2.340   6.146   3.483
  741SOL    HW2 3123   2.306   6.255   3.367
  742SOL     OW 3124   2.784   6.710   2.429
  742SOL    HW1 3125   2.687   6.706   2.452
  742SOL    HW2 3126   2.837   6.662   2.499
  743SOL     OW 3127   0.286   3.849   3.705
  743SOL    HW1 3128   0.311   3.888   3.794
  743SOL    HW2 3129   0.332   3.760   3.694
  744SOL     OW 3130   6.019   0.542   6.726
  744SOL    HW1 3131   6.024   0.451   6.768
  744SOL    HW2 3132   5.994   0.532   6.630
  745SOL     OW 3133   1.130   5.420   5.210
  745SOL    HW1 3134   1.041   5.380   5.233
  745SOL    HW2 3135   1.144   5.416   5.111
  746SOL     OW 3136   0.353   4.260   6.326
  746SOL    HW1 3137   0.428   4.223   6.272
  746SOL    HW2 3138   0.318   4.343   6.284
  747SOL     OW 3139   3.500   6.282   4.359
  747SOL    HW1 3140   3.576   6.241   4.308
  747SOL    HW2 3141   3.511   6.381   4.361
  748SOL     OW 3142   3.630   5.144   2.403
  748SOL    HW1 3143   3.714   5.196   2.391
  748SOL    HW2 3144   3.624   5.072   2.333
  749SOL     OW 3145   5.936   4.662   4.662
  749SOL    HW1 3146   5.879   4.582   4.680
  749SOL    HW2 3147   5.902   4.740   4.714
  750SOL     OW 3148   1.695   1.579   1.303
  750SOL    HW1 3149   1.598   1.557   1.299
  750SOL    HW2 3150   1.711   1.670   1.264
  751SOL     OW 3151   4.147   2.368   6.913
  751SOL    HW1 3152   4.095   2.324   6.987
  751SOL    HW2 3153   4.167   2.463   6.938
  752SOL     OW 3154   3.504   0.652   2.464
  752SOL    HW1 3155   3.485   0.581   2.532
  752SOL    HW2 3156   3.454   0.735   2.487
  753SOL     OW 3157   2.040   3.207   5.453
  753SOL    HW1 3158   2.071   3.134   5.514
  753SOL    HW2 3159   1.973   3.171   5.388
  754SOL     OW 3160   5.124   2.366   5.461
  754SOL    HW1 3161   5.099   2.370   5.364
  754SOL    HW2 3162   5.223   2.372   5.470
  755SOL     OW 3163   1.596   4.364   5.581
  755SOL    HW1 3164   1.518   4.376   5.643
  755SOL    HW2 3165   1.678   4.345   5.634
  756SOL     OW 3166   2.745   6.479   6.640
  756SOL    HW1 3167   2.826   6.484   6.582
  756SOL    HW2 3168   2.768   6.511   6.732
  757SOL     OW 3169   0.582   0.947   3.666
  757SOL    HW1 3170   0.615   0.895   3.587
  757SOL    HW2 3171   0.598   0.895   3.750
  758SOL     OW 3172   3.553   0.301   1.989
  758SOL    HW1 3173   3.516   0.393   1.995
  758SOL    HW2 3174   3.546   0.267   1.895
  759SOL     OW 3175   0.324   1.543   1.273
  759SOL    HW1 3176   0.305   1.640   1.257
  759SOL    HW2 3177   0.383   1.508   1.200
  760SOL     OW 3178   5.546   0.129   5.338
  760SOL    HW1 3179   5.544   0.029   5.339
  760SOL    HW2 3180   5.458   0.163   5.308
  761SOL     OW 3181   5.522   3.360   5.871
  761SOL    HW1 3182   5.519   3.456   5.900
  761SOL    HW2 3183   5.615   3.337   5.843
  762SOL     OW 3184   2.240   0.680   4.746
  762SOL    HW1 3185   2.337   0.675   4.723
  762SOL    HW2 3186   2.185   0.669   4.663
  763SOL     OW 3187   4.125   5.108   6.589
  763SOL    HW1 3188   4.060   5.160   6.533
  763SOL    HW2 3189   4.074   5.048   6.651
  764SOL     OW 3190   5.165   1.508   5.157
  764SOL    HW1 3191   5.203   1.587   5.206
  764SOL    HW2 3192   5.065   1.508   5.167
  765SOL     OW 3193   1.889   6.291   1.355
  765SOL    HW1 3194   1.801   6.283   1.402
  765SOL    HW2 3195   1.918   6.200   1.324
  766SOL     OW 3196   2.737   3.356   6.433
  766SOL    HW1 3197   2.758   3.271   6.481
  766SOL    HW2 3198   2.795   3.363   6.352
  767SOL     OW 3199   6.152   5.624   1.651
  767SOL    HW1 3200   6.172   5.718   1.622
  767SOL    HW2 3201   6.096   5.626   1.734
  768SOL     OW 3202   2.311   6.653   2.352
  768SOL    HW1 3203   2.377   6.583   2.327
  768SOL    HW2 3204   2.335   6.739   2.307
  769SOL     OW 3205   2.924   1.046   5.192
  769SOL    HW1 3206   2.965   1.092   5.113
  769SOL    HW2 3207   2.969   1.078   5.276
  770SOL     OW 3208   1.683   4.522   2.934
  770SOL    HW1 3209   1.621   4.468   2.877
  770SOL    HW2 3210   1.777   4.505   2.904
  771SOL     OW 3211   1.769   5.406   2.550
  771SOL    HW1 3212   1.847   5.343   2.555
  771SOL    HW2 3213   1.765   5.460   2.634
  772SOL     OW 3214   5.792   5.554   0.263
  772SOL    HW1 3215   5.872   5.493   0.262
  772SOL    HW2 3216   5.822   5.647   0.239
  773SOL     OW 3217   0.475   3.841   4.763
  773SOL    HW1 3218   0.484   3.748   4.800
  773SOL    HW2 3219   0.554   3.896   4.791
  774SOL     OW 3220   1.437   1.500   1.306
  774SOL    HW1 3221   1.390   1.553   1.376
  774SOL    HW2 3222   1.411   1.404   1.313
  775SOL     OW 3223   0.485   2.299   3.302
  775SOL    HW1 3224   0.419   2.319   3.231
  775SOL    HW2 3225   0.577   2.298   3.262
  776SOL     OW 3226   1.597   6.571   6.199
  776SOL    HW1 3227   1.566   6.635   6.129
  776SOL    HW2 3228   1.629   6.622   6.279
  777SOL     OW 3229   2.351   4.895   1.708
  777SOL    HW1 3230   2.291   4.868   1.784
  777SOL    HW2 3231   2.441   4.919   1.744
  778SOL     OW 3232   2.457   1.602   2.040
  778SOL    HW1 3233   2.431   1.578   2.134
  778SOL    HW2 3234   2.494   1.695   2.039
  779SOL     OW 3235   6.433   3.014   2.339
  779SOL    HW1 3236   6.440   3.063   2.426
  779SOL    HW2 3237   6.340   2.980   2.328
  780SOL     OW 3238   6.778   3.795   4.483
  780SOL    HW1 3239   6.724   3.804   4.400
  780SOL    HW2 3240   6.867   3.754   4.461
  781SOL     OW 3241   5.884   0.174   0.184
  781SOL    HW1 3242   5.802   0.166   0.242
  781SOL    HW2 3243   5.956   0.221   0.234
  782SOL     OW 3244   1.592   4.275   6.391
  782SOL    HW1 3245   1.606   4.184   6.430
  782SOL    HW2 3246   1.631   4.277   6.299
  783SOL     OW 3247   4.995   4.987   1.252
  783SOL    HW1 3248   5.085   5.021   1.279
  783SOL    HW2 3249   4.987   4.891   1.279
  784SOL     OW 3250   4.621   5.708   0.726
  784SOL    HW1 3251   4.674   5.628   0.696
  784SOL    HW2 3252   4.675   5.791   0.711
  785SOL     OW 3253   0.396   2.795   3.666
  785SOL    HW1 3254   0.403   2.698   3.688
  785SOL    HW2 3255   0.419   2.809   3.570
  786SOL     OW 3256   1.462   1.178   2.456
  786SOL    HW1 3257   1.480   1.249   2.525
  786SOL    HW2 3258   1.380   1.126   2.483
  787SOL     OW 3259   2.444   0.699   6.789
  787SOL    HW1 3260   2.465   0.707   6.691
  787SOL    HW2 3261   2.367   0.760   6.811
  788SOL     OW 3262   3.315   2.922   5.884
  788SOL    HW1 3263   3.274   3.010   5.910
  788SOL    HW2 3264   3.249   2.869   5.832
  789SOL     OW 3265   5.242   4.090   0.657
  789SOL    HW1 3266   5.162   4.068   0.601
  789SOL    HW2 3267   5.278   4.006   0.698
  790SOL     OW 3268   2.231   1.247   3.788
  790SOL    HW1 3269   2.253   1.317   3.720
  790SOL    HW2 3270   2.314   1.196   3.811
  791SOL     OW 3271   2.610   5.754   3.743
  791SOL    HW1 3272   2.628   5.845   3.781
  791SOL    HW2 3273   2.618   5.758   3.643
  792SOL     OW 3274   1.165   6.969   0.822
  792SOL    HW1 3275   1.097   6.960   0.749
  792SOL    HW2 3276   1.157   6.891   0.884
  793SOL     OW 3277   4.729   4.552   3.663
  793SOL    HW1 3278   4.770   4.514   3.746
  793SOL    HW2 3279   4.684   4.479   3.612
  794SOL     OW 3280   3.862   3.580   5.665
  794SOL    HW1 3281   3.841   3.602   5.570
  794SOL    HW2 3282   3.797   3.512   5.698
  795SOL     OW 3283   2.958   6.766   4.380
  795SOL    HW1 3284   2.869   6.749   4.337
  795SOL    HW2 3285   3.009   6.833   4.325
  796SOL     OW 3286   6.776   1.701   6.324
  796SOL    HW1 3287   6.791   1.603   6.314
  796SOL    HW2 3288   6.686   1.717   6.365
  797SOL     OW 3289   5.524   2.963   0.469
  797SOL    HW1 3290   5.610   2.988   0.514
  797SOL    HW2 3291   5.537   2.961   0.370
  798SOL     OW 3292   3.963   0.015   2.605
  798SOL    HW1 3293   3.893   0.081   2.576
  798SOL    HW2 3294   3.976   0.023   2.704
  799SOL     OW 3295   0.249   6.855   6.048
  799SOL    HW1 3296   0.239   6.843   5.950
  799SOL    HW2 3297   0.335   6.903   6.067
  800SOL     OW 3298   5.153   2.570   2.812
  800SOL    HW1 3299   5.195   2.643   2.866
  800SOL    HW2 3300   5.204   2.485   2.827
  801SOL     OW 3301   1.593   3.504   4.145
  801SOL    HW1 3302   1.680   3.530   4.186
  801SOL    HW2 3303   1.609   3.467   4.053
  802SOL     OW 3304   3.756   2.291   1.189
  802SOL    HW1 3305   3.687   2.223   1.166
  802SOL    HW2 3306   3.715   2.382   1.189
  803SOL     OW 3307   0.132   6.437   5.520
  803SOL    HW1 3308   0.229   6.413   5.516
  803SOL    HW2 3309   0.117   6.502   5.595
  804SOL     OW 3310   5.357   5.722   6.595
  804SOL    HW1 3311   5.259   5.718   6.615
  804SOL    HW2 3312   5.405   5.654   6.650
  805SOL     OW 3313   3.331   0.017   4.902
  805SOL    HW1 3314   3.296   0.070   4.825
  805SOL    HW2 3315   3.256   7.014   4.965
  806SOL     OW 3316   5.084   1.189   4.618
  806SOL    HW1 3317   5.151   1.158   4.684
  806SOL    HW2 3318   5.129   1.244   4.547
  807SOL     OW 3319   1.614   1.362   4.459
  807SOL    HW1 3320   1.543   1.374   4.388
  807SOL    HW2 3321   1.572   1.371   4.549
  808SOL     OW 3322   4.712   3.356   6.118
  808SOL    HW1 3323   4.626   3.343   6.168
  808SOL    HW2 3324   4.695   3.350   6.020
  809SOL     OW 3325   6.874   4.756   0.842
  809SOL    HW1 3326   6.964   4.785   0.807
  809SOL    HW2 3327   6.880   4.741   0.941
  810SOL     OW 3328   3.407   3.594   1.296
  810SOL    HW1 3329   3.411   3.666   1.227
  810SOL    HW2 3330   3.374   3.510   1.253
  811SOL     OW 3331   4.488   5.178   5.099
  811SOL    HW1 3332   4.475   5.228   5.014
  811SOL    HW2 3333   4.458   5.083   5.087
  812SOL     OW 3334   0.587   1.101   2.122
  812SOL    HW1 3335   0.491   1.080   2.104
  812SOL    HW2 3336   0.643   1.020   2.103
  813SOL     OW 3337   3.437   6.502   4.970
  813SOL    HW1 3338   3.524   6.455   4.983
  813SOL    HW2 3339   3.454   6.599   4.951
  814SOL     OW 3340   6.727   6.091   1.889
  814SOL    HW1 3341   6.694   6.037   1.966
  814SOL    HW2 3342   6.671   6.173   1.879
  815SOL     OW 3343   0.685   3.547   3.359
  815SOL    HW1 3344   0.629   3.469   3.389
  815SOL    HW2 3345   0.632   3.605   3.298
  816SOL     OW 3346   6.446   6.618   0.743
  816SOL    HW1 3347   6.447   6.548   0.671
  816SOL    HW2 3348   6.454   6.708   0.701
  817SOL     OW 3349   2.146   4.515   0.864
  817SOL    HW1 3350   2.186   4.455   0.794
  817SOL    HW2 3351   2.208   4.521   0.942
  818SOL     OW 3352   6.588   2.895   2.628
  818SOL    HW1 3353   6.553   2.989   2.628
  818SOL    HW2 3354   6.613   2.869   2.535
  819SOL     OW 3355   5.636   2.604   2.955
  819SOL    HW1 3356   5.655   2.702   2.958
  819SOL    HW2 3357   5.703   2.559   2.896
  820SOL     OW 3358   2.952   2.372   5.280
  820SOL    HW1 3359   3.042   2.399   5.246
  820SOL    HW2 3360   2.886   2.446   5.264
  821SOL     OW 3361   1.534   4.777   1.347
  821SOL    HW1 3362   1.569   4.787   1.254
  821SOL    HW2 3363   1.608   4.749   1.408
  822SOL     OW 3364   1.255   4.619   3.845
  822SOL    HW1 3365   1.191   4.696   3.852
  822SOL    HW2 3366   1.344   4.652   3.815
  823SOL     OW 3367   5.049   4.166   6.610
  823SOL    HW1 3368   5.090   4.075   6.623
  823SOL    HW2 3369   4.951   4.157   6.597
  824SOL     OW 3370   5.601   0.816   6.088
  824SOL    HW1 3371   5.695   0.849   6.091
  824SOL    HW2 3372   5.568   0.802   6.182
  825SOL     OW 3373   0.371   4.278   0.891
  825SOL    HW1 3374   0.416   4.250   0.806
  825SOL    HW2 3375   0.436   4.330   0.947
  826SOL     OW 3376   5.486   3.161   5.561
  826SOL    HW1 3377   5.407   3.165   5.499
  826SOL    HW2 3378   5.456   3.177   5.655
  827SOL     OW 3379   2.713   4.777   5.221
  827SOL    HW1 3380   2.768   4.811   5.297
  827SOL    HW2 3381   2.769   4.719   5.163
  828SOL     OW 3382   5.422   6.660   6.490
  828SOL    HW1 3383   5.448   6.674   6.394
  828SOL    HW2 3384   5.397   6.564   6.504
  829SOL     OW 3385   3.830   3.984   3.107
  829SOL    HW1 3386   3.868   4.058   3.163
  829SOL    HW2 3387   3.732   3.999   3.093
  830SOL     OW 3388   4.998   5.396   6.457
  830SOL    HW1 3389   4.899   5.387   6.470
  830SOL    HW2 3390   5.040   5.305   6.462
  831SOL     OW 3391   6.299   0.252   0.488
  831SOL    HW1 3392   6.363   0.224   0.417
  831SOL    HW2 3393   6.318   0.347   0.515
  832SOL     OW 3394   3.462   0.706   1.517
  832SOL    HW1 3395   3.422   0.724   1.607
  832SOL    HW2 3396   3.388   0.692   1.451
  833SOL     OW 3397   1.022   3.855   5.963
  833SOL    HW1 3398   0.931   3.871   5.923
  833SOL    HW2 3399   1.011   3.817   6.055
  834SOL     OW 3400   4.163   3.759   0.540
  834SOL    HW1 3401   4.139   3.686   0.604
  834SOL    HW2 3402   4.186   3.720   0.451
  835SOL     OW 3403   3.536   0.009   5.339
  835SOL    HW1 3404   3.561   0.029   5.244
  835SOL    HW2 3405   3.618   0.009   5.396
  836SOL     OW 3406   3.681   5.984   6.347
  836SOL    HW1 3407   3.768   6.004   6.303
  836SOL    HW2 3408   3.607   5.993   6.280
  837SOL     OW 3409   5.816   0.676   0.815
  837SOL    HW1 3410   5.764   0.672   0.900
  837SOL    HW2 3411   5.826   0.771   0.785
  838SOL     OW 3412   2.080   0.643   4.516
  838SOL    HW1 3413   1.986   0.637   4.482
  838SOL    HW2 3414   2.144   0.630   4.440
  839SOL     OW 3415   1.183   2.884   1.980
  839SOL    HW1 3416   1.227   2.800   2.012
  839SOL    HW2 3417   1.232   2.919   1.900
  840SOL     OW 3418   6.428   6.217   0.253
  840SOL    HW1 3419   6.396   6.138   0.200
  840SOL    HW2 3420   6.525   6.205   0.273
  841SOL     OW 3421   4.256   4.972   6.894
  841SOL    HW1 3422   4.164   4.993   6.861
  841SOL    HW2 3423   4.305   4.919   6.824
  842SOL     OW 3424   4.150   0.165   5.116
  842SOL    HW1 3425   4.175   0.171   5.213
  842SOL    HW2 3426   4.057   0.131   5.108
  843SOL     OW 3427   0.609   1.252   1.062
  843SOL    HW1 3428   0.708   1.265   1.071
  843SOL    HW2 3429   0.590   1.200   0.979
  844SOL     OW 3430   5.807   0.756   0.450
  844SOL    HW1 3431   5.790   0.854   0.460
  844SOL    HW2 3432   5.727   0.705   0.483
  845SOL     OW 3433   4.910   4.744   5.062
  845SOL    HW1 3434   4.965   4.749   5.146
  845SOL    HW2 3435   4.961   4.692   4.993
  846SOL     OW 3436   2.017   2.221   6.592
  846SOL    HW1 3437   1.954   2.210   6.669
  846SOL    HW2 3438   2.001   2.309   6.548
  847SOL     OW 3439   1.410   3.069   1.458
  847SOL    HW1 3440   1.347   3.040   1.531
  847SOL    HW2 3441   1.463   3.147   1.490
  848SOL     OW 3442   6.306   0.446   6.151
  848SOL    HW1 3443   6.404   0.441   6.130
  848SOL    HW2 3444   6.260   0.366   6.113
  849SOL     OW 3445   0.598   4.069   6.401
  849SOL    HW1 3446   0.573   4.073   6.304
  849SOL    HW2 3447   0.517   4.049   6.456
  850SOL     OW 3448   5.072   0.553   3.316
  850SOL    HW1 3449   5.142   0.539   3.246
  850SOL    HW2 3450   5.004   0.480   3.311
  851SOL     OW 3451   0.018   1.522   2.409
  851SOL    HW1 3452   0.033   1.574   2.493
  851SOL    HW2 3453   0.106   1.506   2.365
  852SOL     OW 3454   1.355   3.375   0.026
  852SOL    HW1 3455   1.454   3.377   0.043
  852SOL    HW2 3456   1.332   3.440   6.972
  853SOL     OW 3457   1.805   4.371   1.740
  853SOL    HW1 3458   1.748   4.452   1.722
  853SOL    HW2 3459   1.887   4.374   1.684
  854SOL     OW 3460   4.841   6.138   1.215
  854SOL    HW1 3461   4.911   6.209   1.207
  854SOL    HW2 3462   4.759   6.179   1.256
  855SOL     OW 3463   0.261   6.561   1.460
  855SOL    HW1 3464   0.305   6.648   1.479
  855SOL    HW2 3465   0.188   6.574   1.393
  856SOL     OW 3466   0.946   2.444   5.218
  856SOL    HW1 3467   0.956   2.491   5.130
  856SOL    HW2 3468   1.035   2.440   5.264
  857SOL     OW 3469   6.098   4.393   1.706
  857SOL    HW1 3470   6.186   4.391   1.658
  857SOL    HW2 3471   6.081   4.304   1.747
  858SOL     OW 3472   2.513   3.626   0.905
  858SOL    HW1 3473   2.548   3.662   0.818
  858SOL    HW2 3474   2.435   3.681   0.935
  859SOL     OW 3475   5.669   6.113   4.949
  859SOL    HW1 3476   5.609   6.193   4.952
  859SOL    HW2 3477   5.756   6.136   4.992
  860SOL     OW 3478   5.026   3.376   0.839
  860SOL    HW1 3479   5.118   3.352   0.872
  860SOL    HW2 3480   4.979   3.430   0.908
  861SOL     OW 3481   2.500   5.671   3.492
  861SOL    HW1 3482   2.531   5.647   3.400
  861SOL    HW2 3483   2.493   5.589   3.548
  862SOL     OW 3484   0.802   4.160   5.083
  862SOL    HW1 3485   0.712   4.130   5.051
  862SOL    HW2 3486   0.857   4.079   5.105
  863SOL     OW 3487   6.159   1.025   0.952
  863SOL    HW1 3488   6.103   0.954   0.993
  863SOL    HW2 3489   6.153   1.019   0.852
  864SOL     OW 3490   4.209   4.890   3.512
  864SOL    HW1 3491   4.161   4.872   3.426
  864SOL    HW2 3492   4.166   4.839   3.586
  865SOL     OW 3493   0.684   6.318   5.726
  865SOL    HW1 3494   0.738   6.348   5.805
  865SOL    HW2 3495   0.668   6.397   5.666
  866SOL     OW 3496   1.659   1.902   1.577
  866SOL    HW1 3497   1.720   1.973   1.612
  866SOL    HW2 3498   1.615   1.855   1.653
  867SOL     OW 3499   3.889   3.762   1.022
  867SOL    HW1 3500   3.804   3.776   1.072
  867SOL    HW2 3501   3.911   3.844   0.969
  868SOL     OW 3502   6.103   1.245   1.257
  868SOL    HW1 3503   6.179   1.233   1.321
  868SOL    HW2 3504   6.043   1.165   1.261
  869SOL     OW 3505   0.239   4.989   3.333
  869SOL    HW1 3506   0.308   4.916   3.329
  869SOL    HW2 3507   0.149   4.948   3.350
  870SOL     OW 3508   4.431   3.383   0.530
  870SOL    HW1 3509   4.463   3.469   0.491
  870SOL    HW2 3510   4.421   3.392   0.629
  871SOL     OW 3511   4.400   2.437   3.484
  871SOL    HW1 3512   4.355   2.428   3.573
  871SOL    HW2 3513   4.459   2.518   3.484
  872SOL     OW 3514   5.360   3.688   3.594
  872SOL    HW1 3515   5.452   3.674   3.557
  872SOL    HW2 3516   5.318   3.766   3.548
  873SOL     OW 3517   5.473   6.896   4.075
  873SOL    HW1 3518   5.425   6.832   4.015
  873SOL    HW2 3519   5.479   6.986   4.031
  874SOL     OW 3520   0.866   4.008   6.396
  874SOL    HW1 3521   0.766   4.017   6.401
  874SOL    HW2 3522   0.902   4.074   6.331
  875SOL     OW 3523   3.745   3.211   0.619
  875SOL    HW1 3524   3.645   3.209   0.612
  875SOL    HW2 3525   3.779   3.297   0.582
  876SOL     OW 3526   0.109   5.003   2.532
  876SOL    HW1 3527   0.062   5.086   2.562
  876SOL    HW2 3528   0.176   5.026   2.461
  877SOL     OW 3529   4.271   4.027   6.330
  877SOL    HW1 3530   4.219   4.086   6.267
  877SOL    HW2 3531   4.281   4.075   6.417
  878SOL     OW 3532   3.938   6.148   5.357
  878SOL    HW1 3533   3.896   6.112   5.273
  878SOL    HW2 3534   3.915   6.087   5.433
  879SOL     OW 3535   3.375   2.521   1.293
  879SOL    HW1 3536   3.352   2.606   1.245
  879SOL    HW2 3537   3.328   2.518   1.381
  880SOL     OW 3538   3.513   4.253   5.142
  880SOL    HW1 3539   3.542   4.264   5.238
  880SOL    HW2 3540   3.593   4.261   5.083
  881SOL     OW 3541   4.885   4.111   4.970
  881SOL    HW1 3542   4.818   4.155   5.031
  881SOL    HW2 3543   4.907   4.020   5.005
  882SOL     OW 3544   0.816   2.372   4.240
  882SOL    HW1 3545   0.806   2.340   4.334
  882SOL    HW2 3546   0.909   2.357   4.209
  883SOL     OW 3547   4.453   5.536   6.304
  883SOL    HW1 3548   4.391   5.538   6.381
  883SOL    HW2 3549   4.433   5.613   6.242
  884SOL     OW 3550   0.193   4.041   0.070
  884SOL    HW1 3551   0.258   4.039   0.147
  884SOL    HW2 3552   0.108   3.995   0.097
  885SOL     OW 3553   4.699   5.727   6.328
  885SOL    HW1 3554   4.747   5.658   6.273
  885SOL    HW2 3555   4.718   5.711   6.425
  886SOL     OW 3556   4.201   1.069   1.474
  886SOL    HW1 3557   4.104   1.093   1.485
  886SOL    HW2 3558   4.234   1.027   1.558
  887SOL     OW 3559   3.340   6.698   4.235
  887SOL    HW1 3560   3.303   6.754   4.161
  887SOL    HW2 3561   3.431   6.666   4.209
  888SOL     OW 3562   6.012   5.638   3.088
  888SOL    HW1 3563   5.917   5.646   3.116
  888SOL    HW2 3564   6.070   5.690   3.150
  889SOL     OW 3565   1.595   6.284   6.232
  889SOL    HW1 3566   1.670   6.257   6.171
  889SOL    HW2 3567   1.600   6.383   6.248
  890SOL     OW 3568   2.074   5.273   2.222
  890SOL    HW1 3569   2.171   5.261   2.244
  890SOL    HW2 3570   2.065   5.333   2.142
  891SOL     OW 3571   6.228   4.027   0.217
  891SOL    HW1 3572   6.289   3.950   0.196
  891SOL    HW2 3573   6.165   4.000   0.290
  892SOL     OW 3574   3.823   3.859   5.741
  892SOL    HW1 3575   3.849   3.770   5.703
  892SOL    HW2 3576   3.790   3.847   5.834
  893SOL     OW 3577   1.871   1.133   2.180
  893SOL    HW1 3578   1.842   1.104   2.271
  893SOL    HW2 3579   1.929   1.062   2.140
  894SOL     OW 3580   1.412   2.540   2.986
  894SOL    HW1 3581   1.327   2.486   2.987
  894SOL    HW2 3582   1.397   2.626   3.035
  895SOL     OW 3583   0.732   5.310   4.194
  895SOL    HW1 3584   0.814   5.328   4.248
  895SOL    HW2 3585   0.701   5.216   4.212
  896SOL     OW 3586   6.370   6.758   1.306
  896SOL    HW1 3587   6.419   6.708   1.378
  896SOL    HW2 3588   6.287   6.708   1.282
  897SOL     OW 3589   4.553   0.663   6.687
  897SOL    HW1 3590   4.571   0.718   6.606
  897SOL    HW2 3591   4.598   0.574   6.678
  898SOL     OW 3592   3.693   6.405   3.222
  898SOL    HW1 3593   3.699   6.365   3.313
  898SOL    HW2 3594   3.672   6.334   3.155
  899SOL     OW 3595   0.491   4.972   0.810
  899SOL    HW1 3596   0.587   4.944   0.819
  899SOL    HW2 3597   0.487   5.071   0.797
  900SOL     OW 3598   4.464   6.519   0.294
  900SOL    HW1 3599   4.462   6.568   0.381
  900SOL    HW2 3600   4.392   6.555   0.234
  901SOL     OW 3601   1.180   1.265   5.199
  901SOL    HW1 3602   1.156   1.169   5.213
  901SOL    HW2 3603   1.257   1.289   5.258
  902SOL     OW 3604   0.913   1.910   1.129
  902SOL    HW1 3605   0.968   1.859   1.196
  902SOL    HW2 3606   0.918   1.865   1.040
  903SOL     OW 3607   6.928   3.733   5.906
  903SOL    HW1 3608   6.892   3.805   5.965
  903SOL    HW2 3609   6.896   3.644   5.939
  904SOL     OW 3610   1.903   2.737   2.884
  904SOL    HW1 3611   1.927   2.653   2.933
  904SOL    HW2 3612   1.952   2.739   2.797
  905SOL     OW 3613   4.684   4.020   6.117
  905SOL    HW1 3614   4.618   3.947   6.102
  905SOL    HW2 3615   4.690   4.077   6.035
  906SOL     OW 3616   0.717   2.859   6.497
  906SOL    HW1 3617   0.769   2.774   6.498
  906SOL    HW2 3618   0.774   2.932   6.459
  907SOL     OW 3619   5.441   2.527   2.758
  907SOL    HW1 3620   5.490   2.567   2.835
  907SOL    HW2 3621   5.388   2.449   2.790
  908SOL     OW 3622   1.950   5.552   3.168
  908SOL    HW1 3623   1.932   5.577   3.073
  908SOL    HW2 3624   1.898   5.470   3.192
  909SOL     OW 3625   2.841   5.796   2.701
  909SOL    HW1 3626   2.821   5.767   2.795
  909SOL    HW2 3627   2.899   5.878   2.703
  910SOL     OW 3628   2.659   1.159   0.765
  910SOL    HW1 3629   2.648   1.063   0.740
  910SOL    HW2 3630   2.659   1.215   0.682
  911SOL     OW 3631   0.241   5.335   0.879
  911SOL    HW1 3632   0.173   5.394   0.835
  911SOL    HW2 3633   0.257   5.367   0.972
  912SOL     OW 3634   5.622   0.410   3.699
  912SOL    HW1 3635   5.591   0.493   3.653
  912SOL    HW2 3636   5.707   0.379   3.658
  913SOL     OW 3637   1.250   0.948   3.288
  913SOL    HW1 3638   1.201   0.896   3.218
  913SOL    HW2 3639   1.246   0.898   3.374
  914SOL     OW 3640   2.250   5.636   4.853
  914SOL    HW1 3641   2.331   5.590   4.889
  914SOL    HW2 3642   2.211   5.696   4.923
  915SOL     OW 3643   0.830   3.583   0.294
  915SOL    HW1 3644   0.831   3.484   0.308
  915SOL    HW2 3645   0.872   3.627   0.373
  916SOL     OW 3646   1.320   2.626   2.041
  916SOL    HW1 3647   1.290   2.548   2.096
  916SOL    HW2 3648   1.420   2.633   2.044
  917SOL     OW 3649   5.490   0.687   2.107
  917SOL    HW1 3650   5.540   0.733   2.180
  917SOL    HW2 3651   5.394   0.712   2.112
  918SOL     OW 3652   2.978   6.884   0.413
  918SOL    HW1 3653   3.052   6.897   0.479
  918SOL    HW2 3654   2.903   6.947   0.433
  919SOL     OW 3655   6.642   5.537   2.872
  919SOL    HW1 3656   6.593   5.450   2.875
  919SOL    HW2 3657   6.696   5.541   2.788
  920SOL     OW 3658   2.234   5.538   3.175
  920SOL    HW1 3659   2.135   5.539   3.160
  920SOL    HW2 3660   2.262   5.622   3.221
  921SOL     OW 3661   4.703   4.212   2.841
  921SOL    HW1 3662   4.752   4.139   2.794
  921SOL    HW2 3663   4.677   4.282   2.776
  922SOL     OW 3664   3.374   2.950   5.596
  922SOL    HW1 3665   3.359   3.026   5.658
  922SOL    HW2 3666   3.469   2.917   5.604
  923SOL     OW 3667   2.687   4.954   6.002
  923SOL    HW1 3668   2.784   4.929   5.995
  923SOL    HW2 3669   2.678   5.037   6.056
  924SOL     OW 3670   6.025   2.414   2.986
  924SOL    HW1 3671   5.960   2.416   2.909
  924SOL    HW2 3672   6.013   2.330   3.037
  925SOL     OW 3673   6.995   1.800   6.703
  925SOL    HW1 3674   0.040   1.860   6.753
  925SOL    HW2 3675   0.025   1.760   6.625
  926SOL     OW 3676   5.733   1.303   0.396
  926SOL    HW1 3677   5.645   1.339   0.428
  926SOL    HW2 3678   5.745   1.210   0.431
  927SOL     OW 3679   6.387   3.545   3.752
  927SOL    HW1 3680   6.325   3.570   3.678
  927SOL    HW2 3681   6.479   3.532   3.715
  928SOL     OW 3682   1.053   5.524   0.962
  928SOL    HW1 3683   1.126   5.476   0.913
  928SOL    HW2 3684   1.031   5.609   0.913
  929SOL     OW 3685   0.105   0.768   1.520
  929SOL    HW1 3686   0.183   0.830   1.514
  929SOL    HW2 3687   0.046   0.780   1.440
  930SOL     OW 3688   5.297   6.111   4.512
  930SOL    HW1 3689   5.208   6.110   4.557
  930SOL    HW2 3690   5.360   6.170   4.563
  931SOL     OW 3691   5.786   2.402   2.818
  931SOL    HW1 3692   5.787   2.433   2.723
  931SOL    HW2 3693   5.732   2.318   2.824
  932SOL     OW 3694   3.472   6.523   2.907
  932SOL    HW1 3695   3.516   6.545   2.994
  932SOL    HW2 3696   3.543   6.505   2.838
  933SOL     OW 3697   0.888   5.545   3.209
  933SOL    HW1 3698   0.796   5.565   3.176
  933SOL    HW2 3699   0.942   5.503   3.135
  934SOL     OW 3700   1.872   0.684   4.986
  934SOL    HW1 3701   1.792   0.738   5.008
  934SOL    HW2 3702   1.881   0.677   4.886
  935SOL     OW 3703   4.960   4.333   4.836
  935SOL    HW1 3704   4.949   4.263   4.906
  935SOL    HW2 3705   4.881   4.333   4.776
  936SOL     OW 3706   1.257   0.487   6.282
  936SOL    HW1 3707   1.277   0.487   6.379
  936SOL    HW2 3708   1.337   0.456   6.231
  937SOL     OW 3709   5.180   1.134   4.870
  937SOL    HW1 3710   5.165   1.045   4.911
  937SOL    HW2 3711   5.110   1.198   4.902
  938SOL     OW 3712   6.694   5.585   5.974
  938SOL    HW1 3713   6.674   5.548   5.883
  938SOL    HW2 3714   6.767   5.652   5.967
  939SOL     OW 3715   5.971   0.212   5.794
  939SOL    HW1 3716   5.964   0.309   5.815
  939SOL    HW2 3717   5.965   0.159   5.879
  940SOL     OW 3718   0.590   2.815   1.749
  940SOL    HW1 3719   0.595   2.725   1.706
  940SOL    HW2 3720   0.646   2.880   1.697
  941SOL     OW 3721   5.914   1.250   5.523
  941SOL    HW1 3722   5.925   1.256   5.424
  941SOL    HW2 3723   5.882   1.159   5.548
  942SOL     OW 3724   5.060   0.142   3.566
  942SOL    HW1 3725   5.086   0.046   3.577
  942SOL    HW2 3726   4.964   0.154   3.588
  943SOL     OW 3727   1.863   3.296   3.677
  943SOL    HW1 3728   1.766   3.319   3.680
  943SOL    HW2 3729   1.901   3.322   3.588
  944SOL     OW 3730   6.880   3.763   5.586
  944SOL    HW1 3731   6.915   3.748   5.679
  944SOL    HW2 3732   6.947   3.729   5.520
  945SOL     OW 3733   6.132   4.118   5.079
  945SOL    HW1 3734   6.222   4.108   5.036
  945SOL    HW2 3735   6.092   4.027   5.093
  946SOL     OW 3736   4.779   2.303   5.949
  946SOL    HW1 3737   4.726   2.342   5.873
  946SOL    HW2 3738   4.719   2.249   6.007
  947SOL     OW 3739   3.692   3.004   4.265
  947SOL    HW1 3740   3.788   2.976   4.268
  947SOL    HW2 3741   3.636   2.927   4.233
  948SOL     OW 3742   4.155   0.588   1.296
  948SOL    HW1 3743   4.250   0.566   1.275
  948SOL    HW2 3744   4.150   0.637   1.382
  949SOL     OW 3745   0.550   5.932   6.133
  949SOL    HW1 3746   0.568   5.906   6.038
  949SOL    HW2 3747   0.545   6.031   6.140
  950SOL     OW 3748   4.753   5.137   1.585
  950SOL    HW1 3749   4.664   5.099   1.561
  950SOL    HW2 3750   4.826   5.077   1.552
  951SOL     OW 3751   2.182   0.794   3.829
  951SOL    HW1 3752   2.223   0.812   3.740
  951SOL    HW2 3753   2.211   0.863   3.894
  952SOL     OW 3754   5.003   2.380   3.015
  952SOL    HW1 3755   4.917   2.342   3.049
  952SOL    HW2 3756   4.992   2.404   2.918
  953SOL     OW 3757   5.222   5.382   4.110
  953SOL    HW1 3758   5.133   5.363   4.068
  953SOL    HW2 3759   5.209   5.405   4.206
  954SOL     OW 3760   4.800   5.925   0.781
  954SOL    HW1 3761   4.889   5.969   0.792
  954SOL    HW2 3762   4.754   5.920   0.870
  955SOL     OW 3763   6.965   4.165   2.651
  955SOL    HW1 3764   6.956   4.104   2.730
  955SOL    HW2 3765   6.905   4.244   2.663
  956SOL     OW 3766   0.124   2.329   2.877
  956SOL    HW1 3767   0.204   2.311   2.820
  956SOL    HW2 3768   0.055   2.257   2.862
  957SOL     OW 3769   6.907   4.606   4.880
  957SOL    HW1 3770   6.914   4.704   4.865
  957SOL    HW2 3771   6.954   4.581   4.964
  958SOL     OW 3772   4.331   1.501   2.579
  958SOL    HW1 3773   4.354   1.552   2.496
  958SOL    HW2 3774   4.350   1.558   2.660
  959SOL     OW 3775   3.813   5.492   3.016
  959SOL    HW1 3776   3.756   5.518   2.938
  959SOL    HW2 3777   3.826   5.572   3.076
  960SOL     OW 3778   1.262   5.517   3.391
  960SOL    HW1 3779   1.315   5.434   3.406
  960SOL    HW2 3780   1.273   5.547   3.296
  961SOL     OW 3781   4.793   0.178   3.682
  961SOL    HW1 3782   4.721   0.245   3.664
  961SOL    HW2 3783   4.752   0.088   3.698
  962SOL     OW 3784   0.857   0.585   4.650
  962SOL    HW1 3785   0.848   0.519   4.724
  962SOL    HW2 3786   0.919   0.658   4.678
  963SOL     OW 3787   0.057   1.776   6.075
  963SOL    HW1 3788   0.034   1.873   6.076
  963SOL    HW2 3789   0.018   1.732   6.157
  964SOL     OW 3790   5.617   4.491   6.877
  964SOL    HW1 3791   5.675   4.437   6.816
  964SOL    HW2 3792   5.570   4.431   6.941
  965SOL     OW 3793   5.656   1.811   0.906
  965SOL    HW1 3794   5.622   1.796   0.813
  965SOL    HW2 3795   5.611   1.890   0.946
  966SOL     OW 3796   5.234   2.764   1.655
  966SOL    HW1 3797   5.329   2.731   1.656
  966SOL    HW2 3798   5.182   2.712   1.587
  967SOL     OW 3799   1.894   4.195   1.963
  967SOL    HW1 3800   1.888   4.262   1.889
  967SOL    HW2 3801   1.806   4.191   2.010
  968SOL     OW 3802   3.430   1.175   1.823
  968SOL    HW1 3803   3.409   1.118   1.902
  968SOL    HW2 3804   3.419   1.272   1.848
  969SOL     OW 3805   3.269   5.941   5.827
  969SOL    HW1 3806   3.347   5.905   5.878
  969SOL    HW2 3807   3.277   5.913   5.731
  970SOL     OW 3808   5.252   0.810   6.115
  970SOL    HW1 3809   5.194   0.866   6.057
  970SOL    HW2 3810   5.285   0.731   6.063
  971SOL     OW 3811   6.770   1.734   3.076
  971SOL    HW1 3812   6.720   1.812   3.039
  971SOL    HW2 3813   6.840   1.705   3.010
  972SOL     OW 3814   5.454   3.691   1.581
  972SOL    HW1 3815   5.429   3.746   1.501
  972SOL    HW2 3816   5.536   3.638   1.562
  973SOL     OW 3817   6.865   4.433   6.977
  973SOL    HW1 3818   6.865   4.373   6.897
  973SOL    HW2 3819   6.825   4.384   0.037
  974SOL     OW 3820   5.361   6.359   2.589
  974SOL    HW1 3821   5.449   6.350   2.541
  974SOL    HW2 3822   5.343   6.274   2.640
  975SOL     OW 3823   1.738   6.068   6.380
  975SOL    HW1 3824   1.704   6.151   6.425
  975SOL    HW2 3825   1.686   5.989   6.412
  976SOL     OW 3826   0.268   3.396   3.183
  976SOL    HW1 3827   0.334   3.331   3.146
  976SOL    HW2 3828   0.301   3.489   3.168
  977SOL     OW 3829   1.329   0.464   2.576
  977SOL    HW1 3830   1.394   0.499   2.509
  977SOL    HW2 3831   1.274   0.392   2.534
  978SOL     OW 3832   4.710   3.863   5.581
  978SOL    HW1 3833   4.694   3.794   5.511
  978SOL    HW2 3834   4.629   3.873   5.638
  979SOL     OW 3835   6.466   1.964   0.678
  979SOL    HW1 3836   6.542   2.026   0.658
  979SOL    HW2 3837   6.383   1.998   0.633
  980SOL     OW 3838   4.331   2.397   4.269
  980SOL    HW1 3839   4.367   2.340   4.343
  980SOL    HW2 3840   4.368   2.489   4.276
  981SOL     OW 3841   0.720   1.785   4.825
  981SOL    HW1 3842   0.664   1.719   4.775
  981SOL    HW2 3843   0.816   1.758   4.820
  982SOL     OW 3844   2.673   2.218   3.987
  982SOL    HW1 3845   2.657   2.213   3.888
  982SOL    HW2 3846   2.743   2.151   4.013
  983SOL     OW 3847   5.370   2.372   4.525
  983SOL    HW1 3848   5.352   2.352   4.621
  983SOL    HW2 3849   5.461   2.413   4.517
  984SOL     OW 3850   2.619   1.414   4.487
  984SOL    HW1 3851   2.526   1.379   4.498
  984SOL    HW2 3852   2.620   1.513   4.501
  985SOL     OW 3853   5.464   4.374   5.780
  985SOL    HW1 3854   5.550   4.385   5.729
  985SOL    HW2 3855   5.393   4.432   5.739
  986SOL     OW 3856   6.015   4.412   0.597
  986SOL    HW1 3857   5.953   4.423   0.519
  986SOL    HW2 3858   6.091   4.476   0.588
  987SOL     OW 3859   4.525   0.057   1.787
  987SOL    HW1 3860   4.519   6.991   1.840
  987SOL    HW2 3861   4.497   0.039   1.693
  988SOL     OW 3862   3.145   3.657   3.000
  988SOL    HW1 3863   3.221   3.719   3.022
  988SOL    HW2 3864   3.131   3.655   2.901
  989SOL     OW 3865   6.386   0.515   5.363
  989SOL    HW1 3866   6.313   0.450   5.338
  989SOL    HW2 3867   6.363   0.558   5.450
  990SOL     OW 3868   3.832   0.306   2.050
  990SOL    HW1 3869   3.862   0.211   2.046
  990SOL    HW2 3870   3.732   0.309   2.050
  991SOL     OW 3871   1.230   2.703   5.446
  991SOL    HW1 3872   1.295   2.703   5.369
  991SOL    HW2 3873   1.214   2.609   5.475
  992SOL     OW 3874   6.563   2.754   2.384
  992SOL    HW1 3875   6.528   2.833   2.333
  992SOL    HW2 3876   6.498   2.678   2.375
  993SOL     OW 3877   1.376   4.096   1.553
  993SOL    HW1 3878   1.438   4.175   1.561
  993SOL    HW2 3879   1.360   4.057   1.643
  994SOL     OW 3880   3.462   4.084   2.301
  994SOL    HW1 3881   3.371   4.077   2.342
  994SOL    HW2 3882   3.476   4.176   2.266
  995SOL     OW 3883   3.681   2.834   5.425
  995SOL    HW1 3884   3.645   2.745   5.450
  995SOL    HW2 3885   3.774   2.824   5.389
  996SOL     OW 3886   2.835   4.862   4.064
  996SOL    HW1 3887   2.882   4.872   4.151
  996SOL    HW2 3888   2.793   4.771   4.059
  997SOL     OW 3889   1.247   1.215   3.148
  997SOL    HW1 3890   1.292   1.212   3.058
  997SOL    HW2 3891   1.233   1.122   3.182
  998SOL     OW 3892   4.637   0.515   4.271
  998SOL    HW1 3893   4.610   0.421   4.250
  998SOL    HW2 3894   4.630   0.530   4.370
  999SOL     OW 3895   5.123   4.723   2.431
  999SOL    HW1 3896   5.103   4.644   2.373
  999SOL    HW2 3897   5.188   4.783   2.384
 1000SOL     OW 3898   2.379   1.115   2.203
 1000SOL    HW1 3899   2.320   1.196   2.205
 1000SOL    HW2 3900   2.474   1.143   2.188
 1001SOL     OW 3901   5.231   6.531   0.417
 1001SOL    HW1 3902   5.299   6.517   0.344
 1001SOL    HW2 3903   5.155   6.585   0.381
 1002SOL     OW 3904   5.957   1.778   0.568
 1002SOL    HW1 3905   5.991   1.771   0.475
 1002SOL    HW2 3906   5.998   1.706   0.624
 1003SOL     OW 3907   2.164   6.014   2.080
 1003SOL    HW1 3908   2.239   5.949   2.093
 1003SOL    HW2 3909   2.089   5.969   2.032
 1004SOL     OW 3910   0.415   6.918   2.192
 1004SOL    HW1 3911   0.376   6.829   2.167
 1004SOL    HW2 3912   0.342   6.978   2.224
 1005SOL     OW 3913   2.242   2.898   3.893
 1005SOL    HW1 3914   2.297   2.828   3.848
 1005SOL    HW2 3915   2.228   2.873   3.989
 1006SOL     OW 3916   1.418   4.559   1.032
 1006SOL    HW1 3917   1.460   4.648   1.049
 1006SOL    HW2 3918   1.490   4.492   1.009
 1007SOL     OW 3919   4.585   0.285   5.418
 1007SOL    HW1 3920   4.561   0.195   5.381
 1007SOL    HW2 3921   4.537   0.356   5.368
 1008SOL     OW 3922   1.518   2.901   4.947
 1008SOL    HW1 3923   1.578   2.820   4.945
 1008SOL    HW2 3924   1.427   2.874   4.976
 1009SOL     OW 3925   0.279   5.650   4.940
 1009SOL    HW1 3926   0.262   5.611   5.031
 1009SOL    HW2 3927   0.223   5.733   4.929
 1010SOL     OW 3928   3.567   2.737   5.687
 1010SOL    HW1 3929   3.561   2.661   5.751
 1010SOL    HW2 3930   3.660   2.776   5.690
 1011SOL     OW 3931   2.301   5.176   2.371
 1011SOL    HW1 3932   2.292   5.229   2.455
 1011SOL    HW2 3933   2.283   5.080   2.389
 1012SOL     OW 3934   6.798   0.263   1.349
 1012SOL    HW1 3935   6.724   0.302   1.403
 1012SOL    HW2 3936   6.803   0.309   1.260
 1013SOL     OW 3937   0.978   1.045   5.449
 1013SOL    HW1 3938   0.914   1.032   5.373
 1013SOL    HW2 3939   0.989   0.959   5.499
 1014SOL     OW 3940   5.429   5.984   6.597
 1014SOL    HW1 3941   5.335   6.018   6.591
 1014SOL    HW2 3942   5.430   5.885   6.584
 1015SOL     OW 3943   2.945   6.505   5.698
 1015SOL    HW1 3944   2.955   6.526   5.601
 1015SOL    HW2 3945   2.924   6.408   5.710
 1016SOL     OW 3946   4.071   3.615   6.868
 1016SOL    HW1 3947   4.168   3.592   6.871
 1016SOL    HW2 3948   4.027   3.565   6.794
 1017SOL     OW 3949   4.049   2.723   1.381
 1017SOL    HW1 3950   4.063   2.660   1.304
 1017SOL    HW2 3951   4.081   2.680   1.465
 1018SOL     OW 3952   0.469   3.762   4.522
 1018SOL    HW1 3953   0.439   3.667   4.511
 1018SOL    HW2 3954   0.471   3.785   4.619
 1019SOL     OW 3955   6.948   6.799   1.358
 1019SOL    HW1 3956   6.912   6.891   1.341
 1019SOL    HW2 3957   6.933   6.742   1.277
 1020SOL     OW 3958   0.575   0.645   1.602
 1020SOL    HW1 3959   0.614   0.735   1.580
 1020SOL    HW2 3960   0.555   0.596   1.517
 1021SOL     OW 3961   4.979   6.775   1.422
 1021SOL    HW1 3962   4.945   6.823   1.502
 1021SOL    HW2 3963   5.068   6.813   1.396
 1022SOL     OW 3964   4.103   4.895   5.533
 1022SOL    HW1 3965   4.106   4.931   5.440
 1022SOL    HW2 3966   4.178   4.934   5.586
 1023SOL     OW 3967   0.881   6.556   2.733
 1023SOL    HW1 3968   0.950   6.614   2.777
 1023SOL    HW2 3969   0.847   6.601   2.650
 1024SOL     OW 3970   0.059   2.171   4.322
 1024SOL    HW1 3971   0.091   2.245   4.263
 1024SOL    HW2 3972   0.022   2.097   4.265
 1025SOL     OW 3973   2.547   2.630   1.134
 1025SOL    HW1 3974   2.619   2.564   1.155
 1025SOL    HW2 3975   2.529   2.631   1.036
 1026SOL     OW 3976   2.078   2.922   1.292
 1026SOL    HW1 3977   2.043   3.000   1.241
 1026SOL    HW2 3978   2.081   2.841   1.233
 1027SOL     OW 3979   3.141   6.429   1.555
 1027SOL    HW1 3980   3.154   6.479   1.470
 1027SOL    HW2 3981   3.091   6.344   1.537
 1028SOL     OW 3982   3.151   6.089   0.323
 1028SOL    HW1 3983   3.058   6.127   0.320
 1028SOL    HW2 3984   3.174   6.063   0.416
 1029SOL     OW 3985   2.061   6.841   0.067
 1029SOL    HW1 3986   2.074   6.855   6.987
 1029SOL    HW2 3987   1.983   6.895   0.098
 1030SOL     OW 3988   2.938   3.252   1.932
 1030SOL    HW1 3989   2.993   3.324   1.889
 1030SOL    HW2 3990   2.876   3.212   1.865
 1031SOL     OW 3991   5.217   4.794   0.771
 1031SOL    HW1 3992   5.131   4.770   0.818
 1031SOL    HW2 3993   5.246   4.717   0.714
 1032SOL     OW 3994   2.216   1.855   4.752
 1032SOL    HW1 3995   2.316   1.859   4.755
 1032SOL    HW2 3996   2.178   1.915   4.822
 1033SOL     OW 3997   1.663   6.638   0.909
 1033SOL    HW1 3998   1.712   6.701   0.848
 1033SOL    HW2 3999   1.696   6.545   0.892
 1034SOL     OW 4000   0.514   5.292   4.959
 1034SOL    HW1 4001   0.551   5.380   4.988
 1034SOL    HW2 4002   0.438   5.307   4.895
 1035SOL     OW 4003   0.591   0.981   4.828
 1035SOL    HW1 4004   0.611   0.934   4.742
 1035SOL    HW2 4005   0.628   0.929   4.904
 1036SOL     OW 4006   3.397   1.045   2.062
 1036SOL    HW1 4007   3.488   1.041   2.104
 1036SOL    HW2 4008   3.330   1.070   2.131
 1037SOL     OW 4009   1.520   0.993   1.762
 1037SOL    HW1 4010   1.600   0.944   1.726
 1037SOL    HW2 4011   1.535   1.016   1.858
 1038SOL     OW 4012   1.172   0.109   5.018
 1038SOL    HW1 4013   1.186   0.172   4.942
 1038SOL    HW2 4014   1.175   0.015   4.984
 1039SOL     OW 4015   3.401   3.547   5.865
 1039SOL    HW1 4016   3.326   3.612   5.876
 1039SOL    HW2 4017   3.454   3.570   5.784
 1040SOL     OW 4018   4.933   2.941   2.565
 1040SOL    HW1 4019   4.972   2.917   2.476
 1040SOL    HW2 4020   4.943   2.863   2.627
 1041SOL     OW 4021   6.913   7.009   3.503
 1041SOL    HW1 4022   6.835   6.968   3.457
 1041SOL    HW2 4023   6.953   6.943   3.567
 1042SOL     OW 4024   4.747   5.209   2.411
 1042SOL    HW1 4025   4.734   5.139   2.481
 1042SOL    HW2 4026   4.765   5.297   2.454
 1043SOL     OW 4027   3.714   1.436   5.204
 1043SOL    HW1 4028   3.626   1.390   5.209
 1043SOL    HW2 4029   3.700   1.531   5.175
 1044SOL     OW 4030   5.501   4.450   2.532
 1044SOL    HW1 4031   5.600   4.448   2.518
 1044SOL    HW2 4032   5.462   4.528   2.484
 1045SOL     OW 4033   4.460   6.265   2.241
 1045SOL    HW1 4034   4.419   6.356   2.236
 1045SOL    HW2 4035   4.402   6.199   2.192
 1046SOL     OW 4036   1.332   0.527   0.363
 1046SOL    HW1 4037   1.394   0.595   0.402
 1046SOL    HW2 4038   1.238   0.548   0.390
 1047SOL     OW 4039   1.703   1.213   3.247
 1047SOL    HW1 4040   1.645   1.137   3.218
 1047SOL    HW2 4041   1.761   1.184   3.323
 1048SOL     OW 4042   5.393   6.367   4.108
 1048SOL    HW1 4043   5.343   6.448   4.137
 1048SOL    HW2 4044   5.366   6.289   4.165
 1049SOL     OW 4045   6.350   6.113   4.130
 1049SOL    HW1 4046   6.339   6.135   4.227
 1049SOL    HW2 4047   6.269   6.065   4.097
 1050SOL     OW 4048   4.438   5.298   0.951
 1050SOL    HW1 4049   4.493   5.372   0.988
 1050SOL    HW2 4050   4.472   5.273   0.860
 1051SOL     OW 4051   2.689   5.612   0.951
 1051SOL    HW1 4052   2.766   5.597   0.888
 1051SOL    HW2 4053   2.695   5.547   1.027
 1052SOL     OW 4054   3.778   0.448   4.798
 1052SOL    HW1 4055   3.825   0.533   4.774
 1052SOL    HW2 4056   3.742   0.405   4.715
 1053SOL     OW 4057   5.673   4.885   3.284
 1053SOL    HW1 4058   5.764   4.908   3.321
 1053SOL    HW2 4059   5.642   4.960   3.225
 1054SOL     OW 4060   2.900   4.004   5.896
 1054SOL    HW1 4061   2.989   4.027   5.856
 1054SOL    HW2 4062   2.869   4.079   5.955
 1055SOL     OW 4063   4.277   0.067   4.574
 1055SOL    HW1 4064   4.243   0.157   4.604
 1055SOL    HW2 4065   4.202   0.016   4.532
 1056SOL     OW 4066   1.988   5.197   6.254
 1056SOL    HW1 4067   2.027   5.138   6.325
 1056SOL    HW2 4068   1.897   5.227   6.281
 1057SOL     OW 4069   3.119   3.495   2.072
 1057SOL    HW1 4070   3.043   3.434   2.093
 1057SOL    HW2 4071   3.130   3.501   1.972
 1058SOL     OW 4072   4.486   1.497   3.374
 1058SOL    HW1 4073   4.483   1.539   3.465
 1058SOL    HW2 4074   4.421   1.421   3.371
 1059SOL     OW 4075   2.428   6.806   1.112
 1059SOL    HW1 4076   2.392   6.792   1.204
 1059SOL    HW2 4077   2.528   6.799   1.114
 1060SOL     OW 4078   0.072   4.544   4.342
 1060SOL    HW1 4079   0.140   4.499   4.401
 1060SOL    HW2 4080   0.062   4.640   4.369
 1061SOL     OW 4081   5.669   3.830   1.057
 1061SOL    HW1 4082   5.716   3.807   0.972
 1061SOL    HW2 4083   5.573   3.847   1.039
 1062SOL     OW 4084   5.810   4.007   6.416
 1062SOL    HW1 4085   5.786   3.911   6.434
 1062SOL    HW2 4086   5.739   4.048   6.359
 1063SOL     OW 4087   1.897   5.038   2.296
 1063SOL    HW1 4088   1.950   5.119   2.273
 1063SOL    HW2 4089   1.801   5.063   2.312
 1064SOL     OW 4090   1.579   3.735   1.729
 1064SOL    HW1 4091   1.581   3.769   1.635
 1064SOL    HW2 4092   1.536   3.644   1.731
 1065SOL     OW 4093   3.755   0.128   3.831
 1065SOL    HW1 4094   3.682   0.193   3.855
 1065SOL    HW2 4095   3.794   0.153   3.742
 1066SOL     OW 4096   4.667   0.439   3.842
 1066SOL    HW1 4097   4.674   0.538   3.834
 1066SOL    HW2 4098   4.644   0.415   3.936
 1067SOL     OW 4099   0.563   3.651   0.991
 1067SOL    HW1 4100   0.617   3.567   0.991
 1067SOL    HW2 4101   0.479   3.636   1.043
 1068SOL     OW 4102   5.525   5.125   2.822
 1068SOL    HW1 4103   5.436   5.117   2.779
 1068SOL    HW2 4104   5.579   5.195   2.775
 1069SOL     OW 4105   4.394   4.858   0.782
 1069SOL    HW1 4106   4.302   4.826   0.804
 1069SOL    HW2 4107   4.445   4.785   0.736
 1070SOL     OW 4108   0.239   0.083   2.302
 1070SOL    HW1 4109   0.183   0.162   2.277
 1070SOL    HW2 4110   0.283   0.100   2.390
 1071SOL     OW 4111   1.523   0.982   3.154
 1071SOL    HW1 4112   1.459   1.018   3.221
 1071SOL    HW2 4113   1.533   0.884   3.167
 1072SOL     OW 4114   2.239   0.645   0.579
 1072SOL    HW1 4115   2.194   0.586   0.647
 1072SOL    HW2 4116   2.328   0.674   0.614
 1073SOL     OW 4117   4.837   0.111   1.484
 1073SOL    HW1 4118   4.887   0.108   1.397
 1073SOL    HW2 4119   4.848   0.025   1.532
 1074SOL     OW 4120   2.423   5.725   0.871
 1074SOL    HW1 4121   2.377   5.646   0.912
 1074SOL    HW2 4122   2.521   5.709   0.870
 1075SOL     OW 4123   4.650   6.856   4.390
 1075SOL    HW1 4124   4.711   6.777   4.388
 1075SOL    HW2 4125   4.697   6.935   4.352
 1076SOL     OW 4126   6.889   2.846   5.801
 1076SOL    HW1 4127   6.908   2.805   5.712
 1076SOL    HW2 4128   6.864   2.942   5.789
 1077SOL     OW 4129   5.658   0.438   1.362
 1077SOL    HW1 4130   5.623   0.450   1.269
 1077SOL    HW2 4131   5.581   0.440   1.427
 1078SOL     OW 4132   1.163   1.459   2.698
 1078SOL    HW1 4133   1.068   1.480   2.721
 1078SOL    HW2 4134   1.180   1.480   2.602
 1079SOL     OW 4135   2.296   6.210   2.617
 1079SOL    HW1 4136   2.224   6.265   2.574
 1079SOL    HW2 4137   2.289   6.115   2.584
 1080SOL     OW 4138   0.962   4.233   4.009
 1080SOL    HW1 4139   1.014   4.270   4.085
 1080SOL    HW2 4140   1.024   4.197   3.939
 1081SOL     OW 4141   6.947   5.716   5.948
 1081SOL    HW1 4142   7.006   5.698   6.026
 1081SOL    HW2 4143   6.928   5.814   5.942
 1082SOL     OW 4144   4.003   1.984   5.651
 1082SOL    HW1 4145   3.977   2.051   5.720
 1082SOL    HW2 4146   3.923   1.929   5.627
 1083SOL     OW 4147   4.406   3.834   7.018
 1083SOL    HW1 4148   4.316   3.794   0.016
 1083SOL    HW2 4149   4.470   3.763   6.990
 1084SOL     OW 4150   5.861   6.180   6.913
 1084SOL    HW1 4151   5.822   6.138   6.831
 1084SOL    HW2 4152   5.924   6.115   6.957
 1085SOL     OW 4153   1.294   3.759   4.403
 1085SOL    HW1 4154   1.329   3.845   4.440
 1085SOL    HW2 4155   1.239   3.778   4.321
 1086SOL     OW 4156   6.584   6.245   1.150
 1086SOL    HW1 4157   6.623   6.313   1.087
 1086SOL    HW2 4158   6.656   6.210   1.210
 1087SOL     OW 4159   5.452   2.105   5.029
 1087SOL    HW1 4160   5.513   2.173   5.071
 1087SOL    HW2 4161   5.362   2.110   5.073
 1088SOL     OW 4162   6.387   4.298   3.451
 1088SOL    HW1 4163   6.303   4.323   3.403
 1088SOL    HW2 4164   6.368   4.221   3.513
 1089SOL     OW 4165   1.406   6.301   4.315
 1089SOL    HW1 4166   1.478   6.247   4.271
 1089SOL    HW2 4167   1.417   6.297   4.414
 1090SOL     OW 4168   2.121   1.808   3.585
 1090SOL    HW1 4169   2.097   1.898   3.621
 1090SOL    HW2 4170   2.039   1.752   3.578
 1091SOL     OW 4171   2.683   2.352   5.568
 1091SOL    HW1 4172   2.762   2.292   5.555
 1091SOL    HW2 4173   2.600   2.307   5.534
 1092SOL     OW 4174   1.970   4.302   1.127
 1092SOL    HW1 4175   1.973   4.214   1.080
 1092SOL    HW2 4176   2.042   4.361   1.091
 1093SOL     OW 4177   1.911   1.459   2.145
 1093SOL    HW1 4178   1.859   1.457   2.230
 1093SOL    HW2 4179   1.993   1.402   2.154
 1094SOL     OW 4180   0.898   6.768   3.385
 1094SOL    HW1 4181   0.894   6.732   3.478
 1094SOL    HW2 4182   0.813   6.745   3.337
 1095SOL     OW 4183   0.477   2.833   6.831
 1095SOL    HW1 4184   0.436   2.797   6.747
 1095SOL    HW2 4185   0.574   2.853   6.814
 1096SOL     OW 4186   3.411   4.483   1.708
 1096SOL    HW1 4187   3.461   4.398   1.692
 1096SOL    HW2 4188   3.467   4.545   1.763
 1097SOL     OW 4189   2.039   4.352   4.175
 1097SOL    HW1 4190   2.120   4.303   4.206
 1097SOL    HW2 4191   1.961   4.327   4.233
 1098SOL     OW 4192   4.510   3.660   0.465
 1098SOL    HW1 4193   4.507   3.738   0.403
 1098SOL    HW2 4194   4.590   3.604   0.446
 1099SOL     OW 4195   4.713   1.642   5.263
 1099SOL    HW1 4196   4.720   1.706   5.339
 1099SOL    HW2 4197   4.644   1.675   5.198
 1100SOL     OW 4198   3.280   2.149   6.058
 1100SOL    HW1 4199   3.351   2.106   6.114
 1100SOL    HW2 4200   3.273   2.100   5.970
 1101SOL     OW 4201   5.973   2.271   6.872
 1101SOL    HW1 4202   5.976   2.201   6.944
 1101SOL    HW2 4203   5.980   2.362   6.915
 1102SOL     OW 4204   0.665   6.024   4.817
 1102SOL    HW1 4205   0.574   6.065   4.803
 1102SOL    HW2 4206   0.662   5.928   4.790
 1103SOL     OW 4207   3.610   2.050   1.098
 1103SOL    HW1 4208   3.675   1.975   1.083
 1103SOL    HW2 4209   3.565   2.071   1.011
 1104SOL     OW 4210   2.286   2.943   5.351
 1104SOL    HW1 4211   2.359   2.973   5.290
 1104SOL    HW2 4212   2.325   2.898   5.431
 1105SOL     OW 4213   6.493   3.685   4.864
 1105SOL    HW1 4214   6.414   3.624   4.863
 1105SOL    HW2 4215   6.516   3.709   4.958
 1106SOL     OW 4216   0.643   1.780   1.733
 1106SOL    HW1 4217   0.560   1.754   1.684
 1106SOL    HW2 4218   0.686   1.698   1.771
 1107SOL     OW 4219   1.764   0.357   6.471
 1107SOL    HW1 4220   1.677   0.317   6.497
 1107SOL    HW2 4221   1.831   0.342   6.543
 1108SOL     OW 4222   3.882   0.377   5.566
 1108SOL    HW1 4223   3.929   0.310   5.624
 1108SOL    HW2 4224   3.790   0.393   5.601
 1109SOL     OW 4225   4.580   0.597   4.533
 1109SOL    HW1 4226   4.481   0.593   4.516
 1109SOL    HW2 4227   4.601   0.678   4.589
 1110SOL     OW 4228   2.489   1.954   3.515
 1110SOL    HW1 4229   2.483   2.009   3.432
 1110SOL    HW2 4230   2.433   1.872   3.505
 1111SOL     OW 4231   4.850   5.464   5.840
 1111SOL    HW1 4232   4.821   5.370   5.861
 1111SOL    HW2 4233   4.949   5.470   5.846
 1112SOL     OW 4234   5.194   1.501   2.362
 1112SOL    HW1 4235   5.262   1.482   2.433
 1112SOL    HW2 4236   5.102   1.499   2.402
 1113SOL     OW 4237   7.012   3.610   2.366
 1113SOL    HW1 4238   0.076   3.573   2.323
 1113SOL    HW2 4239   7.008   3.709   2.351
 1114SOL     OW 4240   3.856   1.758   6.578
 1114SOL    HW1 4241   3.914   1.687   6.539
 1114SOL    HW2 4242   3.784   1.782   6.513
 1115SOL     OW 4243   4.100   3.468   0.411
 1115SOL    HW1 4244   4.141   3.379   0.432
 1115SOL    HW2 4245   4.172   3.538   0.409
 1116SOL     OW 4246   4.900   6.828   5.189
 1116SOL    HW1 4247   4.998   6.826   5.170
 1116SOL    HW2 4248   4.872   6.922   5.209
 1117SOL     OW 4249   1.174   2.398   2.188
 1117SOL    HW1 4250   1.076   2.400   2.168
 1117SOL    HW2 4251   1.222   2.348   2.115
 1118SOL     OW 4252   2.587   4.657   1.254
 1118SOL    HW1 4253   2.519   4.709   1.306
 1118SOL    HW2 4254   2.635   4.594   1.315
 1119SOL     OW 4255   4.353   4.532   0.350
 1119SOL    HW1 4256   4.293   4.534   0.430
 1119SOL    HW2 4257   4.408   4.449   0.351
 1120SOL     OW 4258   6.002   6.905   5.112
 1120SOL    HW1 4259   6.024   6.838   5.041
 1120SOL    HW2 4260   6.048   6.879   5.197
 1121SOL     OW 4261   5.080   5.048   2.976
 1121SOL    HW1 4262   5.176   5.040   2.948
 1121SOL    HW2 4263   5.039   5.128   2.933
 1122SOL     OW 4264   5.437   3.573   6.825
 1122SOL    HW1 4265   5.399   3.601   6.914
 1122SOL    HW2 4266   5.364   3.568   6.758
 1123SOL     OW 4267   5.172   1.297   3.069
 1123SOL    HW1 4268   5.156   1.199   3.082
 1123SOL    HW2 4269   5.261   1.322   3.106
 1124SOL     OW 4270   6.630   3.557   5.584
 1124SOL    HW1 4271   6.548   3.508   5.615
 1124SOL    HW2 4272   6.711   3.518   5.629
 1125SOL     OW 4273   3.379   1.654   4.929
 1125SOL    HW1 4274   3.286   1.668   4.963
 1125SOL    HW2 4275   3.377   1.634   4.831
 1126SOL     OW 4276   6.090   4.984   6.787
 1126SOL    HW1 4277   6.172   5.002   6.841
 1126SOL    HW2 4278   6.060   4.890   6.801
 1127SOL     OW 4279   5.033   5.310   4.531
 1127SOL    HW1 4280   5.037   5.239   4.461
 1127SOL    HW2 4281   5.112   5.302   4.592
 1128SOL     OW 4282   5.589   1.971   5.257
 1128SOL    HW1 4283   5.533   2.002   5.179
 1128SOL    HW2 4284   5.637   2.050   5.295
 1129SOL     OW 4285   3.225   0.715   6.956
 1129SOL    HW1 4286   3.157   0.733   6.886
 1129SOL    HW2 4287   3.313   0.695   6.913
 1130SOL     OW 4288   2.587   4.975   0.438
 1130SOL    HW1 4289   2.622   4.885   0.465
 1130SOL    HW2 4290   2.491   4.984   0.468
 1131SOL     OW 4291   6.982   6.285   6.161
 1131SOL    HW1 4292   0.043   6.316   6.214
 1131SOL    HW2 4293   6.974   6.340   6.078
 1132SOL     OW 4294   5.394   0.240   1.292
 1132SOL    HW1 4295   5.464   0.172   1.314
 1132SOL    HW2 4296   5.327   0.243   1.366
 1133SOL     OW 4297   0.840   0.484   1.012
 1133SOL    HW1 4298   0.769   0.526   0.956
 1133SOL    HW2 4299   0.853   0.539   1.095
 1134SOL     OW 4300   5.374   1.123   1.620
 1134SOL    HW1 4301   5.408   1.030   1.607
 1134SOL    HW2 4302   5.451   1.184   1.639
 1135SOL     OW 4303   2.349   1.329   2.714
 1135SOL    HW1 4304   2.336   1.242   2.667
 1135SOL    HW2 4305   2.269   1.348   2.771
 1136SOL     OW 4306   3.159   4.952   4.436
 1136SOL    HW1 4307   3.113   4.884   4.493
 1136SOL    HW2 4308   3.161   4.920   4.342
 1137SOL     OW 4309   0.967   1.442   6.246
 1137SOL    HW1 4310   0.963   1.365   6.309
 1137SOL    HW2 4311   0.932   1.414   6.157
 1138SOL     OW 4312   0.193   1.040   6.400
 1138SOL    HW1 4313   0.243   1.125   6.386
 1138SOL    HW2 4314   0.211   0.978   6.323
 1139SOL     OW 4315   3.774   5.184   1.555
 1139SOL    HW1 4316   3.758   5.127   1.474
 1139SOL    HW2 4317   3.693   5.240   1.574
 1140SOL     OW 4318   4.250   1.088   2.006
 1140SOL    HW1 4319   4.181   1.120   2.071
 1140SOL    HW2 4320   4.333   1.061   2.055
 1141SOL     OW 4321   0.244   6.431   6.601
 1141SOL    HW1 4322   0.188   6.353   6.571
 1141SOL    HW2 4323   0.322   6.397   6.653
 1142SOL     OW 4324   2.924   0.169   4.848
 1142SOL    HW1 4325   2.937   0.254   4.899
 1142SOL    HW2 4326   2.951   0.182   4.753
 1143SOL     OW 4327   1.671   3.459   2.505
 1143SOL    HW1 4328   1.579   3.494   2.525
 1143SOL    HW2 4329   1.703   3.498   2.418
 1144SOL     OW 4330   6.545   5.054   5.325
 1144SOL    HW1 4331   6.575   5.052   5.230
 1144SOL    HW2 4332   6.483   5.131   5.340
 1145SOL     OW 4333   0.154   3.939   2.112
 1145SOL    HW1 4334   0.183   3.880   2.038
 1145SOL    HW2 4335   0.193   4.031   2.099
 1146SOL     OW 4336   6.281   0.898   2.307
 1146SOL    HW1 4337   6.304   0.949   2.223
 1146SOL    HW2 4338   6.365   0.859   2.345
 1147SOL     OW 4339   2.356   5.391   1.249
 1147SOL    HW1 4340   2.348   5.297   1.280
 1147SOL    HW2 4341   2.452   5.419   1.252
 1148SOL     OW 4342   4.858   6.956   0.695
 1148SOL    HW1 4343   4.777   6.934   0.640
 1148SOL    HW2 4344   4.853   6.909   0.782
 1149SOL     OW 4345   6.589   4.188   2.755
 1149SOL    HW1 4346   6.649   4.247   2.701
 1149SOL    HW2 4347   6.591   4.095   2.717
 1150SOL     OW 4348   2.868   3.945   0.577
 1150SOL    HW1 4349   2.848   3.851   0.553
 1150SOL    HW2 4350   2.966   3.962   0.565
 1151SOL     OW 4351   4.260   5.442   6.853
 1151SOL    HW1 4352   4.306   5.355   6.869
 1151SOL    HW2 4353   4.328   5.516   6.849
 1152SOL     OW 4354   6.209   4.692   5.988
 1152SOL    HW1 4355   6.156   4.768   5.950
 1152SOL    HW2 4356   6.262   4.648   5.914
 1153SOL     OW 4357   2.353   0.079   1.497
 1153SOL    HW1 4358   2.271   0.131   1.472
 1153SOL    HW2 4359   2.415   0.074   1.419
 1154SOL     OW 4360   0.660   4.258   1.545
 1154SOL    HW1 4361   0.635   4.346   1.586
 1154SOL    HW2 4362   0.646   4.262   1.446
 1155SOL     OW 4363   2.214   5.456   6.450
 1155SOL    HW1 4364   2.177   5.520   6.383
 1155SOL    HW2 4365   2.266   5.506   6.519
 1156SOL     OW 4366   3.038   1.671   4.477
 1156SOL    HW1 4367   3.073   1.599   4.417
 1156SOL    HW2 4368   3.110   1.739   4.491
 1157SOL     OW 4369   5.805   0.549   5.612
 1157SOL    HW1 4370   5.816   0.648   5.600
 1157SOL    HW2 4371   5.885   0.502   5.577
 1158SOL     OW 4372   6.638   5.552   5.386
 1158SOL    HW1 4373   6.655   5.458   5.357
 1158SOL    HW2 4374   6.696   5.614   5.333
 1159SOL     OW 4375   6.251   0.011   4.217
 1159SOL    HW1 4376   6.252   0.031   4.315
 1159SOL    HW2 4377   6.208   6.939   4.203
 1160SOL     OW 4378   3.943   3.780   1.341
 1160SOL    HW1 4379   3.974   3.774   1.246
 1160SOL    HW2 4380   3.845   3.797   1.344
 1161SOL     OW 4381   6.482   0.565   6.653
 1161SOL    HW1 4382   6.487   0.602   6.560
 1161SOL    HW2 4383   6.396   0.591   6.695
 1162SOL     OW 4384   2.591   1.843   6.459
 1162SOL    HW1 4385   2.677   1.863   6.413
 1162SOL    HW2 4386   2.528   1.800   6.393
 1163SOL     OW 4387   6.768   3.084   1.579
 1163SOL    HW1 4388   6.697   3.032   1.627
 1163SOL    HW2 4389   6.725   3.141   1.508
 1164SOL     OW 4390   5.645   2.926   5.523
 1164SOL    HW1 4391   5.689   2.919   5.434
 1164SOL    HW2 4392   5.584   3.006   5.524
 1165SOL     OW 4393   2.498   4.577   3.794
 1165SOL    HW1 4394   2.493   4.664   3.843
 1165SOL    HW2 4395   2.594   4.554   3.778
 1166SOL     OW 4396   3.487   7.003   6.965
 1166SOL    HW1 4397   3.477   6.907   6.993
 1166SOL    HW2 4398   3.416   0.040   7.008
 1167SOL     OW 4399   4.459   6.479   6.430
 1167SOL    HW1 4400   4.414   6.567   6.439
 1167SOL    HW2 4401   4.479   6.443   6.522
 1168SOL     OW 4402   5.041   1.920   3.772
 1168SOL    HW1 4403   5.074   1.859   3.843
 1168SOL    HW2 4404   4.966   1.876   3.722
 1169SOL     OW 4405   5.023   2.252   5.854
 1169SOL    HW1 4406   5.016   2.250   5.755
 1169SOL    HW2 4407   4.933   2.267   5.894
 1170SOL     OW 4408   5.350   1.340   2.851
 1170SOL    HW1 4409   5.282   1.371   2.917
 1170SOL    HW2 4410   5.339   1.242   2.835
 1171SOL     OW 4411   2.883   6.334   7.007
 1171SOL    HW1 4412   2.841   6.424   7.000
 1171SOL    HW2 4413   2.840   6.272   6.941
 1172SOL     OW 4414   3.101   4.058   2.061
 1172SOL    HW1 4415   3.003   4.058   2.080
 1172SOL    HW2 4416   3.129   3.967   2.029
 1173SOL     OW 4417   3.663   0.933   6.697
 1173SOL    HW1 4418   3.701   0.850   6.737
 1173SOL    HW2 4419   3.577   0.911   6.650
 1174SOL     OW 4420   3.660   4.712   0.485
 1174SOL    HW1 4421   3.608   4.693   0.568
 1174SOL    HW2 4422   3.726   4.638   0.470
 1175SOL     OW 4423   3.942   3.359   6.827
 1175SOL    HW1 4424   3.877   3.409   6.770
 1175SOL    HW2 4425   3.988   3.289   6.772
 1176SOL     OW 4426   5.816   5.019   6.420
 1176SOL    HW1 4427   5.808   4.941   6.482
 1176SOL    HW2 4428   5.849   4.988   6.331
 1177SOL     OW 4429   6.707   2.033   5.771
 1177SOL    HW1 4430   6.670   1.988   5.690
 1177SOL    HW2 4431   6.653   2.114   5.792
 1178SOL     OW 4432   3.211   3.516   0.859
 1178SOL    HW1 4433   3.114   3.509   0.836
 1178SOL    HW2 4434   3.246   3.604   0.827
 1179SOL     OW 4435   3.209   6.572   0.654
 1179SOL    HW1 4436   3.227   6.644   0.588
 1179SOL    HW2 4437   3.188   6.612   0.743
 1180SOL     OW 4438   2.466   5.998   3.731
 1180SOL    HW1 4439   2.450   5.931   3.803
 1180SOL    HW2 4440   2.379   6.042   3.706
 1181SOL     OW 4441   0.554   3.339   5.675
 1181SOL    HW1 4442   0.512   3.378   5.757
 1181SOL    HW2 4443   0.643   3.299   5.700
 1182SOL     OW 4444   2.899   5.297   3.181
 1182SOL    HW1 4445   2.889   5.243   3.098
 1182SOL    HW2 4446   2.959   5.249   3.246
 1183SOL     OW 4447   3.706   5.661   1.914
 1183SOL    HW1 4448   3.646   5.590   1.950
 1183SOL    HW2 4449   3.688   5.674   1.816
 1184SOL     OW 4450   5.512   6.996   6.377
 1184SOL    HW1 4451   5.457   6.963   6.454
 1184SOL    HW2 4452   5.461   6.983   6.292
 1185SOL     OW 4453   0.891   1.179   0.937
 1185SOL    HW1 4454   0.943   1.096   0.919
 1185SOL    HW2 4455   0.953   1.249   0.974
 1186SOL     OW 4456   5.538   5.886   5.246
 1186SOL    HW1 4457   5.566   5.981   5.249
 1186SOL    HW2 4458   5.608   5.831   5.200
 1187SOL     OW 4459   5.181   0.005   5.415
 1187SOL    HW1 4460   5.133   0.065   5.478
 1187SOL    HW2 4461   5.229   0.060   5.346
 1188SOL     OW 4462   3.754   5.442   6.015
 1188SOL    HW1 4463   3.746   5.394   5.928
 1188SOL    HW2 4464   3.664   5.473   6.044
 1189SOL     OW 4465   5.746   0.434   1.823
 1189SOL    HW1 4466   5.709   0.450   1.915
 1189SOL    HW2 4467   5.830   0.488   1.811
 1190SOL     OW 4468   3.429   5.974   3.021
 1190SOL    HW1 4469   3.371   5.989   2.942
 1190SOL    HW2 4470   3.476   5.885   3.012
 1191SOL     OW 4471   2.619   6.289   4.161
 1191SOL    HW1 4472   2.591   6.291   4.257
 1191SOL    HW2 4473   2.564   6.354   4.109
 1192SOL     OW 4474   5.741   6.207   3.376
 1192SOL    HW1 4475   5.786   6.177   3.292
 1192SOL    HW2 4476   5.675   6.279   3.355
 1193SOL     OW 4477   0.300   0.720   5.028
 1193SOL    HW1 4478   0.204   0.702   5.051
 1193SOL    HW2 4479   0.351   0.634   5.028
 1194SOL     OW 4480   6.690   1.620   0.823
 1194SOL    HW1 4481   6.747   1.703   0.822
 1194SOL    HW2 4482   6.747   1.541   0.798
 1195SOL     OW 4483   6.308   3.728   0.578
 1195SOL    HW1 4484   6.281   3.663   0.650
 1195SOL    HW2 4485   6.392   3.696   0.535
 1196SOL     OW 4486   5.935   4.380   2.953
 1196SOL    HW1 4487   5.869   4.419   3.017
 1196SOL    HW2 4488   5.972   4.453   2.894
 1197SOL     OW 4489   4.410   6.528   4.247
 1197SOL    HW1 4490   4.401   6.525   4.346
 1197SOL    HW2 4491   4.408   6.623   4.216
 1198SOL     OW 4492   1.107   3.923   2.114
 1198SOL    HW1 4493   1.197   3.957   2.143
 1198SOL    HW2 4494   1.120   3.840   2.059
 1199SOL     OW 4495   3.265   2.975   2.917
 1199SOL    HW1 4496   3.328   3.039   2.961
 1199SOL    HW2 4497   3.178   2.976   2.966
 1200SOL     OW 4498   3.984   3.954   4.560
 1200SOL    HW1 4499   3.919   3.960   4.485
 1200SOL    HW2 4500   4.032   3.867   4.557
 1201SOL     OW 4501   6.889   0.828   5.017
 1201SOL    HW1 4502   6.931   0.913   5.051
 1201SOL    HW2 4503   6.799   0.848   4.980
 1202SOL     OW 4504   6.301   6.464   5.451
 1202SOL    HW1 4505   6.311   6.440   5.354
 1202SOL    HW2 4506   6.391   6.484   5.490
 1203SOL     OW 4507   0.564   6.321   0.518
 1203SOL    HW1 4508   0.611   6.306   0.605
 1203SOL    HW2 4509   0.599   6.257   0.450
 1204SOL     OW 4510   4.950   1.449   1.758
 1204SOL    HW1 4511   4.909   1.363   1.788
 1204SOL    HW2 4512   4.887   1.524   1.778
 1205SOL     OW 4513   3.667   3.544   0.299
 1205SOL    HW1 4514   3.757   3.544   0.256
 1205SOL    HW2 4515   3.602   3.592   0.240
 1206SOL     OW 4516   1.153   3.159   4.651
 1206SOL    HW1 4517   1.195   3.073   4.679
 1206SOL    HW2 4518   1.135   3.215   4.732
 1207SOL     OW 4519   0.376   0.409   0.698
 1207SOL    HW1 4520   0.410   0.488   0.749
 1207SOL    HW2 4521   0.336   0.343   0.762
 1208SOL     OW 4522   3.143   3.751   1.722
 1208SOL    HW1 4523   3.182   3.830   1.676
 1208SOL    HW2 4524   3.159   3.669   1.666
 1209SOL     OW 4525   5.466   0.383   4.095
 1209SOL    HW1 4526   5.402   0.405   4.021
 1209SOL    HW2 4527   5.440   0.435   4.177
 1210SOL     OW 4528   4.848   6.647   4.031
 1210SOL    HW1 4529   4.904   6.588   4.090
 1210SOL    HW2 4530   4.853   6.615   3.937
 1211SOL     OW 4531   0.489   3.343   3.012
 1211SOL    HW1 4532   0.578   3.387   2.998
 1211SOL    HW2 4533   0.501   3.243   3.008
 1212SOL     OW 4534   6.568   0.442   6.092
 1212SOL    HW1 4535   6.609   0.369   6.147
 1212SOL    HW2 4536   6.539   0.405   6.004
 1213SOL     OW 4537   5.502   1.923   2.367
 1213SOL    HW1 4538   5.486   2.021   2.349
 1213SOL    HW2 4539   5.551   1.883   2.289
 1214SOL     OW 4540   0.400   2.529   6.491
 1214SOL    HW1 4541   0.452   2.473   6.556
 1214SOL    HW2 4542   0.424   2.626   6.504
 1215SOL     OW 4543   1.497   4.782   2.491
 1215SOL    HW1 4544   1.437   4.809   2.416
 1215SOL    HW2 4545   1.442   4.751   2.568
 1216SOL     OW 4546   6.104   1.317   0.895
 1216SOL    HW1 4547   6.138   1.230   0.932
 1216SOL    HW2 4548   6.077   1.377   0.970
 1217SOL     OW 4549   3.110   4.949   0.797
 1217SOL    HW1 4550   3.178   5.016   0.768
 1217SOL    HW2 4551   3.099   4.953   0.896
 1218SOL     OW 4552   1.883   2.756   5.491
 1218SOL    HW1 4553   1.939   2.674   5.479
 1218SOL    HW2 4554   1.877   2.805   5.403
 1219SOL     OW 4555   5.185   5.161   1.732
 1219SOL    HW1 4556   5.124   5.233   1.699
 1219SOL    HW2 4557   5.249   5.199   1.798
 1220SOL     OW 4558   6.736   3.991   2.127
 1220SOL    HW1 4559   6.732   3.947   2.037
 1220SOL    HW2 4560   6.810   4.057   2.128
 1221SOL     OW 4561   5.392   3.892   6.492
 1221SOL    HW1 4562   5.417   3.814   6.434
 1221SOL    HW2 4563   5.460   3.901   6.565
 1222SOL     OW 4564   0.248   0.844   6.782
 1222SOL    HW1 4565   0.328   0.877   6.833
 1222SOL    HW2 4566   0.186   0.797   6.845
 1223SOL     OW 4567   3.941   0.957   0.460
 1223SOL    HW1 4568   3.911   0.862   0.449
 1223SOL    HW2 4569   3.867   1.010   0.501
 1224SOL     OW 4570   3.106   6.007   6.822
 1224SOL    HW1 4571   3.123   6.089   6.877
 1224SOL    HW2 4572   3.113   6.029   6.725
 1225SOL     OW 4573   3.646   2.618   6.965
 1225SOL    HW1 4574   3.718   2.595   0.013
 1225SOL    HW2 4575   3.557   2.613   7.010
 1226SOL     OW 4576   3.423   6.052   0.263
 1226SOL    HW1 4577   3.450   5.979   0.200
 1226SOL    HW2 4578   3.324   6.049   0.277
 1227SOL     OW 4579   5.416   5.170   5.579
 1227SOL    HW1 4580   5.366   5.256   5.570
 1227SOL    HW2 4581   5.408   5.136   5.672
 1228SOL     OW 4582   3.767   2.363   6.230
 1228SOL    HW1 4583   3.750   2.457   6.259
 1228SOL    HW2 4584   3.686   2.328   6.183
 1229SOL     OW 4585   2.002   5.278   0.395
 1229SOL    HW1 4586   1.994   5.363   0.343
 1229SOL    HW2 4587   2.099   5.257   0.410
 1230SOL     OW 4588   5.942   5.974   2.124
 1230SOL    HW1 4589   5.881   5.914   2.176
 1230SOL    HW2 4590   5.895   6.060   2.104
 1231SOL     OW 4591   1.569   2.007   5.098
 1231SOL    HW1 4592   1.487   2.016   5.041
 1231SOL    HW2 4593   1.548   1.952   5.179
 1232SOL     OW 4594   6.248   0.875   4.904
 1232SOL    HW1 4595   6.248   0.779   4.875
 1232SOL    HW2 4596   6.155   0.912   4.895
 1233SOL     OW 4597   0.653   5.770   4.734
 1233SOL    HW1 4598   0.674   5.693   4.793
 1233SOL    HW2 4599   0.556   5.771   4.713
 1234SOL     OW 4600   5.854   2.306   5.480
 1234SOL    HW1 4601   5.789   2.328   5.553
 1234SOL    HW2 4602   5.843   2.370   5.405
 1235SOL     OW 4603   5.999   4.793   1.560
 1235SOL    HW1 4604   5.992   4.867   1.627
 1235SOL    HW2 4605   6.082   4.741   1.576
 1236SOL     OW 4606   4.349   1.651   1.650
 1236SOL    HW1 4607   4.321   1.663   1.745
 1236SOL    HW2 4608   4.417   1.720   1.627
 1237SOL     OW 4609   1.061   4.541   5.252
 1237SOL    HW1 4610   1.156   4.517   5.229
 1237SOL    HW2 4611   1.054   4.640   5.263
 1238SOL     OW 4612   1.721   0.114   6.131
 1238SOL    HW1 4613   1.747   0.181   6.063
 1238SOL    HW2 4614   1.622   0.104   6.132
 1239SOL     OW 4615   0.291   6.681   6.484
 1239SOL    HW1 4616   0.215   6.742   6.506
 1239SOL    HW2 4617   0.278   6.594   6.532
 1240SOL     OW 4618   5.979   6.013   1.554
 1240SOL    HW1 4619   5.916   5.943   1.586
 1240SOL    HW2 4620   5.928   6.085   1.507
 1241SOL     OW 4621   6.036   4.370   5.502
 1241SOL    HW1 4622   6.093   4.310   5.558
 1241SOL    HW2 4623   6.032   4.334   5.408
 1242SOL     OW 4624   2.109   4.024   1.096
 1242SOL    HW1 4625   2.169   4.100   1.122
 1242SOL    HW2 4626   2.120   3.949   1.161
 1243SOL     OW 4627   1.176   0.990   5.221
 1243SOL    HW1 4628   1.202   1.009   5.316
 1243SOL    HW2 4629   1.105   0.920   5.219
 1244SOL     OW 4630   5.530   6.241   4.674
 1244SOL    HW1 4631   5.514   6.269   4.768
 1244SOL    HW2 4632   5.598   6.167   4.672
 1245SOL     OW 4633   5.161   4.122   0.019
 1245SOL    HW1 4634   5.175   4.070   6.952
 1245SOL    HW2 4635   5.063   4.135   0.034
 1246SOL     OW 4636   3.043   1.546   1.333
 1246SOL    HW1 4637   3.004   1.595   1.255
 1246SOL    HW2 4638   3.143   1.546   1.326
 1247SOL     OW 4639   0.126   6.597   5.802
 1247SOL    HW1 4640   0.222   6.571   5.789
 1247SOL    HW2 4641   0.115   6.694   5.779
 1248SOL     OW 4642   2.061   6.863   3.683
 1248SOL    HW1 4643   1.992   6.808   3.729
 1248SOL    HW2 4644   2.038   6.872   3.586
 1249SOL     OW 4645   6.587   2.222   2.060
 1249SOL    HW1 4646   6.536   2.258   2.139
 1249SOL    HW2 4647   6.676   2.266   2.055
 1250SOL     OW 4648   5.926   4.942   3.422
 1250SOL    HW1 4649   5.921   4.876   3.497
 1250SOL    HW2 4650   6.016   4.936   3.379
 1251SOL     OW 4651   1.883   1.220   3.048
 1251SOL    HW1 4652   1.837   1.227   3.137
 1251SOL    HW2 4653   1.835   1.276   2.981
 1252SOL     OW 4654   4.133   4.564   6.820
 1252SOL    HW1 4655   4.065   4.513   6.769
 1252SOL    HW2 4656   4.091   4.600   6.904
 1253SOL     OW 4657   3.668   6.552   2.473
 1253SOL    HW1 4658   3.614   6.529   2.554
 1253SOL    HW2 4659   3.606   6.576   2.398
 1254SOL     OW 4660   0.617   2.452   3.618
 1254SOL    HW1 4661   0.606   2.437   3.717
 1254SOL    HW2 4662   0.715   2.447   3.595
 1255SOL     OW 4663   5.587   1.135   6.199
 1255SOL    HW1 4664   5.662   1.128   6.133
 1255SOL    HW2 4665   5.597   1.219   6.252
 1256SOL     OW 4666   0.005   0.260   3.598
 1256SOL    HW1 4667   6.972   0.183   3.559
 1256SOL    HW2 4668   0.036   0.320   3.525
 1257SOL     OW 4669   6.998   5.098   5.313
 1257SOL    HW1 4670   6.989   5.154   5.231
 1257SOL    HW2 4671   0.044   5.141   5.376
 1258SOL     OW 4672   1.491   5.173   2.963
 1258SOL    HW1 4673   1.552   5.113   3.013
 1258SOL    HW2 4674   1.545   5.241   2.913
 1259SOL     OW 4675   3.790   0.108   4.411
 1259SOL    HW1 4676   3.714   0.102   4.346
 1259SOL    HW2 4677   3.761   0.073   4.500
 1260SOL     OW 4678   3.133   2.034   0.251
 1260SOL    HW1 4679   3.041   2.036   0.289
 1260SOL    HW2 4680   3.192   1.978   0.310
 1261SOL     OW 4681   6.315   5.092   6.911
 1261SOL    HW1 4682   6.335   5.187   6.886
 1261SOL    HW2 4683   6.395   5.035   6.893
 1262SOL     OW 4684   5.583   4.709   0.984
 1262SOL    HW1 4685   5.628   4.623   0.961
 1262SOL    HW2 4686   5.590   4.772   0.906
 1263SOL     OW 4687   6.861   2.177   1.372
 1263SOL    HW1 4688   6.855   2.269   1.411
 1263SOL    HW2 4689   6.789   2.120   1.411
 1264SOL     OW 4690   0.042   3.510   1.461
 1264SOL    HW1 4691   0.047   3.476   1.555
 1264SOL    HW2 4692   6.985   3.576   1.453
 1265SOL     OW 4693   5.080   5.606   3.660
 1265SOL    HW1 4694   5.143   5.565   3.725
 1265SOL    HW2 4695   5.109   5.584   3.567
 1266SOL     OW 4696   0.643   1.258   4.302
 1266SOL    HW1 4697   0.657   1.344   4.351
 1266SOL    HW2 4698   0.605   1.190   4.364
 1267SOL     OW 4699   5.505   6.295   1.482
 1267SOL    HW1 4700   5.452   6.364   1.531
 1267SOL    HW2 4701   5.485   6.301   1.384
 1268SOL     OW 4702   3.872   3.188   0.307
 1268SOL    HW1 4703   3.792   3.239   0.338
 1268SOL    HW2 4704   3.908   3.231   0.223
 1269SOL     OW 4705   5.574   5.375   4.872
 1269SOL    HW1 4706   5.505   5.408   4.938
 1269SOL    HW2 4707   5.592   5.278   4.890
 1270SOL     OW 4708   2.097   4.162   3.495
 1270SOL    HW1 4709   2.078   4.253   3.457
 1270SOL    HW2 4710   2.018   4.130   3.546
 1271SOL     OW 4711   2.877   2.232   3.735
 1271SOL    HW1 4712   2.895   2.203   3.642
 1271SOL    HW2 4713   2.923   2.171   3.799
 1272SOL     OW 4714   5.510   5.646   0.231
 1272SOL    HW1 4715   5.597   5.616   0.269
 1272SOL    HW2 4716   5.520   5.658   0.132
 1273SOL     OW 4717   0.791   4.278   6.725
 1273SOL    HW1 4718   0.753   4.246   6.638
 1273SOL    HW2 4719   0.743   4.233   6.801
 1274SOL     OW 4720   6.496   4.412   1.241
 1274SOL    HW1 4721   6.397   4.397   1.236
 1274SOL    HW2 4722   6.515   4.484   1.307
 1275SOL     OW 4723   3.495   1.801   4.426
 1275SOL    HW1 4724   3.579   1.755   4.398
 1275SOL    HW2 4725   3.517   1.892   4.460
 1276SOL     OW 4726   6.996   6.603   4.636
 1276SOL    HW1 4727   6.926   6.614   4.706
 1276SOL    HW2 4728   0.013   6.693   4.608
 1277SOL     OW 4729   1.321   5.616   6.591
 1277SOL    HW1 4730   1.311   5.657   6.500
 1277SOL    HW2 4731   1.247   5.649   6.650
 1278SOL     OW 4732   0.906   6.987   5.141
 1278SOL    HW1 4733   0.968   0.009   5.072
 1278SOL    HW2 4734   0.829   6.943   5.095
 1279SOL     OW 4735   3.153   6.547   0.222
 1279SOL    HW1 4736   3.111   6.637   0.211
 1279SOL    HW2 4737   3.194   6.519   0.135
 1280SOL     OW 4738   3.169   6.429   5.136
 1280SOL    HW1 4739   3.098   6.362   5.157
 1280SOL    HW2 4740   3.206   6.411   5.044
 1281SOL     OW 4741   1.570   6.597   3.350
 1281SOL    HW1 4742   1.578   6.663   3.275
 1281SOL    HW2 4743   1.629   6.519   3.332
 1282SOL     OW 4744   0.508   2.172   6.805
 1282SOL    HW1 4745   0.555   2.086   6.787
 1282SOL    HW2 4746   0.575   2.245   6.817
 1283SOL     OW 4747   0.171   2.827   5.527
 1283SOL    HW1 4748   0.080   2.784   5.527
 1283SOL    HW2 4749   0.238   2.761   5.560
 1284SOL     OW 4750   4.925   1.812   1.831
 1284SOL    HW1 4751   4.881   1.854   1.911
 1284SOL    HW2 4752   4.859   1.755   1.783
 1285SOL     OW 4753   4.826   2.049   6.469
 1285SOL    HW1 4754   4.753   2.091   6.523
 1285SOL    HW2 4755   4.907   2.107   6.472
 1286SOL     OW 4756   5.011   3.830   1.961
 1286SOL    HW1 4757   4.983   3.912   2.011
 1286SOL    HW2 4758   5.083   3.854   1.896
 1287SOL     OW 4759   5.741   5.788   5.118
 1287SOL    HW1 4760   5.831   5.833   5.113
 1287SOL    HW2 4761   5.736   5.716   5.049
 1288SOL     OW 4762   4.334   3.508   6.841
 1288SOL    HW1 4763   4.387   3.533   6.922
 1288SOL    HW2 4764   4.336   3.409   6.828
 1289SOL     OW 4765   1.194   5.941   2.303
 1289SOL    HW1 4766   1.182   5.856   2.356
 1289SOL    HW2 4767   1.124   5.946   2.232
 1290SOL     OW 4768   1.018   6.347   6.372
 1290SOL    HW1 4769   1.023   6.375   6.468
 1290SOL    HW2 4770   1.077   6.267   6.357
 1291SOL     OW 4771   0.290   3.662   5.469
 1291SOL    HW1 4772   0.304   3.573   5.511
 1291SOL    HW2 4773   0.302   3.734   5.539
 1292SOL     OW 4774   0.394   5.812   2.120
 1292SOL    HW1 4775   0.491   5.796   2.100
 1292SOL    HW2 4776   0.342   5.807   2.035
 1293SOL     OW 4777   1.034   1.957   0.546
 1293SOL    HW1 4778   1.089   2.002   0.475
 1293SOL    HW2 4779   0.944   1.934   0.508
 1294SOL     OW 4780   0.979   3.157   6.729
 1294SOL    HW1 4781   0.972   3.081   6.664
 1294SOL    HW2 4782   1.035   3.129   6.807
 1295SOL     OW 4783   0.190   3.510   2.193
 1295SOL    HW1 4784   0.165   3.417   2.165
 1295SOL    HW2 4785   0.277   3.508   2.242
 1296SOL     OW 4786   3.669   0.239   5.832
 1296SOL    HW1 4787   3.635   0.328   5.861
 1296SOL    HW2 4788   3.713   0.192   5.909
 1297SOL     OW 4789   6.066   0.769   1.339
 1297SOL    HW1 4790   6.137   0.781   1.269
 1297SOL    HW2 4791   6.108   0.767   1.429
 1298SOL     OW 4792   5.810   4.571   2.607
 1298SOL    HW1 4793   5.788   4.503   2.537
 1298SOL    HW2 4794   5.758   4.551   2.690
 1299SOL     OW 4795   1.534   4.009   3.031
 1299SOL    HW1 4796   1.501   4.022   3.125
 1299SOL    HW2 4797   1.473   3.945   2.984
 1300SOL     OW 4798   3.037   2.798   1.482
 1300SOL    HW1 4799   3.106   2.741   1.439
 1300SOL    HW2 4800   3.044   2.791   1.581
 1301SOL     OW 4801   1.076   5.843   1.402
 1301SOL    HW1 4802   1.164   5.891   1.407
 1301SOL    HW2 4803   1.085   5.763   1.344
 1302SOL     OW 4804   5.166   0.748   5.292
 1302SOL    HW1 4805   5.162   0.649   5.306
 1302SOL    HW2 4806   5.099   0.774   5.223
 1303SOL     OW 4807   4.569   1.592   1.992
 1303SOL    HW1 4808   4.572   1.674   1.934
 1303SOL    HW2 4809   4.641   1.598   2.061
 1304SOL     OW 4810   2.164   1.457   6.413
 1304SOL    HW1 4811   2.133   1.370   6.374
 1304SOL    HW2 4812   2.092   1.525   6.402
 1305SOL     OW 4813   4.890   3.463   0.060
 1305SOL    HW1 4814   4.877   3.542   0.120
 1305SOL    HW2 4815   4.969   3.411   0.091
 1306SOL     OW 4816   0.563   5.071   4.214
 1306SOL    HW1 4817   0.528   5.028   4.297
 1306SOL    HW2 4818   0.486   5.103   4.158
 1307SOL     OW 4819   0.648   4.186   4.389
 1307SOL    HW1 4820   0.653   4.175   4.489
 1307SOL    HW2 4821   0.593   4.267   4.368
 1308SOL     OW 4822   5.406   6.586   5.083
 1308SOL    HW1 4823   5.365   6.575   5.174
 1308SOL    HW2 4824   5.502   6.611   5.093
 1309SOL     OW 4825   5.276   3.152   5.388
 1309SOL    HW1 4826   5.263   3.224   5.319
 1309SOL    HW2 4827   5.189   3.133   5.433
 1310SOL     OW 4828   6.945   3.714   4.105
 1310SOL    HW1 4829   6.871   3.761   4.152
 1310SOL    HW2 4830   0.013   3.728   4.155
 1311SOL     OW 4831   0.570   6.689   4.765
 1311SOL    HW1 4832   0.658   6.642   4.772
 1311SOL    HW2 4833   0.562   6.731   4.674
 1312SOL     OW 4834   1.473   6.914   6.751
 1312SOL    HW1 4835   1.438   6.829   6.791
 1312SOL    HW2 4836   1.566   6.898   6.715
 1313SOL     OW 4837   0.785   3.930   3.939
 1313SOL    HW1 4838   0.768   3.990   4.017
 1313SOL    HW2 4839   0.873   3.883   3.952
 1314SOL     OW 4840   4.199   1.310   5.593
 1314SOL    HW1 4841   4.264   1.306   5.669
 1314SOL    HW2 4842   4.242   1.354   5.515
 1315SOL     OW 4843   0.422   1.125   1.218
 1315SOL    HW1 4844   0.494   1.177   1.171
 1315SOL    HW2 4845   0.424   1.146   1.316
 1316SOL     OW 4846   1.955   6.122   4.822
 1316SOL    HW1 4847   2.037   6.159   4.779
 1316SOL    HW2 4848   1.896   6.082   4.753
 1317SOL     OW 4849   2.427   4.632   6.427
 1317SOL    HW1 4850   2.350   4.584   6.469
 1317SOL    HW2 4851   2.508   4.623   6.485
 1318SOL     OW 4852   0.870   1.583   1.086
 1318SOL    HW1 4853   0.784   1.536   1.065
 1318SOL    HW2 4854   0.891   1.572   1.183
 1319SOL     OW 4855   6.782   0.670   0.399
 1319SOL    HW1 4856   6.700   0.613   0.393
 1319SOL    HW2 4857   6.861   0.614   0.421
 1320SOL     OW 4858   4.607   4.167   0.685
 1320SOL    HW1 4859   4.623   4.106   0.762
 1320SOL    HW2 4860   4.641   4.259   0.707
 1321SOL     OW 4861   5.608   1.400   6.297
 1321SOL    HW1 4862   5.544   1.443   6.361
 1321SOL    HW2 4863   5.596   1.439   6.206
 1322SOL     OW 4864   3.784   0.890   4.084
 1322SOL    HW1 4865   3.790   0.973   4.029
 1322SOL    HW2 4866   3.877   0.861   4.110
 1323SOL     OW 4867   5.127   0.807   5.552
 1323SOL    HW1 4868   5.140   0.906   5.560
 1323SOL    HW2 4869   5.143   0.779   5.457
 1324SOL     OW 4870   1.297   3.412   0.516
 1324SOL    HW1 4871   1.255   3.463   0.441
 1324SOL    HW2 4872   1.316   3.318   0.486
 1325SOL     OW 4873   2.075   0.313   2.794
 1325SOL    HW1 4874   2.041   0.344   2.705
 1325SOL    HW2 4875   2.027   0.362   2.867
 1326SOL     OW 4876   4.918   3.290   4.820
 1326SOL    HW1 4877   4.978   3.357   4.776
 1326SOL    HW2 4878   4.900   3.318   4.915
 1327SOL     OW 4879   1.291   4.816   2.282
 1327SOL    HW1 4880   1.336   4.898   2.246
 1327SOL    HW2 4881   1.244   4.768   2.208
 1328SOL     OW 4882   1.449   2.970   0.906
 1328SOL    HW1 4883   1.491   3.047   0.859
 1328SOL    HW2 4884   1.507   2.890   0.897
 1329SOL     OW 4885   0.245   2.439   1.302
 1329SOL    HW1 4886   0.291   2.454   1.389
 1329SOL    HW2 4887   0.180   2.364   1.311
 1330SOL     OW 4888   0.438   1.545   1.776
 1330SOL    HW1 4889   0.537   1.548   1.763
 1330SOL    HW2 4890   0.412   1.601   1.854
 1331SOL     OW 4891   5.089   2.734   3.434
 1331SOL    HW1 4892   5.173   2.738   3.488
 1331SOL    HW2 4893   5.110   2.703   3.341
 1332SOL     OW 4894   2.742   0.014   6.328
 1332SOL    HW1 4895   2.674   0.085   6.311
 1332SOL    HW2 4896   2.784   0.028   6.418
 1333SOL     OW 4897   4.051   3.925   5.210
 1333SOL    HW1 4898   4.054   3.857   5.136
 1333SOL    HW2 4899   3.966   3.978   5.202
 1334SOL     OW 4900   6.490   1.689   4.636
 1334SOL    HW1 4901   6.443   1.669   4.549
 1334SOL    HW2 4902   6.500   1.788   4.646
 1335SOL     OW 4903   2.442   2.082   3.272
 1335SOL    HW1 4904   2.532   2.108   3.237
 1335SOL    HW2 4905   2.376   2.154   3.249
 1336SOL     OW 4906   1.949   1.824   5.382
 1336SOL    HW1 4907   1.930   1.909   5.332
 1336SOL    HW2 4908   1.878   1.811   5.451
 1337SOL     OW 4909   1.789   2.471   4.496
 1337SOL    HW1 4910   1.700   2.450   4.536
 1337SOL    HW2 4911   1.777   2.497   4.400
 1338SOL     OW 4912   5.649   2.284   5.092
 1338SOL    HW1 4913   5.706   2.365   5.106
 1338SOL    HW2 4914   5.699   2.216   5.039
 1339SOL     OW 4915   0.258   1.609   6.348
 1339SOL    HW1 4916   0.283   1.599   6.252
 1339SOL    HW2 4917   0.159   1.620   6.355
 1340SOL     OW 4918   0.149   1.943   2.728
 1340SOL    HW1 4919   0.247   1.955   2.715
 1340SOL    HW2 4920   0.099   2.005   2.668
 1341SOL     OW 4921   5.432   0.267   6.393
 1341SOL    HW1 4922   5.382   0.342   6.350
 1341SOL    HW2 4923   5.403   0.180   6.354
 1342SOL     OW 4924   1.613   5.355   5.997
 1342SOL    HW1 4925   1.550   5.342   5.921
 1342SOL    HW2 4926   1.670   5.435   5.980
 1343SOL     OW 4927   4.808   5.984   3.352
 1343SOL    HW1 4928   4.793   6.056   3.420
 1343SOL    HW2 4929   4.859   5.909   3.393
 1344SOL     OW 4930   0.100   5.603   4.381
 1344SOL    HW1 4931   0.024   5.544   4.406
 1344SOL    HW2 4932   0.077   5.655   4.299
 1345SOL     OW 4933   1.642   0.608   2.692
 1345SOL    HW1 4934   1.659   0.602   2.790
 1345SOL    HW2 4935   1.700   0.542   2.644
 1346SOL     OW 4936   0.866   6.099   4.433
 1346SOL    HW1 4937   0.868   6.164   4.357
 1346SOL    HW2 4938   0.785   6.117   4.490
 1347SOL     OW 4939   6.154   6.512   4.742
 1347SOL    HW1 4940   6.074   6.458   4.717
 1347SOL    HW2 4941   6.179   6.572   4.666
 1348SOL     OW 4942   5.562   5.234   2.501
 1348SOL    HW1 4943   5.588   5.254   2.406
 1348SOL    HW2 4944   5.492   5.162   2.501
 1349SOL     OW 4945   4.522   2.522   5.864
 1349SOL    HW1 4946   4.458   2.577   5.810
 1349SOL    HW2 4947   4.615   2.538   5.833
 1350SOL     OW 4948   5.587   4.822   5.605
 1350SOL    HW1 4949   5.661   4.876   5.646
 1350SOL    HW2 4950   5.533   4.880   5.544
 1351SOL     OW 4951   6.299   1.116   3.475
 1351SOL    HW1 4952   6.272   1.209   3.449
 1351SOL    HW2 4953   6.396   1.102   3.455
 1352SOL     OW 4954   6.840   6.600   2.541
 1352SOL    HW1 4955   6.919   6.544   2.565
 1352SOL    HW2 4956   6.807   6.648   2.622
 1353SOL     OW 4957   0.161   3.406   7.008
 1353SOL    HW1 4958   0.224   3.483   7.011
 1353SOL    HW2 4959   0.209   3.322   0.014
 1354SOL     OW 4960   0.812   3.298   0.413
 1354SOL    HW1 4961   0.731   3.248   0.382
 1354SOL    HW2 4962   0.795   3.338   0.502
 1355SOL     OW 4963   6.503   2.392   5.390
 1355SOL    HW1 4964   6.545   2.337   5.317
 1355SOL    HW2 4965   6.463   2.475   5.351
 1356SOL     OW 4966   2.881   3.513   2.766
 1356SOL    HW1 4967   2.793   3.552   2.794
 1356SOL    HW2 4968   2.887   3.513   2.666
 1357SOL     OW 4969   1.497   3.306   5.474
 1357SOL    HW1 4970   1.504   3.326   5.376
 1357SOL    HW2 4971   1.506   3.391   5.526
 1358SOL     OW 4972   4.268   0.982   5.773
 1358SOL    HW1 4973   4.340   0.955   5.709
 1358SOL    HW2 4974   4.275   0.926   5.856
 1359SOL     OW 4975   5.932   4.589   1.764
 1359SOL    HW1 4976   5.999   4.522   1.731
 1359SOL    HW2 4977   5.935   4.670   1.706
 1360SOL     OW 4978   4.014   2.745   0.263
 1360SOL    HW1 4979   4.010   2.843   0.247
 1360SOL    HW2 4980   4.056   2.727   0.352
 1361SOL     OW 4981   7.008   5.209   5.067
 1361SOL    HW1 4982   0.006   5.194   4.969
 1361SOL    HW2 4983   7.010   5.307   5.086
 1362SOL     OW 4984   2.953   3.772   4.364
 1362SOL    HW1 4985   2.937   3.818   4.452
 1362SOL    HW2 4986   2.984   3.839   4.296
 1363SOL     OW 4987   6.967   5.493   3.622
 1363SOL    HW1 4988   6.888   5.538   3.664
 1363SOL    HW2 4989   6.959   5.499   3.522
 1364SOL     OW 4990   6.534   2.296   1.518
 1364SOL    HW1 4991   6.580   2.383   1.537
 1364SOL    HW2 4992   6.599   2.221   1.528
 1365SOL     OW 4993   0.747   2.599   5.963
 1365SOL    HW1 4994   0.709   2.593   6.056
 1365SOL    HW2 4995   0.707   2.526   5.907
 1366SOL     OW 4996   0.943   4.641   6.931
 1366SOL    HW1 4997   0.900   4.556   6.962
 1366SOL    HW2 4998   0.982   4.626   6.840
 1367SOL     OW 4999   2.001   6.700   2.386
 1367SOL    HW1 5000   2.055   6.689   2.303
 1367SOL    HW2 5001   1.949   6.616   2.404
 1368SOL     OW 5002   6.749   0.311   3.693
 1368SOL    HW1 5003   6.710   0.400   3.718
 1368SOL    HW2 5004   6.848   0.318   3.686
 1369SOL     OW 5005   2.422   0.230   2.068
 1369SOL    HW1 5006   2.334   0.250   2.111
 1369SOL    HW2 5007   2.407   0.169   1.990
 1370SOL     OW 5008   4.130   1.522   2.159
 1370SOL    HW1 5009   4.132   1.471   2.073
 1370SOL    HW2 5010   4.085   1.468   2.229
 1371SOL     OW 5011   6.221   1.328   4.651
 1371SOL    HW1 5012   6.286   1.350   4.578
 1371SOL    HW2 5013   6.174   1.243   4.629
 1372SOL     OW 5014   1.002   2.720   0.500
 1372SOL    HW1 5015   0.988   2.684   0.592
 1372SOL    HW2 5016   0.984   2.818   0.499
 1373SOL     OW 5017   4.887   2.224   6.839
 1373SOL    HW1 5018   4.867   2.142   6.892
 1373SOL    HW2 5019   4.808   2.248   6.782
 1374SOL     OW 5020   4.643   1.731   0.154
 1374SOL    HW1 5021   4.710   1.659   0.175
 1374SOL    HW2 5022   4.603   1.765   0.239
 1375SOL     OW 5023   0.578   4.808   6.287
 1375SOL    HW1 5024   0.658   4.808   6.227
 1375SOL    HW2 5025   0.565   4.717   6.326
 1376SOL     OW 5026   4.655   4.778   5.135
 1376SOL    HW1 5027   4.619   4.858   5.087
 1376SOL    HW2 5028   4.754   4.773   5.120
 1377SOL     OW 5029   0.815   3.205   5.669
 1377SOL    HW1 5030   0.879   3.162   5.732
 1377SOL    HW2 5031   0.856   3.210   5.578
 1378SOL     OW 5032   5.960   1.269   4.820
 1378SOL    HW1 5033   6.045   1.301   4.779
 1378SOL    HW2 5034   5.913   1.345   4.863
 1379SOL     OW 5035   3.765   6.688   2.852
 1379SOL    HW1 5036   3.760   6.639   2.938
 1379SOL    HW2 5037   3.854   6.671   2.809
 1380SOL     OW 5038   0.573   0.000   2.622
 1380SOL    HW1 5039   0.645   6.952   2.600
 1380SOL    HW2 5040   0.543   7.004   2.716
 1381SOL     OW 5041   5.775   2.332   6.678
 1381SOL    HW1 5042   5.768   2.252   6.618
 1381SOL    HW2 5043   5.860   2.326   6.730
 1382SOL     OW 5044   4.640   3.308   0.110
 1382SOL    HW1 5045   4.724   3.361   0.107
 1382SOL    HW2 5046   4.661   3.210   0.109
 1383SOL     OW 5047   0.925   0.171   1.908
 1383SOL    HW1 5048   0.878   0.100   1.960
 1383SOL    HW2 5049   0.858   0.239   1.877
 1384SOL     OW 5050   4.896   0.523   2.289
 1384SOL    HW1 5051   4.890   0.497   2.193
 1384SOL    HW2 5052   4.829   0.596   2.308
 1385SOL     OW 5053   2.089   4.425   3.400
 1385SOL    HW1 5054   2.139   4.477   3.469
 1385SOL    HW2 5055   2.082   4.480   3.316
 1386SOL     OW 5056   3.113   0.457   4.472
 1386SOL    HW1 5057   3.107   0.448   4.373
 1386SOL    HW2 5058   3.078   0.374   4.515
 1387SOL     OW 5059   3.687   5.980   2.461
 1387SOL    HW1 5060   3.597   6.015   2.435
 1387SOL    HW2 5061   3.712   5.904   2.401
 1388SOL     OW 5062   0.548   0.303   3.023
 1388SOL    HW1 5063   0.583   0.341   2.938
 1388SOL    HW2 5064   0.623   0.289   3.087
 1389SOL     OW 5065   6.619   0.953   4.239
 1389SOL    HW1 5066   6.599   0.857   4.218
 1389SOL    HW2 5067   6.585   1.011   4.165
 1390SOL     OW 5068   6.485   3.160   6.329
 1390SOL    HW1 5069   6.572   3.180   6.283
 1390SOL    HW2 5070   6.410   3.195   6.273
 1391SOL     OW 5071   5.679   6.787   5.545
 1391SOL    HW1 5072   5.657   6.866   5.603
 1391SOL    HW2 5073   5.701   6.708   5.603
 1392SOL     OW 5074   5.468   6.676   6.224
 1392SOL    HW1 5075   5.481   6.592   6.170
 1392SOL    HW2 5076   5.391   6.728   6.185
 1393SOL     OW 5077   6.715   3.892   6.021
 1393SOL    HW1 5078   6.700   3.976   6.073
 1393SOL    HW2 5079   6.637   3.876   5.961
 1394SOL     OW 5080   3.774   6.065   4.903
 1394SOL    HW1 5081   3.813   6.053   4.995
 1394SOL    HW2 5082   3.681   6.103   4.911
 1395SOL     OW 5083   1.675   4.029   4.168
 1395SOL    HW1 5084   1.764   4.060   4.134
 1395SOL    HW2 5085   1.640   3.956   4.109
 1396SOL     OW 5086   0.414   0.152   4.398
 1396SOL    HW1 5087   0.445   0.219   4.330
 1396SOL    HW2 5088   0.344   0.193   4.456
 1397SOL     OW 5089   0.251   6.143   4.602
 1397SOL    HW1 5090   0.272   6.084   4.524
 1397SOL    HW2 5091   0.152   6.152   4.612
 1398SOL     OW 5092   2.430   1.228   7.004
 1398SOL    HW1 5093   2.452   1.274   6.918
 1398SOL    HW2 5094   2.467   1.135   7.002
 1399SOL     OW 5095   4.036   6.258   0.263
 1399SOL    HW1 5096   4.042   6.163   0.294
 1399SOL    HW2 5097   4.067   6.264   0.168
 1400SOL     OW 5098   0.490   1.827   4.602
 1400SOL    HW1 5099   0.473   1.801   4.697
 1400SOL    HW2 5100   0.408   1.807   4.548
 1401SOL     OW 5101   5.712   0.155   4.513
 1401SOL    HW1 5102   5.807   0.172   4.539
 1401SOL    HW2 5103   5.695   0.192   4.422
 1402SOL     OW 5104   5.690   4.515   6.516
 1402SOL    HW1 5105   5.641   4.447   6.460
 1402SOL    HW2 5106   5.773   4.544   6.468
 1403SOL     OW 5107   1.937   2.041   1.235
 1403SOL    HW1 5108   1.879   2.104   1.183
 1403SOL    HW2 5109   1.959   2.081   1.324
 1404SOL     OW 5110   6.672   0.520   6.996
 1404SOL    HW1 5111   6.717   0.529   6.907
 1404SOL    HW2 5112   6.606   0.594   7.009
 1405SOL     OW 5113   3.000   4.013   0.962
 1405SOL    HW1 5114   2.914   4.014   0.912
 1405SOL    HW2 5115   2.991   3.955   1.043
 1406SOL     OW 5116   1.860   5.583   1.399
 1406SOL    HW1 5117   1.939   5.564   1.341
 1406SOL    HW2 5118   1.885   5.649   1.470
 1407SOL     OW 5119   1.377   3.962   3.352
 1407SOL    HW1 5120   1.439   3.924   3.421
 1407SOL    HW2 5121   1.357   4.057   3.373
 1408SOL     OW 5122   5.715   0.113   6.489
 1408SOL    HW1 5123   5.693   0.103   6.586
 1408SOL    HW2 5124   5.649   0.060   6.435
 1409SOL     OW 5125   0.836   0.145   5.345
 1409SOL    HW1 5126   0.909   0.198   5.388
 1409SOL    HW2 5127   0.876   0.081   5.279
 1410SOL     OW 5128   2.077   4.337   6.102
 1410SOL    HW1 5129   2.044   4.243   6.109
 1410SOL    HW2 5130   2.000   4.397   6.079
 1411SOL     OW 5131   3.488   6.304   0.119
 1411SOL    HW1 5132   3.429   6.351   0.184
 1411SOL    HW2 5133   3.574   6.280   0.163
 1412SOL     OW 5134   0.928   4.098   1.213
 1412SOL    HW1 5135   0.835   4.075   1.185
 1412SOL    HW2 5136   0.985   4.110   1.132
 1413SOL     OW 5137   2.305   1.428   4.793
 1413SOL    HW1 5138   2.385   1.482   4.768
 1413SOL    HW2 5139   2.265   1.463   4.878
 1414SOL     OW 5140   2.478   1.590   1.730
 1414SOL    HW1 5141   2.494   1.680   1.772
 1414SOL    HW2 5142   2.487   1.519   1.799
 1415SOL     OW 5143   3.102   1.459   3.978
 1415SOL    HW1 5144   3.096   1.559   3.979
 1415SOL    HW2 5145   3.019   1.421   3.939
 1416SOL     OW 5146   3.893   6.443   4.470
 1416SOL    HW1 5147   3.930   6.396   4.390
 1416SOL    HW2 5148   3.968   6.466   4.533
 1417SOL     OW 5149   3.074   2.566   6.468
 1417SOL    HW1 5150   3.011   2.493   6.496
 1417SOL    HW2 5151   3.088   2.562   6.369
 1418SOL     OW 5152   2.861   3.533   1.317
 1418SOL    HW1 5153   2.917   3.615   1.331
 1418SOL    HW2 5154   2.891   3.462   1.381
 1419SOL     OW 5155   3.311   5.902   4.417
 1419SOL    HW1 5156   3.377   5.911   4.342
 1419SOL    HW2 5157   3.242   5.834   4.393
 1420SOL     OW 5158   3.536   6.026   3.384
 1420SOL    HW1 5159   3.517   5.930   3.402
 1420SOL    HW2 5160   3.513   6.047   3.289
 1421SOL     OW 5161   1.234   4.097   4.223
 1421SOL    HW1 5162   1.260   4.142   4.138
 1421SOL    HW2 5163   1.229   4.164   4.297
 1422SOL     OW 5164   2.577   4.253   6.476
 1422SOL    HW1 5165   2.620   4.186   6.414
 1422SOL    HW2 5166   2.613   4.240   6.568
 1423SOL     OW 5167   3.940   0.677   4.290
 1423SOL    HW1 5168   3.929   0.598   4.229
 1423SOL    HW2 5169   3.999   0.651   4.367
 1424SOL     OW 5170   7.002   3.709   6.680
 1424SOL    HW1 5171   0.073   3.685   6.641
 1424SOL    HW2 5172   6.942   3.629   6.680
 1425SOL     OW 5173   2.194   5.358   5.231
 1425SOL    HW1 5174   2.139   5.439   5.214
 1425SOL    HW2 5175   2.256   5.375   5.307
 1426SOL     OW 5176   2.715   2.120   6.286
 1426SOL    HW1 5177   2.756   2.029   6.272
 1426SOL    HW2 5178   2.782   2.190   6.262
 1427SOL     OW 5179   6.774   6.732   4.015
 1427SOL    HW1 5180   6.693   6.743   3.957
 1427SOL    HW2 5181   6.818   6.645   3.993
 1428SOL     OW 5182   0.961   1.991   1.722
 1428SOL    HW1 5183   0.981   1.950   1.633
 1428SOL    HW2 5184   0.866   2.024   1.724
 1429SOL     OW 5185   5.348   1.744   0.023
 1429SOL    HW1 5186   5.276   1.742   0.093
 1429SOL    HW2 5187   5.437   1.757   0.067
 1430SOL     OW 5188   2.264   4.790   3.741
 1430SOL    HW1 5189   2.307   4.872   3.777
 1430SOL    HW2 5190   2.246   4.726   3.816
 1431SOL     OW 5191   3.139   2.627   7.016
 1431SOL    HW1 5192   3.098   2.582   6.936
 1431SOL    HW2 5193   3.080   2.611   0.078
 1432SOL     OW 5194   3.338   1.090   1.076
 1432SOL    HW1 5195   3.251   1.103   1.028
 1432SOL    HW2 5196   3.366   0.994   1.068
 1433SOL     OW 5197   4.990   0.846   5.133
 1433SOL    HW1 5198   5.033   0.859   5.044
 1433SOL    HW2 5199   4.904   0.898   5.137
 1434SOL     OW 5200   0.692   0.970   6.483
 1434SOL    HW1 5201   0.633   1.039   6.441
 1434SOL    HW2 5202   0.775   0.959   6.428
 1435SOL     OW 5203   6.502   6.985   2.969
 1435SOL    HW1 5204   6.434   7.017   3.034
 1435SOL    HW2 5205   6.464   6.987   2.876
 1436SOL     OW 5206   5.415   4.287   6.967
 1436SOL    HW1 5207   5.420   4.350   0.027
 1436SOL    HW2 5208   5.350   4.214   6.988
 1437SOL     OW 5209   3.709   1.499   6.034
 1437SOL    HW1 5210   3.780   1.547   6.085
 1437SOL    HW2 5211   3.688   1.549   5.951
 1438SOL     OW 5212   2.439   0.072   1.242
 1438SOL    HW1 5213   2.419   0.135   1.167
 1438SOL    HW2 5214   2.381   7.009   1.234
 1439SOL     OW 5215   7.016   4.500   0.521
 1439SOL    HW1 5216   0.015   4.473   0.616
 1439SOL    HW2 5217   6.933   4.555   0.517
 1440SOL     OW 5218   3.136   2.784   5.584
 1440SOL    HW1 5219   3.100   2.789   5.491
 1440SOL    HW2 5220   3.229   2.822   5.585
 1441SOL     OW 5221   6.362   2.965   4.056
 1441SOL    HW1 5222   6.294   3.008   4.116
 1441SOL    HW2 5223   6.332   2.873   4.033
 1442SOL     OW 5224   6.409   5.144   0.217
 1442SOL    HW1 5225   6.481   5.103   0.160
 1442SOL    HW2 5226   6.395   5.089   0.299
 1443SOL     OW 5227   0.603   2.689   4.395
 1443SOL    HW1 5228   0.520   2.680   4.339
 1443SOL    HW2 5229   0.583   2.659   4.488
 1444SOL     OW 5230   4.439   6.074   1.106
 1444SOL    HW1 5231   4.506   6.045   1.036
 1444SOL    HW2 5232   4.487   6.120   1.181
 1445SOL     OW 5233   0.161   2.736   1.762
 1445SOL    HW1 5234   0.062   2.720   1.769
 1445SOL    HW2 5235   0.184   2.759   1.667
 1446SOL     OW 5236   4.775   1.990   6.945
 1446SOL    HW1 5237   4.786   2.050   0.006
 1446SOL    HW2 5238   4.679   1.966   6.934
 1447SOL     OW 5239   6.093   6.550   5.809
 1447SOL    HW1 5240   6.029   6.566   5.885
 1447SOL    HW2 5241   6.053   6.486   5.744
 1448SOL     OW 5242   6.532   2.576   0.369
 1448SOL    HW1 5243   6.469   2.502   0.391
 1448SOL    HW2 5244   6.503   2.622   0.285
 1449SOL     OW 5245   6.838   1.143   6.746
 1449SOL    HW1 5246   6.898   1.152   6.666
 1449SOL    HW2 5247   6.894   1.134   6.829
 1450SOL     OW 5248   0.959   2.340   2.048
 1450SOL    HW1 5249   0.991   2.254   2.088
 1450SOL    HW2 5250   1.001   2.353   1.958
 1451SOL     OW 5251   2.428   1.113   2.533
 1451SOL    HW1 5252   2.398   1.160   2.450
 1451SOL    HW2 5253   2.528   1.119   2.540
 1452SOL     OW 5254   4.195   1.135   4.428
 1452SOL    HW1 5255   4.169   1.097   4.339
 1452SOL    HW2 5256   4.290   1.165   4.424
 1453SOL     OW 5257   6.955   3.138   5.075
 1453SOL    HW1 5258   0.026   3.184   5.065
 1453SOL    HW2 5259   6.968   3.051   5.122
 1454SOL     OW 5260   6.590   2.759   2.966
 1454SOL    HW1 5261   6.648   2.748   2.885
 1454SOL    HW2 5262   6.637   2.815   3.034
 1455SOL     OW 5263   1.385   0.332   1.503
 1455SOL    HW1 5264   1.334   0.415   1.480
 1455SOL    HW2 5265   1.346   0.291   1.586
 1456SOL     OW 5266   6.615   0.067   5.302
 1456SOL    HW1 5267   6.604   0.093   5.397
 1456SOL    HW2 5268   6.537   0.099   5.248
 1457SOL     OW 5269   1.415   6.898   1.471
 1457SOL    HW1 5270   1.323   6.918   1.506
 1457SOL    HW2 5271   1.409   6.829   1.399
 1458SOL     OW 5272   5.705   5.970   3.504
 1458SOL    HW1 5273   5.712   6.050   3.444
 1458SOL    HW2 5274   5.761   5.984   3.585
 1459SOL     OW 5275   2.740   5.129   5.583
 1459SOL    HW1 5276   2.654   5.079   5.587
 1459SOL    HW2 5277   2.737   5.195   5.507
 1460SOL     OW 5278   0.043   5.384   6.176
 1460SOL    HW1 5279   0.044   5.483   6.193
 1460SOL    HW2 5280   0.100   5.338   6.244
 1461SOL     OW 5281   0.515   5.238   3.848
 1461SOL    HW1 5282   0.474   5.204   3.763
 1461SOL    HW2 5283   0.603   5.280   3.828
 1462SOL     OW 5284   1.119   0.876   6.163
 1462SOL    HW1 5285   1.078   0.878   6.254
 1462SOL    HW2 5286   1.197   0.940   6.161
 1463SOL     OW 5287   0.121   5.503   0.093
 1463SOL    HW1 5288   0.193   5.454   0.044
 1463SOL    HW2 5289   0.145   5.600   0.100
 1464SOL     OW 5290   5.752   6.493   0.736
 1464SOL    HW1 5291   5.664   6.531   0.764
 1464SOL    HW2 5292   5.812   6.566   0.703
 1465SOL     OW 5293   1.541   1.730   3.825
 1465SOL    HW1 5294   1.517   1.814   3.875
 1465SOL    HW2 5295   1.640   1.723   3.817
 1466SOL     OW 5296   1.470   1.563   2.395
 1466SOL    HW1 5297   1.466   1.632   2.323
 1466SOL    HW2 5298   1.379   1.527   2.412
 1467SOL     OW 5299   2.235   2.107   1.814
 1467SOL    HW1 5300   2.177   2.189   1.811
 1467SOL    HW2 5301   2.329   2.131   1.790
 1468SOL     OW 5302   5.641   5.394   3.220
 1468SOL    HW1 5303   5.596   5.425   3.136
 1468SOL    HW2 5304   5.693   5.469   3.260
 1469SOL     OW 5305   0.816   0.942   2.080
 1469SOL    HW1 5306   0.823   0.984   1.989
 1469SOL    HW2 5307   0.908   0.929   2.117
 1470SOL     OW 5308   1.720   1.437   2.358
 1470SOL    HW1 5309   1.755   1.432   2.452
 1470SOL    HW2 5310   1.651   1.509   2.352
 1471SOL     OW 5311   1.072   0.351   0.516
 1471SOL    HW1 5312   1.112   0.295   0.589
 1471SOL    HW2 5313   0.978   0.323   0.500
 1472SOL     OW 5314   4.079   5.831   4.972
 1472SOL    HW1 5315   4.123   5.748   4.939
 1472SOL    HW2 5316   4.047   5.818   5.066
 1473SOL     OW 5317   5.441   6.461   3.857
 1473SOL    HW1 5318   5.524   6.412   3.829
 1473SOL    HW2 5319   5.411   6.427   3.947
 1474SOL     OW 5320   6.065   5.323   3.150
 1474SOL    HW1 5321   6.000   5.261   3.194
 1474SOL    HW2 5322   6.018   5.380   3.083
 1475SOL     OW 5323   6.359   0.511   1.786
 1475SOL    HW1 5324   6.380   0.604   1.755
 1475SOL    HW2 5325   6.443   0.466   1.815
 1476SOL     OW 5326   2.335   1.269   1.419
 1476SOL    HW1 5327   2.334   1.369   1.411
 1476SOL    HW2 5328   2.420   1.233   1.381
 1477SOL     OW 5329   3.373   0.868   6.588
 1477SOL    HW1 5330   3.291   0.907   6.629
 1477SOL    HW2 5331   3.374   0.886   6.490
 1478SOL     OW 5332   5.957   5.210   0.160
 1478SOL    HW1 5333   6.043   5.160   0.153
 1478SOL    HW2 5334   5.974   5.298   0.204
 1479SOL     OW 5335   1.624   3.378   0.091
 1479SOL    HW1 5336   1.594   3.471   0.113
 1479SOL    HW2 5337   1.693   3.349   0.157
 1480SOL     OW 5338   3.657   6.870   5.920
 1480SOL    HW1 5339   3.735   6.864   5.858
 1480SOL    HW2 5340   3.667   6.949   5.980
 1481SOL     OW 5341   6.955   2.722   5.564
 1481SOL    HW1 5342   6.919   2.643   5.615
 1481SOL    HW2 5343   6.895   2.742   5.487
 1482SOL     OW 5344   4.672   2.583   1.389
 1482SOL    HW1 5345   4.762   2.573   1.432
 1482SOL    HW2 5346   4.603   2.599   1.460
 1483SOL     OW 5347   5.729   2.139   6.047
 1483SOL    HW1 5348   5.675   2.056   6.056
 1483SOL    HW2 5349   5.682   2.214   6.093
 1484SOL     OW 5350   5.789   5.191   3.862
 1484SOL    HW1 5351   5.846   5.112   3.881
 1484SOL    HW2 5352   5.794   5.255   3.940
 1485SOL     OW 5353   2.943   1.942   3.264
 1485SOL    HW1 5354   2.917   1.961   3.170
 1485SOL    HW2 5355   2.862   1.941   3.322
 1486SOL     OW 5356   5.108   2.187   3.267
 1486SOL    HW1 5357   5.187   2.203   3.326
 1486SOL    HW2 5358   5.101   2.262   3.200
 1487SOL     OW 5359   6.653   2.836   6.647
 1487SOL    HW1 5360   6.668   2.737   6.655
 1487SOL    HW2 5361   6.666   2.879   6.737
 1488SOL     OW 5362   5.341   1.792   3.615
 1488SOL    HW1 5363   5.432   1.816   3.582
 1488SOL    HW2 5364   5.276   1.793   3.539
 1489SOL     OW 5365   3.666   5.158   3.906
 1489SOL    HW1 5366   3.643   5.203   3.992
 1489SOL    HW2 5367   3.592   5.096   3.880
 1490SOL     OW 5368   1.150   2.858   1.008
 1490SOL    HW1 5369   1.101   2.936   1.045
 1490SOL    HW2 5370   1.248   2.868   1.025
 1491SOL     OW 5371   6.597   3.791   3.861
 1491SOL    HW1 5372   6.533   3.760   3.791
 1491SOL    HW2 5373   6.685   3.747   3.848
 1492SOL     OW 5374   6.000   1.336   2.260
 1492SOL    HW1 5375   6.016   1.260   2.198
 1492SOL    HW2 5376   6.043   1.318   2.348
 1493SOL     OW 5377   4.213   0.446   4.280
 1493SOL    HW1 5378   4.246   0.463   4.373
 1493SOL    HW2 5379   4.141   0.376   4.283
 1494SOL     OW 5380   6.004   1.948   5.651
 1494SOL    HW1 5381   6.015   1.997   5.564
 1494SOL    HW2 5382   5.967   2.011   5.720
 1495SOL     OW 5383   6.689   2.617   5.140
 1495SOL    HW1 5384   6.600   2.580   5.165
 1495SOL    HW2 5385   6.688   2.643   5.044
 1496SOL     OW 5386   0.449   1.246   1.892
 1496SOL    HW1 5387   0.519   1.239   1.963
 1496SOL    HW2 5388   0.438   1.341   1.865
 1497SOL     OW 5389   6.810   2.789   3.573
 1497SOL    HW1 5390   6.749   2.869   3.566
 1497SOL    HW2 5391   6.863   2.795   3.658
 1498SOL     OW 5392   1.934   4.824   5.964
 1498SOL    HW1 5393   1.988   4.751   6.005
 1498SOL    HW2 5394   1.983   4.911   5.972
 1499SOL     OW 5395   1.053   3.610   6.762
 1499SOL    HW1 5396   0.979   3.612   6.829
 1499SOL    HW2 5397   1.031   3.544   6.691
 1500SOL     OW 5398   6.666   6.250   0.012
 1500SOL    HW1 5399   6.642   6.227   6.935
 1500SOL    HW2 5400   6.591   6.299   0.054
 1501SOL     OW 5401   5.599   1.909   6.076
 1501SOL    HW1 5402   5.629   1.816   6.095
 1501SOL    HW2 5403   5.499   1.911   6.064
 1502SOL     OW 5404   5.520   0.529   1.102
 1502SOL    HW1 5405   5.499   0.452   1.043
 1502SOL    HW2 5406   5.435   0.572   1.134
 1503SOL     OW 5407   2.000   2.127   2.010
 1503SOL    HW1 5408   2.081   2.104   1.956
 1503SOL    HW2 5409   1.933   2.053   2.002
 1504SOL     OW 5410   1.065   0.282   5.192
 1504SOL    HW1 5411   1.109   0.212   5.136
 1504SOL    HW2 5412   1.071   0.255   5.289
 1505SOL     OW 5413   5.898   0.754   5.862
 1505SOL    HW1 5414   5.961   0.821   5.822
 1505SOL    HW2 5415   5.929   0.662   5.839
 1506SOL     OW 5416   1.829   5.241   1.076
 1506SOL    HW1 5417   1.828   5.213   1.172
 1506SOL    HW2 5418   1.806   5.339   1.071
 1507SOL     OW 5419   0.847   1.749   5.812
 1507SOL    HW1 5420   0.810   1.835   5.847
 1507SOL    HW2 5421   0.792   1.717   5.736
 1508SOL     OW 5422   6.690   0.547   1.953
 1508SOL    HW1 5423   6.684   0.647   1.942
 1508SOL    HW2 5424   6.779   0.523   1.990
 1509SOL     OW 5425   4.680   2.750   5.530
 1509SOL    HW1 5426   4.766   2.793   5.504
 1509SOL    HW2 5427   4.639   2.706   5.450
 1510SOL     OW 5428   5.270   2.535   4.784
 1510SOL    HW1 5429   5.186   2.573   4.745
 1510SOL    HW2 5430   5.251   2.445   4.823
 1511SOL     OW 5431   3.060   3.024   1.743
 1511SOL    HW1 5432   3.152   3.038   1.781
 1511SOL    HW2 5433   3.039   2.926   1.743
 1512SOL     OW 5434   0.767   5.052   1.321
 1512SOL    HW1 5435   0.699   5.089   1.258
 1512SOL    HW2 5436   0.847   5.112   1.324
 1513SOL     OW 5437   3.254   0.685   3.576
 1513SOL    HW1 5438   3.339   0.730   3.602
 1513SOL    HW2 5439   3.244   0.686   3.476
 1514SOL     OW 5440   4.416   2.279   5.779
 1514SOL    HW1 5441   4.457   2.353   5.833
 1514SOL    HW2 5442   4.344   2.234   5.833
 1515SOL     OW 5443   5.766   2.124   4.896
 1515SOL    HW1 5444   5.841   2.123   4.830
 1515SOL    HW2 5445   5.734   2.030   4.911
 1516SOL     OW 5446   7.017   7.008   0.604
 1516SOL    HW1 5447   6.922   6.992   0.578
 1516SOL    HW2 5448   0.046   6.920   0.612
 1517SOL     OW 5449   4.317   6.153   3.716
 1517SOL    HW1 5450   4.276   6.235   3.676
 1517SOL    HW2 5451   4.411   6.173   3.744
 1518SOL     OW 5452   1.025   3.350   0.018
 1518SOL    HW1 5453   1.004   3.446   0.039
 1518SOL    HW2 5454   1.124   3.338   0.017
 1519SOL     OW 5455   6.012   4.816   2.439
 1519SOL    HW1 5456   6.057   4.905   2.430
 1519SOL    HW2 5457   6.009   4.790   2.536
 1520SOL     OW 5458   0.360   3.780   2.240
 1520SOL    HW1 5459   0.359   3.771   2.339
 1520SOL    HW2 5460   0.291   3.847   2.212
 1521SOL     OW 5461   2.165   4.091   0.336
 1521SOL    HW1 5462   2.095   4.086   0.407
 1521SOL    HW2 5463   2.124   4.130   0.253
 1522SOL     OW 5464   6.304   6.943   5.016
 1522SOL    HW1 5465   6.227   6.892   4.980
 1522SOL    HW2 5466   6.369   6.962   4.943
 1523SOL     OW 5467   4.952   4.660   6.973
 1523SOL    HW1 5468   5.050   4.642   6.983
 1523SOL    HW2 5469   4.908   4.657   0.044
 1524SOL     OW 5470   1.408   2.020   2.092
 1524SOL    HW1 5471   1.397   2.106   2.143
 1524SOL    HW2 5472   1.443   2.040   2.001
 1525SOL     OW 5473   6.560   2.445   0.694
 1525SOL    HW1 5474   6.591   2.409   0.782
 1525SOL    HW2 5475   6.615   2.405   0.620
 1526SOL     OW 5476   0.368   6.727   6.861
 1526SOL    HW1 5477   0.437   6.738   6.790
 1526SOL    HW2 5478   0.298   6.664   6.830
 1527SOL     OW 5479   3.867   0.849   5.636
 1527SOL    HW1 5480   3.794   0.876   5.573
 1527SOL    HW2 5481   3.935   0.794   5.586
 1528SOL     OW 5482   5.129   5.883   2.363
 1528SOL    HW1 5483   5.228   5.874   2.353
 1528SOL    HW2 5484   5.087   5.892   2.272
 1529SOL     OW 5485   3.799   0.070   0.548
 1529SOL    HW1 5486   3.736   0.138   0.586
 1529SOL    HW2 5487   3.891   0.109   0.546
 1530SOL     OW 5488   3.308   1.704   2.814
 1530SOL    HW1 5489   3.228   1.764   2.805
 1530SOL    HW2 5490   3.283   1.623   2.867
 1531SOL     OW 5491   5.433   0.896   4.805
 1531SOL    HW1 5492   5.367   0.864   4.738
 1531SOL    HW2 5493   5.495   0.962   4.762
 1532SOL     OW 5494   2.747   3.653   5.901
 1532SOL    HW1 5495   2.800   3.663   5.985
 1532SOL    HW2 5496   2.660   3.702   5.911
 1533SOL     OW 5497   6.499   3.239   0.272
 1533SOL    HW1 5498   6.443   3.191   0.204
 1533SOL    HW2 5499   6.545   3.172   0.330
 1534SOL     OW 5500   1.712   5.051   6.481
 1534SOL    HW1 5501   1.693   5.040   6.578
 1534SOL    HW2 5502   1.749   4.965   6.444
 1535SOL     OW 5503   5.044   6.570   4.422
 1535SOL    HW1 5504   5.099   6.637   4.372
 1535SOL    HW2 5505   5.049   6.588   4.520
 1536SOL     OW 5506   4.126   4.321   5.294
 1536SOL    HW1 5507   4.181   4.275   5.364
 1536SOL    HW2 5508   4.182   4.335   5.212
 1537SOL     OW 5509   3.909   6.114   3.531
 1537SOL    HW1 5510   3.987   6.065   3.493
 1537SOL    HW2 5511   3.865   6.057   3.601
 1538SOL     OW 5512   3.819   5.999   5.167
 1538SOL    HW1 5513   3.726   6.035   5.170
 1538SOL    HW2 5514   3.835   5.942   5.248
 1539SOL     OW 5515   4.216   3.659   1.768
 1539SOL    HW1 5516   4.314   3.677   1.774
 1539SOL    HW2 5517   4.184   3.675   1.675
 1540SOL     OW 5518   1.825   6.148   6.138
 1540SOL    HW1 5519   1.806   6.094   6.219
 1540SOL    HW2 5520   1.924   6.148   6.120
 1541SOL     OW 5521   3.253   3.083   2.542
 1541SOL    HW1 5522   3.162   3.080   2.581
 1541SOL    HW2 5523   3.319   3.113   2.612
 1542SOL     OW 5524   6.641   6.008   1.623
 1542SOL    HW1 5525   6.711   6.051   1.565
 1542SOL    HW2 5526   6.672   6.008   1.718
 1543SOL     OW 5527   3.445   3.952   5.029
 1543SOL    HW1 5528   3.461   3.974   4.933
 1543SOL    HW2 5529   3.397   4.028   5.073
 1544SOL     OW 5530   3.564   3.782   2.910
 1544SOL    HW1 5531   3.585   3.870   2.951
 1544SOL    HW2 5532   3.628   3.713   2.945
 1545SOL     OW 5533   5.458   1.052   3.732
 1545SOL    HW1 5534   5.545   1.098   3.712
 1545SOL    HW2 5535   5.477   0.962   3.772
 1546SOL     OW 5536   4.604   6.906   6.127
 1546SOL    HW1 5537   4.597   6.975   6.199
 1546SOL    HW2 5538   4.687   6.923   6.073
 1547SOL     OW 5539   1.854   3.726   3.155
 1547SOL    HW1 5540   1.840   3.789   3.078
 1547SOL    HW2 5541   1.943   3.743   3.196
 1548SOL     OW 5542   4.670   4.178   5.879
 1548SOL    HW1 5543   4.705   4.183   5.786
 1548SOL    HW2 5544   4.592   4.240   5.889
 1549SOL     OW 5545   3.772   1.159   2.758
 1549SOL    HW1 5546   3.701   1.091   2.743
 1549SOL    HW2 5547   3.804   1.155   2.853
 1550SOL     OW 5548   2.300   5.052   5.968
 1550SOL    HW1 5549   2.361   5.109   6.023
 1550SOL    HW2 5550   2.345   5.028   5.882
 1551SOL     OW 5551   2.197   4.192   6.791
 1551SOL    HW1 5552   2.196   4.282   6.834
 1551SOL    HW2 5553   2.291   4.167   6.768
 1552SOL     OW 5554   0.240   0.012   0.719
 1552SOL    HW1 5555   0.245   0.079   0.794
 1552SOL    HW2 5556   0.167   0.036   0.657
 1553SOL     OW 5557   0.072   0.591   5.925
 1553SOL    HW1 5558   0.008   0.593   5.848
 1553SOL    HW2 5559   0.036   0.531   5.997
 1554SOL     OW 5560   3.829   1.837   3.348
 1554SOL    HW1 5561   3.769   1.916   3.331
 1554SOL    HW2 5562   3.921   1.858   3.313
 1555SOL     OW 5563   5.056   1.907   6.929
 1555SOL    HW1 5564   4.963   1.911   6.893
 1555SOL    HW2 5565   5.070   1.819   6.975
 1556SOL     OW 5566   3.664   1.074   0.509
 1556SOL    HW1 5567   3.675   0.987   0.555
 1556SOL    HW2 5568   3.567   1.098   0.503
 1557SOL     OW 5569   2.310   1.164   6.669
 1557SOL    HW1 5570   2.409   1.153   6.656
 1557SOL    HW2 5571   2.289   1.261   6.680
 1558SOL     OW 5572   5.302   1.202   3.940
 1558SOL    HW1 5573   5.352   1.148   3.872
 1558SOL    HW2 5574   5.262   1.142   4.008
 1559SOL     OW 5575   0.144   2.849   0.447
 1559SOL    HW1 5576   0.211   2.787   0.404
 1559SOL    HW2 5577   0.052   2.812   0.435
 1560SOL     OW 5578   3.402   1.568   5.855
 1560SOL    HW1 5579   3.432   1.473   5.860
 1560SOL    HW2 5580   3.303   1.572   5.853
 1561SOL     OW 5581   6.793   6.123   2.291
 1561SOL    HW1 5582   6.807   6.189   2.217
 1561SOL    HW2 5583   6.721   6.059   2.266
 1562SOL     OW 5584   4.314   6.192   1.529
 1562SOL    HW1 5585   4.289   6.289   1.521
 1562SOL    HW2 5586   4.266   6.140   1.458
 1563SOL     OW 5587   2.276   1.109   6.064
 1563SOL    HW1 5588   2.330   1.029   6.090
 1563SOL    HW2 5589   2.337   1.183   6.036
 1564SOL     OW 5590   1.071   2.609   2.696
 1564SOL    HW1 5591   1.147   2.545   2.709
 1564SOL    HW2 5592   1.038   2.640   2.785
 1565SOL     OW 5593   4.518   5.324   3.669
 1565SOL    HW1 5594   4.486   5.230   3.659
 1565SOL    HW2 5595   4.581   5.346   3.594
 1566SOL     OW 5596   5.510   5.236   4.161
 1566SOL    HW1 5597   5.424   5.195   4.129
 1566SOL    HW2 5598   5.579   5.165   4.170
 1567SOL     OW 5599   6.358   5.973   0.102
 1567SOL    HW1 5600   6.393   5.946   0.013
 1567SOL    HW2 5601   6.313   5.895   0.146
 1568SOL     OW 5602   2.520   6.088   1.454
 1568SOL    HW1 5603   2.432   6.058   1.415
 1568SOL    HW2 5604   2.573   6.134   1.384
 1569SOL     OW 5605   2.907   6.936   3.159
 1569SOL    HW1 5606   2.980   6.899   3.102
 1569SOL    HW2 5607   2.868   6.862   3.214
 1570SOL     OW 5608   2.414   6.520   0.560
 1570SOL    HW1 5609   2.485   6.481   0.502
 1570SOL    HW2 5610   2.371   6.598   0.514
 1571SOL     OW 5611   6.168   1.723   2.684
 1571SOL    HW1 5612   6.184   1.701   2.780
 1571SOL    HW2 5613   6.231   1.670   2.626
 1572SOL     OW 5614   1.299   5.700   0.745
 1572SOL    HW1 5615   1.298   5.672   0.650
 1572SOL    HW2 5616   1.212   5.745   0.767
 1573SOL     OW 5617   6.354   3.969   1.635
 1573SOL    HW1 5618   6.371   4.017   1.549
 1573SOL    HW2 5619   6.349   4.036   1.710
 1574SOL     OW 5620   6.549   1.319   3.587
 1574SOL    HW1 5621   6.464   1.315   3.640
 1574SOL    HW2 5622   6.616   1.375   3.635
 1575SOL     OW 5623   2.078   2.252   1.409
 1575SOL    HW1 5624   2.156   2.191   1.423
 1575SOL    HW2 5625   2.106   2.330   1.353
 1576SOL     OW 5626   1.107   0.576   2.763
 1576SOL    HW1 5627   1.075   0.481   2.759
 1576SOL    HW2 5628   1.191   0.585   2.709
 1577SOL     OW 5629   2.521   0.605   6.009
 1577SOL    HW1 5630   2.530   0.509   5.984
 1577SOL    HW2 5631   2.471   0.654   5.938
 1578SOL     OW 5632   5.336   2.691   5.986
 1578SOL    HW1 5633   5.374   2.733   5.904
 1578SOL    HW2 5634   5.237   2.686   5.979
 1579SOL     OW 5635   0.197   1.834   1.993
 1579SOL    HW1 5636   0.294   1.857   2.004
 1579SOL    HW2 5637   0.167   1.859   1.901
 1580SOL     OW 5638   3.367   3.927   3.945
 1580SOL    HW1 5639   3.417   3.854   3.992
 1580SOL    HW2 5640   3.337   3.995   4.013
 1581SOL     OW 5641   6.315   4.532   4.849
 1581SOL    HW1 5642   6.302   4.603   4.779
 1581SOL    HW2 5643   6.301   4.572   4.939
 1582SOL     OW 5644   2.003   6.795   4.321
 1582SOL    HW1 5645   2.045   6.761   4.237
 1582SOL    HW2 5646   1.955   6.720   4.367
 1583SOL     OW 5647   0.620   5.530   2.377
 1583SOL    HW1 5648   0.664   5.606   2.330
 1583SOL    HW2 5649   0.655   5.524   2.471
 1584SOL     OW 5650   0.491   6.001   6.748
 1584SOL    HW1 5651   0.494   5.979   6.650
 1584SOL    HW2 5652   0.541   5.932   6.800
 1585SOL     OW 5653   4.335   1.861   3.213
 1585SOL    HW1 5654   4.297   1.770   3.198
 1585SOL    HW2 5655   4.282   1.909   3.282
 1586SOL     OW 5656   3.183   4.903   1.979
 1586SOL    HW1 5657   3.215   4.886   2.072
 1586SOL    HW2 5658   3.254   4.875   1.914
 1587SOL     OW 5659   2.589   5.816   5.873
 1587SOL    HW1 5660   2.521   5.885   5.897
 1587SOL    HW2 5661   2.585   5.798   5.775
 1588SOL     OW 5662   3.566   0.976   2.791
 1588SOL    HW1 5663   3.496   1.033   2.834
 1588SOL    HW2 5664   3.531   0.940   2.704
 1589SOL     OW 5665   0.024   3.272   2.072
 1589SOL    HW1 5666   6.948   3.299   2.047
 1589SOL    HW2 5667   0.081   3.271   1.990
 1590SOL     OW 5668   4.006   0.223   4.579
 1590SOL    HW1 5669   3.921   0.244   4.530
 1590SOL    HW2 5670   4.034   0.303   4.632
 1591SOL     OW 5671   0.108   5.309   1.621
 1591SOL    HW1 5672   0.174   5.308   1.546
 1591SOL    HW2 5673   0.120   5.227   1.677
 1592SOL     OW 5674   2.283   3.867   6.829
 1592SOL    HW1 5675   2.252   3.817   6.748
 1592SOL    HW2 5676   2.337   3.947   6.800
 1593SOL     OW 5677   0.652   6.516   5.538
 1593SOL    HW1 5678   0.742   6.556   5.553
 1593SOL    HW2 5679   0.606   6.562   5.462
 1594SOL     OW 5680   1.365   6.392   1.820
 1594SOL    HW1 5681   1.283   6.426   1.774
 1594SOL    HW2 5682   1.436   6.462   1.819
 1595SOL     OW 5683   1.728   5.173   0.725
 1595SOL    HW1 5684   1.654   5.117   0.688
 1595SOL    HW2 5685   1.692   5.264   0.749
 1596SOL     OW 5686   0.433   2.212   3.982
 1596SOL    HW1 5687   0.357   2.149   3.966
 1596SOL    HW2 5688   0.519   2.165   3.965
 1597SOL     OW 5689   1.364   6.462   0.287
 1597SOL    HW1 5690   1.324   6.506   0.207
 1597SOL    HW2 5691   1.321   6.497   0.370
 1598SOL     OW 5692   0.057   4.582   5.448
 1598SOL    HW1 5693   0.147   4.578   5.491
 1598SOL    HW2 5694   7.014   4.640   5.503
 1599SOL     OW 5695   4.585   5.333   4.636
 1599SOL    HW1 5696   4.555   5.258   4.578
 1599SOL    HW2 5697   4.671   5.371   4.601
 1600SOL     OW 5698   3.622   1.377   3.248
 1600SOL    HW1 5699   3.720   1.394   3.261
 1600SOL    HW2 5700   3.609   1.286   3.210
 1601SOL     OW 5701   6.648   6.065   4.334
 1601SOL    HW1 5702   6.587   5.986   4.348
 1601SOL    HW2 5703   6.653   6.085   4.236
 1602SOL     OW 5704   3.832   5.338   4.317
 1602SOL    HW1 5705   3.779   5.364   4.236
 1602SOL    HW2 5706   3.927   5.326   4.291
 1603SOL     OW 5707   1.782   6.406   3.271
 1603SOL    HW1 5708   1.802   6.457   3.188
 1603SOL    HW2 5709   1.738   6.319   3.247
 1604SOL     OW 5710   5.180   4.281   0.846
 1604SOL    HW1 5711   5.213   4.220   0.773
 1604SOL    HW2 5712   5.132   4.358   0.805
 1605SOL     OW 5713   6.389   5.040   1.453
 1605SOL    HW1 5714   6.372   5.058   1.550
 1605SOL    HW2 5715   6.470   4.984   1.443
 1606SOL     OW 5716   3.987   6.948   5.481
 1606SOL    HW1 5717   3.993   0.030   5.474
 1606SOL    HW2 5718   4.033   6.906   5.403
 1607SOL     OW 5719   4.379   1.692   0.897
 1607SOL    HW1 5720   4.440   1.614   0.912
 1607SOL    HW2 5721   4.324   1.675   0.815
 1608SOL     OW 5722   0.700   1.311   3.380
 1608SOL    HW1 5723   0.718   1.365   3.462
 1608SOL    HW2 5724   0.777   1.250   3.362
 1609SOL     OW 5725   4.665   0.340   6.852
 1609SOL    HW1 5726   4.614   0.338   6.766
 1609SOL    HW2 5727   4.601   0.338   6.929
 1610SOL     OW 5728   6.337   4.406   6.599
 1610SOL    HW1 5729   6.377   4.449   6.680
 1610SOL    HW2 5730   6.259   4.349   6.627
 1611SOL     OW 5731   2.738   3.947   0.835
 1611SOL    HW1 5732   2.796   3.938   0.753
 1611SOL    HW2 5733   2.725   3.857   0.877
 1612SOL     OW 5734   2.924   0.241   6.997
 1612SOL    HW1 5735   2.945   0.288   6.911
 1612SOL    HW2 5736   2.861   0.165   6.978
 1613SOL     OW 5737   1.427   5.590   2.121
 1613SOL    HW1 5738   1.358   5.534   2.076
 1613SOL    HW2 5739   1.412   5.589   2.220
 1614SOL     OW 5740   4.864   3.057   6.564
 1614SOL    HW1 5741   4.948   3.029   6.518
 1614SOL    HW2 5742   4.787   3.003   6.529
 1615SOL     OW 5743   5.969   5.795   0.648
 1615SOL    HW1 5744   6.009   5.706   0.624
 1615SOL    HW2 5745   5.890   5.812   0.589
 1616SOL     OW 5746   3.482   1.297   5.165
 1616SOL    HW1 5747   3.404   1.334   5.215
 1616SOL    HW2 5748   3.487   1.339   5.075
 1617SOL     OW 5749   5.834   6.771   2.587
 1617SOL    HW1 5750   5.915   6.745   2.639
 1617SOL    HW2 5751   5.818   6.869   2.598
 1618SOL     OW 5752   1.365   5.370   2.524
 1618SOL    HW1 5753   1.292   5.363   2.592
 1618SOL    HW2 5754   1.439   5.307   2.547
 1619SOL     OW 5755   0.897   3.877   1.350
 1619SOL    HW1 5756   0.816   3.832   1.312
 1619SOL    HW2 5757   0.912   3.963   1.303
 1620SOL     OW 5758   2.667   4.474   1.731
 1620SOL    HW1 5759   2.697   4.379   1.735
 1620SOL    HW2 5760   2.715   4.528   1.800
 1621SOL     OW 5761   6.639   0.925   0.804
 1621SOL    HW1 5762   6.611   0.863   0.731
 1621SOL    HW2 5763   6.583   0.908   0.885
 1622SOL     OW 5764   0.556   3.012   4.920
 1622SOL    HW1 5765   0.468   3.061   4.916
 1622SOL    HW2 5766   0.594   3.006   4.828
 1623SOL     OW 5767   2.128   2.891   4.907
 1623SOL    HW1 5768   2.152   2.924   4.815
 1623SOL    HW2 5769   2.206   2.904   4.968
 1624SOL     OW 5770   3.278   1.353   5.302
 1624SOL    HW1 5771   3.295   1.423   5.371
 1624SOL    HW2 5772   3.180   1.331   5.301
 1625SOL     OW 5773   1.749   5.113   0.345
 1625SOL    HW1 5774   1.839   5.145   0.374
 1625SOL    HW2 5775   1.699   5.079   0.425
 1626SOL     OW 5776   4.454   1.535   0.071
 1626SOL    HW1 5777   4.534   1.595   0.066
 1626SOL    HW2 5778   4.449   1.494   0.161
 1627SOL     OW 5779   6.364   3.027   3.671
 1627SOL    HW1 5780   6.342   3.099   3.737
 1627SOL    HW2 5781   6.310   3.040   3.588
 1628SOL     OW 5782   4.846   4.712   0.217
 1628SOL    HW1 5783   4.779   4.773   0.259
 1628SOL    HW2 5784   4.938   4.746   0.234
 1629SOL     OW 5785   2.924   0.796   3.660
 1629SOL    HW1 5786   2.996   0.804   3.729
 1629SOL    HW2 5787   2.857   0.728   3.689
 1630SOL     OW 5788   1.537   4.735   5.695
 1630SOL    HW1 5789   1.492   4.646   5.706
 1630SOL    HW2 5790   1.607   4.728   5.625
 1631SOL     OW 5791   1.042   3.146   0.324
 1631SOL    HW1 5792   1.115   3.202   0.285
 1631SOL    HW2 5793   0.969   3.205   0.358
 1632SOL     OW 5794   5.880   2.378   0.792
 1632SOL    HW1 5795   5.795   2.356   0.744
 1632SOL    HW2 5796   5.944   2.302   0.785
 1633SOL     OW 5797   5.456   3.941   4.356
 1633SOL    HW1 5798   5.430   3.895   4.440
 1633SOL    HW2 5799   5.401   3.905   4.280
 1634SOL     OW 5800   3.962   5.796   4.371
 1634SOL    HW1 5801   4.004   5.713   4.407
 1634SOL    HW2 5802   3.863   5.783   4.365
 1635SOL     OW 5803   0.153   5.018   6.874
 1635SOL    HW1 5804   0.091   5.080   6.923
 1635SOL    HW2 5805   0.185   4.946   6.936
 1636SOL     OW 5806   2.856   4.263   1.439
 1636SOL    HW1 5807   2.900   4.178   1.410
 1636SOL    HW2 5808   2.926   4.332   1.458
 1637SOL     OW 5809   0.654   0.699   2.878
 1637SOL    HW1 5810   0.639   0.669   2.784
 1637SOL    HW2 5811   0.579   0.758   2.907
 1638SOL     OW 5812   6.944   4.483   3.786
 1638SOL    HW1 5813   0.006   4.424   3.786
 1638SOL    HW2 5814   6.973   4.579   3.787
 1639SOL     OW 5815   5.076   6.768   2.198
 1639SOL    HW1 5816   5.087   6.855   2.150
 1639SOL    HW2 5817   5.155   6.753   2.257
 1640SOL     OW 5818   5.797   0.547   0.161
 1640SOL    HW1 5819   5.802   0.489   0.079
 1640SOL    HW2 5820   5.890   0.562   0.196
 1641SOL     OW 5821   4.583   1.845   3.109
 1641SOL    HW1 5822   4.613   1.752   3.127
 1641SOL    HW2 5823   4.496   1.862   3.156
 1642SOL     OW 5824   6.545   3.619   6.418
 1642SOL    HW1 5825   6.607   3.608   6.340
 1642SOL    HW2 5826   6.469   3.555   6.409
 1643SOL     OW 5827   2.981   4.813   4.589
 1643SOL    HW1 5828   2.948   4.863   4.669
 1643SOL    HW2 5829   2.991   4.716   4.612
 1644SOL     OW 5830   6.025   3.281   0.203
 1644SOL    HW1 5831   6.091   3.292   0.277
 1644SOL    HW2 5832   6.021   3.365   0.149
 1645SOL     OW 5833   3.240   4.874   6.324
 1645SOL    HW1 5834   3.180   4.802   6.358
 1645SOL    HW2 5835   3.335   4.843   6.327
 1646SOL     OW 5836   2.779   6.552   6.896
 1646SOL    HW1 5837   2.799   6.625   6.961
 1646SOL    HW2 5838   2.681   6.532   6.898
 1647SOL     OW 5839   5.925   3.246   4.447
 1647SOL    HW1 5840   5.966   3.264   4.358
 1647SOL    HW2 5841   5.825   3.243   4.438
 1648SOL     OW 5842   5.685   5.768   0.524
 1648SOL    HW1 5843   5.587   5.759   0.506
 1648SOL    HW2 5844   5.709   5.715   0.606
 1649SOL     OW 5845   3.317   1.128   3.995
 1649SOL    HW1 5846   3.331   1.037   4.033
 1649SOL    HW2 5847   3.241   1.126   3.929
 1650SOL     OW 5848   1.576   6.302   5.894
 1650SOL    HW1 5849   1.669   6.268   5.875
 1650SOL    HW2 5850   1.510   6.250   5.840
 1651SOL     OW 5851   0.609   1.863   1.393
 1651SOL    HW1 5852   0.510   1.870   1.387
 1651SOL    HW2 5853   0.649   1.955   1.389
 1652SOL     OW 5854   1.057   3.546   2.370
 1652SOL    HW1 5855   1.017   3.581   2.285
 1652SOL    HW2 5856   1.125   3.476   2.349
 1653SOL     OW 5857   0.659   6.595   0.818
 1653SOL    HW1 5858   0.638   6.651   0.737
 1653SOL    HW2 5859   0.673   6.655   0.897
 1654SOL     OW 5860   0.378   3.591   1.573
 1654SOL    HW1 5861   0.348   3.498   1.594
 1654SOL    HW2 5862   0.464   3.610   1.620
 1655SOL     OW 5863   1.016   2.076   5.369
 1655SOL    HW1 5864   0.949   2.132   5.321
 1655SOL    HW2 5865   0.969   2.008   5.426
 1656SOL     OW 5866   2.349   4.269   2.547
 1656SOL    HW1 5867   2.357   4.303   2.641
 1656SOL    HW2 5868   2.396   4.332   2.485
 1657SOL     OW 5869   6.846   1.194   4.164
 1657SOL    HW1 5870   6.837   1.157   4.257
 1657SOL    HW2 5871   6.869   1.291   4.168
 1658SOL     OW 5872   0.326   6.526   1.155
 1658SOL    HW1 5873   0.385   6.482   1.087
 1658SOL    HW2 5874   0.265   6.457   1.194
 1659SOL     OW 5875   3.794   6.771   6.865
 1659SOL    HW1 5876   3.802   6.718   6.949
 1659SOL    HW2 5877   3.722   6.732   6.807
 1660SOL     OW 5878   1.309   5.702   3.604
 1660SOL    HW1 5879   1.302   5.633   3.532
 1660SOL    HW2 5880   1.226   5.758   3.605
 1661SOL     OW 5881   3.001   0.039   1.239
 1661SOL    HW1 5882   3.049   6.980   1.283
 1661SOL    HW2 5883   2.953   0.006   1.158
 1662SOL     OW 5884   6.796   0.246   4.141
 1662SOL    HW1 5885   6.755   0.191   4.068
 1662SOL    HW2 5886   6.729   0.259   4.214
 1663SOL     OW 5887   4.693   6.736   3.302
 1663SOL    HW1 5888   4.686   6.704   3.207
 1663SOL    HW2 5889   4.622   6.804   3.320
 1664SOL     OW 5890   2.048   6.912   4.878
 1664SOL    HW1 5891   2.081   6.819   4.894
 1664SOL    HW2 5892   2.052   6.933   4.780
 1665SOL     OW 5893   0.379   2.378   3.034
 1665SOL    HW1 5894   0.388   2.309   2.962
 1665SOL    HW2 5895   0.291   2.423   3.026
 1666SOL     OW 5896   5.736   2.155   6.475
 1666SOL    HW1 5897   5.803   2.109   6.417
 1666SOL    HW2 5898   5.685   2.087   6.528
 1667SOL     OW 5899   6.941   5.911   1.122
 1667SOL    HW1 5900   6.906   5.819   1.139
 1667SOL    HW2 5901   6.959   5.923   1.024
 1668SOL     OW 5902   5.559   6.484   4.489
 1668SOL    HW1 5903   5.554   6.389   4.518
 1668SOL    HW2 5904   5.620   6.492   4.410
 1669SOL     OW 5905   6.440   5.164   6.417
 1669SOL    HW1 5906   6.427   5.107   6.498
 1669SOL    HW2 5907   6.462   5.105   6.339
 1670SOL     OW 5908   0.347   3.920   6.022
 1670SOL    HW1 5909   0.412   3.913   5.947
 1670SOL    HW2 5910   0.322   3.829   6.054
 1671SOL     OW 5911   5.888   1.425   2.584
 1671SOL    HW1 5912   5.814   1.371   2.545
 1671SOL    HW2 5913   5.874   1.522   2.562
 1672SOL     OW 5914   1.384   2.612   0.675
 1672SOL    HW1 5915   1.415   2.659   0.757
 1672SOL    HW2 5916   1.342   2.677   0.613
 1673SOL     OW 5917   1.193   1.519   4.752
 1673SOL    HW1 5918   1.152   1.478   4.671
 1673SOL    HW2 5919   1.175   1.460   4.831
 1674SOL     OW 5920   0.769   3.120   2.436
 1674SOL    HW1 5921   0.709   3.107   2.515
 1674SOL    HW2 5922   0.821   3.205   2.448
 1675SOL     OW 5923   5.690   6.947   0.887
 1675SOL    HW1 5924   5.693   6.928   0.985
 1675SOL    HW2 5925   5.782   6.965   0.854
 1676SOL     OW 5926   2.238   2.797   2.172
 1676SOL    HW1 5927   2.332   2.805   2.140
 1676SOL    HW2 5928   2.210   2.701   2.168
 1677SOL     OW 5929   3.295   3.432   4.669
 1677SOL    HW1 5930   3.333   3.513   4.623
 1677SOL    HW2 5931   3.204   3.453   4.703
 1678SOL     OW 5932   5.448   4.117   3.985
 1678SOL    HW1 5933   5.480   4.131   3.891
 1678SOL    HW2 5934   5.458   4.021   4.010
 1679SOL     OW 5935   2.402   2.607   4.480
 1679SOL    HW1 5936   2.492   2.568   4.500
 1679SOL    HW2 5937   2.399   2.702   4.513
 1680SOL     OW 5938   0.202   2.923   5.080
 1680SOL    HW1 5939   0.265   2.904   5.155
 1680SOL    HW2 5940   0.238   2.997   5.024
 1681SOL     OW 5941   6.882   5.499   0.151
 1681SOL    HW1 5942   6.979   5.490   0.125
 1681SOL    HW2 5943   6.866   5.589   0.190
 1682SOL     OW 5944   1.550   1.217   4.794
 1682SOL    HW1 5945   1.641   1.177   4.796
 1682SOL    HW2 5946   1.530   1.260   4.882
 1683SOL     OW 5947   4.829   5.413   1.276
 1683SOL    HW1 5948   4.921   5.381   1.299
 1683SOL    HW2 5949   4.799   5.481   1.342
 1684SOL     OW 5950   1.358   5.643   2.410
 1684SOL    HW1 5951   1.378   5.556   2.457
 1684SOL    HW2 5952   1.338   5.713   2.478
 1685SOL     OW 5953   2.514   0.916   4.678
 1685SOL    HW1 5954   2.564   0.959   4.603
 1685SOL    HW2 5955   2.445   0.979   4.713
 1686SOL     OW 5956   2.606   6.251   4.482
 1686SOL    HW1 5957   2.609   6.261   4.581
 1686SOL    HW2 5958   2.569   6.162   4.458
 1687SOL     OW 5959   2.093   3.472   1.684
 1687SOL    HW1 5960   2.155   3.442   1.757
 1687SOL    HW2 5961   2.142   3.470   1.597
 1688SOL     OW 5962   2.331   2.490   4.242
 1688SOL    HW1 5963   2.319   2.521   4.336
 1688SOL    HW2 5964   2.419   2.523   4.207
 1689SOL     OW 5965   5.985   1.422   2.826
 1689SOL    HW1 5966   6.060   1.486   2.842
 1689SOL    HW2 5967   5.959   1.423   2.730
 1690SOL     OW 5968   1.739   2.426   3.936
 1690SOL    HW1 5969   1.784   2.512   3.957
 1690SOL    HW2 5970   1.766   2.394   3.845
 1691SOL     OW 5971   6.249   3.630   3.541
 1691SOL    HW1 5972   6.182   3.565   3.505
 1691SOL    HW2 5973   6.244   3.715   3.488
 1692SOL     OW 5974   5.299   6.472   1.643
 1692SOL    HW1 5975   5.212   6.429   1.667
 1692SOL    HW2 5976   5.284   6.569   1.626
 1693SOL     OW 5977   6.830   2.328   2.035
 1693SOL    HW1 5978   6.820   2.385   2.117
 1693SOL    HW2 5979   6.927   2.311   2.017
 1694SOL     OW 5980   5.702   0.954   2.129
 1694SOL    HW1 5981   5.761   1.006   2.190
 1694SOL    HW2 5982   5.658   1.016   2.064
 1695SOL     OW 5983   4.151   0.648   5.777
 1695SOL    HW1 5984   4.082   0.711   5.740
 1695SOL    HW2 5985   4.211   0.697   5.840
 1696SOL     OW 5986   4.529   5.139   0.742
 1696SOL    HW1 5987   4.470   5.059   0.731
 1696SOL    HW2 5988   4.598   5.120   0.812
 1697SOL     OW 5989   5.839   0.965   0.831
 1697SOL    HW1 5990   5.770   1.011   0.887
 1697SOL    HW2 5991   5.893   1.033   0.781
 1698SOL     OW 5992   3.687   0.379   6.803
 1698SOL    HW1 5993   3.712   0.448   6.734
 1698SOL    HW2 5994   3.762   0.367   6.867
 1699SOL     OW 5995   2.074   0.970   0.314
 1699SOL    HW1 5996   2.027   0.923   0.389
 1699SOL    HW2 5997   2.060   0.919   0.229
 1700SOL     OW 5998   6.166   3.486   4.143
 1700SOL    HW1 5999   6.120   3.564   4.101
 1700SOL    HW2 6000   6.250   3.466   4.093
 1701SOL     OW 6001   4.904   4.156   6.139
 1701SOL    HW1 6002   4.945   4.173   6.050
 1701SOL    HW2 6003   4.823   4.099   6.128
 1702SOL     OW 6004   6.285   1.628   0.522
 1702SOL    HW1 6005   6.312   1.668   0.610
 1702SOL    HW2 6006   6.241   1.540   0.538
 1703SOL     OW 6007   3.055   2.737   1.750
 1703SOL    HW1 6008   2.978   2.676   1.770
 1703SOL    HW2 6009   3.134   2.710   1.805
 1704SOL     OW 6010   0.960   2.326   1.280
 1704SOL    HW1 6011   1.016   2.260   1.230
 1704SOL    HW2 6012   0.906   2.379   1.215
 1705SOL     OW 6013   3.056   1.568   1.982
 1705SOL    HW1 6014   3.040   1.470   1.989
 1705SOL    HW2 6015   3.035   1.599   1.889
 1706SOL     OW 6016   5.038   1.373   2.089
 1706SOL    HW1 6017   5.123   1.362   2.037
 1706SOL    HW2 6018   5.055   1.352   2.185
 1707SOL     OW 6019   5.069   1.710   2.239
 1707SOL    HW1 6020   5.120   1.636   2.283
 1707SOL    HW2 6021   5.104   1.723   2.145
 1708SOL     OW 6022   4.967   5.320   2.136
 1708SOL    HW1 6023   4.941   5.351   2.044
 1708SOL    HW2 6024   4.885   5.305   2.191
 1709SOL     OW 6025   3.416   6.310   2.618
 1709SOL    HW1 6026   3.481   6.316   2.693
 1709SOL    HW2 6027   3.353   6.234   2.634
 1710SOL     OW 6028   5.112   4.796   3.802
 1710SOL    HW1 6029   5.016   4.784   3.777
 1710SOL    HW2 6030   5.136   4.730   3.874
 1711SOL     OW 6031   1.597   4.191   4.381
 1711SOL    HW1 6032   1.553   4.127   4.445
 1711SOL    HW2 6033   1.622   4.143   4.297
 1712SOL     OW 6034   6.582   2.207   5.187
 1712SOL    HW1 6035   6.566   2.210   5.088
 1712SOL    HW2 6036   6.524   2.136   5.228
 1713SOL     OW 6037   4.410   2.325   1.204
 1713SOL    HW1 6038   4.340   2.265   1.168
 1713SOL    HW2 6039   4.393   2.419   1.174
 1714SOL     OW 6040   3.680   1.182   5.789
 1714SOL    HW1 6041   3.660   1.086   5.807
 1714SOL    HW2 6042   3.690   1.231   5.876
 1715SOL     OW 6043   0.586   5.357   3.328
 1715SOL    HW1 6044   0.492   5.390   3.323
 1715SOL    HW2 6045   0.587   5.257   3.337
 1716SOL     OW 6046   5.223   6.920   3.293
 1716SOL    HW1 6047   5.280   7.002   3.293
 1716SOL    HW2 6048   5.169   6.916   3.378
 1717SOL     OW 6049   2.583   6.590   5.678
 1717SOL    HW1 6050   2.488   6.573   5.706
 1717SOL    HW2 6051   2.640   6.513   5.704
 1718SOL     OW 6052   2.367   1.542   1.457
 1718SOL    HW1 6053   2.405   1.574   1.544
 1718SOL    HW2 6054   2.384   1.612   1.387
 1719SOL     OW 6055   2.111   3.518   1.140
 1719SOL    HW1 6056   2.175   3.525   1.063
 1719SOL    HW2 6057   2.151   3.463   1.212
 1720SOL     OW 6058   6.765   3.302   0.419
 1720SOL    HW1 6059   6.764   3.387   0.368
 1720SOL    HW2 6060   6.750   3.225   0.357
 1721SOL     OW 6061   1.827   6.895   1.434
 1721SOL    HW1 6062   1.883   6.814   1.418
 1721SOL    HW2 6063   1.869   6.975   1.390
 1722SOL     OW 6064   3.120   1.369   3.536
 1722SOL    HW1 6065   3.152   1.368   3.441
 1722SOL    HW2 6066   3.139   1.458   3.577
 1723SOL     OW 6067   5.876   2.339   2.130
 1723SOL    HW1 6068   5.792   2.386   2.105
 1723SOL    HW2 6069   5.854   2.254   2.178
 1724SOL     OW 6070   6.657   2.648   1.740
 1724SOL    HW1 6071   6.602   2.573   1.776
 1724SOL    HW2 6072   6.597   2.722   1.708
 1725SOL     OW 6073   2.159   5.232   6.628
 1725SOL    HW1 6074   2.133   5.155   6.570
 1725SOL    HW2 6075   2.177   5.312   6.570
 1726SOL     OW 6076   6.373   4.972   4.986
 1726SOL    HW1 6077   6.469   4.965   4.959
 1726SOL    HW2 6078   6.359   4.925   5.072
 1727SOL     OW 6079   3.237   2.999   4.279
 1727SOL    HW1 6080   3.283   3.086   4.266
 1727SOL    HW2 6081   3.181   2.978   4.198
 1728SOL     OW 6082   4.982   4.880   4.794
 1728SOL    HW1 6083   4.938   4.893   4.883
 1728SOL    HW2 6084   4.934   4.934   4.725
 1729SOL     OW 6085   1.922   4.473   2.798
 1729SOL    HW1 6086   1.965   4.552   2.756
 1729SOL    HW2 6087   1.947   4.390   2.749
 1730SOL     OW 6088   1.192   6.565   5.688
 1730SOL    HW1 6089   1.209   6.488   5.748
 1730SOL    HW2 6090   1.153   6.641   5.741
 1731SOL     OW 6091   0.120   4.022   3.545
 1731SOL    HW1 6092   0.156   4.028   3.452
 1731SOL    HW2 6093   0.182   3.969   3.602
 1732SOL     OW 6094   2.818   5.085   5.178
 1732SOL    HW1 6095   2.795   5.053   5.269
 1732SOL    HW2 6096   2.819   5.008   5.114
 1733SOL     OW 6097   1.801   4.817   1.881
 1733SOL    HW1 6098   1.855   4.735   1.893
 1733SOL    HW2 6099   1.858   4.898   1.898
 1734SOL     OW 6100   4.583   3.508   1.190
 1734SOL    HW1 6101   4.642   3.534   1.266
 1734SOL    HW2 6102   4.518   3.439   1.220
 1735SOL     OW 6103   5.012   5.774   0.534
 1735SOL    HW1 6104   4.960   5.816   0.608
 1735SOL    HW2 6105   4.951   5.751   0.459
 1736SOL     OW 6106   3.604   3.829   0.555
 1736SOL    HW1 6107   3.645   3.832   0.464
 1736SOL    HW2 6108   3.525   3.889   0.558
 1737SOL     OW 6109   3.119   1.125   4.279
 1737SOL    HW1 6110   3.116   1.060   4.203
 1737SOL    HW2 6111   3.188   1.096   4.345
 1738SOL     OW 6112   1.771   2.895   3.981
 1738SOL    HW1 6113   1.706   2.970   3.992
 1738SOL    HW2 6114   1.863   2.931   3.966
 1739SOL     OW 6115   0.453   2.098   5.492
 1739SOL    HW1 6116   0.453   2.006   5.454
 1739SOL    HW2 6117   0.513   2.157   5.438
 1740SOL     OW 6118   0.134   2.105   5.631
 1740SOL    HW1 6119   0.178   2.017   5.651
 1740SOL    HW2 6120   0.135   2.121   5.532
 1741SOL     OW 6121   2.066   0.417   3.752
 1741SOL    HW1 6122   1.991   0.353   3.732
 1741SOL    HW2 6123   2.060   0.446   3.848
 1742SOL     OW 6124   5.708   0.559   6.509
 1742SOL    HW1 6125   5.799   0.524   6.486
 1742SOL    HW2 6126   5.674   0.513   6.591
 1743SOL     OW 6127   0.794   2.010   2.023
 1743SOL    HW1 6128   0.778   2.047   1.932
 1743SOL    HW2 6129   0.888   2.033   2.051
 1744SOL     OW 6130   6.668   2.399   2.835
 1744SOL    HW1 6131   6.629   2.486   2.867
 1744SOL    HW2 6132   6.656   2.391   2.736
 1745SOL     OW 6133   5.545   5.791   2.169
 1745SOL    HW1 6134   5.512   5.698   2.179
 1745SOL    HW2 6135   5.470   5.851   2.141
 1746SOL     OW 6136   1.459   3.981   4.576
 1746SOL    HW1 6137   1.420   4.063   4.616
 1746SOL    HW2 6138   1.547   3.960   4.619
 1747SOL     OW 6139   4.626   1.587   3.172
 1747SOL    HW1 6140   4.576   1.565   3.256
 1747SOL    HW2 6141   4.676   1.506   3.141
 1748SOL     OW 6142   1.123   0.979   4.902
 1748SOL    HW1 6143   1.049   1.036   4.864
 1748SOL    HW2 6144   1.122   0.985   5.001
 1749SOL     OW 6145   2.269   0.351   4.645
 1749SOL    HW1 6146   2.315   0.422   4.591
 1749SOL    HW2 6147   2.192   0.391   4.694
 1750SOL     OW 6148   4.992   6.309   4.342
 1750SOL    HW1 6149   5.077   6.264   4.313
 1750SOL    HW2 6150   5.014   6.395   4.389
 1751SOL     OW 6151   3.718   6.181   4.213
 1751SOL    HW1 6152   3.726   6.091   4.171
 1751SOL    HW2 6153   3.804   6.204   4.259
 1752SOL     OW 6154   6.598   1.944   2.090
 1752SOL    HW1 6155   6.544   1.903   2.017
 1752SOL    HW2 6156   6.594   2.044   2.083
 1753SOL     OW 6157   6.742   1.090   1.479
 1753SOL    HW1 6158   6.800   1.037   1.541
 1753SOL    HW2 6159   6.728   1.182   1.517
 1754SOL     OW 6160   1.621   4.600   6.812
 1754SOL    HW1 6161   1.553   4.632   6.878
 1754SOL    HW2 6162   1.585   4.519   6.765
 1755SOL     OW 6163   6.969   6.197   1.530
 1755SOL    HW1 6164   0.006   6.140   1.469
 1755SOL    HW2 6165   7.001   6.292   1.525
 1756SOL     OW 6166   4.409   6.042   5.671
 1756SOL    HW1 6167   4.476   6.099   5.625
 1756SOL    HW2 6168   4.358   6.097   5.737
 1757SOL     OW 6169   2.198   5.285   4.972
 1757SOL    HW1 6170   2.110   5.237   4.969
 1757SOL    HW2 6171   2.202   5.342   5.054
 1758SOL     OW 6172   2.518   0.371   4.270
 1758SOL    HW1 6173   2.496   0.292   4.327
 1758SOL    HW2 6174   2.473   0.361   4.181
 1759SOL     OW 6175   1.415   6.347   5.473
 1759SOL    HW1 6176   1.493   6.289   5.496
 1759SOL    HW2 6177   1.339   6.327   5.535
 1760SOL     OW 6178   5.241   1.604   2.721
 1760SOL    HW1 6179   5.317   1.543   2.744
 1760SOL    HW2 6180   5.266   1.661   2.642
 1761SOL     OW 6181   0.249   0.224   0.888
 1761SOL    HW1 6182   0.164   0.275   0.901
 1761SOL    HW2 6183   0.303   0.224   0.972
 1762SOL     OW 6184   0.493   1.119   4.515
 1762SOL    HW1 6185   0.566   1.068   4.561
 1762SOL    HW2 6186   0.409   1.064   4.515
 1763SOL     OW 6187   1.349   4.063   3.961
 1763SOL    HW1 6188   1.418   3.995   3.937
 1763SOL    HW2 6189   1.394   4.153   3.971
 1764SOL     OW 6190   2.140   3.283   2.356
 1764SOL    HW1 6191   2.196   3.250   2.279
 1764SOL    HW2 6192   2.140   3.215   2.429
 1765SOL     OW 6193   3.756   0.479   0.944
 1765SOL    HW1 6194   3.789   0.477   1.038
 1765SOL    HW2 6195   3.669   0.430   0.939
 1766SOL     OW 6196   5.406   4.226   2.647
 1766SOL    HW1 6197   5.451   4.297   2.594
 1766SOL    HW2 6198   5.353   4.166   2.586
 1767SOL     OW 6199   0.445   3.781   2.495
 1767SOL    HW1 6200   0.368   3.820   2.545
 1767SOL    HW2 6201   0.481   3.703   2.546
 1768SOL     OW 6202   4.065   1.692   6.834
 1768SOL    HW1 6203   4.093   1.699   6.738
 1768SOL    HW2 6204   4.112   1.615   6.877
 1769SOL     OW 6205   4.695   1.769   6.502
 1769SOL    HW1 6206   4.610   1.780   6.553
 1769SOL    HW2 6207   4.741   1.857   6.493
 1770SOL     OW 6208   6.771   4.453   4.363
 1770SOL    HW1 6209   6.858   4.483   4.404
 1770SOL    HW2 6210   6.762   4.354   4.374
 1771SOL     OW 6211   2.385   5.449   0.644
 1771SOL    HW1 6212   2.425   5.503   0.571
 1771SOL    HW2 6213   2.311   5.501   0.688
 1772SOL     OW 6214   3.413   6.953   3.509
 1772SOL    HW1 6215   3.445   6.867   3.468
 1772SOL    HW2 6216   3.490   7.004   3.546
 1773SOL     OW 6217   3.055   3.493   6.407
 1773SOL    HW1 6218   3.054   3.393   6.399
 1773SOL    HW2 6219   3.074   3.534   6.318
 1774SOL     OW 6220   4.560   0.288   1.892
 1774SOL    HW1 6221   4.613   0.362   1.850
 1774SOL    HW2 6222   4.575   0.203   1.841
 1775SOL     OW 6223   1.900   5.035   5.221
 1775SOL    HW1 6224   1.993   5.053   5.253
 1775SOL    HW2 6225   1.882   4.936   5.226
 1776SOL     OW 6226   5.078   1.128   6.375
 1776SOL    HW1 6227   5.155   1.157   6.319
 1776SOL    HW2 6228   5.007   1.198   6.375
 1777SOL     OW 6229   3.280   5.872   5.569
 1777SOL    HW1 6230   3.225   5.944   5.528
 1777SOL    HW2 6231   3.234   5.784   5.559
 1778SOL     OW 6232   4.310   1.991   4.327
 1778SOL    HW1 6233   4.331   1.966   4.232
 1778SOL    HW2 6234   4.394   2.013   4.375
 1779SOL     OW 6235   3.759   1.472   4.878
 1779SOL    HW1 6236   3.708   1.426   4.806
 1779SOL    HW2 6237   3.807   1.404   4.934
 1780SOL     OW 6238   2.419   4.018   5.868
 1780SOL    HW1 6239   2.473   3.988   5.789
 1780SOL    HW2 6240   2.375   4.105   5.848
 1781SOL     OW 6241   4.957   4.943   3.532
 1781SOL    HW1 6242   5.047   4.980   3.553
 1781SOL    HW2 6243   4.888   4.991   3.586
 1782SOL     OW 6244   2.786   1.579   3.437
 1782SOL    HW1 6245   2.851   1.621   3.373
 1782SOL    HW2 6246   2.834   1.513   3.495
 1783SOL     OW 6247   2.379   3.489   6.037
 1783SOL    HW1 6248   2.423   3.425   5.975
 1783SOL    HW2 6249   2.444   3.559   6.064
 1784SOL     OW 6250   2.465   1.401   2.302
 1784SOL    HW1 6251   2.521   1.478   2.333
 1784SOL    HW2 6252   2.524   1.327   2.272
 1785SOL     OW 6253   5.833   5.490   3.409
 1785SOL    HW1 6254   5.913   5.473   3.466
 1785SOL    HW2 6255   5.750   5.461   3.457
 1786SOL     OW 6256   1.260   3.960   0.435
 1786SOL    HW1 6257   1.285   3.870   0.471
 1786SOL    HW2 6258   1.201   3.949   0.355
 1787SOL     OW 6259   2.154   0.925   5.278
 1787SOL    HW1 6260   2.250   0.915   5.305
 1787SOL    HW2 6261   2.099   0.947   5.358
 1788SOL     OW 6262   3.658   4.110   6.931
 1788SOL    HW1 6263   3.656   4.073   0.006
 1788SOL    HW2 6264   3.586   4.178   6.920
 1789SOL     OW 6265   5.629   2.589   2.321
 1789SOL    HW1 6266   5.578   2.553   2.243
 1789SOL    HW2 6267   5.713   2.633   2.289
 1790SOL     OW 6268   3.785   6.683   4.387
 1790SOL    HW1 6269   3.840   6.729   4.458
 1790SOL    HW2 6270   3.828   6.596   4.364
 1791SOL     OW 6271   6.969   1.305   4.554
 1791SOL    HW1 6272   0.032   1.260   4.516
 1791SOL    HW2 6273   6.966   1.288   4.653
 1792SOL     OW 6274   0.869   0.936   4.543
 1792SOL    HW1 6275   0.959   0.940   4.586
 1792SOL    HW2 6276   0.874   0.975   4.451
 1793SOL     OW 6277   6.105   0.498   3.959
 1793SOL    HW1 6278   6.162   0.484   4.040
 1793SOL    HW2 6279   6.056   0.585   3.968
 1794SOL     OW 6280   4.978   6.339   5.786
 1794SOL    HW1 6281   4.904   6.310   5.847
 1794SOL    HW2 6282   4.949   6.326   5.691
 1795SOL     OW 6283   6.446   4.825   2.389
 1795SOL    HW1 6284   6.528   4.824   2.332
 1795SOL    HW2 6285   6.394   4.909   2.371
 1796SOL     OW 6286   2.299   0.844   4.368
 1796SOL    HW1 6287   2.219   0.840   4.308
 1796SOL    HW2 6288   2.270   0.870   4.461
 1797SOL     OW 6289   1.086   6.786   5.813
 1797SOL    HW1 6290   1.147   6.837   5.874
 1797SOL    HW2 6291   0.994   6.787   5.850
 1798SOL     OW 6292   4.768   2.884   5.100
 1798SOL    HW1 6293   4.784   2.953   5.171
 1798SOL    HW2 6294   4.799   2.920   5.012
 1799SOL     OW 6295   5.610   2.671   6.338
 1799SOL    HW1 6296   5.625   2.615   6.419
 1799SOL    HW2 6297   5.526   2.724   6.349
 1800SOL     OW 6298   5.033   4.362   3.713
 1800SOL    HW1 6299   4.963   4.407   3.769
 1800SOL    HW2 6300   5.089   4.432   3.668
 1801SOL     OW 6301   1.007   1.730   2.975
 1801SOL    HW1 6302   0.974   1.665   2.907
 1801SOL    HW2 6303   1.061   1.802   2.930
 1802SOL     OW 6304   6.335   6.121   2.896
 1802SOL    HW1 6305   6.378   6.185   2.833
 1802SOL    HW2 6306   6.396   6.103   2.973
 1803SOL     OW 6307   0.148   6.488   1.699
 1803SOL    HW1 6308   0.093   6.568   1.724
 1803SOL    HW2 6309   0.203   6.509   1.618
 1804SOL     OW 6310   3.497   3.275   5.332
 1804SOL    HW1 6311   3.578   3.252   5.386
 1804SOL    HW2 6312   3.418   3.286   5.393
 1805SOL     OW 6313   1.086   4.395   6.112
 1805SOL    HW1 6314   1.100   4.492   6.091
 1805SOL    HW2 6315   1.094   4.342   6.028
 1806SOL     OW 6316   1.411   2.264   1.414
 1806SOL    HW1 6317   1.370   2.347   1.378
 1806SOL    HW2 6318   1.434   2.277   1.511
 1807SOL     OW 6319   6.223   2.412   6.010
 1807SOL    HW1 6320   6.194   2.383   5.919
 1807SOL    HW2 6321   6.147   2.405   6.074
 1808SOL     OW 6322   5.938   4.758   4.408
 1808SOL    HW1 6323   6.001   4.835   4.417
 1808SOL    HW2 6324   5.954   4.693   4.483
 1809SOL     OW 6325   2.543   2.539   4.951
 1809SOL    HW1 6326   2.558   2.480   5.030
 1809SOL    HW2 6327   2.597   2.623   4.961
 1810SOL     OW 6328   1.186   6.880   4.904
 1810SOL    HW1 6329   1.276   6.866   4.863
 1810SOL    HW2 6330   1.169   6.809   4.972
 1811SOL     OW 6331   4.581   4.784   2.987
 1811SOL    HW1 6332   4.589   4.689   3.017
 1811SOL    HW2 6333   4.672   4.818   2.961
 1812SOL     OW 6334   5.358   0.045   6.158
 1812SOL    HW1 6335   5.372   6.995   6.086
 1812SOL    HW2 6336   5.319   0.128   6.118
 1813SOL     OW 6337   5.129   5.346   1.382
 1813SOL    HW1 6338   5.161   5.257   1.349
 1813SOL    HW2 6339   5.199   5.415   1.367
 1814SOL     OW 6340   6.211   0.539   0.694
 1814SOL    HW1 6341   6.212   0.634   0.663
 1814SOL    HW2 6342   6.289   0.523   0.754
 1815SOL     OW 6343   6.073   0.724   3.082
 1815SOL    HW1 6344   6.127   0.807   3.088
 1815SOL    HW2 6345   6.013   0.729   3.001
 1816SOL     OW 6346   2.932   4.908   0.341
 1816SOL    HW1 6347   2.906   4.945   0.430
 1816SOL    HW2 6348   2.881   4.956   0.269
 1817SOL     OW 6349   3.696   0.207   3.485
 1817SOL    HW1 6350   3.615   0.264   3.484
 1817SOL    HW2 6351   3.773   0.258   3.524
 1818SOL     OW 6352   2.273   6.404   1.147
 1818SOL    HW1 6353   2.308   6.326   1.095
 1818SOL    HW2 6354   2.233   6.471   1.084
 1819SOL     OW 6355   1.293   6.170   1.965
 1819SOL    HW1 6356   1.213   6.122   1.928
 1819SOL    HW2 6357   1.323   6.240   1.901
 1820SOL     OW 6358   3.390   0.427   2.297
 1820SOL    HW1 6359   3.303   0.477   2.300
 1820SOL    HW2 6360   3.428   0.431   2.205
 1821SOL     OW 6361   2.729   0.588   1.180
 1821SOL    HW1 6362   2.773   0.670   1.143
 1821SOL    HW2 6363   2.756   0.577   1.276
 1822SOL     OW 6364   1.042   2.444   1.524
 1822SOL    HW1 6365   1.118   2.500   1.490
 1822SOL    HW2 6366   1.016   2.378   1.454
 1823SOL     OW 6367   3.760   6.216   2.872
 1823SOL    HW1 6368   3.779   6.158   2.793
 1823SOL    HW2 6369   3.781   6.311   2.850
 1824SOL     OW 6370   4.032   4.003   0.535
 1824SOL    HW1 6371   3.949   3.992   0.589
 1824SOL    HW2 6372   4.079   3.915   0.528
 1825SOL     OW 6373   1.194   2.514   4.994
 1825SOL    HW1 6374   1.157   2.607   4.991
 1825SOL    HW2 6375   1.141   2.456   4.932
 1826SOL     OW 6376   2.658   1.665   1.478
 1826SOL    HW1 6377   2.618   1.620   1.558
 1826SOL    HW2 6378   2.751   1.696   1.500
 1827SOL     OW 6379   6.664   5.360   1.185
 1827SOL    HW1 6380   6.642   5.337   1.280
 1827SOL    HW2 6381   6.663   5.277   1.129
 1828SOL     OW 6382   1.856   2.895   0.185
 1828SOL    HW1 6383   1.804   2.822   0.231
 1828SOL    HW2 6384   1.826   2.902   0.090
 1829SOL     OW 6385   3.475   0.627   3.079
 1829SOL    HW1 6386   3.568   0.644   3.046
 1829SOL    HW2 6387   3.480   0.573   3.163
 1830SOL     OW 6388   5.704   6.038   4.628
 1830SOL    HW1 6389   5.660   5.972   4.566
 1830SOL    HW2 6390   5.742   5.989   4.706
 1831SOL     OW 6391   5.604   6.686   1.735
 1831SOL    HW1 6392   5.696   6.701   1.697
 1831SOL    HW2 6393   5.591   6.589   1.752
 1832SOL     OW 6394   4.193   1.752   0.668
 1832SOL    HW1 6395   4.123   1.680   0.668
 1832SOL    HW2 6396   4.204   1.788   0.576
 1833SOL     OW 6397   5.474   0.836   1.591
 1833SOL    HW1 6398   5.548   0.813   1.654
 1833SOL    HW2 6399   5.430   0.752   1.559
 1834SOL     OW 6400   2.372   3.799   0.507
 1834SOL    HW1 6401   2.323   3.767   0.426
 1834SOL    HW2 6402   2.371   3.899   0.508
 1835SOL     OW 6403   0.126   4.771   1.671
 1835SOL    HW1 6404   0.162   4.806   1.758
 1835SOL    HW2 6405   0.202   4.742   1.613
 1836SOL     OW 6406   5.334   2.561   1.275
 1836SOL    HW1 6407   5.283   2.593   1.355
 1836SOL    HW2 6408   5.269   2.532   1.204
 1837SOL     OW 6409   0.581   6.681   5.333
 1837SOL    HW1 6410   0.515   6.668   5.259
 1837SOL    HW2 6411   0.569   6.772   5.373
 1838SOL     OW 6412   6.567   1.395   5.640
 1838SOL    HW1 6413   6.480   1.371   5.597
 1838SOL    HW2 6414   6.642   1.381   5.575
 1839SOL     OW 6415   0.552   1.237   5.567
 1839SOL    HW1 6416   0.612   1.272   5.638
 1839SOL    HW2 6417   0.457   1.236   5.600
 1840SOL     OW 6418   3.915   0.008   1.991
 1840SOL    HW1 6419   3.988   0.038   1.929
 1840SOL    HW2 6420   3.828   0.004   1.941
 1841SOL     OW 6421   2.144   1.220   3.158
 1841SOL    HW1 6422   2.052   1.204   3.122
 1841SOL    HW2 6423   2.171   1.143   3.215
 1842SOL     OW 6424   1.520   5.878   0.814
 1842SOL    HW1 6425   1.439   5.822   0.797
 1842SOL    HW2 6426   1.495   5.958   0.869
 1843SOL     OW 6427   6.194   0.678   4.610
 1843SOL    HW1 6428   6.240   0.711   4.528
 1843SOL    HW2 6429   6.118   0.619   4.583
 1844SOL     OW 6430   3.494   6.706   5.219
 1844SOL    HW1 6431   3.488   6.658   5.131
 1844SOL    HW2 6432   3.510   6.803   5.202
 1845SOL     OW 6433   2.857   6.470   4.755
 1845SOL    HW1 6434   2.846   6.477   4.854
 1845SOL    HW2 6435   2.929   6.533   4.725
 1846SOL     OW 6436   3.701   1.086   2.408
 1846SOL    HW1 6437   3.798   1.069   2.429
 1846SOL    HW2 6438   3.675   1.175   2.445
 1847SOL     OW 6439   1.224   0.309   5.770
 1847SOL    HW1 6440   1.204   0.396   5.725
 1847SOL    HW2 6441   1.252   0.241   5.702
 1848SOL     OW 6442   2.044   6.222   3.331
 1848SOL    HW1 6443   2.072   6.311   3.296
 1848SOL    HW2 6444   1.964   6.190   3.282
 1849SOL     OW 6445   4.116   2.645   1.649
 1849SOL    HW1 6446   4.156   2.732   1.678
 1849SOL    HW2 6447   4.188   2.575   1.647
 1850SOL     OW 6448   0.136   2.420   2.353
 1850SOL    HW1 6449   0.190   2.493   2.394
 1850SOL    HW2 6450   0.181   2.333   2.368
 1851SOL     OW 6451   0.718   3.594   6.793
 1851SOL    HW1 6452   0.704   3.654   6.872
 1851SOL    HW2 6453   0.645   3.526   6.790
 1852SOL     OW 6454   6.912   4.474   2.931
 1852SOL    HW1 6455   6.882   4.562   2.967
 1852SOL    HW2 6456   6.917   4.407   3.005
 1853SOL     OW 6457   0.101   2.694   3.603
 1853SOL    HW1 6458   0.189   2.741   3.617
 1853SOL    HW2 6459   0.029   2.762   3.588
 1854SOL     OW 6460   2.107   5.325   2.946
 1854SOL    HW1 6461   2.154   5.363   3.026
 1854SOL    HW2 6462   2.020   5.373   2.934
 1855SOL     OW 6463   5.477   3.760   5.021
 1855SOL    HW1 6464   5.431   3.789   5.104
 1855SOL    HW2 6465   5.506   3.665   5.030
 1856SOL     OW 6466   4.967   3.869   6.018
 1856SOL    HW1 6467   4.976   3.963   6.050
 1856SOL    HW2 6468   5.033   3.811   6.066
 1857SOL     OW 6469   3.771   2.130   6.815
 1857SOL    HW1 6470   3.770   2.229   6.798
 1857SOL    HW2 6471   3.848   2.089   6.766
 1858SOL     OW 6472   5.657   3.364   3.070
 1858SOL    HW1 6473   5.603   3.316   3.139
 1858SOL    HW2 6474   5.740   3.401   3.112
 1859SOL     OW 6475   5.163   1.588   3.701
 1859SOL    HW1 6476   5.237   1.655   3.707
 1859SOL    HW2 6477   5.077   1.635   3.681
 1860SOL     OW 6478   0.933   0.828   5.180
 1860SOL    HW1 6479   0.856   0.810   5.117
 1860SOL    HW2 6480   1.003   0.758   5.168
 1861SOL     OW 6481   6.173   0.129   2.326
 1861SOL    HW1 6482   6.270   0.150   2.327
 1861SOL    HW2 6483   6.146   0.096   2.236
 1862SOL     OW 6484   2.973   0.259   6.238
 1862SOL    HW1 6485   2.968   0.161   6.222
 1862SOL    HW2 6486   2.934   0.308   6.160
 1863SOL     OW 6487   7.000   2.333   3.889
 1863SOL    HW1 6488   0.062   2.324   3.830
 1863SOL    HW2 6489   6.924   2.282   3.850
 1864SOL     OW 6490   2.278   5.879   4.698
 1864SOL    HW1 6491   2.242   5.794   4.736
 1864SOL    HW2 6492   2.347   5.858   4.628
 1865SOL     OW 6493   3.839   0.408   0.020
 1865SOL    HW1 6494   3.895   0.344   0.073
 1865SOL    HW2 6495   3.878   0.500   0.029
 1866SOL     OW 6496   6.217   4.970   3.879
 1866SOL    HW1 6497   6.168   5.000   3.797
 1866SOL    HW2 6498   6.220   4.870   3.881
 1867SOL     OW 6499   1.658   3.909   0.980
 1867SOL    HW1 6500   1.615   3.819   0.972
 1867SOL    HW2 6501   1.592   3.980   0.955
 1868SOL     OW 6502   4.645   3.528   6.756
 1868SOL    HW1 6503   4.683   3.457   6.697
 1868SOL    HW2 6504   4.610   3.602   6.699
 1869SOL     OW 6505   0.244   3.586   4.916
 1869SOL    HW1 6506   0.342   3.600   4.897
 1869SOL    HW2 6507   0.192   3.663   4.880
 1870SOL     OW 6508   1.246   3.327   5.118
 1870SOL    HW1 6509   1.344   3.305   5.119
 1870SOL    HW2 6510   1.213   3.340   5.211
 1871SOL     OW 6511   0.330   0.645   6.980
 1871SOL    HW1 6512   0.390   0.572   6.948
 1871SOL    HW2 6513   0.239   0.608   6.999
 1872SOL     OW 6514   4.258   1.984   0.333
 1872SOL    HW1 6515   4.244   2.054   0.403
 1872SOL    HW2 6516   4.170   1.961   0.291
 1873SOL     OW 6517   5.903   0.859   6.121
 1873SOL    HW1 6518   5.890   0.799   6.041
 1873SOL    HW2 6519   5.965   0.815   6.185
 1874SOL     OW 6520   1.947   1.076   6.503
 1874SOL    HW1 6521   1.881   1.140   6.543
 1874SOL    HW2 6522   2.016   1.053   6.571
 1875SOL     OW 6523   6.507   0.797   0.612
 1875SOL    HW1 6524   6.409   0.808   0.597
 1875SOL    HW2 6525   6.525   0.705   0.646
 1876SOL     OW 6526   3.736   5.859   5.833
 1876SOL    HW1 6527   3.798   5.903   5.768
 1876SOL    HW2 6528   3.786   5.788   5.883
 1877SOL     OW 6529   1.014   1.427   3.718
 1877SOL    HW1 6530   1.044   1.376   3.638
 1877SOL    HW2 6531   1.033   1.375   3.801
 1878SOL     OW 6532   0.061   2.434   4.524
 1878SOL    HW1 6533   0.152   2.435   4.483
 1878SOL    HW2 6534   0.048   2.349   4.575
 1879SOL     OW 6535   2.269   5.811   3.599
 1879SOL    HW1 6536   2.358   5.790   3.559
 1879SOL    HW2 6537   2.257   5.758   3.683
 1880SOL     OW 6538   0.642   1.613   2.982
 1880SOL    HW1 6539   0.711   1.640   3.050
 1880SOL    HW2 6540   0.634   1.513   2.982
 1881SOL     OW 6541   1.364   2.184   3.626
 1881SOL    HW1 6542   1.440   2.136   3.582
 1881SOL    HW2 6543   1.290   2.120   3.644
 1882SOL     OW 6544   1.299   4.247   6.262
 1882SOL    HW1 6545   1.364   4.307   6.309
 1882SOL    HW2 6546   1.220   4.301   6.231
 1883SOL     OW 6547   1.098   3.594   3.332
 1883SOL    HW1 6548   1.176   3.630   3.383
 1883SOL    HW2 6549   1.029   3.665   3.321
 1884SOL     OW 6550   6.066   2.220   0.615
 1884SOL    HW1 6551   6.135   2.292   0.614
 1884SOL    HW2 6552   6.104   2.137   0.656
 1885SOL     OW 6553   0.138   1.981   6.864
 1885SOL    HW1 6554   0.156   2.070   6.908
 1885SOL    HW2 6555   0.171   1.908   6.923
 1886SOL     OW 6556   2.629   1.245   1.014
 1886SOL    HW1 6557   2.579   1.330   0.998
 1886SOL    HW2 6558   2.639   1.196   0.928
 1887SOL     OW 6559   0.292   4.937   6.323
 1887SOL    HW1 6560   0.369   4.876   6.303
 1887SOL    HW2 6561   0.319   5.031   6.305
 1888SOL     OW 6562   3.046   2.135   6.333
 1888SOL    HW1 6563   3.039   2.036   6.350
 1888SOL    HW2 6564   3.139   2.165   6.351
 1889SOL     OW 6565   5.618   2.626   6.061
 1889SOL    HW1 6566   5.524   2.639   6.029
 1889SOL    HW2 6567   5.624   2.649   6.158
 1890SOL     OW 6568   1.336   5.792   5.055
 1890SOL    HW1 6569   1.244   5.830   5.070
 1890SOL    HW2 6570   1.356   5.790   4.958
 1891SOL     OW 6571   5.300   3.086   3.781
 1891SOL    HW1 6572   5.245   3.165   3.808
 1891SOL    HW2 6573   5.280   3.062   3.686
 1892SOL     OW 6574   4.066   0.526   0.869
 1892SOL    HW1 6575   4.003   0.452   0.894
 1892SOL    HW2 6576   4.141   0.529   0.936
 1893SOL     OW 6577   3.335   1.892   5.752
 1893SOL    HW1 6578   3.321   1.991   5.761
 1893SOL    HW2 6579   3.364   1.855   5.840
 1894SOL     OW 6580   3.766   3.829   2.649
 1894SOL    HW1 6581   3.831   3.868   2.714
 1894SOL    HW2 6582   3.785   3.863   2.557
 1895SOL     OW 6583   5.413   1.195   2.485
 1895SOL    HW1 6584   5.332   1.211   2.542
 1895SOL    HW2 6585   5.394   1.120   2.422
 1896SOL     OW 6586   0.946   0.598   2.982
 1896SOL    HW1 6587   0.846   0.588   2.974
 1896SOL    HW2 6588   0.985   0.606   2.890
 1897SOL     OW 6589   0.532   5.034   2.474
 1897SOL    HW1 6590   0.621   5.061   2.439
 1897SOL    HW2 6591   0.530   5.042   2.574
 1898SOL     OW 6592   3.204   4.873   2.244
 1898SOL    HW1 6593   3.258   4.895   2.326
 1898SOL    HW2 6594   3.108   4.864   2.270
 1899SOL     OW 6595   0.751   1.968   2.525
 1899SOL    HW1 6596   0.685   2.039   2.502
 1899SOL    HW2 6597   0.723   1.921   2.609
 1900SOL     OW 6598   1.149   0.577   5.183
 1900SOL    HW1 6599   1.151   0.633   5.266
 1900SOL    HW2 6600   1.125   0.483   5.207
 1901SOL     OW 6601   2.016   1.079   1.474
 1901SOL    HW1 6602   2.099   1.119   1.512
 1901SOL    HW2 6603   1.937   1.132   1.504
 1902SOL     OW 6604   2.205   2.505   4.630
 1902SOL    HW1 6605   2.234   2.536   4.720
 1902SOL    HW2 6606   2.285   2.491   4.572
 1903SOL     OW 6607   6.266   3.697   3.940
 1903SOL    HW1 6608   6.302   3.646   3.862
 1903SOL    HW2 6609   6.336   3.702   4.012
 1904SOL     OW 6610   5.899   6.810   4.240
 1904SOL    HW1 6611   5.838   6.803   4.319
 1904SOL    HW2 6612   5.845   6.806   4.156
 1905SOL     OW 6613   1.742   0.998   4.050
 1905SOL    HW1 6614   1.802   1.074   4.025
 1905SOL    HW2 6615   1.706   0.955   3.967
 1906SOL     OW 6616   2.633   0.210   5.414
 1906SOL    HW1 6617   2.609   0.199   5.511
 1906SOL    HW2 6618   2.620   0.305   5.387
 1907SOL     OW 6619   3.850   0.127   3.161
 1907SOL    HW1 6620   3.890   0.114   3.252
 1907SOL    HW2 6621   3.844   0.039   3.115
 1908SOL     OW 6622   3.862   1.081   4.806
 1908SOL    HW1 6623   3.907   1.024   4.736
 1908SOL    HW2 6624   3.897   1.175   4.799
 1909SOL     OW 6625   0.801   4.064   2.727
 1909SOL    HW1 6626   0.869   4.130   2.758
 1909SOL    HW2 6627   0.846   3.979   2.699
 1910SOL     OW 6628   0.523   2.735   0.088
 1910SOL    HW1 6629   0.531   2.794   0.007
 1910SOL    HW2 6630   0.597   2.668   0.087
 1911SOL     OW 6631   6.008   3.210   5.315
 1911SOL    HW1 6632   6.068   3.201   5.236
 1911SOL    HW2 6633   5.925   3.259   5.289
 1912SOL     OW 6634   3.345   6.919   1.238
 1912SOL    HW1 6635   3.304   6.974   1.165
 1912SOL    HW2 6636   3.390   6.839   1.200
 1913SOL     OW 6637   0.905   5.827   5.390
 1913SOL    HW1 6638   0.943   5.868   5.307
 1913SOL    HW2 6639   0.979   5.815   5.457
 1914SOL     OW 6640   3.337   2.636   6.556
 1914SOL    HW1 6641   3.249   2.603   6.524
 1914SOL    HW2 6642   3.411   2.591   6.505
 1915SOL     OW 6643   3.722   1.922   5.544
 1915SOL    HW1 6644   3.646   1.858   5.543
 1915SOL    HW2 6645   3.730   1.964   5.634
 1916SOL     OW 6646   3.322   6.084   1.061
 1916SOL    HW1 6647   3.253   6.154   1.075
 1916SOL    HW2 6648   3.402   6.124   1.016
 1917SOL     OW 6649   3.146   3.094   4.542
 1917SOL    HW1 6650   3.192   3.068   4.457
 1917SOL    HW2 6651   3.166   3.027   4.613
 1918SOL     OW 6652   0.453   1.188   0.034
 1918SOL    HW1 6653   0.433   1.241   6.969
 1918SOL    HW2 6654   0.378   1.200   0.099
 1919SOL     OW 6655   2.476   0.361   1.307
 1919SOL    HW1 6656   2.491   0.262   1.315
 1919SOL    HW2 6657   2.474   0.386   1.210
 1920SOL     OW 6658   1.281   4.768   2.740
 1920SOL    HW1 6659   1.265   4.863   2.713
 1920SOL    HW2 6660   1.198   4.715   2.728
 1921SOL     OW 6661   1.805   4.713   0.267
 1921SOL    HW1 6662   1.759   4.706   0.356
 1921SOL    HW2 6663   1.786   4.803   0.227
 1922SOL     OW 6664   3.292   4.277   0.533
 1922SOL    HW1 6665   3.315   4.361   0.484
 1922SOL    HW2 6666   3.262   4.208   0.467
 1923SOL     OW 6667   3.269   0.588   5.861
 1923SOL    HW1 6668   3.248   0.686   5.866
 1923SOL    HW2 6669   3.198   0.541   5.807
 1924SOL     OW 6670   5.110   4.901   1.777
 1924SOL    HW1 6671   5.096   4.897   1.876
 1924SOL    HW2 6672   5.128   4.995   1.749
 1925SOL     OW 6673   2.182   3.808   0.759
 1925SOL    HW1 6674   2.240   3.800   0.840
 1925SOL    HW2 6675   2.239   3.826   0.679
 1926SOL     OW 6676   1.631   6.926   2.765
 1926SOL    HW1 6677   1.720   6.886   2.742
 1926SOL    HW2 6678   1.624   6.936   2.864
 1927SOL     OW 6679   3.227   4.245   6.016
 1927SOL    HW1 6680   3.321   4.278   6.017
 1927SOL    HW2 6681   3.172   4.301   5.954
 1928SOL     OW 6682   6.651   4.254   5.659
 1928SOL    HW1 6683   6.675   4.163   5.694
 1928SOL    HW2 6684   6.567   4.247   5.604
 1929SOL     OW 6685   0.965   5.398   2.162
 1929SOL    HW1 6686   1.012   5.385   2.249
 1929SOL    HW2 6687   0.900   5.324   2.147
 1930SOL     OW 6688   3.599   3.884   6.551
 1930SOL    HW1 6689   3.584   3.792   6.517
 1930SOL    HW2 6690   3.633   3.880   6.646
 1931SOL     OW 6691   0.301   3.086   2.336
 1931SOL    HW1 6692   0.344   3.139   2.262
 1931SOL    HW2 6693   0.372   3.037   2.387
 1932SOL     OW 6694   5.194   3.526   3.456
 1932SOL    HW1 6695   5.249   3.594   3.504
 1932SOL    HW2 6696   5.099   3.532   3.486
 1933SOL     OW 6697   2.692   4.461   0.623
 1933SOL    HW1 6698   2.635   4.430   0.546
 1933SOL    HW2 6699   2.728   4.552   0.603
 1934SOL     OW 6700   0.801   0.318   4.864
 1934SOL    HW1 6701   0.748   0.288   4.943
 1934SOL    HW2 6702   0.887   0.360   4.895
 1935SOL     OW 6703   3.280   6.276   4.227
 1935SOL    HW1 6704   3.201   6.272   4.289
 1935SOL    HW2 6705   3.364   6.275   4.281
 1936SOL     OW 6706   6.525   3.929   4.092
 1936SOL    HW1 6707   6.548   3.880   4.008
 1936SOL    HW2 6708   6.511   4.026   4.072
 1937SOL     OW 6709   4.532   0.353   0.911
 1937SOL    HW1 6710   4.546   0.442   0.867
 1937SOL    HW2 6711   4.617   0.325   0.956
 1938SOL     OW 6712   2.684   1.016   1.801
 1938SOL    HW1 6713   2.723   0.924   1.811
 1938SOL    HW2 6714   2.586   1.013   1.821
 1939SOL     OW 6715   6.730   0.317   4.959
 1939SOL    HW1 6716   6.633   0.328   4.976
 1939SOL    HW2 6717   6.764   0.394   4.905
 1940SOL     OW 6718   4.354   5.308   0.127
 1940SOL    HW1 6719   4.372   5.271   0.036
 1940SOL    HW2 6720   4.435   5.354   0.162
 1941SOL     OW 6721   7.005   4.197   3.682
 1941SOL    HW1 6722   0.061   4.236   3.737
 1941SOL    HW2 6723   0.021   4.118   3.631
 1942SOL     OW 6724   5.222   0.255   1.512
 1942SOL    HW1 6725   5.209   0.311   1.594
 1942SOL    HW2 6726   5.153   0.280   1.443
 1943SOL     OW 6727   2.880   6.208   2.184
 1943SOL    HW1 6728   2.896   6.306   2.170
 1943SOL    HW2 6729   2.870   6.163   2.096
 1944SOL     OW 6730   5.689   2.547   0.452
 1944SOL    HW1 6731   5.731   2.617   0.395
 1944SOL    HW2 6732   5.743   2.463   0.448
 1945SOL     OW 6733   3.362   5.710   1.881
 1945SOL    HW1 6734   3.291   5.648   1.915
 1945SOL    HW2 6735   3.370   5.701   1.782
 1946SOL     OW 6736   6.093   0.202   1.381
 1946SOL    HW1 6737   6.118   0.295   1.409
 1946SOL    HW2 6738   5.995   0.198   1.363
 1947SOL     OW 6739   4.584   0.042   5.314
 1947SOL    HW1 6740   4.510   6.994   5.328
 1947SOL    HW2 6741   4.592   0.062   5.217
 1948SOL     OW 6742   5.597   5.437   3.978
 1948SOL    HW1 6743   5.534   5.407   4.050
 1948SOL    HW2 6744   5.650   5.359   3.946
 1949SOL     OW 6745   3.304   4.417   6.499
 1949SOL    HW1 6746   3.286   4.461   6.587
 1949SOL    HW2 6747   3.309   4.318   6.511
 1950SOL     OW 6748   4.090   4.501   0.228
 1950SOL    HW1 6749   4.161   4.567   0.253
 1950SOL    HW2 6750   4.018   4.546   0.175
 1951SOL     OW 6751   5.848   3.779   0.023
 1951SOL    HW1 6752   5.848   3.803   6.944
 1951SOL    HW2 6753   5.784   3.704   0.038
 1952SOL     OW 6754   4.798   2.519   0.545
 1952SOL    HW1 6755   4.734   2.594   0.560
 1952SOL    HW2 6756   4.888   2.544   0.580
 1953SOL     OW 6757   5.885   1.684   6.328
 1953SOL    HW1 6758   5.881   1.586   6.349
 1953SOL    HW2 6759   5.978   1.710   6.304
 1954SOL     OW 6760   5.436   1.372   3.146
 1954SOL    HW1 6761   5.388   1.455   3.116
 1954SOL    HW2 6762   5.517   1.398   3.198
 1955SOL     OW 6763   0.828   1.609   2.377
 1955SOL    HW1 6764   0.767   1.673   2.423
 1955SOL    HW2 6765   0.776   1.527   2.351
 1956SOL     OW 6766   5.103   6.552   2.921
 1956SOL    HW1 6767   5.035   6.484   2.898
 1956SOL    HW2 6768   5.069   6.611   2.994
 1957SOL     OW 6769   6.090   5.004   4.424
 1957SOL    HW1 6770   6.055   5.034   4.336
 1957SOL    HW2 6771   6.187   5.028   4.432
 1958SOL     OW 6772   4.935   2.711   2.728
 1958SOL    HW1 6773   4.885   2.656   2.661
 1958SOL    HW2 6774   5.009   2.657   2.767
 1959SOL     OW 6775   0.703   0.791   5.052
 1959SOL    HW1 6776   0.645   0.787   5.133
 1959SOL    HW2 6777   0.676   0.717   4.989
 1960SOL     OW 6778   6.921   4.542   2.032
 1960SOL    HW1 6779   6.870   4.461   2.064
 1960SOL    HW2 6780   7.004   4.512   1.986
 1961SOL     OW 6781   5.750   4.331   4.433
 1961SOL    HW1 6782   5.749   4.385   4.349
 1961SOL    HW2 6783   5.773   4.236   4.411
 1962SOL     OW 6784   1.865   6.686   3.790
 1962SOL    HW1 6785   1.766   6.677   3.804
 1962SOL    HW2 6786   1.899   6.606   3.742
 1963SOL     OW 6787   0.930   1.863   1.495
 1963SOL    HW1 6788   0.989   1.787   1.468
 1963SOL    HW2 6789   0.836   1.842   1.470
 1964SOL     OW 6790   4.581   4.115   0.384
 1964SOL    HW1 6791   4.548   4.140   0.475
 1964SOL    HW2 6792   4.582   4.196   0.325
 1965SOL     OW 6793   1.505   3.339   4.349
 1965SOL    HW1 6794   1.518   3.415   4.285
 1965SOL    HW2 6795   1.580   3.273   4.338
 1966SOL     OW 6796   6.915   6.380   0.239
 1966SOL    HW1 6797   6.987   6.386   0.307
 1966SOL    HW2 6798   6.938   6.309   0.172
 1967SOL     OW 6799   5.611   2.690   5.652
 1967SOL    HW1 6800   5.640   2.762   5.589
 1967SOL    HW2 6801   5.552   2.730   5.723
 1968SOL     OW 6802   2.454   0.067   6.632
 1968SOL    HW1 6803   2.519   7.013   6.607
 1968SOL    HW2 6804   2.381   0.071   6.564
 1969SOL     OW 6805   0.974   1.356   2.104
 1969SOL    HW1 6806   1.051   1.416   2.124
 1969SOL    HW2 6807   1.007   1.263   2.086
 1970SOL     OW 6808   2.395   6.335   6.284
 1970SOL    HW1 6809   2.478   6.391   6.286
 1970SOL    HW2 6810   2.315   6.394   6.273
 1971SOL     OW 6811   0.279   0.074   5.596
 1971SOL    HW1 6812   0.209   0.145   5.607
 1971SOL    HW2 6813   0.278   0.041   5.502
 1972SOL     OW 6814   5.231   2.499   2.097
 1972SOL    HW1 6815   5.315   2.549   2.117
 1972SOL    HW2 6816   5.174   2.553   2.035
 1973SOL     OW 6817   3.017   2.561   0.213
 1973SOL    HW1 6818   3.107   2.518   0.209
 1973SOL    HW2 6819   2.984   2.559   0.308
 1974SOL     OW 6820   5.720   6.827   4.826
 1974SOL    HW1 6821   5.820   6.834   4.828
 1974SOL    HW2 6822   5.683   6.869   4.909
 1975SOL     OW 6823   2.104   1.654   3.987
 1975SOL    HW1 6824   2.114   1.642   4.085
 1975SOL    HW2 6825   2.194   1.669   3.946
 1976SOL     OW 6826   0.448   6.553   0.046
 1976SOL    HW1 6827   0.394   6.619   7.012
 1976SOL    HW2 6828   0.524   6.520   7.008
 1977SOL     OW 6829   0.686   3.145   4.663
 1977SOL    HW1 6830   0.655   3.149   4.568
 1977SOL    HW2 6831   0.753   3.071   4.673
 1978SOL     OW 6832   1.914   0.398   3.001
 1978SOL    HW1 6833   1.917   0.374   3.098
 1978SOL    HW2 6834   1.819   0.401   2.971
 1979SOL     OW 6835   6.314   4.157   6.130
 1979SOL    HW1 6836   6.331   4.219   6.206
 1979SOL    HW2 6837   6.358   4.192   6.047
 1980SOL     OW 6838   2.813   0.408   4.603
 1980SOL    HW1 6839   2.771   0.330   4.557
 1980SOL    HW2 6840   2.803   0.489   4.546
 1981SOL     OW 6841   6.847   1.884   2.193
 1981SOL    HW1 6842   6.772   1.935   2.149
 1981SOL    HW2 6843   6.824   1.787   2.195
 1982SOL     OW 6844   0.084   4.123   5.037
 1982SOL    HW1 6845   0.077   4.024   5.051
 1982SOL    HW2 6846   0.008   4.154   4.980
 1983SOL     OW 6847   0.713   1.437   2.720
 1983SOL    HW1 6848   0.658   1.500   2.665
 1983SOL    HW2 6849   0.674   1.345   2.713
 1984SOL     OW 6850   5.765   1.112   5.158
 1984SOL    HW1 6851   5.773   1.081   5.063
 1984SOL    HW2 6852   5.693   1.182   5.164
 1985SOL     OW 6853   1.472   6.260   2.554
 1985SOL    HW1 6854   1.375   6.283   2.550
 1985SOL    HW2 6855   1.486   6.185   2.619
 1986SOL     OW 6856   1.592   1.643   0.159
 1986SOL    HW1 6857   1.688   1.629   0.135
 1986SOL    HW2 6858   1.587   1.677   0.253
 1987SOL     OW 6859   1.681   2.677   2.571
 1987SOL    HW1 6860   1.704   2.774   2.562
 1987SOL    HW2 6861   1.750   2.622   2.524
 1988SOL     OW 6862   6.033   4.265   0.856
 1988SOL    HW1 6863   6.032   4.328   0.779
 1988SOL    HW2 6864   6.008   4.313   0.940
 1989SOL     OW 6865   2.443   5.420   4.375
 1989SOL    HW1 6866   2.393   5.437   4.460
 1989SOL    HW2 6867   2.379   5.385   4.306
 1990SOL     OW 6868   3.520   6.154   0.528
 1990SOL    HW1 6869   3.508   6.247   0.565
 1990SOL    HW2 6870   3.474   6.148   0.440
 1991SOL     OW 6871   3.679   4.979   0.009
 1991SOL    HW1 6872   3.693   5.077   0.019
 1991SOL    HW2 6873   3.581   4.958   0.020
 1992SOL     OW 6874   1.266   0.719   0.662
 1992SOL    HW1 6875   1.329   0.645   0.687
 1992SOL    HW2 6876   1.210   0.690   0.585
 1993SOL     OW 6877   3.741   2.879   5.147
 1993SOL    HW1 6878   3.701   2.865   5.056
 1993SOL    HW2 6879   3.674   2.922   5.206
 1994SOL     OW 6880   0.344   1.010   0.533
 1994SOL    HW1 6881   0.410   0.962   0.591
 1994SOL    HW2 6882   0.388   1.089   0.491
 1995SOL     OW 6883   5.204   2.453   3.390
 1995SOL    HW1 6884   5.155   2.461   3.477
 1995SOL    HW2 6885   5.245   2.363   3.384
 1996SOL     OW 6886   1.838   3.386   0.968
 1996SOL    HW1 6887   1.856   3.481   0.946
 1996SOL    HW2 6888   1.750   3.379   1.017
 1997SOL     OW 6889   3.736   1.425   4.410
 1997SOL    HW1 6890   3.783   1.364   4.347
 1997SOL    HW2 6891   3.713   1.510   4.363
 1998SOL     OW 6892   2.000   4.637   6.312
 1998SOL    HW1 6893   2.060   4.662   6.236
 1998SOL    HW2 6894   1.929   4.575   6.280
 1999SOL     OW 6895   2.692   0.006   0.246
 1999SOL    HW1 6896   2.674   6.928   0.270
 1999SOL    HW2 6897   2.736   0.052   0.323
 2000SOL     OW 6898   4.249   2.205   5.393
 2000SOL    HW1 6899   4.255   2.107   5.408
 2000SOL    HW2 6900   4.156   2.229   5.365
 2001SOL     OW 6901   3.110   0.910   1.874
 2001SOL    HW1 6902   3.038   0.935   1.939
 2001SOL    HW2 6903   3.077   0.926   1.781
 2002SOL     OW 6904   0.901   4.852   6.641
 2002SOL    HW1 6905   0.951   4.768   6.662
 2002SOL    HW2 6906   0.809   4.828   6.607
 2003SOL     OW 6907   6.351   5.746   2.447
 2003SOL    HW1 6908   6.296   5.778   2.369
 2003SOL    HW2 6909   6.327   5.652   2.468
 2004SOL     OW 6910   5.489   0.844   5.585
 2004SOL    HW1 6911   5.404   0.859   5.637
 2004SOL    HW2 6912   5.567   0.844   5.648
 2005SOL     OW 6913   0.901   5.021   0.480
 2005SOL    HW1 6914   0.836   4.948   0.457
 2005SOL    HW2 6915   0.860   5.082   0.548
 2006SOL     OW 6916   5.279   6.604   4.187
 2006SOL    HW1 6917   5.246   6.694   4.157
 2006SOL    HW2 6918   5.306   6.609   4.283
 2007SOL     OW 6919   4.666   4.905   1.234
 2007SOL    HW1 6920   4.723   4.987   1.224
 2007SOL    HW2 6921   4.643   4.870   1.143
 2008SOL     OW 6922   2.980   4.893   3.822
 2008SOL    HW1 6923   2.920   4.900   3.742
 2008SOL    HW2 6924   2.924   4.891   3.905
 2009SOL     OW 6925   6.065   1.139   2.085
 2009SOL    HW1 6926   6.071   1.056   2.031
 2009SOL    HW2 6927   6.122   1.211   2.045
 2010SOL     OW 6928   1.987   1.649   0.915
 2010SOL    HW1 6929   2.016   1.656   0.819
 2010SOL    HW2 6930   1.946   1.735   0.944
 2011SOL     OW 6931   6.659   6.705   4.722
 2011SOL    HW1 6932   6.731   6.709   4.791
 2011SOL    HW2 6933   6.686   6.759   4.642
 2012SOL     OW 6934   1.470   3.626   2.104
 2012SOL    HW1 6935   1.497   3.685   2.180
 2012SOL    HW2 6936   1.394   3.668   2.054
 2013SOL     OW 6937   6.542   2.199   3.502
 2013SOL    HW1 6938   6.546   2.268   3.574
 2013SOL    HW2 6939   6.476   2.228   3.432
 2014SOL     OW 6940   2.476   5.215   3.604
 2014SOL    HW1 6941   2.508   5.308   3.622
 2014SOL    HW2 6942   2.475   5.199   3.505
 2015SOL     OW 6943   1.777   0.629   6.521
 2015SOL    HW1 6944   1.699   0.645   6.582
 2015SOL    HW2 6945   1.779   0.533   6.493
 2016SOL     OW 6946   0.953   6.145   5.305
 2016SOL    HW1 6947   1.012   6.225   5.319
 2016SOL    HW2 6948   0.866   6.159   5.353
 2017SOL     OW 6949   3.072   6.896   4.611
 2017SOL    HW1 6950   3.116   6.829   4.670
 2017SOL    HW2 6951   3.044   6.853   4.526
 2018SOL     OW 6952   5.497   0.174   5.603
 2018SOL    HW1 6953   5.527   0.269   5.611
 2018SOL    HW2 6954   5.500   0.146   5.508
 2019SOL     OW 6955   5.217   2.769   6.727
 2019SOL    HW1 6956   5.157   2.697   6.691
 2019SOL    HW2 6957   5.163   2.830   6.786
 2020SOL     OW 6958   1.180   6.637   5.044
 2020SOL    HW1 6959   1.200   6.627   5.141
 2020SOL    HW2 6960   1.081   6.641   5.030
 2021SOL     OW 6961   0.875   6.050   3.909
 2021SOL    HW1 6962   0.815   6.051   3.989
 2021SOL    HW2 6963   0.940   5.974   3.917
 2022SOL     OW 6964   1.692   3.736   3.381
 2022SOL    HW1 6965   1.746   3.727   3.297
 2022SOL    HW2 6966   1.688   3.647   3.427
 2023SOL     OW 6967   6.812   0.943   6.518
 2023SOL    HW1 6968   6.740   0.958   6.586
 2023SOL    HW2 6969   6.891   0.901   6.563
 2024SOL     OW 6970   0.297   6.957   3.655
 2024SOL    HW1 6971   0.380   6.902   3.652
 2024SOL    HW2 6972   0.307   0.020   3.598
 2025SOL     OW 6973   2.719   1.958   3.065
 2025SOL    HW1 6974   2.698   2.039   3.121
 2025SOL    HW2 6975   2.669   1.963   2.979
 2026SOL     OW 6976   0.357   2.591   6.134
 2026SOL    HW1 6977   0.303   2.675   6.139
 2026SOL    HW2 6978   0.296   2.513   6.121
 2027SOL     OW 6979   1.161   0.112   0.278
 2027SOL    HW1 6980   1.166   0.121   0.378
 2027SOL    HW2 6981   1.075   0.065   0.254
 2028SOL     OW 6982   3.144   6.631   5.507
 2028SOL    HW1 6983   3.158   6.653   5.411
 2028SOL    HW2 6984   3.163   6.712   5.563
 2029SOL     OW 6985   6.544   0.825   0.336
 2029SOL    HW1 6986   6.628   0.794   0.291
 2029SOL    HW2 6987   6.554   0.816   0.435
 2030SOL     OW 6988   2.406   1.190   3.005
 2030SOL    HW1 6989   2.384   1.175   2.908
 2030SOL    HW2 6990   2.322   1.189   3.059
 2031SOL     OW 6991   6.210   5.361   1.279
 2031SOL    HW1 6992   6.274   5.437   1.290
 2031SOL    HW2 6993   6.260   5.280   1.248
 2032SOL     OW 6994   4.760   0.347   2.514
 2032SOL    HW1 6995   4.846   0.298   2.532
 2032SOL    HW2 6996   4.775   0.411   2.439
 2033SOL     OW 6997   3.260   3.848   6.257
 2033SOL    HW1 6998   3.210   3.893   6.331
 2033SOL    HW2 6999   3.247   3.750   6.263
 2034SOL     OW 7000   2.908   5.498   5.450
 2034SOL    HW1 7001   2.831   5.436   5.469
 2034SOL    HW2 7002   2.952   5.472   5.365
 2035SOL     OW 7003   0.186   0.059   3.317
 2035SOL    HW1 7004   0.100   0.009   3.327
 2035SOL    HW2 7005   0.177   0.127   3.245
 2036SOL     OW 7006   1.299   4.016   2.537
 2036SOL    HW1 7007   1.281   3.985   2.630
 2036SOL    HW2 7008   1.214   4.020   2.486
 2037SOL     OW 7009   6.390   2.991   5.663
 2037SOL    HW1 7010   6.335   2.968   5.744
 2037SOL    HW2 7011   6.362   3.081   5.629
 2038SOL     OW 7012   1.889   2.587   0.360
 2038SOL    HW1 7013   1.831   2.654   0.313
 2038SOL    HW2 7014   1.843   2.499   0.364
 2039SOL     OW 7015   0.311   5.369   3.570
 2039SOL    HW1 7016   0.353   5.280   3.584
 2039SOL    HW2 7017   0.302   5.416   3.657
 2040SOL     OW 7018   3.235   3.236   5.452
 2040SOL    HW1 7019   3.278   3.315   5.496
 2040SOL    HW2 7020   3.179   3.267   5.375
 2041SOL     OW 7021   0.489   6.208   5.859
 2041SOL    HW1 7022   0.560   6.244   5.798
 2041SOL    HW2 7023   0.527   6.198   5.951
 2042SOL     OW 7024   4.912   5.927   6.999
 2042SOL    HW1 7025   4.936   6.017   0.017
 2042SOL    HW2 7026   4.985   5.895   6.938
 2043SOL     OW 7027   6.637   3.342   3.860
 2043SOL    HW1 7028   6.584   3.318   3.941
 2043SOL    HW2 7029   6.691   3.424   3.878
 2044SOL     OW 7030   6.122   6.863   1.845
 2044SOL    HW1 7031   6.211   6.869   1.800
 2044SOL    HW2 7032   6.051   6.902   1.786
 2045SOL     OW 7033   2.093   5.015   3.945
 2045SOL    HW1 7034   2.181   5.026   3.898
 2045SOL    HW2 7035   2.110   5.009   4.044
 2046SOL     OW 7036   6.544   2.253   3.900
 2046SOL    HW1 7037   6.517   2.310   3.822
 2046SOL    HW2 7038   6.524   2.303   3.985
 2047SOL     OW 7039   6.793   2.619   6.734
 2047SOL    HW1 7040   6.877   2.645   6.688
 2047SOL    HW2 7041   6.803   2.527   6.773
 2048SOL     OW 7042   1.362   6.508   5.957
 2048SOL    HW1 7043   1.440   6.456   5.923
 2048SOL    HW2 7044   1.378   6.606   5.942
 2049SOL     OW 7045   6.003   1.489   5.112
 2049SOL    HW1 7046   6.096   1.523   5.095
 2049SOL    HW2 7047   6.007   1.401   5.159
 2050SOL     OW 7048   6.508   2.378   4.134
 2050SOL    HW1 7049   6.579   2.339   4.192
 2050SOL    HW2 7050   6.543   2.459   4.087
 2051SOL     OW 7051   1.119   5.299   0.657
 2051SOL    HW1 7052   1.145   5.348   0.574
 2051SOL    HW2 7053   1.019   5.289   0.660
 2052SOL     OW 7054   1.390   3.716   1.110
 2052SOL    HW1 7055   1.480   3.681   1.134
 2052SOL    HW2 7056   1.366   3.791   1.172
 2053SOL     OW 7057   5.630   6.515   4.070
 2053SOL    HW1 7058   5.676   6.505   4.158
 2053SOL    HW2 7059   5.549   6.456   4.068
 2054SOL     OW 7060   3.558   4.015   3.083
 2054SOL    HW1 7061   3.572   4.063   3.169
 2054SOL    HW2 7062   3.475   4.048   3.039
 2055SOL     OW 7063   6.482   3.296   3.390
 2055SOL    HW1 7064   6.533   3.306   3.475
 2055SOL    HW2 7065   6.405   3.235   3.404
 2056SOL     OW 7066   4.535   5.970   2.405
 2056SOL    HW1 7067   4.495   6.053   2.443
 2056SOL    HW2 7068   4.466   5.919   2.355
 2057SOL     OW 7069   5.548   4.035   5.586
 2057SOL    HW1 7070   5.463   4.079   5.617
 2057SOL    HW2 7071   5.617   4.105   5.569
 2058SOL     OW 7072   0.598   1.638   3.386
 2058SOL    HW1 7073   0.583   1.594   3.475
 2058SOL    HW2 7074   0.696   1.655   3.374
 2059SOL     OW 7075   1.816   6.042   6.719
 2059SOL    HW1 7076   1.773   6.077   6.803
 2059SOL    HW2 7077   1.808   6.110   6.647
 2060SOL     OW 7078   0.114   4.498   1.849
 2060SOL    HW1 7079   0.080   4.406   1.830
 2060SOL    HW2 7080   0.114   4.552   1.765
 2061SOL     OW 7081   0.966   2.122   3.113
 2061SOL    HW1 7082   0.974   2.086   3.206
 2061SOL    HW2 7083   1.054   2.115   3.066
 2062SOL     OW 7084   6.311   6.389   3.912
 2062SOL    HW1 7085   6.380   6.460   3.897
 2062SOL    HW2 7086   6.356   6.304   3.937
 2063SOL     OW 7087   1.961   6.570   6.234
 2063SOL    HW1 7088   1.930   6.655   6.276
 2063SOL    HW2 7089   1.912   6.555   6.148
 2064SOL     OW 7090   1.372   2.438   5.761
 2064SOL    HW1 7091   1.433   2.407   5.834
 2064SOL    HW2 7092   1.401   2.529   5.730
 2065SOL     OW 7093   6.404   2.571   5.185
 2065SOL    HW1 7094   6.357   2.538   5.103
 2065SOL    HW2 7095   6.404   2.671   5.184
 2066SOL     OW 7096   0.561   4.440   4.353
 2066SOL    HW1 7097   0.485   4.487   4.399
 2066SOL    HW2 7098   0.645   4.454   4.405
 2067SOL     OW 7099   6.157   5.113   0.993
 2067SOL    HW1 7100   6.210   5.056   0.930
 2067SOL    HW2 7101   6.212   5.136   1.073
 2068SOL     OW 7102   2.463   6.890   4.486
 2068SOL    HW1 7103   2.514   6.850   4.562
 2068SOL    HW2 7104   2.386   6.831   4.463
 2069SOL     OW 7105   6.721   1.787   3.967
 2069SOL    HW1 7106   6.793   1.739   3.916
 2069SOL    HW2 7107   6.733   1.771   4.065
 2070SOL     OW 7108   0.708   1.085   1.584
 2070SOL    HW1 7109   0.774   1.022   1.544
 2070SOL    HW2 7110   0.724   1.178   1.549
 2071SOL     OW 7111   6.691   7.011   6.147
 2071SOL    HW1 7112   6.771   6.979   6.096
 2071SOL    HW2 7113   6.611   6.958   6.119
 2072SOL     OW 7114   4.375   6.137   4.200
 2072SOL    HW1 7115   4.325   6.204   4.145
 2072SOL    HW2 7116   4.310   6.074   4.244
 2073SOL     OW 7117   4.082   6.907   4.951
 2073SOL    HW1 7118   3.998   6.950   4.916
 2073SOL    HW2 7119   4.160   6.966   4.930
 2074SOL     OW 7120   1.919   2.862   6.655
 2074SOL    HW1 7121   1.980   2.873   6.577
 2074SOL    HW2 7122   1.907   2.950   6.701
 2075SOL     OW 7123   6.766   2.899   3.177
 2075SOL    HW1 7124   6.734   2.843   3.253
 2075SOL    HW2 7125   6.749   2.996   3.197
 2076SOL     OW 7126   5.856   0.287   6.305
 2076SOL    HW1 7127   5.914   0.227   6.250
 2076SOL    HW2 7128   5.802   0.233   6.369
 2077SOL     OW 7129   5.874   2.584   3.481
 2077SOL    HW1 7130   5.872   2.484   3.469
 2077SOL    HW2 7131   5.846   2.628   3.396
 2078SOL     OW 7132   1.104   5.694   6.038
 2078SOL    HW1 7133   1.153   5.608   6.053
 2078SOL    HW2 7134   1.034   5.680   5.969
 2079SOL     OW 7135   5.591   2.107   3.311
 2079SOL    HW1 7136   5.661   2.148   3.253
 2079SOL    HW2 7137   5.572   2.014   3.279
 2080SOL     OW 7138   1.640   0.048   4.996
 2080SOL    HW1 7139   1.601   6.992   4.941
 2080SOL    HW2 7140   1.566   0.095   5.045
 2081SOL     OW 7141   1.240   5.352   4.458
 2081SOL    HW1 7142   1.313   5.399   4.506
 2081SOL    HW2 7143   1.255   5.359   4.359
 2082SOL     OW 7144   0.644   7.005   3.200
 2082SOL    HW1 7145   0.652   0.020   3.106
 2082SOL    HW2 7146   0.659   0.063   3.264
 2083SOL     OW 7147   6.921   4.775   5.565
 2083SOL    HW1 7148   6.834   4.747   5.606
 2083SOL    HW2 7149   6.904   4.821   5.478
 2084SOL     OW 7150   0.524   4.473   3.465
 2084SOL    HW1 7151   0.581   4.555   3.464
 2084SOL    HW2 7152   0.437   4.493   3.510
 2085SOL     OW 7153   4.583   0.479   0.219
 2085SOL    HW1 7154   4.646   0.476   0.141
 2085SOL    HW2 7155   4.495   0.514   0.189
 2086SOL     OW 7156   3.968   6.412   6.004
 2086SOL    HW1 7157   4.046   6.391   6.063
 2086SOL    HW2 7158   3.960   6.341   5.933
 2087SOL     OW 7159   4.850   0.727   1.619
 2087SOL    HW1 7160   4.803   0.799   1.569
 2087SOL    HW2 7161   4.914   0.768   1.685
 2088SOL     OW 7162   1.599   5.892   0.349
 2088SOL    HW1 7163   1.610   5.896   0.449
 2088SOL    HW2 7164   1.613   5.983   0.311
 2089SOL     OW 7165   5.379   3.059   6.164
 2089SOL    HW1 7166   5.446   3.132   6.177
 2089SOL    HW2 7167   5.325   3.077   6.082
 2090SOL     OW 7168   4.465   3.762   5.709
 2090SOL    HW1 7169   4.455   3.787   5.806
 2090SOL    HW2 7170   4.375   3.743   5.670
 2091SOL     OW 7171   0.593   5.411   0.963
 2091SOL    HW1 7172   0.532   5.479   1.002
 2091SOL    HW2 7173   0.623   5.348   1.035
 2092SOL     OW 7174   4.918   4.015   0.182
 2092SOL    HW1 7175   4.990   3.953   0.211
 2092SOL    HW2 7176   4.854   3.967   0.121
 2093SOL     OW 7177   2.608   2.071   1.077
 2093SOL    HW1 7178   2.694   2.022   1.061
 2093SOL    HW2 7179   2.544   2.012   1.126
 2094SOL     OW 7180   6.269   1.908   3.087
 2094SOL    HW1 7181   6.355   1.864   3.111
 2094SOL    HW2 7182   6.262   1.916   2.987
 2095SOL     OW 7183   5.984   6.931   5.673
 2095SOL    HW1 7184   6.039   6.943   5.590
 2095SOL    HW2 7185   5.897   6.979   5.662
 2096SOL     OW 7186   4.751   4.093   3.087
 2096SOL    HW1 7187   4.733   4.148   3.006
 2096SOL    HW2 7188   4.762   3.997   3.061
 2097SOL     OW 7189   2.706   3.680   6.460
 2097SOL    HW1 7190   2.728   3.599   6.405
 2097SOL    HW2 7191   2.614   3.670   6.498
 2098SOL     OW 7192   3.951   5.996   1.821
 2098SOL    HW1 7193   3.952   6.071   1.755
 2098SOL    HW2 7194   3.997   5.916   1.781
 2099SOL     OW 7195   3.531   2.520   6.404
 2099SOL    HW1 7196   3.494   2.475   6.323
 2099SOL    HW2 7197   3.611   2.574   6.378
 2100SOL     OW 7198   5.382   2.556   6.845
 2100SOL    HW1 7199   5.314   2.510   6.901
 2100SOL    HW2 7200   5.337   2.614   6.777
 2101SOL     OW 7201   1.152   6.965   1.534
 2101SOL    HW1 7202   1.084   6.965   1.607
 2101SOL    HW2 7203   1.109   6.994   1.448
 2102SOL     OW 7204   5.688   4.812   2.556
 2102SOL    HW1 7205   5.726   4.722   2.572
 2102SOL    HW2 7206   5.614   4.829   2.621
 2103SOL     OW 7207   3.372   3.896   6.825
 2103SOL    HW1 7208   3.306   3.859   6.759
 2103SOL    HW2 7209   3.464   3.889   6.787
 2104SOL     OW 7210   1.515   4.299   1.615
 2104SOL    HW1 7211   1.564   4.366   1.560
 2104SOL    HW2 7212   1.462   4.346   1.686
 2105SOL     OW 7213   5.347   4.600   5.600
 2105SOL    HW1 7214   5.445   4.583   5.601
 2105SOL    HW2 7215   5.330   4.697   5.585
 2106SOL     OW 7216   5.122   3.719   0.743
 2106SOL    HW1 7217   5.038   3.707   0.796
 2106SOL    HW2 7218   5.100   3.724   0.645
 2107SOL     OW 7219   6.269   2.265   5.202
 2107SOL    HW1 7220   6.264   2.330   5.278
 2107SOL    HW2 7221   6.328   2.188   5.227
 2108SOL     OW 7222   6.158   5.659   4.607
 2108SOL    HW1 7223   6.204   5.739   4.568
 2108SOL    HW2 7224   6.218   5.579   4.597
 2109SOL     OW 7225   4.651   5.831   2.084
 2109SOL    HW1 7226   4.704   5.915   2.097
 2109SOL    HW2 7227   4.668   5.795   1.993
 2110SOL     OW 7228   2.386   1.323   0.229
 2110SOL    HW1 7229   2.316   1.253   0.245
 2110SOL    HW2 7230   2.429   1.307   0.140
 2111SOL     OW 7231   2.345   2.898   6.677
 2111SOL    HW1 7232   2.318   2.829   6.743
 2111SOL    HW2 7233   2.426   2.947   6.711
 2112SOL     OW 7234   5.131   2.835   0.753
 2112SOL    HW1 7235   5.223   2.875   0.751
 2112SOL    HW2 7236   5.063   2.906   0.771
 2113SOL     OW 7237   2.630   1.691   4.531
 2113SOL    HW1 7238   2.681   1.758   4.476
 2113SOL    HW2 7239   2.537   1.723   4.545
 2114SOL     OW 7240   2.226   2.048   6.628
 2114SOL    HW1 7241   2.146   2.107   6.614
 2114SOL    HW2 7242   2.309   2.102   6.617
 2115SOL     OW 7243   1.020   4.640   3.382
 2115SOL    HW1 7244   0.987   4.608   3.293
 2115SOL    HW2 7245   1.007   4.739   3.389
 2116SOL     OW 7246   0.624   4.387   2.976
 2116SOL    HW1 7247   0.603   4.365   3.071
 2116SOL    HW2 7248   0.542   4.374   2.920
 2117SOL     OW 7249   6.662   4.776   1.782
 2117SOL    HW1 7250   6.600   4.852   1.801
 2117SOL    HW2 7251   6.739   4.809   1.727
 2118SOL     OW 7252   6.326   2.866   2.981
 2118SOL    HW1 7253   6.414   2.818   2.983
 2118SOL    HW2 7254   6.252   2.800   2.994
 2119SOL     OW 7255   1.544   0.211   0.881
 2119SOL    HW1 7256   1.638   0.202   0.914
 2119SOL    HW2 7257   1.495   0.279   0.936
 2120SOL     OW 7258   0.467   4.326   4.024
 2120SOL    HW1 7259   0.389   4.271   4.052
 2120SOL    HW2 7260   0.552   4.279   4.050
 2121SOL     OW 7261   1.339   3.297   5.834
 2121SOL    HW1 7262   1.439   3.303   5.830
 2121SOL    HW2 7263   1.299   3.371   5.780
 2122SOL     OW 7264   5.796   4.865   5.949
 2122SOL    HW1 7265   5.808   4.861   5.850
 2122SOL    HW2 7266   5.701   4.843   5.972
 2123SOL     OW 7267   6.767   5.384   2.183
 2123SOL    HW1 7268   6.681   5.422   2.219
 2123SOL    HW2 7269   6.808   5.324   2.252
 2124SOL     OW 7270   3.120   2.192   1.033
 2124SOL    HW1 7271   3.096   2.278   0.989
 2124SOL    HW2 7272   3.127   2.207   1.132
 2125SOL     OW 7273   2.174   0.393   2.418
 2125SOL    HW1 7274   2.106   0.441   2.473
 2125SOL    HW2 7275   2.258   0.448   2.413
 2126SOL     OW 7276   3.924   2.372   6.733
 2126SOL    HW1 7277   3.972   2.341   6.651
 2126SOL    HW2 7278   3.984   2.363   6.813
 2127SOL     OW 7279   1.285   2.110   5.321
 2127SOL    HW1 7280   1.287   2.176   5.246
 2127SOL    HW2 7281   1.191   2.089   5.345
 2128SOL     OW 7282   6.694   2.987   4.145
 2128SOL    HW1 7283   6.626   2.949   4.083
 2128SOL    HW2 7284   6.684   2.946   4.236
 2129SOL     OW 7285   4.865   3.348   5.104
 2129SOL    HW1 7286   4.852   3.442   5.072
 2129SOL    HW2 7287   4.777   3.299   5.100
 2130SOL     OW 7288   3.230   0.260   3.092
 2130SOL    HW1 7289   3.248   0.217   3.180
 2130SOL    HW2 7290   3.184   0.195   3.032
 2131SOL     OW 7291   4.800   1.511   0.146
 2131SOL    HW1 7292   4.739   1.474   0.215
 2131SOL    HW2 7293   4.828   1.437   0.084
 2132SOL     OW 7294   3.937   1.114   0.868
 2132SOL    HW1 7295   3.946   1.196   0.812
 2132SOL    HW2 7296   3.974   1.036   0.818
 2133SOL     OW 7297   3.203   3.161   1.092
 2133SOL    HW1 7298   3.196   3.082   1.154
 2133SOL    HW2 7299   3.111   3.197   1.074
 2134SOL     OW 7300   1.153   0.730   5.417
 2134SOL    HW1 7301   1.077   0.709   5.477
 2134SOL    HW2 7302   1.238   0.694   5.456
 2135SOL     OW 7303   1.698   3.056   5.057
 2135SOL    HW1 7304   1.755   3.077   4.977
 2135SOL    HW2 7305   1.622   2.997   5.029
 2136SOL     OW 7306   0.633   4.153   4.671
 2136SOL    HW1 7307   0.678   4.079   4.721
 2136SOL    HW2 7308   0.612   4.228   4.735
 2137SOL     OW 7309   0.503   5.878   4.305
 2137SOL    HW1 7310   0.426   5.936   4.333
 2137SOL    HW2 7311   0.467   5.793   4.266
 2138SOL     OW 7312   0.190   0.773   2.065
 2138SOL    HW1 7313   0.196   0.872   2.057
 2138SOL    HW2 7314   0.144   0.736   1.984
 2139SOL     OW 7315   3.159   0.637   2.537
 2139SOL    HW1 7316   3.218   0.651   2.616
 2139SOL    HW2 7317   3.188   0.555   2.487
 2140SOL     OW 7318   3.780   5.931   4.111
 2140SOL    HW1 7319   3.848   5.908   4.042
 2140SOL    HW2 7320   3.792   5.872   4.191
 2141SOL     OW 7321   6.224   4.675   1.608
 2141SOL    HW1 7322   6.260   4.692   1.699
 2141SOL    HW2 7323   6.258   4.587   1.574
 2142SOL     OW 7324   1.196   2.095   2.993
 2142SOL    HW1 7325   1.201   2.188   2.956
 2142SOL    HW2 7326   1.283   2.071   3.036
 2143SOL     OW 7327   3.116   4.528   1.386
 2143SOL    HW1 7328   3.108   4.473   1.303
 2143SOL    HW2 7329   3.034   4.584   1.397
 2144SOL     OW 7330   1.264   5.659   3.875
 2144SOL    HW1 7331   1.262   5.559   3.873
 2144SOL    HW2 7332   1.271   5.694   3.782
 2145SOL     OW 7333   4.245   5.819   4.095
 2145SOL    HW1 7334   4.206   5.876   4.167
 2145SOL    HW2 7335   4.213   5.850   4.006
 2146SOL     OW 7336   2.927   3.826   1.145
 2146SOL    HW1 7337   2.848   3.781   1.103
 2146SOL    HW2 7338   2.967   3.767   1.214
 2147SOL     OW 7339   6.869   1.395   6.396
 2147SOL    HW1 7340   6.823   1.378   6.483
 2147SOL    HW2 7341   6.817   1.353   6.321
 2148SOL     OW 7342   5.211   2.609   4.525
 2148SOL    HW1 7343   5.255   2.524   4.496
 2148SOL    HW2 7344   5.281   2.675   4.552
 2149SOL     OW 7345   3.737   1.943   1.405
 2149SOL    HW1 7346   3.776   2.032   1.430
 2149SOL    HW2 7347   3.739   1.933   1.306
 2150SOL     OW 7348   2.820   1.830   2.077
 2150SOL    HW1 7349   2.884   1.906   2.090
 2150SOL    HW2 7350   2.831   1.765   2.153
 2151SOL     OW 7351   2.081   1.169   4.383
 2151SOL    HW1 7352   1.982   1.182   4.386
 2151SOL    HW2 7353   2.107   1.135   4.293
 2152SOL     OW 7354   4.003   6.238   1.681
 2152SOL    HW1 7355   3.948   6.320   1.699
 2152SOL    HW2 7356   4.100   6.261   1.690
 2153SOL     OW 7357   3.228   0.718   3.313
 2153SOL    HW1 7358   3.275   0.792   3.265
 2153SOL    HW2 7359   3.213   0.642   3.250
 2154SOL     OW 7360   4.585   0.412   4.985
 2154SOL    HW1 7361   4.569   0.446   5.078
 2154SOL    HW2 7362   4.659   0.463   4.943
 2155SOL     OW 7363   1.565   6.188   0.318
 2155SOL    HW1 7364   1.481   6.188   0.263
 2155SOL    HW2 7365   1.622   6.266   0.293
 2156SOL     OW 7366   2.211   0.536   3.546
 2156SOL    HW1 7367   2.218   0.632   3.572
 2156SOL    HW2 7368   2.174   0.483   3.622
 2157SOL     OW 7369   6.221   0.953   3.119
 2157SOL    HW1 7370   6.290   0.948   3.191
 2157SOL    HW2 7371   6.156   1.026   3.140
 2158SOL     OW 7372   3.497   6.212   0.875
 2158SOL    HW1 7373   3.574   6.261   0.916
 2158SOL    HW2 7374   3.531   6.133   0.824
 2159SOL     OW 7375   2.212   5.970   5.472
 2159SOL    HW1 7376   2.119   5.950   5.503
 2159SOL    HW2 7377   2.228   6.069   5.475
 2160SOL     OW 7378   4.787   3.943   0.601
 2160SOL    HW1 7379   4.722   4.018   0.617
 2160SOL    HW2 7380   4.746   3.857   0.633
 2161SOL     OW 7381   5.076   4.245   3.120
 2161SOL    HW1 7382   5.006   4.200   3.065
 2161SOL    HW2 7383   5.161   4.250   3.068
 2162SOL     OW 7384   2.682   0.646   0.806
 2162SOL    HW1 7385   2.681   0.547   0.820
 2162SOL    HW2 7386   2.734   0.690   0.880
 2163SOL     OW 7387   7.007   3.959   6.533
 2163SOL    HW1 7388   6.983   3.879   6.588
 2163SOL    HW2 7389   6.997   3.936   6.436
 2164SOL     OW 7390   2.207   3.043   0.527
 2164SOL    HW1 7391   2.130   2.980   0.512
 2164SOL    HW2 7392   2.201   3.119   0.462
 2165SOL     OW 7393   0.488   1.559   2.606
 2165SOL    HW1 7394   0.435   1.620   2.548
 2165SOL    HW2 7395   0.427   1.490   2.646
 2166SOL     OW 7396   1.478   2.375   5.384
 2166SOL    HW1 7397   1.488   2.306   5.456
 2166SOL    HW2 7398   1.540   2.451   5.402
 2167SOL     OW 7399   1.368   1.143   3.746
 2167SOL    HW1 7400   1.404   1.091   3.668
 2167SOL    HW2 7401   1.415   1.231   3.751
 2168SOL     OW 7402   0.896   1.959   3.606
 2168SOL    HW1 7403   0.806   2.001   3.594
 2168SOL    HW2 7404   0.887   1.877   3.663
 2169SOL     OW 7405   5.550   2.223   5.406
 2169SOL    HW1 7406   5.500   2.158   5.462
 2169SOL    HW2 7407   5.582   2.299   5.463
 2170SOL     OW 7408   6.161   5.616   5.218
 2170SOL    HW1 7409   6.094   5.568   5.276
 2170SOL    HW2 7410   6.153   5.582   5.124
 2171SOL     OW 7411   0.005   3.992   1.653
 2171SOL    HW1 7412   6.963   3.970   1.576
 2171SOL    HW2 7413   0.087   3.934   1.649
 2172SOL     OW 7414   2.523   2.298   0.257
 2172SOL    HW1 7415   2.453   2.254   0.201
 2172SOL    HW2 7416   2.487   2.382   0.297
 2173SOL     OW 7417   3.852   0.004   4.802
 2173SOL    HW1 7418   3.775   6.982   4.753
 2173SOL    HW2 7419   3.922   0.032   4.736
 2174SOL     OW 7420   5.388   4.817   5.274
 2174SOL    HW1 7421   5.348   4.774   5.192
 2174SOL    HW2 7422   5.488   4.816   5.266
 2175SOL     OW 7423   2.555   2.026   4.646
 2175SOL    HW1 7424   2.642   2.060   4.683
 2175SOL    HW2 7425   2.508   1.971   4.715
 2176SOL     OW 7426   0.691   2.985   0.050
 2176SOL    HW1 7427   0.692   2.942   6.977
 2176SOL    HW2 7428   0.724   3.079   0.043
 2177SOL     OW 7429   6.377   0.971   3.838
 2177SOL    HW1 7430   6.338   0.895   3.787
 2177SOL    HW2 7431   6.454   1.009   3.787
 2178SOL     OW 7432   1.096   3.874   0.156
 2178SOL    HW1 7433   1.026   3.930   0.200
 2178SOL    HW2 7434   1.107   3.903   0.061
 2179SOL     OW 7435   1.462   5.455   4.638
 2179SOL    HW1 7436   1.538   5.425   4.581
 2179SOL    HW2 7437   1.434   5.381   4.699
 2180SOL     OW 7438   2.366   2.788   1.937
 2180SOL    HW1 7439   2.350   2.881   1.906
 2180SOL    HW2 7440   2.279   2.742   1.952
 2181SOL     OW 7441   4.679   4.802   5.423
 2181SOL    HW1 7442   4.727   4.722   5.458
 2181SOL    HW2 7443   4.673   4.797   5.323
 2182SOL     OW 7444   0.570   3.474   5.316
 2182SOL    HW1 7445   0.471   3.466   5.323
 2182SOL    HW2 7446   0.607   3.507   5.403
 2183SOL     OW 7447   2.955   4.443   5.554
 2183SOL    HW1 7448   3.028   4.454   5.486
 2183SOL    HW2 7449   2.878   4.502   5.529
 2184SOL     OW 7450   4.825   1.551   6.578
 2184SOL    HW1 7451   4.777   1.633   6.547
 2184SOL    HW2 7452   4.918   1.551   6.542
 2185SOL     OW 7453   1.653   1.839   0.898
 2185SOL    HW1 7454   1.704   1.861   0.981
 2185SOL    HW2 7455   1.569   1.790   0.922
 2186SOL     OW 7456   6.903   5.230   2.400
 2186SOL    HW1 7457   6.979   5.284   2.365
 2186SOL    HW2 7458   6.877   5.264   2.490
 2187SOL     OW 7459   6.791   1.548   1.842
 2187SOL    HW1 7460   6.695   1.577   1.847
 2187SOL    HW2 7461   6.844   1.598   1.910
 2188SOL     OW 7462   5.765   6.139   4.242
 2188SOL    HW1 7463   5.675   6.123   4.202
 2188SOL    HW2 7464   5.829   6.167   4.170
 2189SOL     OW 7465   1.733   6.886   0.307
 2189SOL    HW1 7466   1.802   6.845   0.366
 2189SOL    HW2 7467   1.752   6.983   0.294
 2190SOL     OW 7468   0.604   2.505   1.877
 2190SOL    HW1 7469   0.694   2.549   1.876
 2190SOL    HW2 7470   0.561   2.515   1.787
 2191SOL     OW 7471   2.980   1.832   6.446
 2191SOL    HW1 7472   3.033   1.755   6.481
 2191SOL    HW2 7473   2.955   1.892   6.522
 2192SOL     OW 7474   3.500   0.489   3.299
 2192SOL    HW1 7475   3.489   0.391   3.284
 2192SOL    HW2 7476   3.493   0.509   3.396
 2193SOL     OW 7477   6.546   5.686   6.197
 2193SOL    HW1 7478   6.588   5.660   6.110
 2193SOL    HW2 7479   6.478   5.618   6.224
 2194SOL     OW 7480   2.116   5.041   6.450
 2194SOL    HW1 7481   2.069   4.973   6.507
 2194SOL    HW2 7482   2.188   4.996   6.397
 2195SOL     OW 7483   0.118   0.344   3.835
 2195SOL    HW1 7484   0.206   0.300   3.853
 2195SOL    HW2 7485   0.077   0.305   3.752
 2196SOL     OW 7486   3.227   0.302   5.175
 2196SOL    HW1 7487   3.231   0.366   5.099
 2196SOL    HW2 7488   3.296   0.328   5.243
 2197SOL     OW 7489   3.270   3.428   1.099
 2197SOL    HW1 7490   3.225   3.342   1.121
 2197SOL    HW2 7491   3.240   3.460   1.009
 2198SOL     OW 7492   6.755   0.899   0.114
 2198SOL    HW1 7493   6.747   0.895   0.015
 2198SOL    HW2 7494   6.781   0.991   0.142
 2199SOL     OW 7495   4.805   1.196   3.309
 2199SOL    HW1 7496   4.759   1.119   3.355
 2199SOL    HW2 7497   4.901   1.197   3.334
 2200SOL     OW 7498   3.233   0.215   4.704
 2200SOL    HW1 7499   3.289   0.170   4.634
 2200SOL    HW2 7500   3.137   0.218   4.673
 2201SOL     OW 7501   6.348   2.320   3.350
 2201SOL    HW1 7502   6.402   2.395   3.310
 2201SOL    HW2 7503   6.297   2.273   3.277
 2202SOL     OW 7504   2.643   4.647   2.673
 2202SOL    HW1 7505   2.705   4.722   2.651
 2202SOL    HW2 7506   2.697   4.569   2.706
 2203SOL     OW 7507   2.382   2.919   1.337
 2203SOL    HW1 7508   2.284   2.936   1.345
 2203SOL    HW2 7509   2.406   2.837   1.389
 2204SOL     OW 7510   3.801   1.686   6.944
 2204SOL    HW1 7511   3.766   1.593   6.939
 2204SOL    HW2 7512   3.890   1.690   6.898
 2205SOL     OW 7513   1.809   6.884   6.064
 2205SOL    HW1 7514   1.793   6.973   6.106
 2205SOL    HW2 7515   1.901   6.881   6.024
 2206SOL     OW 7516   2.309   4.326   5.816
 2206SOL    HW1 7517   2.282   4.420   5.835
 2206SOL    HW2 7518   2.316   4.313   5.717
 2207SOL     OW 7519   2.455   3.830   0.052
 2207SOL    HW1 7520   2.400   3.886   0.113
 2207SOL    HW2 7521   2.407   3.819   6.982
 2208SOL     OW 7522   1.479   6.033   2.696
 2208SOL    HW1 7523   1.572   6.026   2.660
 2208SOL    HW2 7524   1.482   6.038   2.796
 2209SOL     OW 7525   0.783   5.543   5.580
 2209SOL    HW1 7526   0.876   5.573   5.555
 2209SOL    HW2 7527   0.747   5.483   5.508
 2210SOL     OW 7528   0.149   4.940   4.208
 2210SOL    HW1 7529   0.245   4.954   4.232
 2210SOL    HW2 7530   0.118   5.016   4.150
 2211SOL     OW 7531   5.416   0.596   0.352
 2211SOL    HW1 7532   5.332   0.648   0.338
 2211SOL    HW2 7533   5.397   0.499   0.338
 2212SOL     OW 7534   2.505   6.480   6.917
 2212SOL    HW1 7535   2.505   6.392   6.868
 2212SOL    HW2 7536   2.424   6.532   6.892
 2213SOL     OW 7537   3.946   2.795   5.321
 2213SOL    HW1 7538   4.021   2.731   5.304
 2213SOL    HW2 7539   3.889   2.802   5.239
 2214SOL     OW 7540   4.298   2.662   5.761
 2214SOL    HW1 7541   4.202   2.670   5.734
 2214SOL    HW2 7542   4.354   2.720   5.703
 2215SOL     OW 7543   6.401   1.946   6.678
 2215SOL    HW1 7544   6.475   1.879   6.673
 2215SOL    HW2 7545   6.349   1.932   6.762
 2216SOL     OW 7546   1.441   0.037   6.108
 2216SOL    HW1 7547   1.377   0.003   6.039
 2216SOL    HW2 7548   1.391   0.086   6.179
 2217SOL     OW 7549   4.023   6.965   1.141
 2217SOL    HW1 7550   3.979   6.875   1.140
 2217SOL    HW2 7551   4.014   7.005   1.232
 2218SOL     OW 7552   0.543   6.735   0.633
 2218SOL    HW1 7553   0.544   6.698   0.540
 2218SOL    HW2 7554   0.573   6.830   0.632
 2219SOL     OW 7555   6.985   2.652   2.084
 2219SOL    HW1 7556   0.016   2.565   2.091
 2219SOL    HW2 7557   6.949   2.662   1.991
 2220SOL     OW 7558   0.749   0.588   4.149
 2220SOL    HW1 7559   0.675   0.547   4.096
 2220SOL    HW2 7560   0.745   0.556   4.244
 2221SOL     OW 7561   6.206   0.555   5.742
 2221SOL    HW1 7562   6.218   0.458   5.719
 2221SOL    HW2 7563   6.279   0.584   5.804
 2222SOL     OW 7564   4.062   0.265   0.553
 2222SOL    HW1 7565   4.121   0.321   0.611
 2222SOL    HW2 7566   4.089   0.276   0.457
 2223SOL     OW 7567   6.163   0.372   3.739
 2223SOL    HW1 7568   6.154   0.425   3.823
 2223SOL    HW2 7569   6.138   0.277   3.757
 2224SOL     OW 7570   1.678   4.440   1.440
 2224SOL    HW1 7571   1.708   4.387   1.361
 2224SOL    HW2 7572   1.749   4.505   1.466
 2225SOL     OW 7573   6.449   5.745   2.894
 2225SOL    HW1 7574   6.515   5.671   2.880
 2225SOL    HW2 7575   6.358   5.706   2.905
 2226SOL     OW 7576   4.142   5.225   0.791
 2226SOL    HW1 7577   4.047   5.252   0.804
 2226SOL    HW2 7578   4.179   5.190   0.877
 2227SOL     OW 7579   5.361   3.627   0.540
 2227SOL    HW1 7580   5.417   3.620   0.622
 2227SOL    HW2 7581   5.411   3.680   0.470
 2228SOL     OW 7582   2.642   5.308   1.453
 2228SOL    HW1 7583   2.645   5.224   1.507
 2228SOL    HW2 7584   2.613   5.384   1.510
 2229SOL     OW 7585   3.895   1.819   4.532
 2229SOL    HW1 7586   3.842   1.776   4.605
 2229SOL    HW2 7587   3.865   1.914   4.520
 2230SOL     OW 7588   5.923   5.529   5.323
 2230SOL    HW1 7589   5.910   5.462   5.397
 2230SOL    HW2 7590   5.915   5.621   5.360
 2231SOL     OW 7591   0.320   0.911   1.491
 2231SOL    HW1 7592   0.359   0.992   1.533
 2231SOL    HW2 7593   0.306   0.927   1.393
 2232SOL     OW 7594   1.076   2.713   4.480
 2232SOL    HW1 7595   0.995   2.752   4.525
 2232SOL    HW2 7596   1.155   2.773   4.494
 2233SOL     OW 7597   2.308   4.376   1.346
 2233SOL    HW1 7598   2.356   4.392   1.432
 2233SOL    HW2 7599   2.214   4.409   1.353
 2234SOL     OW 7600   4.673   2.134   1.809
 2234SOL    HW1 7601   4.643   2.178   1.894
 2234SOL    HW2 7602   4.595   2.126   1.747
 2235SOL     OW 7603   1.857   0.507   1.377
 2235SOL    HW1 7604   1.836   0.598   1.415
 2235SOL    HW2 7605   1.776   0.470   1.333
 2236SOL     OW 7606   0.872   4.532   6.651
 2236SOL    HW1 7607   0.897   4.522   6.554
 2236SOL    HW2 7608   0.848   4.442   6.688
 2237SOL     OW 7609   5.564   4.763   3.798
 2237SOL    HW1 7610   5.571   4.794   3.702
 2237SOL    HW2 7611   5.520   4.835   3.852
 2238SOL     OW 7612   5.583   5.055   1.930
 2238SOL    HW1 7613   5.562   5.052   2.027
 2238SOL    HW2 7614   5.587   4.962   1.893
 2239SOL     OW 7615   3.357   5.212   3.608
 2239SOL    HW1 7616   3.333   5.196   3.513
 2239SOL    HW2 7617   3.422   5.142   3.638
 2240SOL     OW 7618   5.391   6.113   3.896
 2240SOL    HW1 7619   5.308   6.072   3.935
 2240SOL    HW2 7620   5.414   6.067   3.810
 2241SOL     OW 7621   0.661   7.014   2.264
 2241SOL    HW1 7622   0.566   6.999   2.235
 2241SOL    HW2 7623   0.669   0.087   2.305
 2242SOL     OW 7624   4.752   2.652   2.935
 2242SOL    HW1 7625   4.823   2.717   2.907
 2242SOL    HW2 7626   4.705   2.616   2.854
 2243SOL     OW 7627   2.753   6.367   5.343
 2243SOL    HW1 7628   2.694   6.289   5.365
 2243SOL    HW2 7629   2.701   6.452   5.351
 2244SOL     OW 7630   2.786   0.140   2.243
 2244SOL    HW1 7631   2.776   0.044   2.215
 2244SOL    HW2 7632   2.700   0.173   2.281
 2245SOL     OW 7633   0.263   1.470   2.335
 2245SOL    HW1 7634   0.290   1.419   2.417
 2245SOL    HW2 7635   0.342   1.480   2.275
 2246SOL     OW 7636   1.164   1.308   5.768
 2246SOL    HW1 7637   1.129   1.313   5.862
 2246SOL    HW2 7638   1.248   1.362   5.761
 2247SOL     OW 7639   2.566   2.880   5.844
 2247SOL    HW1 7640   2.632   2.880   5.770
 2247SOL    HW2 7641   2.568   2.969   5.891
 2248SOL     OW 7642   3.629   3.623   6.443
 2248SOL    HW1 7643   3.604   3.584   6.355
 2248SOL    HW2 7644   3.728   3.623   6.453
 2249SOL     OW 7645   5.848   6.484   2.287
 2249SOL    HW1 7646   5.830   6.490   2.189
 2249SOL    HW2 7647   5.915   6.553   2.314
 2250SOL     OW 7648   4.465   3.875   0.285
 2250SOL    HW1 7649   4.458   3.899   0.188
 2250SOL    HW2 7650   4.544   3.921   0.325
 2251SOL     OW 7651   5.294   1.171   0.618
 2251SOL    HW1 7652   5.237   1.243   0.658
 2251SOL    HW2 7653   5.264   1.153   0.524
 2252SOL     OW 7654   5.911   2.217   3.122
 2252SOL    HW1 7655   5.881   2.157   3.048
 2252SOL    HW2 7656   5.842   2.287   3.139
 2253SOL     OW 7657   1.178   3.843   6.727
 2253SOL    HW1 7658   1.130   3.756   6.743
 2253SOL    HW2 7659   1.226   3.839   6.639
 2254SOL     OW 7660   2.402   3.189   5.576
 2254SOL    HW1 7661   2.387   3.287   5.583
 2254SOL    HW2 7662   2.330   3.149   5.519
 2255SOL     OW 7663   4.618   2.842   6.986
 2255SOL    HW1 7664   4.564   2.764   6.953
 2255SOL    HW2 7665   4.699   2.808   0.016
 2256SOL     OW 7666   4.581   6.318   1.631
 2256SOL    HW1 7667   4.526   6.347   1.709
 2256SOL    HW2 7668   4.559   6.224   1.607
 2257SOL     OW 7669   6.945   1.997   4.190
 2257SOL    HW1 7670   6.995   1.959   4.113
 2257SOL    HW2 7671   6.848   2.004   4.167
 2258SOL     OW 7672   1.196   5.558   5.740
 2258SOL    HW1 7673   1.282   5.514   5.713
 2258SOL    HW2 7674   1.168   5.525   5.830
 2259SOL     OW 7675   4.643   4.333   6.616
 2259SOL    HW1 7676   4.586   4.388   6.555
 2259SOL    HW2 7677   4.723   4.386   6.644
 2260SOL     OW 7678   5.812   4.474   3.155
 2260SOL    HW1 7679   5.838   4.417   3.232
 2260SOL    HW2 7680   5.740   4.538   3.183
 2261SOL     OW 7681   6.805   6.782   0.709
 2261SOL    HW1 7682   6.741   6.859   0.705
 2261SOL    HW2 7683   6.780   6.722   0.785
 2262SOL     OW 7684   5.077   2.090   2.016
 2262SOL    HW1 7685   5.162   2.040   2.001
 2262SOL    HW2 7686   5.001   2.025   2.024
 2263SOL     OW 7687   2.501   6.231   6.026
 2263SOL    HW1 7688   2.501   6.305   6.093
 2263SOL    HW2 7689   2.594   6.217   5.992
 2264SOL     OW 7690   2.967   2.856   0.945
 2264SOL    HW1 7691   2.895   2.878   0.879
 2264SOL    HW2 7692   2.953   2.764   0.981
 2265SOL     OW 7693   0.613   0.529   3.493
 2265SOL    HW1 7694   0.516   0.551   3.486
 2265SOL    HW2 7695   0.667   0.612   3.483
 2266SOL     OW 7696   6.272   1.881   1.387
 2266SOL    HW1 7697   6.262   1.980   1.401
 2266SOL    HW2 7698   6.343   1.864   1.318
 2267SOL     OW 7699   4.981   2.519   4.972
 2267SOL    HW1 7700   4.882   2.511   4.964
 2267SOL    HW2 7701   5.024   2.453   4.911
 2268SOL     OW 7702   6.693   4.134   6.164
 2268SOL    HW1 7703   6.641   4.168   6.243
 2268SOL    HW2 7704   6.770   4.195   6.147
 2269SOL     OW 7705   5.442   6.295   4.953
 2269SOL    HW1 7706   5.394   6.237   5.019
 2269SOL    HW2 7707   5.433   6.391   4.981
 2270SOL     OW 7708   3.374   2.357   6.223
 2270SOL    HW1 7709   3.352   2.284   6.158
 2270SOL    HW2 7710   3.310   2.433   6.211
 2271SOL     OW 7711   6.280   4.220   0.481
 2271SOL    HW1 7712   6.227   4.224   0.397
 2271SOL    HW2 7713   6.336   4.137   0.482
 2272SOL     OW 7714   5.808   1.468   4.931
 2272SOL    HW1 7715   5.878   1.514   4.987
 2272SOL    HW2 7716   5.732   1.531   4.915
 2273SOL     OW 7717   1.665   0.779   2.107
 2273SOL    HW1 7718   1.723   0.768   2.188
 2273SOL    HW2 7719   1.712   0.741   2.028
 2274SOL     OW 7720   1.803   2.599   6.065
 2274SOL    HW1 7721   1.894   2.626   6.033
 2274SOL    HW2 7722   1.808   2.570   6.160
 2275SOL     OW 7723   5.974   0.507   4.572
 2275SOL    HW1 7724   5.946   0.504   4.476
 2275SOL    HW2 7725   5.992   0.414   4.604
 2276SOL     OW 7726   2.912   4.718   1.359
 2276SOL    HW1 7727   2.939   4.689   1.267
 2276SOL    HW2 7728   2.932   4.815   1.371
 2277SOL     OW 7729   3.660   3.299   5.102
 2277SOL    HW1 7730   3.576   3.301   5.156
 2277SOL    HW2 7731   3.695   3.392   5.091
 2278SOL     OW 7732   6.515   5.478   3.870
 2278SOL    HW1 7733   6.566   5.399   3.905
 2278SOL    HW2 7734   6.530   5.486   3.771
 2279SOL     OW 7735   4.798   5.817   4.651
 2279SOL    HW1 7736   4.746   5.780   4.728
 2279SOL    HW2 7737   4.880   5.863   4.685
 2280SOL     OW 7738   7.007   6.032   5.132
 2280SOL    HW1 7739   0.010   6.052   5.228
 2280SOL    HW2 7740   6.936   6.094   5.100
 2281SOL     OW 7741   3.503   1.188   1.542
 2281SOL    HW1 7742   3.450   1.159   1.462
 2281SOL    HW2 7743   3.450   1.169   1.625
 2282SOL     OW 7744   4.560   0.091   5.033
 2282SOL    HW1 7745   4.485   0.053   4.979
 2282SOL    HW2 7746   4.565   0.189   5.018
 2283SOL     OW 7747   6.343   4.719   1.877
 2283SOL    HW1 7748   6.393   4.805   1.870
 2283SOL    HW2 7749   6.406   4.647   1.907
 2284SOL     OW 7750   2.464   1.577   0.000
 2284SOL    HW1 7751   2.404   1.622   0.067
 2284SOL    HW2 7752   2.476   1.638   6.939
 2285SOL     OW 7753   1.664   2.211   0.584
 2285SOL    HW1 7754   1.578   2.171   0.553
 2285SOL    HW2 7755   1.659   2.310   0.577
 2286SOL     OW 7756   0.504   0.075   4.667
 2286SOL    HW1 7757   0.456   0.091   4.581
 2286SOL    HW2 7758   0.568   7.017   4.655
 2287SOL     OW 7759   1.851   1.817   2.378
 2287SOL    HW1 7760   1.935   1.857   2.341
 2287SOL    HW2 7761   1.775   1.834   2.314
 2288SOL     OW 7762   6.558   4.871   4.471
 2288SOL    HW1 7763   6.643   4.845   4.518
 2288SOL    HW2 7764   6.534   4.965   4.494
 2289SOL     OW 7765   6.542   4.554   2.699
 2289SOL    HW1 7766   6.516   4.504   2.782
 2289SOL    HW2 7767   6.626   4.515   2.662
 2290SOL     OW 7768   1.331   3.378   1.823
 2290SOL    HW1 7769   1.297   3.392   1.916
 2290SOL    HW2 7770   1.428   3.352   1.826
 2291SOL     OW 7771   2.018   2.561   6.982
 2291SOL    HW1 7772   1.962   2.642   6.998
 2291SOL    HW2 7773   2.065   2.570   6.894
 2292SOL     OW 7774   5.835   2.552   3.752
 2292SOL    HW1 7775   5.875   2.560   3.661
 2292SOL    HW2 7776   5.880   2.617   3.814
 2293SOL     OW 7777   6.585   6.759   1.146
 2293SOL    HW1 7778   6.496   6.779   1.189
 2293SOL    HW2 7779   6.644   6.714   1.213
 2294SOL     OW 7780   3.512   1.156   6.303
 2294SOL    HW1 7781   3.479   1.062   6.308
 2294SOL    HW2 7782   3.501   1.200   6.393
 2295SOL     OW 7783   0.664   1.814   2.735
 2295SOL    HW1 7784   0.627   1.723   2.752
 2295SOL    HW2 7785   0.692   1.855   2.822
 2296SOL     OW 7786   3.850   5.953   2.679
 2296SOL    HW1 7787   3.769   5.931   2.625
 2296SOL    HW2 7788   3.923   5.984   2.618
 2297SOL     OW 7789   5.024   4.211   5.646
 2297SOL    HW1 7790   5.040   4.309   5.635
 2297SOL    HW2 7791   5.091   4.160   5.593
 2298SOL     OW 7792   4.064   3.791   2.210
 2298SOL    HW1 7793   4.096   3.877   2.249
 2298SOL    HW2 7794   4.093   3.715   2.268
 2299SOL     OW 7795   4.779   4.503   5.070
 2299SOL    HW1 7796   4.796   4.438   5.144
 2299SOL    HW2 7797   4.843   4.580   5.078
 2300SOL     OW 7798   2.170   5.981   3.152
 2300SOL    HW1 7799   2.175   6.076   3.185
 2300SOL    HW2 7800   2.081   5.965   3.111
 2301SOL     OW 7801   3.188   2.984   3.399
 2301SOL    HW1 7802   3.119   2.946   3.460
 2301SOL    HW2 7803   3.148   3.054   3.341
 2302SOL     OW 7804   4.033   0.369   1.105
 2302SOL    HW1 7805   4.059   0.459   1.140
 2302SOL    HW2 7806   3.988   0.316   1.177
 2303SOL     OW 7807   2.598   3.611   0.129
 2303SOL    HW1 7808   2.501   3.602   0.149
 2303SOL    HW2 7809   2.619   3.705   0.103
 2304SOL     OW 7810   5.347   6.690   4.454
 2304SOL    HW1 7811   5.395   6.617   4.503
 2304SOL    HW2 7812   5.295   6.745   4.519
 2305SOL     OW 7813   2.215   0.606   2.880
 2305SOL    HW1 7814   2.223   0.658   2.795
 2305SOL    HW2 7815   2.262   0.518   2.870
 2306SOL     OW 7816   2.267   5.286   2.613
 2306SOL    HW1 7817   2.330   5.262   2.687
 2306SOL    HW2 7818   2.241   5.382   2.621
 2307SOL     OW 7819   6.962   2.698   4.546
 2307SOL    HW1 7820   6.992   2.727   4.637
 2307SOL    HW2 7821   6.966   2.599   4.540
 2308SOL     OW 7822   2.429   4.756   1.476
 2308SOL    HW1 7823   2.511   4.699   1.484
 2308SOL    HW2 7824   2.415   4.806   1.561
 2309SOL     OW 7825   1.811   0.420   5.330
 2309SOL    HW1 7826   1.774   0.451   5.242
 2309SOL    HW2 7827   1.746   0.358   5.373
 2310SOL     OW 7828   5.533   5.622   1.610
 2310SOL    HW1 7829   5.573   5.571   1.534
 2310SOL    HW2 7830   5.586   5.704   1.627
 2311SOL     OW 7831   2.268   6.915   0.925
 2311SOL    HW1 7832   2.203   6.976   0.970
 2311SOL    HW2 7833   2.333   6.879   0.993
 2312SOL     OW 7834   4.995   5.910   3.140
 2312SOL    HW1 7835   4.924   5.967   3.181
 2312SOL    HW2 7836   5.005   5.933   3.043
 2313SOL     OW 7837   5.051   5.906   2.065
 2313SOL    HW1 7838   5.057   5.964   1.984
 2313SOL    HW2 7839   5.057   5.810   2.037
 2314SOL     OW 7840   5.294   5.802   3.610
 2314SOL    HW1 7841   5.226   5.743   3.655
 2314SOL    HW2 7842   5.311   5.769   3.518
 2315SOL     OW 7843   5.070   2.603   6.558
 2315SOL    HW1 7844   5.090   2.574   6.465
 2315SOL    HW2 7845   4.973   2.590   6.577
 2316SOL     OW 7846   4.110   1.883   3.671
 2316SOL    HW1 7847   4.129   1.971   3.626
 2316SOL    HW2 7848   4.085   1.815   3.602
 2317SOL     OW 7849   0.423   5.851   3.018
 2317SOL    HW1 7850   0.466   5.941   3.016
 2317SOL    HW2 7851   0.333   5.857   3.060
 2318SOL     OW 7852   0.871   2.854   3.652
 2318SOL    HW1 7853   0.959   2.878   3.613
 2318SOL    HW2 7854   0.880   2.771   3.707
 2319SOL     OW 7855   2.071   5.187   3.325
 2319SOL    HW1 7856   1.996   5.241   3.288
 2319SOL    HW2 7857   2.064   5.186   3.425
 2320SOL     OW 7858   0.838   2.280   3.976
 2320SOL    HW1 7859   0.801   2.356   3.922
 2320SOL    HW2 7860   0.802   2.285   4.070
 2321SOL     OW 7861   2.947   0.367   5.769
 2321SOL    HW1 7862   2.902   0.375   5.858
 2321SOL    HW2 7863   3.040   0.332   5.782
 2322SOL     OW 7864   2.469   1.844   4.895
 2322SOL    HW1 7865   2.418   1.784   4.957
 2322SOL    HW2 7866   2.534   1.898   4.947
 2323SOL     OW 7867   2.711   4.917   2.061
 2323SOL    HW1 7868   2.806   4.928   2.031
 2323SOL    HW2 7869   2.708   4.859   2.142
 2324SOL     OW 7870   6.555   6.352   2.317
 2324SOL    HW1 7871   6.627   6.421   2.312
 2324SOL    HW2 7872   6.495   6.372   2.394
 2325SOL     OW 7873   0.738   4.865   1.510
 2325SOL    HW1 7874   0.759   4.936   1.442
 2325SOL    HW2 7875   0.779   4.779   1.481
 2326SOL     OW 7876   3.407   4.778   5.175
 2326SOL    HW1 7877   3.357   4.855   5.216
 2326SOL    HW2 7878   3.348   4.730   5.111
 2327SOL     OW 7879   6.147   3.632   4.705
 2327SOL    HW1 7880   6.138   3.704   4.773
 2327SOL    HW2 7881   6.073   3.641   4.638
 2328SOL     OW 7882   3.709   2.051   3.217
 2328SOL    HW1 7883   3.784   2.053   3.152
 2328SOL    HW2 7884   3.706   2.137   3.268
 2329SOL     OW 7885   1.331   4.558   5.197
 2329SOL    HW1 7886   1.392   4.479   5.203
 2329SOL    HW2 7887   1.383   4.642   5.207
 2330SOL     OW 7888   0.567   4.328   2.211
 2330SOL    HW1 7889   0.570   4.241   2.162
 2330SOL    HW2 7890   0.629   4.324   2.289
 2331SOL     OW 7891   6.409   3.834   0.234
 2331SOL    HW1 7892   6.426   3.761   0.301
 2331SOL    HW2 7893   6.489   3.846   0.176
 2332SOL     OW 7894   4.350   1.924   5.920
 2332SOL    HW1 7895   4.348   1.869   6.004
 2332SOL    HW2 7896   4.345   2.021   5.944
 2333SOL     OW 7897   7.011   5.406   3.057
 2333SOL    HW1 7898   6.926   5.454   3.079
 2333SOL    HW2 7899   0.053   5.467   3.005
 2334SOL     OW 7900   2.544   0.263   6.813
 2334SOL    HW1 7901   2.620   0.219   6.860
 2334SOL    HW2 7902   2.491   0.195   6.763
 2335SOL     OW 7903   5.863   1.205   2.986
 2335SOL    HW1 7904   5.863   1.305   2.986
 2335SOL    HW2 7905   5.917   1.171   2.909
 2336SOL     OW 7906   4.136   1.898   5.407
 2336SOL    HW1 7907   4.124   1.807   5.367
 2336SOL    HW2 7908   4.102   1.898   5.501
 2337SOL     OW 7909   4.290   1.342   3.483
 2337SOL    HW1 7910   4.221   1.332   3.410
 2337SOL    HW2 7911   4.258   1.409   3.550
 2338SOL     OW 7912   0.744   0.839   0.044
 2338SOL    HW1 7913   0.685   0.906   0.091
 2338SOL    HW2 7914   0.793   0.884   6.988
 2339SOL     OW 7915   3.925   3.479   5.047
 2339SOL    HW1 7916   3.854   3.520   4.990
 2339SOL    HW2 7917   3.992   3.433   4.988
 2340SOL     OW 7918   5.392   6.062   6.051
 2340SOL    HW1 7919   5.316   6.127   6.055
 2340SOL    HW2 7920   5.473   6.102   6.093
 2341SOL     OW 7921   5.030   3.788   1.178
 2341SOL    HW1 7922   5.022   3.886   1.199
 2341SOL    HW2 7923   5.024   3.776   1.079
 2342SOL     OW 7924   0.524   5.517   5.709
 2342SOL    HW1 7925   0.623   5.513   5.696
 2342SOL    HW2 7926   0.504   5.546   5.802
 2343SOL     OW 7927   2.119   6.448   1.822
 2343SOL    HW1 7928   2.186   6.484   1.888
 2343SOL    HW2 7929   2.122   6.503   1.739
 2344SOL     OW 7930   1.388   1.142   1.235
 2344SOL    HW1 7931   1.470   1.169   1.185
 2344SOL    HW2 7932   1.412   1.078   1.307
 2345SOL     OW 7933   2.303   5.441   5.459
 2345SOL    HW1 7934   2.219   5.430   5.513
 2345SOL    HW2 7935   2.327   5.538   5.455
 2346SOL     OW 7936   5.246   3.217   4.745
 2346SOL    HW1 7937   5.287   3.264   4.823
 2346SOL    HW2 7938   5.210   3.129   4.775
 2347SOL     OW 7939   2.063   4.080   1.542
 2347SOL    HW1 7940   2.146   4.064   1.595
 2347SOL    HW2 7941   1.997   4.007   1.561
 2348SOL     OW 7942   3.449   5.821   3.581
 2348SOL    HW1 7943   3.366   5.800   3.632
 2348SOL    HW2 7944   3.515   5.747   3.593
 2349SOL     OW 7945   0.540   5.437   6.662
 2349SOL    HW1 7946   0.589   5.379   6.597
 2349SOL    HW2 7947   0.569   5.413   6.755
 2350SOL     OW 7948   5.066   6.960   6.337
 2350SOL    HW1 7949   5.112   6.951   6.248
 2350SOL    HW2 7950   5.113   6.903   6.404
 2351SOL     OW 7951   3.642   4.936   2.893
 2351SOL    HW1 7952   3.603   4.920   2.802
 2351SOL    HW2 7953   3.579   4.990   2.948
 2352SOL     OW 7954   0.741   3.840   2.540
 2352SOL    HW1 7955   0.826   3.788   2.533
 2352SOL    HW2 7956   0.695   3.842   2.451
 2353SOL     OW 7957   2.856   4.915   4.366
 2353SOL    HW1 7958   2.895   4.889   4.454
 2353SOL    HW2 7959   2.850   5.015   4.359
 2354SOL     OW 7960   3.268   2.366   6.673
 2354SOL    HW1 7961   3.362   2.378   6.706
 2354SOL    HW2 7962   3.222   2.455   6.673
 2355SOL     OW 7963   1.208   5.024   6.751
 2355SOL    HW1 7964   1.231   5.115   6.718
 2355SOL    HW2 7965   1.114   5.024   6.787
 2356SOL     OW 7966   2.787   4.161   0.396
 2356SOL    HW1 7967   2.692   4.180   0.372
 2356SOL    HW2 7968   2.790   4.107   0.480
 2357SOL     OW 7969   3.934   5.228   3.919
 2357SOL    HW1 7970   3.839   5.213   3.893
 2357SOL    HW2 7971   3.991   5.158   3.877
 2358SOL     OW 7972   2.681   5.199   4.614
 2358SOL    HW1 7973   2.693   5.298   4.606
 2358SOL    HW2 7974   2.602   5.170   4.560
 2359SOL     OW 7975   0.925   1.494   5.945
 2359SOL    HW1 7976   1.019   1.508   5.977
 2359SOL    HW2 7977   0.897   1.573   5.890
 2360SOL     OW 7978   4.788   6.032   5.311
 2360SOL    HW1 7979   4.733   5.961   5.267
 2360SOL    HW2 7980   4.876   6.039   5.265
 2361SOL     OW 7981   2.490   0.177   4.509
 2361SOL    HW1 7982   2.465   0.083   4.530
 2361SOL    HW2 7983   2.451   0.238   4.578
 2362SOL     OW 7984   4.131   6.843   5.226
 2362SOL    HW1 7985   4.104   6.843   5.130
 2362SOL    HW2 7986   4.097   6.760   5.270
 2363SOL     OW 7987   4.752   2.392   4.897
 2363SOL    HW1 7988   4.719   2.382   4.803
 2363SOL    HW2 7989   4.686   2.446   4.950
 2364SOL     OW 7990   6.936   2.040   2.976
 2364SOL    HW1 7991   6.943   2.061   3.074
 2364SOL    HW2 7992   6.984   1.955   2.957
 2365SOL     OW 7993   5.888   3.400   5.964
 2365SOL    HW1 7994   5.838   3.433   5.884
 2365SOL    HW2 7995   5.954   3.331   5.936
 2366SOL     OW 7996   1.419   3.541   5.734
 2366SOL    HW1 7997   1.458   3.569   5.822
 2366SOL    HW2 7998   1.480   3.570   5.660
 2367SOL     OW 7999   2.204   3.797   6.567
 2367SOL    HW1 8000   2.270   3.750   6.509
 2367SOL    HW2 8001   2.167   3.876   6.518
 2368SOL     OW 8002   5.243   1.298   4.435
 2368SOL    HW1 8003   5.335   1.269   4.407
 2368SOL    HW2 8004   5.185   1.307   4.353
 2369SOL     OW 8005   2.243   3.023   4.370
 2369SOL    HW1 8006   2.168   2.985   4.315
 2369SOL    HW2 8007   2.330   2.997   4.329
 2370SOL     OW 8008   4.409   4.297   6.739
 2370SOL    HW1 8009   4.390   4.354   6.819
 2370SOL    HW2 8010   4.508   4.296   6.722
 2371SOL     OW 8011   1.615   5.724   2.301
 2371SOL    HW1 8012   1.615   5.819   2.270
 2371SOL    HW2 8013   1.526   5.701   2.341
 2372SOL     OW 8014   0.817   1.874   0.420
 2372SOL    HW1 8015   0.760   1.935   0.366
 2372SOL    HW2 8016   0.764   1.838   0.497
 2373SOL     OW 8017   5.908   0.913   6.765
 2373SOL    HW1 8018   5.810   0.904   6.752
 2373SOL    HW2 8019   5.955   0.839   6.717
 2374SOL     OW 8020   6.317   6.135   3.507
 2374SOL    HW1 8021   6.292   6.168   3.416
 2374SOL    HW2 8022   6.359   6.209   3.559
 2375SOL     OW 8023   0.975   6.498   3.886
 2375SOL    HW1 8024   0.962   6.562   3.962
 2375SOL    HW2 8025   1.070   6.501   3.855
 2376SOL     OW 8026   6.309   2.716   4.123
 2376SOL    HW1 8027   6.394   2.708   4.175
 2376SOL    HW2 8028   6.231   2.697   4.183
 2377SOL     OW 8029   3.166   3.593   3.832
 2377SOL    HW1 8030   3.090   3.632   3.779
 2377SOL    HW2 8031   3.158   3.622   3.927
 2378SOL     OW 8032   5.152   2.269   6.722
 2378SOL    HW1 8033   5.057   2.258   6.750
 2378SOL    HW2 8034   5.203   2.186   6.746
 2379SOL     OW 8035   6.660   2.870   6.992
 2379SOL    HW1 8036   6.608   2.950   6.962
 2379SOL    HW2 8037   6.600   2.808   0.025
 2380SOL     OW 8038   6.447   0.396   5.842
 2380SOL    HW1 8039   6.493   0.407   5.754
 2380SOL    HW2 8040   6.369   0.334   5.831
 2381SOL     OW 8041   1.955   4.019   4.154
 2381SOL    HW1 8042   1.965   4.005   4.253
 2381SOL    HW2 8043   2.041   4.053   4.117
 2382SOL     OW 8044   2.399   5.202   2.828
 2382SOL    HW1 8045   2.416   5.290   2.873
 2382SOL    HW2 8046   2.337   5.147   2.883
 2383SOL     OW 8047   5.715   6.584   6.793
 2383SOL    HW1 8048   5.683   6.509   6.851
 2383SOL    HW2 8049   5.787   6.551   6.732
 2384SOL     OW 8050   1.816   1.175   1.659
 2384SOL    HW1 8051   1.810   1.080   1.630
 2384SOL    HW2 8052   1.833   1.179   1.757
 2385SOL     OW 8053   6.471   0.225   1.161
 2385SOL    HW1 8054   6.463   0.153   1.230
 2385SOL    HW2 8055   6.418   0.304   1.190
 2386SOL     OW 8056   3.958   4.847   3.952
 2386SOL    HW1 8057   4.049   4.843   3.995
 2386SOL    HW2 8058   3.888   4.840   4.022
 2387SOL     OW 8059   6.708   2.198   4.712
 2387SOL    HW1 8060   6.684   2.234   4.622
 2387SOL    HW2 8061   6.806   2.208   4.727
 2388SOL     OW 8062   1.344   2.040   4.938
 2388SOL    HW1 8063   1.254   2.003   4.957
 2388SOL    HW2 8064   1.342   2.140   4.949
 2389SOL     OW 8065   4.769   4.219   3.675
 2389SOL    HW1 8066   4.748   4.177   3.763
 2389SOL    HW2 8067   4.688   4.267   3.641
 2390SOL     OW 8068   3.739   4.232   4.944
 2390SOL    HW1 8069   3.794   4.186   5.015
 2390SOL    HW2 8070   3.786   4.315   4.915
 2391SOL     OW 8071   3.302   4.531   5.475
 2391SOL    HW1 8072   3.328   4.583   5.557
 2391SOL    HW2 8073   3.373   4.463   5.455
 2392SOL     OW 8074   3.283   5.502   5.423
 2392SOL    HW1 8075   3.248   5.408   5.423
 2392SOL    HW2 8076   3.228   5.558   5.486
 2393SOL     OW 8077   3.885   5.342   1.270
 2393SOL    HW1 8078   3.907   5.257   1.318
 2393SOL    HW2 8079   3.786   5.351   1.263
 2394SOL     OW 8080   1.157   3.787   5.016
 2394SOL    HW1 8081   1.134   3.712   4.954
 2394SOL    HW2 8082   1.195   3.749   5.101
 2395SOL     OW 8083   6.849   2.279   6.634
 2395SOL    HW1 8084   6.826   2.194   6.681
 2395SOL    HW2 8085   6.828   2.356   6.693
 2396SOL     OW 8086   5.733   6.147   0.966
 2396SOL    HW1 8087   5.789   6.229   0.954
 2396SOL    HW2 8088   5.742   6.115   1.061
 2397SOL     OW 8089   6.629   4.662   0.359
 2397SOL    HW1 8090   6.673   4.622   0.439
 2397SOL    HW2 8091   6.588   4.589   0.303
 2398SOL     OW 8092   2.197   4.816   5.663
 2398SOL    HW1 8093   2.203   4.910   5.697
 2398SOL    HW2 8094   2.288   4.784   5.637
 2399SOL     OW 8095   4.250   2.018   2.291
 2399SOL    HW1 8096   4.339   2.002   2.248
 2399SOL    HW2 8097   4.179   1.968   2.240
 2400SOL     OW 8098   3.549   4.157   0.487
 2400SOL    HW1 8099   3.553   4.145   0.388
 2400SOL    HW2 8100   3.474   4.102   0.524
 2401SOL     OW 8101   3.543   0.494   5.600
 2401SOL    HW1 8102   3.511   0.589   5.597
 2401SOL    HW2 8103   3.573   0.472   5.693
 2402SOL     OW 8104   6.769   1.979   4.509
 2402SOL    HW1 8105   6.764   2.041   4.431
 2402SOL    HW2 8106   6.811   2.026   4.587
 2403SOL     OW 8107   2.954   3.038   0.305
 2403SOL    HW1 8108   2.893   2.995   0.239
 2403SOL    HW2 8109   2.977   2.973   0.377
 2404SOL     OW 8110   5.655   1.842   2.169
 2404SOL    HW1 8111   5.622   1.836   2.075
 2404SOL    HW2 8112   5.717   1.767   2.188
 2405SOL     OW 8113   3.974   3.370   5.474
 2405SOL    HW1 8114   4.026   3.347   5.392
 2405SOL    HW2 8115   4.036   3.394   5.548
 2406SOL     OW 8116   2.151   0.621   3.150
 2406SOL    HW1 8117   2.077   0.686   3.166
 2406SOL    HW2 8118   2.179   0.625   3.054
 2407SOL     OW 8119   4.462   2.173   3.162
 2407SOL    HW1 8120   4.463   2.075   3.144
 2407SOL    HW2 8121   4.538   2.196   3.222
 2408SOL     OW 8122   3.565   5.633   2.653
 2408SOL    HW1 8123   3.560   5.545   2.606
 2408SOL    HW2 8124   3.652   5.640   2.701
 2409SOL     OW 8125   2.474   2.525   2.069
 2409SOL    HW1 8126   2.518   2.614   2.056
 2409SOL    HW2 8127   2.376   2.534   2.052
 2410SOL     OW 8128   6.458   2.813   5.987
 2410SOL    HW1 8129   6.526   2.886   5.986
 2410SOL    HW2 8130   6.399   2.820   5.906
 2411SOL     OW 8131   3.589   4.369   5.394
 2411SOL    HW1 8132   3.572   4.465   5.372
 2411SOL    HW2 8133   3.687   4.350   5.386
 2412SOL     OW 8134   2.678   3.973   0.051
 2412SOL    HW1 8135   2.590   3.926   0.042
 2412SOL    HW2 8136   2.726   3.938   0.131
 2413SOL     OW 8137   6.164   3.364   6.765
 2413SOL    HW1 8138   6.098   3.294   6.794
 2413SOL    HW2 8139   6.207   3.337   6.679
 2414SOL     OW 8140   6.016   3.927   2.877
 2414SOL    HW1 8141   6.091   3.990   2.896
 2414SOL    HW2 8142   6.032   3.841   2.925
 2415SOL     OW 8143   1.635   0.386   1.265
 2415SOL    HW1 8144   1.612   0.289   1.262
 2415SOL    HW2 8145   1.569   0.438   1.212
 2416SOL     OW 8146   2.714   1.106   4.859
 2416SOL    HW1 8147   2.806   1.099   4.821
 2416SOL    HW2 8148   2.650   1.057   4.801
 2417SOL     OW 8149   4.767   2.465   0.151
 2417SOL    HW1 8150   4.767   2.440   0.248
 2417SOL    HW2 8151   4.690   2.421   0.105
 2418SOL     OW 8152   3.771   3.602   4.864
 2418SOL    HW1 8153   3.673   3.617   4.858
 2418SOL    HW2 8154   3.799   3.535   4.794
 2419SOL     OW 8155   0.296   6.674   4.747
 2419SOL    HW1 8156   0.275   6.578   4.766
 2419SOL    HW2 8157   0.394   6.690   4.759
 2420SOL     OW 8158   4.207   0.124   2.833
 2420SOL    HW1 8159   4.171   0.057   2.898
 2420SOL    HW2 8160   4.263   0.077   2.765
 2421SOL     OW 8161   2.647   1.090   4.495
 2421SOL    HW1 8162   2.661   1.188   4.511
 2421SOL    HW2 8163   2.695   1.064   4.411
 2422SOL     OW 8164   5.331   0.338   1.024
 2422SOL    HW1 8165   5.352   0.246   0.991
 2422SOL    HW2 8166   5.335   0.339   1.124
 2423SOL     OW 8167   1.080   5.958   2.822
 2423SOL    HW1 8168   0.980   5.955   2.814
 2423SOL    HW2 8169   1.111   6.053   2.822
 2424SOL     OW 8170   5.502   5.560   5.821
 2424SOL    HW1 8171   5.457   5.649   5.828
 2424SOL    HW2 8172   5.581   5.558   5.882
 2425SOL     OW 8173   6.199   6.723   4.576
 2425SOL    HW1 8174   6.289   6.728   4.618
 2425SOL    HW2 8175   6.207   6.687   4.483
 2426SOL     OW 8176   1.247   4.653   4.356
 2426SOL    HW1 8177   1.239   4.590   4.279
 2426SOL    HW2 8178   1.160   4.699   4.370
 2427SOL     OW 8179   5.932   5.371   6.692
 2427SOL    HW1 8180   5.989   5.301   6.650
 2427SOL    HW2 8181   5.836   5.345   6.684
 2428SOL     OW 8182   1.338   0.179   3.684
 2428SOL    HW1 8183   1.292   0.131   3.609
 2428SOL    HW2 8184   1.294   0.156   3.771
 2429SOL     OW 8185   6.520   5.080   3.193
 2429SOL    HW1 8186   6.586   5.036   3.254
 2429SOL    HW2 8187   6.451   5.013   3.165
 2430SOL     OW 8188   5.599   2.710   0.664
 2430SOL    HW1 8189   5.640   2.692   0.575
 2430SOL    HW2 8190   5.668   2.700   0.736
 2431SOL     OW 8191   4.234   0.720   2.109
 2431SOL    HW1 8192   4.312   0.662   2.090
 2431SOL    HW2 8193   4.185   0.740   2.024
 2432SOL     OW 8194   4.588   6.186   3.027
 2432SOL    HW1 8195   4.581   6.136   3.113
 2432SOL    HW2 8196   4.564   6.281   3.041
 2433SOL     OW 8197   2.853   6.751   0.092
 2433SOL    HW1 8198   2.951   6.761   0.109
 2433SOL    HW2 8199   2.803   6.777   0.174
 2434SOL     OW 8200   4.886   1.396   3.496
 2434SOL    HW1 8201   4.960   1.443   3.448
 2434SOL    HW2 8202   4.831   1.345   3.430
 2435SOL     OW 8203   4.437   5.573   0.244
 2435SOL    HW1 8204   4.428   5.664   0.202
 2435SOL    HW2 8205   4.358   5.557   0.303
 2436SOL     OW 8206   2.178   6.889   0.666
 2436SOL    HW1 8207   2.133   6.973   0.635
 2436SOL    HW2 8208   2.225   6.907   0.752
 2437SOL     OW 8209   5.244   5.811   1.235
 2437SOL    HW1 8210   5.268   5.764   1.150
 2437SOL    HW2 8211   5.226   5.743   1.306
 2438SOL     OW 8212   3.791   0.778   5.159
 2438SOL    HW1 8213   3.813   0.758   5.254
 2438SOL    HW2 8214   3.849   0.853   5.127
 2439SOL     OW 8215   1.188   4.036   6.953
 2439SOL    HW1 8216   1.191   3.965   6.882
 2439SOL    HW2 8217   1.281   4.065   6.975
 2440SOL     OW 8218   3.899   6.419   5.333
 2440SOL    HW1 8219   3.799   6.410   5.337
 2440SOL    HW2 8220   3.941   6.336   5.372
 2441SOL     OW 8221   6.373   1.231   0.264
 2441SOL    HW1 8222   6.445   1.235   0.334
 2441SOL    HW2 8223   6.405   1.177   0.186
 2442SOL     OW 8224   5.676   5.739   3.370
 2442SOL    HW1 8225   5.688   5.828   3.414
 2442SOL    HW2 8226   5.714   5.667   3.428
 2443SOL     OW 8227   3.294   0.333   6.273
 2443SOL    HW1 8228   3.276   0.417   6.325
 2443SOL    HW2 8229   3.235   0.330   6.193
 2444SOL     OW 8230   4.075   4.475   6.354
 2444SOL    HW1 8231   4.016   4.426   6.418
 2444SOL    HW2 8232   4.154   4.418   6.331
 2445SOL     OW 8233   6.707   0.819   1.902
 2445SOL    HW1 8234   6.711   0.880   1.981
 2445SOL    HW2 8235   6.762   0.856   1.827
 2446SOL     OW 8236   0.322   3.096   4.057
 2446SOL    HW1 8237   0.247   3.069   4.117
 2446SOL    HW2 8238   0.291   3.167   3.994
 2447SOL     OW 8239   2.896   0.779   1.062
 2447SOL    HW1 8240   2.829   0.852   1.072
 2447SOL    HW2 8241   2.945   0.789   0.976
 2448SOL     OW 8242   6.489   1.100   4.433
 2448SOL    HW1 8243   6.483   1.044   4.516
 2448SOL    HW2 8244   6.508   1.040   4.354
 2449SOL     OW 8245   6.945   4.060   3.172
 2449SOL    HW1 8246   6.922   4.009   3.254
 2449SOL    HW2 8247   6.925   4.157   3.187
 2450SOL     OW 8248   3.513   5.579   5.292
 2450SOL    HW1 8249   3.447   5.542   5.357
 2450SOL    HW2 8250   3.475   5.573   5.200
 2451SOL     OW 8251   0.940   0.687   3.615
 2451SOL    HW1 8252   0.976   0.620   3.550
 2451SOL    HW2 8253   0.941   0.649   3.707
 2452SOL     OW 8254   2.753   1.848   3.429
 2452SOL    HW1 8255   2.666   1.892   3.451
 2452SOL    HW2 8256   2.739   1.749   3.420
 2453SOL     OW 8257   6.615   4.023   0.780
 2453SOL    HW1 8258   6.714   4.010   0.783
 2453SOL    HW2 8259   6.577   4.006   0.871
 2454SOL     OW 8260   3.968   0.863   0.072
 2454SOL    HW1 8261   3.899   0.860   0.144
 2454SOL    HW2 8262   4.025   0.944   0.082
 2455SOL     OW 8263   4.417   0.303   0.648
 2455SOL    HW1 8264   4.435   0.400   0.634
 2455SOL    HW2 8265   4.463   0.272   0.732
 2456SOL     OW 8266   6.164   1.938   0.655
 2456SOL    HW1 8267   6.095   1.877   0.615
 2456SOL    HW2 8268   6.176   1.915   0.752
 2457SOL     OW 8269   0.006   0.138   6.335
 2457SOL    HW1 8270   6.936   0.181   6.355
 2457SOL    HW2 8271   7.015   0.083   6.252
 2458SOL     OW 8272   2.042   5.828   3.984
 2458SOL    HW1 8273   2.076   5.800   4.074
 2458SOL    HW2 8274   1.943   5.843   3.988
 2459SOL     OW 8275   2.388   5.982   5.933
 2459SOL    HW1 8276   2.357   6.016   5.843
 2459SOL    HW2 8277   2.409   6.060   5.992
 2460SOL     OW 8278   2.090   1.296   1.328
 2460SOL    HW1 8279   2.189   1.293   1.345
 2460SOL    HW2 8280   2.060   1.209   1.290
 2461SOL     OW 8281   4.678   1.322   3.105
 2461SOL    HW1 8282   4.730   1.275   3.177
 2461SOL    HW2 8283   4.580   1.312   3.123
 2462SOL     OW 8284   1.954   5.524   0.295
 2462SOL    HW1 8285   1.932   5.549   0.389
 2462SOL    HW2 8286   1.887   5.564   0.233
 2463SOL     OW 8287   6.502   2.227   5.815
 2463SOL    HW1 8288   6.489   2.269   5.905
 2463SOL    HW2 8289   6.529   2.297   5.749
 2464SOL     OW 8290   2.000   3.937   2.225
 2464SOL    HW1 8291   2.043   3.876   2.158
 2464SOL    HW2 8292   1.916   3.975   2.186
 2465SOL     OW 8293   0.745   0.285   1.193
 2465SOL    HW1 8294   0.772   0.352   1.124
 2465SOL    HW2 8295   0.776   0.315   1.283
 2466SOL     OW 8296   2.089   1.850   2.709
 2466SOL    HW1 8297   2.072   1.776   2.773
 2466SOL    HW2 8298   2.003   1.900   2.694
 2467SOL     OW 8299   5.239   1.202   5.338
 2467SOL    HW1 8300   5.155   1.238   5.298
 2467SOL    HW2 8301   5.316   1.259   5.312
 2468SOL     OW 8302   4.523   6.472   1.970
 2468SOL    HW1 8303   4.546   6.377   1.987
 2468SOL    HW2 8304   4.562   6.529   2.043
 2469SOL     OW 8305   3.923   4.272   5.773
 2469SOL    HW1 8306   3.991   4.333   5.734
 2469SOL    HW2 8307   3.910   4.193   5.713
 2470SOL     OW 8308   3.701   4.738   6.064
 2470SOL    HW1 8309   3.757   4.730   5.981
 2470SOL    HW2 8310   3.742   4.683   6.137
 2471SOL     OW 8311   2.868   6.096   0.569
 2471SOL    HW1 8312   2.946   6.142   0.611
 2471SOL    HW2 8313   2.899   6.037   0.495
 2472SOL     OW 8314   5.024   2.331   4.547
 2472SOL    HW1 8315   5.084   2.378   4.483
 2472SOL    HW2 8316   4.932   2.368   4.540
 2473SOL     OW 8317   2.173   3.962   4.782
 2473SOL    HW1 8318   2.093   4.020   4.798
 2473SOL    HW2 8319   2.241   3.977   4.854
 2474SOL     OW 8320   0.980   6.193   0.770
 2474SOL    HW1 8321   1.073   6.226   0.753
 2474SOL    HW2 8322   0.972   6.098   0.741
 2475SOL     OW 8323   4.602   1.384   2.292
 2475SOL    HW1 8324   4.571   1.449   2.223
 2475SOL    HW2 8325   4.603   1.292   2.253
 2476SOL     OW 8326   6.902   1.695   3.333
 2476SOL    HW1 8327   6.844   1.717   3.255
 2476SOL    HW2 8328   6.857   1.724   3.417
 2477SOL     OW 8329   4.832   1.232   2.019
 2477SOL    HW1 8330   4.909   1.296   2.025
 2477SOL    HW2 8331   4.814   1.193   2.109
 2478SOL     OW 8332   6.329   1.385   2.608
 2478SOL    HW1 8333   6.332   1.484   2.592
 2478SOL    HW2 8334   6.242   1.349   2.574
 2479SOL     OW 8335   1.249   3.777   1.500
 2479SOL    HW1 8336   1.299   3.699   1.535
 2479SOL    HW2 8337   1.151   3.762   1.512
 2480SOL     OW 8338   5.682   4.443   0.496
 2480SOL    HW1 8339   5.711   4.361   0.448
 2480SOL    HW2 8340   5.643   4.418   0.585
 2481SOL     OW 8341   2.186   0.855   6.858
 2481SOL    HW1 8342   2.143   0.780   6.807
 2481SOL    HW2 8343   2.175   0.940   6.808
 2482SOL     OW 8344   4.890   3.496   5.737
 2482SOL    HW1 8345   4.952   3.441   5.680
 2482SOL    HW2 8346   4.944   3.552   5.800
 2483SOL     OW 8347   1.830   2.193   6.815
 2483SOL    HW1 8348   1.745   2.230   6.777
 2483SOL    HW2 8349   1.847   2.235   6.904
 2484SOL     OW 8350   3.346   0.706   0.360
 2484SOL    HW1 8351   3.346   0.796   0.403
 2484SOL    HW2 8352   3.365   0.636   0.430
 2485SOL     OW 8353   5.743   3.977   1.280
 2485SOL    HW1 8354   5.703   3.938   1.197
 2485SOL    HW2 8355   5.739   3.909   1.354
 2486SOL     OW 8356   1.913   4.908   4.629
 2486SOL    HW1 8357   1.944   4.868   4.543
 2486SOL    HW2 8358   1.826   4.867   4.656
 2487SOL     OW 8359   3.574   6.130   6.943
 2487SOL    HW1 8360   3.533   6.146   0.014
 2487SOL    HW2 8361   3.503   6.120   6.874
 2488SOL     OW 8362   2.046   4.363   2.139
 2488SOL    HW1 8363   2.025   4.385   2.234
 2488SOL    HW2 8364   1.978   4.298   2.104
 2489SOL     OW 8365   1.343   5.482   2.918
 2489SOL    HW1 8366   1.269   5.418   2.899
 2489SOL    HW2 8367   1.431   5.434   2.912
 2490SOL     OW 8368   6.633   4.866   1.449
 2490SOL    HW1 8369   6.728   4.872   1.479
 2490SOL    HW2 8370   6.596   4.776   1.470
 2491SOL     OW 8371   2.917   5.366   1.056
 2491SOL    HW1 8372   2.981   5.359   0.980
 2491SOL    HW2 8373   2.825   5.341   1.026
 2492SOL     OW 8374   4.477   2.521   0.308
 2492SOL    HW1 8375   4.458   2.580   0.386
 2492SOL    HW2 8376   4.545   2.452   0.334
 2493SOL     OW 8377   6.092   1.005   2.468
 2493SOL    HW1 8378   6.102   0.964   2.559
 2493SOL    HW2 8379   6.150   0.955   2.403
 2494SOL     OW 8380   6.048   4.149   1.855
 2494SOL    HW1 8381   6.034   4.194   1.943
 2494SOL    HW2 8382   6.068   4.052   1.869
 2495SOL     OW 8383   5.098   0.644   4.373
 2495SOL    HW1 8384   5.091   0.736   4.409
 2495SOL    HW2 8385   5.079   0.645   4.274
 2496SOL     OW 8386   0.482   4.264   5.645
 2496SOL    HW1 8387   0.534   4.290   5.564
 2496SOL    HW2 8388   0.393   4.228   5.616
 2497SOL     OW 8389   0.123   0.413   1.068
 2497SOL    HW1 8390   0.052   0.397   0.999
 2497SOL    HW2 8391   0.122   0.339   1.135
 2498SOL     OW 8392   3.294   1.793   4.181
 2498SOL    HW1 8393   3.198   1.818   4.194
 2498SOL    HW2 8394   3.337   1.777   4.269
 2499SOL     OW 8395   5.478   2.072   4.257
 2499SOL    HW1 8396   5.501   1.995   4.316
 2499SOL    HW2 8397   5.560   2.126   4.239
 2500SOL     OW 8398   4.116   2.959   6.765
 2500SOL    HW1 8399   4.190   2.965   6.831
 2500SOL    HW2 8400   4.106   2.864   6.734
 2501SOL     OW 8401   5.997   5.643   7.012
 2501SOL    HW1 8402   5.932   5.701   0.044
 2501SOL    HW2 8403   5.950   5.560   6.982
 2502SOL     OW 8404   2.295   5.802   2.932
 2502SOL    HW1 8405   2.386   5.838   2.912
 2502SOL    HW2 8406   2.264   5.835   3.021
 2503SOL     OW 8407   3.151   5.610   4.875
 2503SOL    HW1 8408   3.220   5.676   4.844
 2503SOL    HW2 8409   3.062   5.638   4.840
 2504SOL     OW 8410   2.852   5.036   4.745
 2504SOL    HW1 8411   2.943   5.075   4.749
 2504SOL    HW2 8412   2.793   5.094   4.689
 2505SOL     OW 8413   1.752   6.003   3.982
 2505SOL    HW1 8414   1.655   5.978   3.990
 2505SOL    HW2 8415   1.784   5.982   3.890
 2506SOL     OW 8416   5.941   2.910   6.523
 2506SOL    HW1 8417   5.951   3.009   6.533
 2506SOL    HW2 8418   5.867   2.877   6.582
 2507SOL     OW 8419   0.819   4.430   0.408
 2507SOL    HW1 8420   0.916   4.406   0.421
 2507SOL    HW2 8421   0.764   4.347   0.409
 2508SOL     OW 8422   2.697   1.325   1.890
 2508SOL    HW1 8423   2.781   1.280   1.919
 2508SOL    HW2 8424   2.694   1.329   1.790
 2509SOL     OW 8425   6.140   2.986   2.601
 2509SOL    HW1 8426   6.206   2.927   2.649
 2509SOL    HW2 8427   6.053   2.938   2.592
 2510SOL     OW 8428   3.201   4.243   1.444
 2510SOL    HW1 8429   3.130   4.174   1.451
 2510SOL    HW2 8430   3.221   4.260   1.347
 2511SOL     OW 8431   2.870   1.377   3.594
 2511SOL    HW1 8432   2.812   1.337   3.522
 2511SOL    HW2 8433   2.965   1.374   3.565
 2512SOL     OW 8434   4.766   4.766   4.485
 2512SOL    HW1 8435   4.708   4.805   4.556
 2512SOL    HW2 8436   4.770   4.829   4.407
 2513SOL     OW 8437   1.158   3.282   4.877
 2513SOL    HW1 8438   1.236   3.332   4.837
 2513SOL    HW2 8439   1.164   3.287   4.977
 2514SOL     OW 8440   6.519   3.649   4.489
 2514SOL    HW1 8441   6.617   3.633   4.504
 2514SOL    HW2 8442   6.468   3.566   4.507
 2515SOL     OW 8443   1.313   6.518   0.735
 2515SOL    HW1 8444   1.292   6.550   0.643
 2515SOL    HW2 8445   1.380   6.579   0.777
 2516SOL     OW 8446   5.842   0.567   3.477
 2516SOL    HW1 8447   5.786   0.488   3.451
 2516SOL    HW2 8448   5.792   0.623   3.544
 2517SOL     OW 8449   0.625   4.895   5.879
 2517SOL    HW1 8450   0.528   4.894   5.905
 2517SOL    HW2 8451   0.655   4.989   5.865
 2518SOL     OW 8452   1.986   3.508   0.126
 2518SOL    HW1 8453   1.990   3.501   0.026
 2518SOL    HW2 8454   1.958   3.600   0.152
 2519SOL     OW 8455   5.287   6.444   3.657
 2519SOL    HW1 8456   5.316   6.460   3.751
 2519SOL    HW2 8457   5.353   6.384   3.612
 2520SOL     OW 8458   1.265   2.813   0.092
 2520SOL    HW1 8459   1.316   2.751   0.153
 2520SOL    HW2 8460   1.182   2.844   0.139
 2521SOL     OW 8461   1.243   5.852   5.775
 2521SOL    HW1 8462   1.171   5.794   5.811
 2521SOL    HW2 8463   1.202   5.922   5.715
 2522SOL     OW 8464   0.097   3.438   5.863
 2522SOL    HW1 8465   0.141   3.523   5.834
 2522SOL    HW2 8466   0.017   3.459   5.919
 2523SOL     OW 8467   0.279   2.830   2.077
 2523SOL    HW1 8468   0.224   2.900   2.124
 2523SOL    HW2 8469   0.243   2.817   1.985
 2524SOL     OW 8470   0.960   5.355   5.722
 2524SOL    HW1 8471   0.998   5.328   5.633
 2524SOL    HW2 8472   0.905   5.438   5.710
 2525SOL     OW 8473   0.499   2.747   4.072
 2525SOL    HW1 8474   0.402   2.742   4.096
 2525SOL    HW2 8475   0.538   2.655   4.069
 2526SOL     OW 8476   2.015   4.438   5.594
 2526SOL    HW1 8477   2.040   4.381   5.516
 2526SOL    HW2 8478   1.969   4.520   5.561
 2527SOL     OW 8479   5.233   6.244   5.138
 2527SOL    HW1 8480   5.170   6.321   5.143
 2527SOL    HW2 8481   5.182   6.159   5.131
 2528SOL     OW 8482   5.729   4.415   0.969
 2528SOL    HW1 8483   5.730   4.357   1.050
 2528SOL    HW2 8484   5.673   4.372   0.898
 2529SOL     OW 8485   6.867   6.210   6.695
 2529SOL    HW1 8486   6.940   6.192   6.761
 2529SOL    HW2 8487   6.878   6.303   6.658
 2530SOL     OW 8488   1.478   6.852   4.868
 2530SOL    HW1 8489   1.517   6.791   4.799
 2530SOL    HW2 8490   1.451   6.799   4.949
 2531SOL     OW 8491   4.783   6.108   4.338
 2531SOL    HW1 8492   4.830   6.195   4.329
 2531SOL    HW2 8493   4.735   6.087   4.253
 2532SOL     OW 8494   1.053   5.799   0.841
 2532SOL    HW1 8495   1.024   5.864   0.770
 2532SOL    HW2 8496   1.029   5.834   0.931
 2533SOL     OW 8497   3.568   0.231   3.218
 2533SOL    HW1 8498   3.662   0.210   3.242
 2533SOL    HW2 8499   3.548   0.198   3.126
 2534SOL     OW 8500   2.779   0.833   2.851
 2534SOL    HW1 8501   2.808   0.813   2.945
 2534SOL    HW2 8502   2.857   0.827   2.790
 2535SOL     OW 8503   2.791   2.827   6.597
 2535SOL    HW1 8504   2.795   2.758   6.525
 2535SOL    HW2 8505   2.733   2.793   6.672
 2536SOL     OW 8506   6.334   2.088   3.942
 2536SOL    HW1 8507   6.387   2.171   3.923
 2536SOL    HW2 8508   6.373   2.011   3.890
 2537SOL     OW 8509   5.014   6.641   6.474
 2537SOL    HW1 8510   5.002   6.592   6.388
 2537SOL    HW2 8511   4.928   6.686   6.499
 2538SOL     OW 8512   1.363   4.224   4.642
 2538SOL    HW1 8513   1.351   4.287   4.718
 2538SOL    HW2 8514   1.279   4.219   4.589
 2539SOL     OW 8515   5.337   0.595   5.921
 2539SOL    HW1 8516   5.321   0.614   5.824
 2539SOL    HW2 8517   5.423   0.544   5.931
 2540SOL     OW 8518   4.222   0.917   2.772
 2540SOL    HW1 8519   4.136   0.867   2.785
 2540SOL    HW2 8520   4.279   0.869   2.706
 2541SOL     OW 8521   1.875   6.366   5.526
 2541SOL    HW1 8522   1.914   6.384   5.436
 2541SOL    HW2 8523   1.798   6.428   5.542
 2542SOL     OW 8524   5.096   1.436   6.190
 2542SOL    HW1 8525   5.030   1.368   6.158
 2542SOL    HW2 8526   5.054   1.491   6.263
 2543SOL     OW 8527   2.263   2.058   2.706
 2543SOL    HW1 8528   2.286   2.089   2.798
 2543SOL    HW2 8529   2.191   1.988   2.711
 2544SOL     OW 8530   0.186   5.101   1.192
 2544SOL    HW1 8531   0.162   5.046   1.272
 2544SOL    HW2 8532   0.175   5.047   1.109
 2545SOL     OW 8533   1.901   0.731   1.139
 2545SOL    HW1 8534   1.907   0.758   1.043
 2545SOL    HW2 8535   1.920   0.633   1.147
 2546SOL     OW 8536   6.921   2.630   1.787
 2546SOL    HW1 8537   6.825   2.658   1.793
 2546SOL    HW2 8538   6.927   2.530   1.791
 2547SOL     OW 8539   5.846   4.689   7.009
 2547SOL    HW1 8540   5.837   4.589   7.017
 2547SOL    HW2 8541   5.823   4.717   6.916
 2548SOL     OW 8542   2.961   6.816   5.649
 2548SOL    HW1 8543   2.932   6.723   5.674
 2548SOL    HW2 8544   2.936   6.834   5.554
 2549SOL     OW 8545   1.845   0.981   1.155
 2549SOL    HW1 8546   1.796   1.001   1.070
 2549SOL    HW2 8547   1.845   0.882   1.171
 2550SOL     OW 8548   0.189   0.505   6.422
 2550SOL    HW1 8549   0.239   0.541   6.500
 2550SOL    HW2 8550   0.123   0.574   6.390
 2551SOL     OW 8551   3.000   5.403   0.256
 2551SOL    HW1 8552   3.050   5.367   0.334
 2551SOL    HW2 8553   2.964   5.326   0.202
 2552SOL     OW 8554   0.984   5.366   6.205
 2552SOL    HW1 8555   1.013   5.370   6.109
 2552SOL    HW2 8556   0.985   5.458   6.243
 2553SOL     OW 8557   3.603   3.451   6.995
 2553SOL    HW1 8558   3.537   3.501   0.033
 2553SOL    HW2 8559   3.684   3.507   6.981
 2554SOL     OW 8560   1.249   6.096   6.654
 2554SOL    HW1 8561   1.177   6.070   6.589
 2554SOL    HW2 8562   1.324   6.031   6.647
 2555SOL     OW 8563   6.430   6.157   6.078
 2555SOL    HW1 8564   6.424   6.256   6.079
 2555SOL    HW2 8565   6.388   6.122   5.994
 2556SOL     OW 8566   4.010   5.776   0.352
 2556SOL    HW1 8567   3.965   5.781   0.442
 2556SOL    HW2 8568   3.980   5.692   0.306
 2557SOL     OW 8569   2.463   2.441   6.412
 2557SOL    HW1 8570   2.499   2.460   6.321
 2557SOL    HW2 8571   2.375   2.394   6.403
 2558SOL     OW 8572   4.075   3.517   5.838
 2558SOL    HW1 8573   4.162   3.483   5.802
 2558SOL    HW2 8574   4.009   3.526   5.763
 2559SOL     OW 8575   6.457   3.306   4.986
 2559SOL    HW1 8576   6.386   3.273   5.049
 2559SOL    HW2 8577   6.421   3.383   4.933
 2560SOL     OW 8578   5.669   3.602   4.342
 2560SOL    HW1 8579   5.721   3.687   4.338
 2560SOL    HW2 8580   5.572   3.621   4.330
 2561SOL     OW 8581   3.016   0.105   3.794
 2561SOL    HW1 8582   2.932   0.068   3.834
 2561SOL    HW2 8583   3.084   0.033   3.787
 2562SOL     OW 8584   1.985   5.698   2.162
 2562SOL    HW1 8585   2.022   5.763   2.229
 2562SOL    HW2 8586   1.928   5.630   2.210
 2563SOL     OW 8587   4.284   1.775   0.074
 2563SOL    HW1 8588   4.319   1.683   0.053
 2563SOL    HW2 8589   4.190   1.767   0.107
 2564SOL     OW 8590   1.128   6.704   6.476
 2564SOL    HW1 8591   1.047   6.758   6.453
 2564SOL    HW2 8592   1.164   6.661   6.393
 2565SOL     OW 8593   6.997   0.724   0.147
 2565SOL    HW1 8594   6.909   0.767   0.163
 2565SOL    HW2 8595   0.049   0.769   0.202
 2566SOL     OW 8596   1.660   6.895   1.098
 2566SOL    HW1 8597   1.631   6.831   1.027
 2566SOL    HW2 8598   1.754   6.924   1.080
 2567SOL     OW 8599   1.264   1.316   1.445
 2567SOL    HW1 8600   1.274   1.307   1.544
 2567SOL    HW2 8601   1.316   1.243   1.400
 2568SOL     OW 8602   3.258   0.103   6.431
 2568SOL    HW1 8603   3.352   0.076   6.452
 2568SOL    HW2 8604   3.258   0.169   6.356
 2569SOL     OW 8605   2.906   0.348   1.682
 2569SOL    HW1 8606   2.877   0.287   1.608
 2569SOL    HW2 8607   2.908   0.297   1.768
 2570SOL     OW 8608   6.236   0.397   0.076
 2570SOL    HW1 8609   6.183   0.336   0.136
 2570SOL    HW2 8610   6.294   0.456   0.132
 2571SOL     OW 8611   2.137   3.799   5.456
 2571SOL    HW1 8612   2.230   3.805   5.420
 2571SOL    HW2 8613   2.121   3.706   5.489
 2572SOL     OW 8614   2.129   5.971   0.643
 2572SOL    HW1 8615   2.167   6.058   0.610
 2572SOL    HW2 8616   2.042   5.953   0.598
 2573SOL     OW 8617   6.543   1.709   2.292
 2573SOL    HW1 8618   6.636   1.676   2.307
 2573SOL    HW2 8619   6.545   1.808   2.278
 2574SOL     OW 8620   6.280   3.192   0.095
 2574SOL    HW1 8621   6.182   3.181   0.110
 2574SOL    HW2 8622   6.298   3.205   7.015
 2575SOL     OW 8623   4.677   5.469   0.189
 2575SOL    HW1 8624   4.743   5.487   0.262
 2575SOL    HW2 8625   4.589   5.512   0.213
 2576SOL     OW 8626   4.167   6.773   4.334
 2576SOL    HW1 8627   4.095   6.755   4.266
 2576SOL    HW2 8628   4.248   6.809   4.288
 2577SOL     OW 8629   4.101   6.427   2.392
 2577SOL    HW1 8630   4.039   6.506   2.388
 2577SOL    HW2 8631   4.171   6.436   2.322
 2578SOL     OW 8632   4.573   2.107   4.466
 2578SOL    HW1 8633   4.595   2.176   4.535
 2578SOL    HW2 8634   4.614   2.020   4.492
 2579SOL     OW 8635   1.096   0.489   3.178
 2579SOL    HW1 8636   1.122   0.393   3.168
 2579SOL    HW2 8637   1.043   0.518   3.099
 2580SOL     OW 8638   2.280   2.744   6.886
 2580SOL    HW1 8639   2.336   2.662   6.893
 2580SOL    HW2 8640   2.207   2.740   6.954
 2581SOL     OW 8641   6.716   4.345   1.087
 2581SOL    HW1 8642   6.685   4.316   0.996
 2581SOL    HW2 8643   6.636   4.360   1.146
 2582SOL     OW 8644   0.654   4.066   2.075
 2582SOL    HW1 8645   0.590   4.048   2.000
 2582SOL    HW2 8646   0.742   4.095   2.038
 2583SOL     OW 8647   0.475   1.750   1.114
 2583SOL    HW1 8648   0.561   1.784   1.152
 2583SOL    HW2 8649   0.490   1.660   1.072
 2584SOL     OW 8650   4.003   5.516   0.238
 2584SOL    HW1 8651   3.996   5.472   0.149
 2584SOL    HW2 8652   4.087   5.487   0.284
 2585SOL     OW 8653   3.999   2.417   0.859
 2585SOL    HW1 8654   3.959   2.498   0.901
 2585SOL    HW2 8655   4.046   2.443   0.774
 2586SOL     OW 8656   3.472   1.431   3.771
 2586SOL    HW1 8657   3.439   1.400   3.860
 2586SOL    HW2 8658   3.514   1.354   3.722
 2587SOL     OW 8659   0.181   0.600   3.801
 2587SOL    HW1 8660   0.151   0.505   3.800
 2587SOL    HW2 8661   0.118   0.655   3.746
 2588SOL     OW 8662   4.763   0.118   0.010
 2588SOL    HW1 8663   4.716   0.175   6.960
 2588SOL    HW2 8664   4.708   0.112   0.093
 2589SOL     OW 8665   0.283   5.833   6.351
 2589SOL    HW1 8666   0.187   5.813   6.367
 2589SOL    HW2 8667   0.339   5.785   6.419
 2590SOL     OW 8668   3.368   6.251   1.953
 2590SOL    HW1 8669   3.427   6.180   1.991
 2590SOL    HW2 8670   3.297   6.208   1.896
 2591SOL     OW 8671   6.699   5.879   2.080
 2591SOL    HW1 8672   6.623   5.882   2.145
 2591SOL    HW2 8673   6.783   5.852   2.128
 2592SOL     OW 8674   3.406   6.453   1.148
 2592SOL    HW1 8675   3.501   6.425   1.132
 2592SOL    HW2 8676   3.384   6.440   1.245
 2593SOL     OW 8677   2.807   5.886   0.990
 2593SOL    HW1 8678   2.801   5.786   0.986
 2593SOL    HW2 8679   2.787   5.917   1.083
 2594SOL     OW 8680   0.396   5.719   5.912
 2594SOL    HW1 8681   0.326   5.775   5.957
 2594SOL    HW2 8682   0.441   5.661   5.980
 2595SOL     OW 8683   6.346   1.496   4.853
 2595SOL    HW1 8684   6.310   1.426   4.791
 2595SOL    HW2 8685   6.353   1.583   4.804
 2596SOL     OW 8686   3.893   1.970   1.741
 2596SOL    HW1 8687   3.806   2.015   1.720
 2596SOL    HW2 8688   3.942   1.950   1.657
 2597SOL     OW 8689   1.503   3.977   6.460
 2597SOL    HW1 8690   1.520   3.885   6.493
 2597SOL    HW2 8691   1.439   3.975   6.384
 2598SOL     OW 8692   6.148   1.310   4.327
 2598SOL    HW1 8693   6.115   1.380   4.390
 2598SOL    HW2 8694   6.121   1.220   4.361
 2599SOL     OW 8695   2.480   0.017   0.743
 2599SOL    HW1 8696   2.460   0.107   0.703
 2599SOL    HW2 8697   2.404   7.008   0.803
 2600SOL     OW 8698   5.032   3.230   4.136
 2600SOL    HW1 8699   5.004   3.195   4.225
 2600SOL    HW2 8700   5.081   3.158   4.086
 2601SOL     OW 8701   1.783   2.334   0.266
 2601SOL    HW1 8702   1.825   2.264   0.324
 2601SOL    HW2 8703   1.827   2.333   0.176
 2602SOL     OW 8704   6.563   4.733   4.065
 2602SOL    HW1 8705   6.550   4.715   3.968
 2602SOL    HW2 8706   6.659   4.719   4.089
 2603SOL     OW 8707   2.084   1.802   1.652
 2603SOL    HW1 8708   2.046   1.740   1.583
 2603SOL    HW2 8709   2.115   1.750   1.731
 2604SOL     OW 8710   4.943   1.394   2.950
 2604SOL    HW1 8711   5.031   1.365   2.987
 2604SOL    HW2 8712   4.869   1.366   3.012
 2605SOL     OW 8713   2.270   4.381   2.806
 2605SOL    HW1 8714   2.265   4.370   2.906
 2605SOL    HW2 8715   2.256   4.477   2.782
 2606SOL     OW 8716   6.746   4.487   1.453
 2606SOL    HW1 8717   6.671   4.554   1.446
 2606SOL    HW2 8718   6.833   4.534   1.436
 2607SOL     OW 8719   6.930   1.137   0.157
 2607SOL    HW1 8720   6.859   1.205   0.138
 2607SOL    HW2 8721   6.956   1.142   0.253
 2608SOL     OW 8722   5.050   4.751   1.366
 2608SOL    HW1 8723   4.989   4.672   1.360
 2608SOL    HW2 8724   5.144   4.722   1.351
 2609SOL     OW 8725   6.868   1.778   1.384
 2609SOL    HW1 8726   6.856   1.736   1.294
 2609SOL    HW2 8727   6.878   1.706   1.453
 2610SOL     OW 8728   0.081   4.818   4.444
 2610SOL    HW1 8729   0.062   4.849   4.351
 2610SOL    HW2 8730   0.163   4.862   4.478
 2611SOL     OW 8731   4.747   6.295   0.560
 2611SOL    HW1 8732   4.694   6.298   0.475
 2611SOL    HW2 8733   4.688   6.262   0.634
 2612SOL     OW 8734   6.852   0.216   5.685
 2612SOL    HW1 8735   6.890   0.184   5.599
 2612SOL    HW2 8736   6.921   0.209   5.757
 2613SOL     OW 8737   2.715   0.030   6.893
 2613SOL    HW1 8738   2.725   0.022   6.794
 2613SOL    HW2 8739   2.787   6.996   6.939
 2614SOL     OW 8740   6.902   0.563   6.148
 2614SOL    HW1 8741   6.969   0.615   6.202
 2614SOL    HW2 8742   6.837   0.626   6.107
 2615SOL     OW 8743   6.993   2.815   3.051
 2615SOL    HW1 8744   6.907   2.850   3.088
 2615SOL    HW2 8745   6.981   2.721   3.021
 2616SOL     OW 8746   3.891   3.152   5.102
 2616SOL    HW1 8747   3.803   3.194   5.123
 2616SOL    HW2 8748   3.886   3.054   5.119
 2617SOL     OW 8749   3.299   6.325   0.736
 2617SOL    HW1 8750   3.388   6.310   0.781
 2617SOL    HW2 8751   3.301   6.412   0.688
 2618SOL     OW 8752   0.053   0.225   4.205
 2618SOL    HW1 8753   0.092   0.313   4.177
 2618SOL    HW2 8754   6.976   0.219   4.175
 2619SOL     OW 8755   4.161   1.676   3.105
 2619SOL    HW1 8756   4.137   1.750   3.042
 2619SOL    HW2 8757   4.081   1.651   3.159
 2620SOL     OW 8758   0.312   6.721   3.016
 2620SOL    HW1 8759   0.334   6.803   3.069
 2620SOL    HW2 8760   0.213   6.715   3.002
 2621SOL     OW 8761   1.267   6.248   3.094
 2621SOL    HW1 8762   1.321   6.315   3.044
 2621SOL    HW2 8763   1.179   6.287   3.119
 2622SOL     OW 8764   1.950   2.945   5.894
 2622SOL    HW1 8765   1.963   2.856   5.937
 2622SOL    HW2 8766   2.007   3.013   5.940
 2623SOL     OW 8767   2.192   1.794   5.552
 2623SOL    HW1 8768   2.274   1.824   5.502
 2623SOL    HW2 8769   2.117   1.779   5.487
 2624SOL     OW 8770   6.878   2.270   5.705
 2624SOL    HW1 8771   6.832   2.181   5.700
 2624SOL    HW2 8772   6.975   2.256   5.724
 2625SOL     OW 8773   2.384   2.510   5.373
 2625SOL    HW1 8774   2.439   2.593   5.363
 2625SOL    HW2 8775   2.317   2.505   5.299
 2626SOL     OW 8776   0.576   0.046   5.836
 2626SOL    HW1 8777   0.648   0.092   5.784
 2626SOL    HW2 8778   0.600   6.967   5.845
 2627SOL     OW 8779   1.629   1.415   5.543
 2627SOL    HW1 8780   1.585   1.471   5.473
 2627SOL    HW2 8781   1.725   1.440   5.551
 2628SOL     OW 8782   2.320   4.946   6.260
 2628SOL    HW1 8783   2.315   5.014   6.186
 2628SOL    HW2 8784   2.345   4.858   6.222
 2629SOL     OW 8785   2.681   3.163   1.298
 2629SOL    HW1 8786   2.696   3.070   1.267
 2629SOL    HW2 8787   2.753   3.189   1.364
 2630SOL     OW 8788   2.966   2.058   2.372
 2630SOL    HW1 8789   2.987   2.085   2.466
 2630SOL    HW2 8790   2.868   2.070   2.355
 2631SOL     OW 8791   5.592   0.699   5.387
 2631SOL    HW1 8792   5.675   0.754   5.385
 2631SOL    HW2 8793   5.524   0.742   5.445
 2632SOL     OW 8794   3.779   2.616   6.329
 2632SOL    HW1 8795   3.823   2.650   6.412
 2632SOL    HW2 8796   3.834   2.644   6.249
 2633SOL     OW 8797   0.061   1.073   4.404
 2633SOL    HW1 8798   6.980   1.080   4.393
 2633SOL    HW2 8799   0.106   1.125   4.332
 2634SOL     OW 8800   0.748   4.629   3.505
 2634SOL    HW1 8801   0.841   4.621   3.470
 2634SOL    HW2 8802   0.751   4.653   3.602
 2635SOL     OW 8803   6.050   6.428   5.552
 2635SOL    HW1 8804   5.991   6.503   5.524
 2635SOL    HW2 8805   6.145   6.456   5.544
 2636SOL     OW 8806   4.525   0.489   5.228
 2636SOL    HW1 8807   4.579   0.555   5.281
 2636SOL    HW2 8808   4.441   0.466   5.278
 2637SOL     OW 8809   4.921   1.711   3.639
 2637SOL    HW1 8810   4.827   1.713   3.674
 2637SOL    HW2 8811   4.920   1.675   3.545
 2638SOL     OW 8812   6.490   0.465   3.466
 2638SOL    HW1 8813   6.521   0.388   3.411
 2638SOL    HW2 8814   6.401   0.497   3.433
 2639SOL     OW 8815   0.675   6.206   1.031
 2639SOL    HW1 8816   0.653   6.203   1.128
 2639SOL    HW2 8817   0.708   6.117   1.001
 2640SOL     OW 8818   0.654   5.748   5.239
 2640SOL    HW1 8819   0.670   5.764   5.336
 2640SOL    HW2 8820   0.642   5.836   5.192
 2641SOL     OW 8821   5.134   3.205   2.701
 2641SOL    HW1 8822   5.114   3.237   2.793
 2641SOL    HW2 8823   5.054   3.220   2.642
 2642SOL     OW 8824   4.236   6.733   3.740
 2642SOL    HW1 8825   4.136   6.727   3.743
 2642SOL    HW2 8826   4.272   6.738   3.833
 2643SOL     OW 8827   0.185   4.058   3.277
 2643SOL    HW1 8828   0.101   4.055   3.224
 2643SOL    HW2 8829   0.211   4.154   3.291
 2644SOL     OW 8830   5.833   6.084   5.566
 2644SOL    HW1 8831   5.910   6.078   5.503
 2644SOL    HW2 8832   5.843   6.014   5.637
 2645SOL     OW 8833   4.477   5.580   4.726
 2645SOL    HW1 8834   4.502   5.496   4.679
 2645SOL    HW2 8835   4.457   5.651   4.659
 2646SOL     OW 8836   6.268   0.654   6.773
 2646SOL    HW1 8837   6.286   0.691   6.865
 2646SOL    HW2 8838   6.171   0.630   6.765
 2647SOL     OW 8839   6.808   0.061   2.472
 2647SOL    HW1 8840   6.751   0.020   2.543
 2647SOL    HW2 8841   6.866   0.132   2.513
 2648SOL     OW 8842   0.823   0.182   4.123
 2648SOL    HW1 8843   0.797   0.086   4.114
 2648SOL    HW2 8844   0.833   0.223   4.032
 2649SOL     OW 8845   5.377   3.077   0.163
 2649SOL    HW1 8846   5.375   3.040   0.070
 2649SOL    HW2 8847   5.284   3.089   0.196
 2650SOL     OW 8848   1.158   4.232   4.445
 2650SOL    HW1 8849   1.099   4.205   4.522
 2650SOL    HW2 8850   1.121   4.315   4.402
 2651SOL     OW 8851   1.054   1.006   0.432
 2651SOL    HW1 8852   1.033   1.014   0.335
 2651SOL    HW2 8853   1.152   0.994   0.444
 2652SOL     OW 8854   4.122   3.585   4.320
 2652SOL    HW1 8855   4.098   3.634   4.405
 2652SOL    HW2 8856   4.085   3.635   4.242
 2653SOL     OW 8857   4.842   0.075   5.132
 2653SOL    HW1 8858   4.758   0.094   5.081
 2653SOL    HW2 8859   4.859   0.150   5.196
 2654SOL     OW 8860   4.634   6.225   2.011
 2654SOL    HW1 8861   4.610   6.244   2.106
 2654SOL    HW2 8862   4.729   6.196   2.005
 2655SOL     OW 8863   4.675   6.413   4.222
 2655SOL    HW1 8864   4.582   6.450   4.220
 2655SOL    HW2 8865   4.726   6.456   4.296
 2656SOL     OW 8866   3.516   4.952   4.260
 2656SOL    HW1 8867   3.443   4.895   4.221
 2656SOL    HW2 8868   3.491   4.980   4.353
 2657SOL     OW 8869   1.020   3.729   6.221
 2657SOL    HW1 8870   0.950   3.702   6.287
 2657SOL    HW2 8871   1.108   3.739   6.267
 2658SOL     OW 8872   5.011   4.437   0.714
 2658SOL    HW1 8873   4.973   4.492   0.639
 2658SOL    HW2 8874   5.045   4.498   0.786
 2659SOL     OW 8875   5.495   2.990   4.230
 2659SOL    HW1 8876   5.585   2.948   4.243
 2659SOL    HW2 8877   5.428   2.920   4.207
 2660SOL     OW 8878   1.686   0.268   1.554
 2660SOL    HW1 8879   1.721   0.227   1.469
 2660SOL    HW2 8880   1.593   0.302   1.538
 2661SOL     OW 8881   2.642   6.775   0.958
 2661SOL    HW1 8882   2.580   6.723   0.899
 2661SOL    HW2 8883   2.666   6.861   0.913
 2662SOL     OW 8884   4.838   6.848   4.916
 2662SOL    HW1 8885   4.894   6.873   4.995
 2662SOL    HW2 8886   4.823   6.749   4.915
 2663SOL     OW 8887   2.962   3.860   6.934
 2663SOL    HW1 8888   3.033   3.791   6.948
 2663SOL    HW2 8889   2.884   3.819   6.888
 2664SOL     OW 8890   4.273   4.197   5.466
 2664SOL    HW1 8891   4.297   4.184   5.562
 2664SOL    HW2 8892   4.355   4.191   5.410
 2665SOL     OW 8893   2.629   2.822   5.377
 2665SOL    HW1 8894   2.571   2.798   5.299
 2665SOL    HW2 8895   2.626   2.920   5.392
 2666SOL     OW 8896   5.638   4.496   1.476
 2666SOL    HW1 8897   5.642   4.570   1.409
 2666SOL    HW2 8898   5.544   4.486   1.509
 2667SOL     OW 8899   0.143   6.622   3.822
 2667SOL    HW1 8900   0.154   6.524   3.805
 2667SOL    HW2 8901   0.228   6.659   3.860
 2668SOL     OW 8902   0.331   3.100   4.492
 2668SOL    HW1 8903   0.405   3.077   4.429
 2668SOL    HW2 8904   0.330   3.198   4.507
 2669SOL     OW 8905   2.707   4.490   5.338
 2669SOL    HW1 8906   2.784   4.511   5.277
 2669SOL    HW2 8907   2.694   4.564   5.403
 2670SOL     OW 8908   6.321   3.438   6.476
 2670SOL    HW1 8909   6.248   3.504   6.494
 2670SOL    HW2 8910   6.289   3.371   6.409
 2671SOL     OW 8911   4.508   5.549   5.841
 2671SOL    HW1 8912   4.477   5.627   5.895
 2671SOL    HW2 8913   4.569   5.581   5.768
 2672SOL     OW 8914   1.635   5.050   1.012
 2672SOL    HW1 8915   1.583   5.093   1.085
 2672SOL    HW2 8916   1.710   5.111   0.985
 2673SOL     OW 8917   6.125   0.589   3.593
 2673SOL    HW1 8918   6.145   0.511   3.653
 2673SOL    HW2 8919   6.038   0.573   3.547
 2674SOL     OW 8920   1.461   4.393   3.709
 2674SOL    HW1 8921   1.406   4.328   3.657
 2674SOL    HW2 8922   1.483   4.355   3.799
 2675SOL     OW 8923   6.781   5.411   3.371
 2675SOL    HW1 8924   6.722   5.474   3.421
 2675SOL    HW2 8925   6.735   5.382   3.287
 2676SOL     OW 8926   3.916   2.786   0.804
 2676SOL    HW1 8927   3.891   2.786   0.707
 2676SOL    HW2 8928   4.004   2.833   0.816
 2677SOL     OW 8929   3.046   3.469   0.521
 2677SOL    HW1 8930   3.129   3.420   0.550
 2677SOL    HW2 8931   3.018   3.436   0.431
 2678SOL     OW 8932   0.334   2.770   1.517
 2678SOL    HW1 8933   0.327   2.758   1.418
 2678SOL    HW2 8934   0.344   2.867   1.539
 2679SOL     OW 8935   3.482   4.625   0.744
 2679SOL    HW1 8936   3.421   4.668   0.678
 2679SOL    HW2 8937   3.521   4.695   0.804
 2680SOL     OW 8938   0.937   1.787   0.897
 2680SOL    HW1 8939   0.855   1.784   0.841
 2680SOL    HW2 8940   0.938   1.710   0.961
 2681SOL     OW 8941   1.318   2.756   4.237
 2681SOL    HW1 8942   1.233   2.706   4.216
 2681SOL    HW2 8943   1.346   2.808   4.156
 2682SOL     OW 8944   4.896   4.055   2.733
 2682SOL    HW1 8945   4.881   4.006   2.647
 2682SOL    HW2 8946   4.982   4.024   2.774
 2683SOL     OW 8947   2.679   5.134   1.706
 2683SOL    HW1 8948   2.711   5.039   1.709
 2683SOL    HW2 8949   2.596   5.142   1.761
 2684SOL     OW 8950   4.413   5.799   1.430
 2684SOL    HW1 8951   4.424   5.708   1.391
 2684SOL    HW2 8952   4.382   5.792   1.525
 2685SOL     OW 8953   6.408   6.491   6.301
 2685SOL    HW1 8954   6.364   6.457   6.218
 2685SOL    HW2 8955   6.461   6.573   6.280
 2686SOL     OW 8956   1.955   2.152   5.879
 2686SOL    HW1 8957   2.053   2.151   5.903
 2686SOL    HW2 8958   1.919   2.244   5.893
 2687SOL     OW 8959   4.971   4.418   1.971
 2687SOL    HW1 8960   4.894   4.377   2.019
 2687SOL    HW2 8961   4.950   4.513   1.948
 2688SOL     OW 8962   4.016   4.214   6.949
 2688SOL    HW1 8963   3.990   4.278   6.877
 2688SOL    HW2 8964   4.062   4.263   0.005
 2689SOL     OW 8965   1.696   4.007   3.354
 2689SOL    HW1 8966   1.702   3.909   3.370
 2689SOL    HW2 8967   1.748   4.031   3.273
 2690SOL     OW 8968   3.307   3.381   3.958
 2690SOL    HW1 8969   3.215   3.343   3.954
 2690SOL    HW2 8970   3.312   3.462   3.899
 2691SOL     OW 8971   1.813   5.535   2.283
 2691SOL    HW1 8972   1.828   5.483   2.367
 2691SOL    HW2 8973   1.734   5.595   2.293
 2692SOL     OW 8974   3.395   5.452   2.928
 2692SOL    HW1 8975   3.296   5.445   2.941
 2692SOL    HW2 8976   3.418   5.433   2.833
 2693SOL     OW 8977   2.394   5.472   2.945
 2693SOL    HW1 8978   2.452   5.427   3.014
 2693SOL    HW2 8979   2.337   5.541   2.990
 2694SOL     OW 8980   3.987   6.104   2.992
 2694SOL    HW1 8981   4.063   6.169   2.999
 2694SOL    HW2 8982   3.914   6.145   2.936
 2695SOL     OW 8983   5.734   0.531   2.614
 2695SOL    HW1 8984   5.679   0.533   2.531
 2695SOL    HW2 8985   5.789   0.615   2.619
 2696SOL     OW 8986   3.859   3.632   5.396
 2696SOL    HW1 8987   3.887   3.542   5.428
 2696SOL    HW2 8988   3.923   3.664   5.325
 2697SOL     OW 8989   3.126   1.887   2.641
 2697SOL    HW1 8990   3.167   1.971   2.607
 2697SOL    HW2 8991   3.050   1.860   2.582
 2698SOL     OW 8992   2.345   6.459   0.195
 2698SOL    HW1 8993   2.306   6.551   0.194
 2698SOL    HW2 8994   2.278   6.394   0.159
 2699SOL     OW 8995   2.684   6.779   0.313
 2699SOL    HW1 8996   2.666   6.759   0.409
 2699SOL    HW2 8997   2.685   6.693   0.261
 2700SOL     OW 8998   2.208   3.812   0.288
 2700SOL    HW1 8999   2.186   3.886   0.224
 2700SOL    HW2 9000   2.256   3.739   0.239
 2701SOL     OW 9001   5.398   1.586   5.819
 2701SOL    HW1 9002   5.464   1.658   5.800
 2701SOL    HW2 9003   5.440   1.518   5.879
 2702SOL     OW 9004   0.529   3.161   3.690
 2702SOL    HW1 9005   0.529   3.186   3.786
 2702SOL    HW2 9006   0.579   3.075   3.677
 2703SOL     OW 9007   1.361   0.153   1.303
 2703SOL    HW1 9008   1.289   0.084   1.299
 2703SOL    HW2 9009   1.345   0.212   1.382
 2704SOL     OW 9010   6.912   5.696   1.300
 2704SOL    HW1 9011   6.837   5.647   1.344
 2704SOL    HW2 9012   6.999   5.655   1.326
 2705SOL     OW 9013   6.904   5.858   4.623
 2705SOL    HW1 9014   6.861   5.861   4.713
 2705SOL    HW2 9015   6.994   5.813   4.630
 2706SOL     OW 9016   0.402   6.264   1.664
 2706SOL    HW1 9017   0.313   6.229   1.636
 2706SOL    HW2 9018   0.442   6.318   1.590
 2707SOL     OW 9019   3.714   6.823   4.153
 2707SOL    HW1 9020   3.724   6.757   4.227
 2707SOL    HW2 9021   3.804   6.855   4.123
 2708SOL     OW 9022   0.331   2.213   7.005
 2708SOL    HW1 9023   0.361   2.253   0.073
 2708SOL    HW2 9024   0.406   2.215   6.939
 2709SOL     OW 9025   6.109   0.055   0.061
 2709SOL    HW1 9026   6.039   0.088   0.124
 2709SOL    HW2 9027   6.119   6.974   0.071
 2710SOL     OW 9028   1.083   3.878   3.679
 2710SOL    HW1 9029   1.089   3.804   3.747
 2710SOL    HW2 9030   1.110   3.843   3.589
 2711SOL     OW 9031   2.624   0.713   3.499
 2711SOL    HW1 9032   2.701   0.676   3.448
 2711SOL    HW2 9033   2.639   0.698   3.597
 2712SOL     OW 9034   2.992   4.619   1.093
 2712SOL    HW1 9035   3.076   4.651   1.050
 2712SOL    HW2 9036   2.952   4.546   1.038
 2713SOL     OW 9037   2.585   2.373   4.727
 2713SOL    HW1 9038   2.510   2.365   4.661
 2713SOL    HW2 9039   2.572   2.454   4.783
 2714SOL     OW 9040   3.239   2.118   0.603
 2714SOL    HW1 9041   3.142   2.127   0.579
 2714SOL    HW2 9042   3.292   2.185   0.552
 2715SOL     OW 9043   4.957   1.757   0.900
 2715SOL    HW1 9044   4.982   1.693   0.973
 2715SOL    HW2 9045   4.920   1.841   0.940
 2716SOL     OW 9046   5.179   4.143   2.073
 2716SOL    HW1 9047   5.120   4.210   2.027
 2716SOL    HW2 9048   5.126   4.091   2.139
 2717SOL     OW 9049   0.888   6.348   2.522
 2717SOL    HW1 9050   0.848   6.347   2.430
 2717SOL    HW2 9051   0.815   6.347   2.590
 2718SOL     OW 9052   1.939   1.884   4.700
 2718SOL    HW1 9053   1.902   1.885   4.607
 2718SOL    HW2 9054   2.032   1.848   4.699
 2719SOL     OW 9055   6.943   5.417   1.071
 2719SOL    HW1 9056   6.860   5.470   1.091
 2719SOL    HW2 9057   6.917   5.329   1.031
 2720SOL     OW 9058   2.091   6.184   1.812
 2720SOL    HW1 9059   2.126   6.134   1.891
 2720SOL    HW2 9060   2.109   6.282   1.824
 2721SOL     OW 9061   2.519   0.103   3.075
 2721SOL    HW1 9062   2.599   0.139   3.123
 2721SOL    HW2 9063   2.545   0.020   3.026
 2722SOL     OW 9064   0.072   5.436   0.685
 2722SOL    HW1 9065   0.017   5.519   0.682
 2722SOL    HW2 9066   0.096   5.408   0.592
 2723SOL     OW 9067   0.671   0.044   6.384
 2723SOL    HW1 9068   0.600   0.003   6.442
 2723SOL    HW2 9069   0.648   0.140   6.367
 2724SOL     OW 9070   1.716   6.496   0.017
 2724SOL    HW1 9071   1.699   6.475   0.113
 2724SOL    HW2 9072   1.812   6.477   7.013
 2725SOL     OW 9073   5.351   5.242   4.399
 2725SOL    HW1 9074   5.422   5.209   4.461
 2725SOL    HW2 9075   5.383   5.325   4.353
 2726SOL     OW 9076   0.141   2.375   1.026
 2726SOL    HW1 9077   0.179   2.381   1.119
 2726SOL    HW2 9078   0.151   2.463   0.980
 2727SOL     OW 9079   0.279   5.174   2.871
 2727SOL    HW1 9080   0.295   5.075   2.867
 2727SOL    HW2 9081   0.328   5.212   2.950
 2728SOL     OW 9082   4.722   6.590   5.807
 2728SOL    HW1 9083   4.725   6.492   5.826
 2728SOL    HW2 9084   4.677   6.605   5.718
 2729SOL     OW 9085   6.987   5.709   0.700
 2729SOL    HW1 9086   0.036   5.778   0.730
 2729SOL    HW2 9087   6.914   5.755   0.650
 2730SOL     OW 9088   1.429   5.771   1.546
 2730SOL    HW1 9089   1.380   5.845   1.499
 2730SOL    HW2 9090   1.430   5.689   1.488
 2731SOL     OW 9091   3.916   3.625   2.993
 2731SOL    HW1 9092   3.953   3.673   2.914
 2731SOL    HW2 9093   3.991   3.588   3.048
 2732SOL     OW 9094   5.502   2.135   1.599
 2732SOL    HW1 9095   5.570   2.151   1.529
 2732SOL    HW2 9096   5.431   2.073   1.564
 2733SOL     OW 9097   6.608   0.821   4.980
 2733SOL    HW1 9098   6.608   0.917   5.008
 2733SOL    HW2 9099   6.532   0.773   5.023
 2734SOL     OW 9100   2.782   5.920   1.258
 2734SOL    HW1 9101   2.707   5.861   1.289
 2734SOL    HW2 9102   2.849   5.929   1.332
 2735SOL     OW 9103   1.292   3.411   2.406
 2735SOL    HW1 9104   1.314   3.319   2.439
 2735SOL    HW2 9105   1.311   3.478   2.478
 2736SOL     OW 9106   4.654   6.908   5.532
 2736SOL    HW1 9107   4.590   6.838   5.501
 2736SOL    HW2 9108   4.665   6.977   5.460
 2737SOL     OW 9109   3.535   3.570   6.196
 2737SOL    HW1 9110   3.497   3.582   6.104
 2737SOL    HW2 9111   3.460   3.561   6.262
 2738SOL     OW 9112   4.924   6.261   2.297
 2738SOL    HW1 9113   4.842   6.316   2.311
 2738SOL    HW2 9114   4.986   6.273   2.374
 2739SOL     OW 9115   6.937   5.140   1.454
 2739SOL    HW1 9116   7.000   5.182   1.518
 2739SOL    HW2 9117   6.848   5.186   1.458
 2740SOL     OW 9118   7.015   3.873   2.309
 2740SOL    HW1 9119   6.980   3.957   2.350
 2740SOL    HW2 9120   0.051   3.896   2.228
 2741SOL     OW 9121   6.413   0.294   4.912
 2741SOL    HW1 9122   6.322   0.313   4.948
 2741SOL    HW2 9123   6.435   0.359   4.840
 2742SOL     OW 9124   2.458   5.392   6.647
 2742SOL    HW1 9125   2.461   5.295   6.674
 2742SOL    HW2 9126   2.491   5.401   6.553
 2743SOL     OW 9127   6.981   5.114   2.054
 2743SOL    HW1 9128   0.005   5.067   2.132
 2743SOL    HW2 9129   6.976   5.212   2.073
 2744SOL     OW 9130   5.274   2.018   6.334
 2744SOL    HW1 9131   5.280   1.995   6.237
 2744SOL    HW2 9132   5.355   2.071   6.361
 2745SOL     OW 9133   0.011   6.962   6.147
 2745SOL    HW1 9134   0.101   6.952   6.103
 2745SOL    HW2 9135   6.996   6.873   6.177
 2746SOL     OW 9136   2.445   1.996   3.782
 2746SOL    HW1 9137   2.386   2.076   3.790
 2746SOL    HW2 9138   2.466   1.979   3.685
 2747SOL     OW 9139   6.346   3.799   6.525
 2747SOL    HW1 9140   6.400   3.717   6.506
 2747SOL    HW2 9141   6.313   3.838   6.439
 2748SOL     OW 9142   5.342   1.302   1.294
 2748SOL    HW1 9143   5.431   1.260   1.305
 2748SOL    HW2 9144   5.293   1.298   1.382
 2749SOL     OW 9145   6.689   5.030   2.432
 2749SOL    HW1 9146   6.777   5.078   2.430
 2749SOL    HW2 9147   6.671   4.997   2.525
 2750SOL     OW 9148   0.844   5.306   1.159
 2750SOL    HW1 9149   0.921   5.246   1.136
 2750SOL    HW2 9150   0.869   5.365   1.236
 2751SOL     OW 9151   1.042   5.607   1.699
 2751SOL    HW1 9152   1.113   5.575   1.636
 2751SOL    HW2 9153   1.076   5.687   1.748
 2752SOL     OW 9154   4.066   5.220   5.815
 2752SOL    HW1 9155   4.136   5.261   5.756
 2752SOL    HW2 9156   4.107   5.146   5.869
 2753SOL     OW 9157   0.385   6.296   5.434
 2753SOL    HW1 9158   0.460   6.336   5.381
 2753SOL    HW2 9159   0.421   6.224   5.493
 2754SOL     OW 9160   0.615   0.610   2.624
 2754SOL    HW1 9161   0.586   0.664   2.545
 2754SOL    HW2 9162   0.634   0.516   2.596
 2755SOL     OW 9163   2.383   6.793   3.026
 2755SOL    HW1 9164   2.410   6.742   3.108
 2755SOL    HW2 9165   2.465   6.824   2.978
 2756SOL     OW 9166   6.041   4.740   6.524
 2756SOL    HW1 9167   5.955   4.779   6.556
 2756SOL    HW2 9168   6.026   4.691   6.438
 2757SOL     OW 9169   2.641   0.379   6.590
 2757SOL    HW1 9170   2.660   0.477   6.583
 2757SOL    HW2 9171   2.615   0.356   6.683
 2758SOL     OW 9172   4.200   6.387   4.152
 2758SOL    HW1 9173   4.206   6.363   4.055
 2758SOL    HW2 9174   4.286   6.430   4.181
 2759SOL     OW 9175   5.014   6.047   5.178
 2759SOL    HW1 9176   4.975   6.031   5.087
 2759SOL    HW2 9177   5.042   5.960   5.218
 2760SOL     OW 9178   0.563   5.890   2.479
 2760SOL    HW1 9179   0.648   5.857   2.437
 2760SOL    HW2 9180   0.500   5.918   2.407
 2761SOL     OW 9181   1.472   4.684   4.902
 2761SOL    HW1 9182   1.497   4.600   4.951
 2761SOL    HW2 9183   1.534   4.697   4.825
 2762SOL     OW 9184   1.805   0.274   5.918
 2762SOL    HW1 9185   1.819   0.307   5.825
 2762SOL    HW2 9186   1.822   0.348   5.983
 2763SOL     OW 9187   4.788   2.343   3.970
 2763SOL    HW1 9188   4.780   2.353   4.069
 2763SOL    HW2 9189   4.861   2.279   3.948
 2764SOL     OW 9190   6.516   0.992   1.378
 2764SOL    HW1 9191   6.604   1.010   1.421
 2764SOL    HW2 9192   6.530   0.944   1.291
 2765SOL     OW 9193   6.628   0.305   0.142
 2765SOL    HW1 9194   6.701   0.243   0.114
 2765SOL    HW2 9195   6.614   0.374   0.071
 2766SOL     OW 9196   5.043   2.588   0.669
 2766SOL    HW1 9197   5.062   2.681   0.700
 2766SOL    HW2 9198   5.110   2.525   0.708
 2767SOL     OW 9199   6.500   4.899   0.347
 2767SOL    HW1 9200   6.570   4.970   0.350
 2767SOL    HW2 9201   6.543   4.810   0.333
 2768SOL     OW 9202   4.296   0.595   0.988
 2768SOL    HW1 9203   4.364   0.569   1.057
 2768SOL    HW2 9204   4.290   0.694   0.983
 2769SOL     OW 9205   1.778   5.014   5.600
 2769SOL    HW1 9206   1.786   4.918   5.571
 2769SOL    HW2 9207   1.861   5.063   5.574
 2770SOL     OW 9208   4.118   5.644   5.997
 2770SOL    HW1 9209   4.189   5.714   6.002
 2770SOL    HW2 9210   4.158   5.554   6.015
 2771SOL     OW 9211   6.315   0.724   3.739
 2771SOL    HW1 9212   6.330   0.644   3.797
 2771SOL    HW2 9213   6.230   0.713   3.689
 2772SOL     OW 9214   3.948   1.909   0.765
 2772SOL    HW1 9215   3.957   1.993   0.819
 2772SOL    HW2 9216   4.025   1.849   0.783
 2773SOL     OW 9217   6.018   1.790   4.696
 2773SOL    HW1 9218   5.987   1.805   4.790
 2773SOL    HW2 9219   6.046   1.878   4.657
 2774SOL     OW 9220   5.157   2.834   3.087
 2774SOL    HW1 9221   5.124   2.742   3.107
 2774SOL    HW2 9222   5.101   2.875   3.015
 2775SOL     OW 9223   6.562   4.042   5.241
 2775SOL    HW1 9224   6.636   4.091   5.287
 2775SOL    HW2 9225   6.489   4.022   5.307
 2776SOL     OW 9226   4.677   4.763   6.082
 2776SOL    HW1 9227   4.670   4.846   6.137
 2776SOL    HW2 9228   4.748   4.775   6.013
 2777SOL     OW 9229   2.708   1.840   1.231
 2777SOL    HW1 9230   2.721   1.786   1.313
 2777SOL    HW2 9231   2.784   1.905   1.221
 2778SOL     OW 9232   1.837   6.788   5.405
 2778SOL    HW1 9233   1.778   6.824   5.332
 2778SOL    HW2 9234   1.782   6.733   5.468
 2779SOL     OW 9235   5.286   6.644   1.976
 2779SOL    HW1 9236   5.259   6.705   2.050
 2779SOL    HW2 9237   5.233   6.665   1.894
 2780SOL     OW 9238   0.735   6.847   0.114
 2780SOL    HW1 9239   0.639   6.872   0.103
 2780SOL    HW2 9240   0.743   6.773   0.180
 2781SOL     OW 9241   5.979   0.529   2.143
 2781SOL    HW1 9242   6.055   0.479   2.101
 2781SOL    HW2 9243   6.012   0.615   2.181
 2782SOL     OW 9244   4.835   1.426   5.124
 2782SOL    HW1 9245   4.752   1.381   5.091
 2782SOL    HW2 9246   4.811   1.507   5.176
 2783SOL     OW 9247   5.157   4.020   2.804
 2783SOL    HW1 9248   5.202   4.078   2.872
 2783SOL    HW2 9249   5.200   4.034   2.715
 2784SOL     OW 9250   3.342   1.527   2.323
 2784SOL    HW1 9251   3.366   1.586   2.401
 2784SOL    HW2 9252   3.399   1.445   2.325
 2785SOL     OW 9253   5.521   2.458   0.908
 2785SOL    HW1 9254   5.500   2.555   0.895
 2785SOL    HW2 9255   5.546   2.418   0.820
 2786SOL     OW 9256   4.898   6.852   2.720
 2786SOL    HW1 9257   4.966   6.879   2.789
 2786SOL    HW2 9258   4.889   6.752   2.718
 2787SOL     OW 9259   5.610   0.273   6.192
 2787SOL    HW1 9260   5.560   0.258   6.277
 2787SOL    HW2 9261   5.708   0.260   6.208
 2788SOL     OW 9262   1.480   5.662   5.884
 2788SOL    HW1 9263   1.391   5.697   5.913
 2788SOL    HW2 9264   1.552   5.707   5.937
 2789SOL     OW 9265   1.260   2.231   4.189
 2789SOL    HW1 9266   1.238   2.301   4.122
 2789SOL    HW2 9267   1.327   2.267   4.254
 2790SOL     OW 9268   3.730   5.794   2.246
 2790SOL    HW1 9269   3.812   5.828   2.200
 2790SOL    HW2 9270   3.664   5.762   2.177
 2791SOL     OW 9271   0.664   2.556   3.052
 2791SOL    HW1 9272   0.661   2.656   3.060
 2791SOL    HW2 9273   0.596   2.525   2.986
 2792SOL     OW 9274   1.820   0.555   4.059
 2792SOL    HW1 9275   1.793   0.462   4.033
 2792SOL    HW2 9276   1.883   0.591   3.991
 2793SOL     OW 9277   5.255   4.011   1.421
 2793SOL    HW1 9278   5.253   4.068   1.338
 2793SOL    HW2 9279   5.250   4.070   1.502
 2794SOL     OW 9280   0.019   1.781   6.365
 2794SOL    HW1 9281   6.940   1.780   6.343
 2794SOL    HW2 9282   0.056   1.872   6.350
 2795SOL     OW 9283   0.807   3.323   0.682
 2795SOL    HW1 9284   0.856   3.390   0.737
 2795SOL    HW2 9285   0.839   3.231   0.706
 2796SOL     OW 9286   0.478   6.530   3.101
 2796SOL    HW1 9287   0.519   6.566   3.184
 2796SOL    HW2 9288   0.404   6.591   3.071
 2797SOL     OW 9289   4.929   5.511   4.766
 2797SOL    HW1 9290   4.896   5.487   4.675
 2797SOL    HW2 9291   4.921   5.432   4.827
 2798SOL     OW 9292   0.002   5.427   2.021
 2798SOL    HW1 9293   0.005   5.517   1.978
 2798SOL    HW2 9294   6.944   5.424   2.086
 2799SOL     OW 9295   5.926   5.662   5.789
 2799SOL    HW1 9296   5.915   5.567   5.819
 2799SOL    HW2 9297   6.009   5.700   5.828
 2800SOL     OW 9298   4.803   6.306   6.610
 2800SOL    HW1 9299   4.878   6.352   6.658
 2800SOL    HW2 9300   4.836   6.220   6.571
 2801SOL     OW 9301   6.598   5.620   5.669
 2801SOL    HW1 9302   6.586   5.604   5.571
 2801SOL    HW2 9303   6.666   5.692   5.683
 2802SOL     OW 9304   5.317   6.110   5.530
 2802SOL    HW1 9305   5.325   6.026   5.477
 2802SOL    HW2 9306   5.323   6.189   5.469
 2803SOL     OW 9307   4.215   5.371   6.039
 2803SOL    HW1 9308   4.268   5.321   6.107
 2803SOL    HW2 9309   4.245   5.345   5.947
 2804SOL     OW 9310   0.343   4.366   5.338
 2804SOL    HW1 9311   0.329   4.429   5.414
 2804SOL    HW2 9312   0.287   4.284   5.351
 2805SOL     OW 9313   5.951   3.744   2.340
 2805SOL    HW1 9314   5.853   3.723   2.350
 2805SOL    HW2 9315   6.004   3.681   2.398
 2806SOL     OW 9316   0.523   3.961   5.832
 2806SOL    HW1 9317   0.547   4.043   5.884
 2806SOL    HW2 9318   0.573   3.959   5.746
 2807SOL     OW 9319   3.554   6.997   4.312
 2807SOL    HW1 9320   3.610   6.942   4.249
 2807SOL    HW2 9321   3.491   0.036   4.260
 2808SOL     OW 9322   6.513   4.954   1.929
 2808SOL    HW1 9323   6.566   4.936   2.012
 2808SOL    HW2 9324   6.499   5.052   1.919
 2809SOL     OW 9325   5.382   2.875   0.788
 2809SOL    HW1 9326   5.452   2.827   0.734
 2809SOL    HW2 9327   5.389   2.846   0.883
 2810SOL     OW 9328   3.039   5.621   3.297
 2810SOL    HW1 9329   2.976   5.690   3.332
 2810SOL    HW2 9330   3.133   5.648   3.316
 2811SOL     OW 9331   1.052   2.134   4.363
 2811SOL    HW1 9332   1.126   2.144   4.296
 2811SOL    HW2 9333   1.053   2.213   4.424
 2812SOL     OW 9334   5.045   2.926   6.856
 2812SOL    HW1 9335   5.035   2.915   6.955
 2812SOL    HW2 9336   4.997   3.009   6.827
 2813SOL     OW 9337   0.846   0.611   6.523
 2813SOL    HW1 9338   0.907   0.536   6.497
 2813SOL    HW2 9339   0.818   0.601   6.618
 2814SOL     OW 9340   3.507   3.924   5.600
 2814SOL    HW1 9341   3.514   3.975   5.514
 2814SOL    HW2 9342   3.560   3.972   5.671
 2815SOL     OW 9343   6.760   5.753   6.668
 2815SOL    HW1 9344   6.732   5.742   6.572
 2815SOL    HW2 9345   6.681   5.738   6.727
 2816SOL     OW 9346   6.350   5.868   3.608
 2816SOL    HW1 9347   6.292   5.944   3.579
 2816SOL    HW2 9348   6.377   5.815   3.528
 2817SOL     OW 9349   3.232   0.114   1.893
 2817SOL    HW1 9350   3.216   0.183   1.964
 2817SOL    HW2 9351   3.257   0.027   1.935
 2818SOL     OW 9352   0.619   0.505   2.237
 2818SOL    HW1 9353   0.538   0.453   2.210
 2818SOL    HW2 9354   0.625   0.589   2.182
 2819SOL     OW 9355   2.146   0.849   1.706
 2819SOL    HW1 9356   2.059   0.882   1.742
 2819SOL    HW2 9357   2.184   0.916   1.642
 2820SOL     OW 9358   0.966   2.235   3.616
 2820SOL    HW1 9359   0.926   2.281   3.537
 2820SOL    HW2 9360   0.961   2.136   3.603
 2821SOL     OW 9361   3.510   4.328   6.045
 2821SOL    HW1 9362   3.559   4.404   6.003
 2821SOL    HW2 9363   3.576   4.261   6.080
 2822SOL     OW 9364   3.706   1.888   0.642
 2822SOL    HW1 9365   3.801   1.904   0.669
 2822SOL    HW2 9366   3.653   1.972   0.657
 2823SOL     OW 9367   5.263   0.745   0.923
 2823SOL    HW1 9368   5.311   0.790   0.998
 2823SOL    HW2 9369   5.207   0.812   0.874
 2824SOL     OW 9370   2.477   1.179   4.146
 2824SOL    HW1 9371   2.562   1.183   4.093
 2824SOL    HW2 9372   2.499   1.164   4.243
 2825SOL     OW 9373   5.015   6.371   6.778
 2825SOL    HW1 9374   5.107   6.407   6.761
 2825SOL    HW2 9375   5.014   6.321   6.865
 2826SOL     OW 9376   4.943   1.490   6.832
 2826SOL    HW1 9377   5.007   1.484   6.755
 2826SOL    HW2 9378   4.851   1.509   6.797
 2827SOL     OW 9379   0.688   1.519   6.616
 2827SOL    HW1 9380   0.601   1.509   6.568
 2827SOL    HW2 9381   0.758   1.549   6.551
 2828SOL     OW 9382   2.334   2.151   0.109
 2828SOL    HW1 9383   2.362   2.089   0.036
 2828SOL    HW2 9384   2.241   2.128   0.138
 2829SOL     OW 9385   2.934   3.246   4.661
 2829SOL    HW1 9386   3.028   3.213   4.662
 2829SOL    HW2 9387   2.875   3.178   4.619
 2830SOL     OW 9388   3.166   4.104   5.434
 2830SOL    HW1 9389   3.143   4.015   5.396
 2830SOL    HW2 9390   3.110   4.174   5.390
 2831SOL     OW 9391   0.865   4.230   3.245
 2831SOL    HW1 9392   0.830   4.214   3.337
 2831SOL    HW2 9393   0.950   4.282   3.250
 2832SOL     OW 9394   0.953   2.881   1.655
 2832SOL    HW1 9395   1.000   2.848   1.573
 2832SOL    HW2 9396   0.878   2.941   1.629
 2833SOL     OW 9397   2.667   1.656   2.313
 2833SOL    HW1 9398   2.600   1.728   2.331
 2833SOL    HW2 9399   2.736   1.656   2.385
 2834SOL     OW 9400   4.183   6.761   6.199
 2834SOL    HW1 9401   4.204   6.833   6.265
 2834SOL    HW2 9402   4.260   6.698   6.191
 2835SOL     OW 9403   0.658   6.160   1.528
 2835SOL    HW1 9404   0.605   6.173   1.612
 2835SOL    HW2 9405   0.618   6.215   1.455
 2836SOL     OW 9406   0.788   6.554   1.715
 2836SOL    HW1 9407   0.756   6.503   1.795
 2836SOL    HW2 9408   0.872   6.512   1.680
 2837SOL     OW 9409   4.896   4.331   2.357
 2837SOL    HW1 9410   4.855   4.311   2.446
 2837SOL    HW2 9411   4.964   4.404   2.367
 2838SOL     OW 9412   3.929   4.012   0.932
 2838SOL    HW1 9413   3.976   4.012   0.844
 2838SOL    HW2 9414   3.975   4.075   0.994
 2839SOL     OW 9415   6.856   2.202   2.777
 2839SOL    HW1 9416   6.786   2.259   2.820
 2839SOL    HW2 9417   6.891   2.136   2.843
 2840SOL     OW 9418   1.804   0.153   1.764
 2840SOL    HW1 9419   1.741   0.106   1.826
 2840SOL    HW2 9420   1.753   0.183   1.683
 2841SOL     OW 9421   6.760   1.252   6.174
 2841SOL    HW1 9422   6.710   1.179   6.127
 2841SOL    HW2 9423   6.777   1.327   6.110
 2842SOL     OW 9424   6.909   4.690   4.065
 2842SOL    HW1 9425   6.906   4.784   4.031
 2842SOL    HW2 9426   6.925   4.627   3.989
 2843SOL     OW 9427   2.086   2.417   3.359
 2843SOL    HW1 9428   2.080   2.435   3.261
 2843SOL    HW2 9429   2.170   2.365   3.378
 2844SOL     OW 9430   6.256   5.349   0.109
 2844SOL    HW1 9431   6.201   5.402   0.174
 2844SOL    HW2 9432   6.293   5.268   0.155
 2845SOL     OW 9433   5.856   3.251   2.337
 2845SOL    HW1 9434   5.949   3.278   2.311
 2845SOL    HW2 9435   5.792   3.325   2.316
 2846SOL     OW 9436   4.032   0.598   0.069
 2846SOL    HW1 9437   4.019   0.694   0.092
 2846SOL    HW2 9438   4.082   0.553   0.143
 2847SOL     OW 9439   5.492   4.247   3.094
 2847SOL    HW1 9440   5.430   4.278   3.022
 2847SOL    HW2 9441   5.581   4.224   3.054
 2848SOL     OW 9442   1.962   2.384   5.112
 2848SOL    HW1 9443   2.039   2.330   5.077
 2848SOL    HW2 9444   1.879   2.359   5.063
 2849SOL     OW 9445   4.130   0.554   0.592
 2849SOL    HW1 9446   4.090   0.572   0.682
 2849SOL    HW2 9447   4.230   0.549   0.600
 2850SOL     OW 9448   2.044   6.966   2.352
 2850SOL    HW1 9449   2.088   6.994   2.437
 2850SOL    HW2 9450   1.992   6.882   2.368
 2851SOL     OW 9451   5.329   2.326   5.946
 2851SOL    HW1 9452   5.320   2.257   5.875
 2851SOL    HW2 9453   5.238   2.352   5.979
 2852SOL     OW 9454   6.856   4.236   6.791
 2852SOL    HW1 9455   6.934   4.203   6.738
 2852SOL    HW2 9456   6.771   4.216   6.743
 2853SOL     OW 9457   1.918   2.149   6.229
 2853SOL    HW1 9458   1.850   2.154   6.302
 2853SOL    HW2 9459   1.936   2.240   6.193
 2854SOL     OW 9460   4.576   0.896   5.750
 2854SOL    HW1 9461   4.581   0.798   5.767
 2854SOL    HW2 9462   4.557   0.944   5.836
 2855SOL     OW 9463   1.946   1.896   5.717
 2855SOL    HW1 9464   1.959   1.991   5.747
 2855SOL    HW2 9465   2.010   1.837   5.767
 2856SOL     OW 9466   0.325   3.392   5.537
 2856SOL    HW1 9467   0.238   3.362   5.577
 2856SOL    HW2 9468   0.400   3.344   5.581
 2857SOL     OW 9469   1.670   2.860   1.646
 2857SOL    HW1 9470   1.708   2.771   1.672
 2857SOL    HW2 9471   1.730   2.904   1.580
 2858SOL     OW 9472   4.451   4.951   2.060
 2858SOL    HW1 9473   4.494   5.041   2.062
 2858SOL    HW2 9474   4.500   4.888   2.120
 2859SOL     OW 9475   6.092   6.806   0.137
 2859SOL    HW1 9476   6.038   6.783   0.218
 2859SOL    HW2 9477   6.049   6.767   0.056
 2860SOL     OW 9478   2.199   1.625   1.837
 2860SOL    HW1 9479   2.292   1.624   1.874
 2860SOL    HW2 9480   2.189   1.553   1.769
 2861SOL     OW 9481   3.200   5.217   6.052
 2861SOL    HW1 9482   3.248   5.177   5.974
 2861SOL    HW2 9483   3.106   5.240   6.026
 2862SOL     OW 9484   4.236   1.688   1.905
 2862SOL    HW1 9485   4.137   1.690   1.916
 2862SOL    HW2 9486   4.271   1.598   1.930
 2863SOL     OW 9487   4.475   1.618   6.817
 2863SOL    HW1 9488   4.503   1.559   6.741
 2863SOL    HW2 9489   4.442   1.561   6.893
 2864SOL     OW 9490   5.159   2.290   1.637
 2864SOL    HW1 9491   5.061   2.311   1.642
 2864SOL    HW2 9492   5.199   2.295   1.728
 2865SOL     OW 9493   4.134   6.438   4.650
 2865SOL    HW1 9494   4.198   6.462   4.577
 2865SOL    HW2 9495   4.186   6.409   4.731
 2866SOL     OW 9496   5.468   5.237   6.537
 2866SOL    HW1 9497   5.504   5.250   6.444
 2866SOL    HW2 9498   5.441   5.142   6.548
 2867SOL     OW 9499   6.006   6.290   2.645
 2867SOL    HW1 9500   6.048   6.380   2.659
 2867SOL    HW2 9501   5.915   6.289   2.687
 2868SOL     OW 9502   2.107   1.380   5.465
 2868SOL    HW1 9503   2.191   1.427   5.492
 2868SOL    HW2 9504   2.057   1.436   5.398
 2869SOL     OW 9505   0.043   1.071   2.884
 2869SOL    HW1 9506   0.083   1.105   2.969
 2869SOL    HW2 9507   6.990   1.003   2.905
 2870SOL     OW 9508   0.267   1.866   5.657
 2870SOL    HW1 9509   0.259   1.835   5.562
 2870SOL    HW2 9510   0.225   1.798   5.717
 2871SOL     OW 9511   6.366   1.084   6.842
 2871SOL    HW1 9512   6.351   1.026   6.762
 2871SOL    HW2 9513   6.396   1.175   6.813
 2872SOL     OW 9514   2.495   2.189   1.740
 2872SOL    HW1 9515   2.555   2.171   1.662
 2872SOL    HW2 9516   2.547   2.237   1.811
 2873SOL     OW 9517   0.169   5.726   2.348
 2873SOL    HW1 9518   0.180   5.824   2.360
 2873SOL    HW2 9519   0.239   5.678   2.401
 2874SOL     OW 9520   5.052   0.145   3.140
 2874SOL    HW1 9521   5.000   0.211   3.195
 2874SOL    HW2 9522   5.141   0.130   3.183
 2875SOL     OW 9523   5.279   0.565   1.911
 2875SOL    HW1 9524   5.259   0.597   2.004
 2875SOL    HW2 9525   5.231   0.479   1.895
 2876SOL     OW 9526   1.987   0.491   2.577
 2876SOL    HW1 9527   1.989   0.577   2.628
 2876SOL    HW2 9528   1.893   0.470   2.549
 2877SOL     OW 9529   2.521   1.372   5.211
 2877SOL    HW1 9530   2.444   1.436   5.206
 2877SOL    HW2 9531   2.540   1.350   5.307
 2878SOL     OW 9532   3.883   4.306   5.424
 2878SOL    HW1 9533   3.965   4.299   5.368
 2878SOL    HW2 9534   3.881   4.231   5.490
 2879SOL     OW 9535   4.997   4.758   6.445
 2879SOL    HW1 9536   5.026   4.734   6.538
 2879SOL    HW2 9537   4.967   4.853   6.444
 2880SOL     OW 9538   0.345   1.766   2.470
 2880SOL    HW1 9539   0.356   1.816   2.556
 2880SOL    HW2 9540   0.258   1.717   2.471
 2881SOL     OW 9541   4.386   6.039   6.574
 2881SOL    HW1 9542   4.303   5.996   6.537
 2881SOL    HW2 9543   4.372   6.061   6.670
 2882SOL     OW 9544   0.228   5.652   1.708
 2882SOL    HW1 9545   0.316   5.607   1.690
 2882SOL    HW2 9546   0.154   5.596   1.670
 2883SOL     OW 9547   6.099   0.180   3.337
 2883SOL    HW1 9548   6.090   0.274   3.304
 2883SOL    HW2 9549   6.161   0.179   3.416
 2884SOL     OW 9550   0.646   6.700   3.252
 2884SOL    HW1 9551   0.633   6.799   3.243
 2884SOL    HW2 9552   0.675   6.662   3.164
 2885SOL     OW 9553   1.899   3.852   3.675
 2885SOL    HW1 9554   1.875   3.943   3.642
 2885SOL    HW2 9555   1.994   3.831   3.650
 2886SOL     OW 9556   0.934   2.980   6.386
 2886SOL    HW1 9557   0.991   2.952   6.309
 2886SOL    HW2 9558   0.991   3.001   6.465
 2887SOL     OW 9559   0.454   6.838   5.605
 2887SOL    HW1 9560   0.543   6.870   5.573
 2887SOL    HW2 9561   0.383   6.903   5.580
 2888SOL     OW 9562   0.097   4.216   6.627
 2888SOL    HW1 9563   0.091   4.122   6.594
 2888SOL    HW2 9564   0.041   4.275   6.570
 2889SOL     OW 9565   3.111   6.279   2.532
 2889SOL    HW1 9566   3.152   6.200   2.578
 2889SOL    HW2 9567   3.015   6.288   2.560
 2890SOL     OW 9568   1.376   6.077   0.638
 2890SOL    HW1 9569   1.463   6.030   0.655
 2890SOL    HW2 9570   1.335   6.041   0.554
 2891SOL     OW 9571   0.615   4.806   3.262
 2891SOL    HW1 9572   0.687   4.773   3.323
 2891SOL    HW2 9573   0.527   4.768   3.290
 2892SOL     OW 9574   6.164   3.540   1.081
 2892SOL    HW1 9575   6.118   3.506   1.164
 2892SOL    HW2 9576   6.161   3.640   1.080
 2893SOL     OW 9577   0.186   5.804   4.546
 2893SOL    HW1 9578   0.242   5.877   4.508
 2893SOL    HW2 9579   0.158   5.742   4.472
 2894SOL     OW 9580   0.457   2.994   1.943
 2894SOL    HW1 9581   0.491   2.928   1.876
 2894SOL    HW2 9582   0.375   2.958   1.986
 2895SOL     OW 9583   5.054   1.440   5.520
 2895SOL    HW1 9584   5.154   1.436   5.532
 2895SOL    HW2 9585   5.028   1.377   5.447
 2896SOL     OW 9586   4.426   6.744   5.856
 2896SOL    HW1 9587   4.398   6.804   5.781
 2896SOL    HW2 9588   4.407   6.649   5.830
 2897SOL     OW 9589   3.893   4.927   3.022
 2897SOL    HW1 9590   3.909   5.026   3.029
 2897SOL    HW2 9591   3.801   4.911   2.986
 2898SOL     OW 9592   4.507   4.549   4.128
 2898SOL    HW1 9593   4.477   4.573   4.221
 2898SOL    HW2 9594   4.437   4.577   4.063
 2899SOL     OW 9595   0.673   2.114   0.275
 2899SOL    HW1 9596   0.769   2.134   0.295
 2899SOL    HW2 9597   0.667   2.065   0.188
 2900SOL     OW 9598   2.746   4.138   6.275
 2900SOL    HW1 9599   2.783   4.048   6.298
 2900SOL    HW2 9600   2.719   4.139   6.179
 2901SOL     OW 9601   2.011   4.566   3.167
 2901SOL    HW1 9602   2.015   4.634   3.241
 2901SOL    HW2 9603   1.919   4.566   3.127
 2902SOL     OW 9604   5.887   5.178   3.281
 2902SOL    HW1 9605   5.799   5.223   3.300
 2902SOL    HW2 9606   5.893   5.093   3.333
 2903SOL     OW 9607   3.593   0.253   0.569
 2903SOL    HW1 9608   3.524   0.272   0.500
 2903SOL    HW2 9609   3.638   0.338   0.596
 2904SOL     OW 9610   2.188   4.714   3.993
 2904SOL    HW1 9611   2.245   4.779   4.045
 2904SOL    HW2 9612   2.118   4.677   4.054
 2905SOL     OW 9613   1.435   3.201   4.590
 2905SOL    HW1 9614   1.350   3.148   4.586
 2905SOL    HW2 9615   1.458   3.236   4.499
 2906SOL     OW 9616   4.852   4.955   2.594
 2906SOL    HW1 9617   4.836   4.881   2.528
 2906SOL    HW2 9618   4.764   4.989   2.627
 2907SOL     OW 9619   0.143   1.493   3.501
 2907SOL    HW1 9620   0.234   1.488   3.459
 2907SOL    HW2 9621   0.073   1.482   3.431
 2908SOL     OW 9622   5.093   6.656   3.728
 2908SOL    HW1 9623   4.998   6.649   3.759
 2908SOL    HW2 9624   5.122   6.568   3.691
 2909SOL     OW 9625   1.475   5.336   3.729
 2909SOL    HW1 9626   1.395   5.375   3.776
 2909SOL    HW2 9627   1.548   5.403   3.726
 2910SOL     OW 9628   5.419   1.030   4.202
 2910SOL    HW1 9629   5.426   1.130   4.212
 2910SOL    HW2 9630   5.491   0.998   4.141
 2911SOL     OW 9631   1.509   5.873   3.705
 2911SOL    HW1 9632   1.595   5.893   3.657
 2911SOL    HW2 9633   1.462   5.799   3.658
 2912SOL     OW 9634   5.442   6.766   0.253
 2912SOL    HW1 9635   5.516   6.794   0.313
 2912SOL    HW2 9636   5.428   6.667   0.263
 2913SOL     OW 9637   3.246   5.171   2.178
 2913SOL    HW1 9638   3.282   5.191   2.087
 2913SOL    HW2 9639   3.246   5.072   2.193
 2914SOL     OW 9640   6.696   6.111   6.052
 2914SOL    HW1 9641   6.731   6.150   5.967
 2914SOL    HW2 9642   6.600   6.086   6.041
 2915SOL     OW 9643   3.622   1.808   3.926
 2915SOL    HW1 9644   3.579   1.893   3.894
 2915SOL    HW2 9645   3.552   1.743   3.954
 2916SOL     OW 9646   1.378   5.601   0.416
 2916SOL    HW1 9647   1.374   5.661   0.337
 2916SOL    HW2 9648   1.474   5.586   0.442
 2917SOL     OW 9649   2.558   0.497   2.970
 2917SOL    HW1 9650   2.472   0.448   2.953
 2917SOL    HW2 9651   2.566   0.514   3.069
 2918SOL     OW 9652   6.251   4.635   5.097
 2918SOL    HW1 9653   6.261   4.576   5.177
 2918SOL    HW2 9654   6.163   4.682   5.101
 2919SOL     OW 9655   5.677   0.756   2.370
 2919SOL    HW1 9656   5.775   0.771   2.378
 2919SOL    HW2 9657   5.630   0.799   2.447
 2920SOL     OW 9658   3.123   1.171   1.518
 2920SOL    HW1 9659   3.112   1.247   1.581
 2920SOL    HW2 9660   3.201   1.188   1.458
 2921SOL     OW 9661   0.678   6.927   4.575
 2921SOL    HW1 9662   0.650   6.886   4.488
 2921SOL    HW2 9663   0.774   6.905   4.592
 2922SOL     OW 9664   4.516   0.070   1.205
 2922SOL    HW1 9665   4.420   0.083   1.180
 2922SOL    HW2 9666   4.574   0.127   1.147
 2923SOL     OW 9667   6.126   4.612   2.915
 2923SOL    HW1 9668   6.073   4.632   2.998
 2923SOL    HW2 9669   6.223   4.611   2.937
 2924SOL     OW 9670   6.392   1.975   5.584
 2924SOL    HW1 9671   6.374   2.073   5.599
 2924SOL    HW2 9672   6.315   1.921   5.618
 2925SOL     OW 9673   4.831   1.949   2.040
 2925SOL    HW1 9674   4.801   2.032   2.086
 2925SOL    HW2 9675   4.840   1.875   2.106
 2926SOL     OW 9676   5.962   1.559   5.528
 2926SOL    HW1 9677   5.943   1.462   5.520
 2926SOL    HW2 9678   5.906   1.598   5.602
 2927SOL     OW 9679   1.592   3.956   1.466
 2927SOL    HW1 9680   1.495   3.981   1.468
 2927SOL    HW2 9681   1.639   4.000   1.542
 2928SOL     OW 9682   0.826   0.306   0.019
 2928SOL    HW1 9683   0.794   0.301   0.113
 2928SOL    HW2 9684   0.850   0.401   7.015
 2929SOL     OW 9685   1.402   1.956   6.426
 2929SOL    HW1 9686   1.400   1.994   6.334
 2929SOL    HW2 9687   1.318   1.905   6.443
 2930SOL     OW 9688   5.293   6.798   5.316
 2930SOL    HW1 9689   5.243   6.794   5.229
 2930SOL    HW2 9690   5.250   6.865   5.376
 2931SOL     OW 9691   5.467   4.655   6.736
 2931SOL    HW1 9692   5.420   4.718   6.797
 2931SOL    HW2 9693   5.529   4.597   6.790
 2932SOL     OW 9694   1.186   5.261   2.326
 2932SOL    HW1 9695   1.259   5.287   2.389
 2932SOL    HW2 9696   1.173   5.162   2.329
 2933SOL     OW 9697   0.786   5.633   2.859
 2933SOL    HW1 9698   0.715   5.701   2.839
 2933SOL    HW2 9699   0.768   5.592   2.948
 2934SOL     OW 9700   5.319   1.089   0.350
 2934SOL    HW1 9701   5.414   1.061   0.359
 2934SOL    HW2 9702   5.306   1.138   0.264
 2935SOL     OW 9703   0.312   2.572   6.846
 2935SOL    HW1 9704   0.281   2.666   6.858
 2935SOL    HW2 9705   0.234   2.514   6.823
 2936SOL     OW 9706   4.130   6.619   0.882
 2936SOL    HW1 9707   4.217   6.659   0.912
 2936SOL    HW2 9708   4.077   6.688   0.833
 2937SOL     OW 9709   5.385   4.477   1.569
 2937SOL    HW1 9710   5.347   4.436   1.652
 2937SOL    HW2 9711   5.311   4.507   1.510
 2938SOL     OW 9712   4.583   5.450   6.682
 2938SOL    HW1 9713   4.541   5.502   6.758
 2938SOL    HW2 9714   4.512   5.399   6.634
 2939SOL     OW 9715   2.143   0.818   2.461
 2939SOL    HW1 9716   2.199   0.824   2.543
 2939SOL    HW2 9717   2.202   0.826   2.380
 2940SOL     OW 9718   5.871   4.591   5.413
 2940SOL    HW1 9719   5.910   4.548   5.495
 2940SOL    HW2 9720   5.821   4.523   5.360
 2941SOL     OW 9721   1.123   2.331   4.532
 2941SOL    HW1 9722   1.157   2.425   4.527
 2941SOL    HW2 9723   1.194   2.273   4.573
 2942SOL     OW 9724   3.238   2.517   0.646
 2942SOL    HW1 9725   3.295   2.454   0.592
 2942SOL    HW2 9726   3.191   2.579   0.584
 2943SOL     OW 9727   5.692   4.312   3.658
 2943SOL    HW1 9728   5.716   4.235   3.598
 2943SOL    HW2 9729   5.593   4.314   3.671
 2944SOL     OW 9730   2.501   6.020   4.430
 2944SOL    HW1 9731   2.527   5.931   4.466
 2944SOL    HW2 9732   2.410   6.013   4.388
 2945SOL     OW 9733   3.090   3.440   3.132
 2945SOL    HW1 9734   3.126   3.513   3.074
 2945SOL    HW2 9735   3.034   3.479   3.205
 2946SOL     OW 9736   1.234   4.724   5.650
 2946SOL    HW1 9737   1.276   4.781   5.580
 2946SOL    HW2 9738   1.247   4.766   5.740
 2947SOL     OW 9739   0.563   4.371   1.288
 2947SOL    HW1 9740   0.577   4.365   1.189
 2947SOL    HW2 9741   0.484   4.429   1.308
 2948SOL     OW 9742   1.011   3.848   4.551
 2948SOL    HW1 9743   0.912   3.859   4.542
 2948SOL    HW2 9744   1.037   3.755   4.526
 2949SOL     OW 9745   2.388   5.222   0.801
 2949SOL    HW1 9746   2.291   5.201   0.794
 2949SOL    HW2 9747   2.407   5.310   0.758
 2950SOL     OW 9748   5.271   5.138   4.006
 2950SOL    HW1 9749   5.259   5.236   4.026
 2950SOL    HW2 9750   5.190   5.104   3.959
 2951SOL     OW 9751   5.495   1.411   2.165
 2951SOL    HW1 9752   5.428   1.468   2.118
 2951SOL    HW2 9753   5.450   1.327   2.196
 2952SOL     OW 9754   6.877   4.900   4.612
 2952SOL    HW1 9755   6.832   4.820   4.652
 2952SOL    HW2 9756   6.958   4.871   4.561
 2953SOL     OW 9757   5.679   3.706   2.228
 2953SOL    HW1 9758   5.620   3.781   2.198
 2953SOL    HW2 9759   5.634   3.657   2.303
 2954SOL     OW 9760   0.787   4.779   2.071
 2954SOL    HW1 9761   0.803   4.681   2.078
 2954SOL    HW2 9762   0.810   4.810   1.979
 2955SOL     OW 9763   0.673   3.695   1.655
 2955SOL    HW1 9764   0.750   3.744   1.613
 2955SOL    HW2 9765   0.656   3.731   1.746
 2956SOL     OW 9766   5.751   5.727   3.099
 2956SOL    HW1 9767   5.674   5.744   3.038
 2956SOL    HW2 9768   5.719   5.725   3.194
 2957SOL     OW 9769   5.731   4.130   1.659
 2957SOL    HW1 9770   5.801   4.060   1.648
 2957SOL    HW2 9771   5.761   4.214   1.615
 2958SOL     OW 9772   2.402   4.427   3.067
 2958SOL    HW1 9773   2.401   4.465   3.159
 2958SOL    HW2 9774   2.440   4.495   3.004
 2959SOL     OW 9775   5.012   3.595   0.496
 2959SOL    HW1 9776   5.072   3.515   0.491
 2959SOL    HW2 9777   5.050   3.668   0.439
 2960SOL     OW 9778   2.997   0.621   0.516
 2960SOL    HW1 9779   2.902   0.621   0.485
 2960SOL    HW2 9780   3.027   0.716   0.530
 2961SOL     OW 9781   5.470   3.851   2.931
 2961SOL    HW1 9782   5.466   3.761   2.974
 2961SOL    HW2 9783   5.450   3.842   2.833
 2962SOL     OW 9784   4.078   6.589   3.315
 2962SOL    HW1 9785   4.130   6.581   3.230
 2962SOL    HW2 9786   4.049   6.498   3.344
 2963SOL     OW 9787   1.949   1.064   5.750
 2963SOL    HW1 9788   1.996   1.134   5.804
 2963SOL    HW2 9789   1.866   1.102   5.712
 2964SOL     OW 9790   0.320   0.964   4.062
 2964SOL    HW1 9791   0.397   1.028   4.070
 2964SOL    HW2 9792   0.288   0.963   3.967
 2965SOL     OW 9793   0.333   0.856   4.510
 2965SOL    HW1 9794   0.424   0.818   4.528
 2965SOL    HW2 9795   0.269   0.822   4.578
 2966SOL     OW 9796   4.702   5.733   3.282
 2966SOL    HW1 9797   4.756   5.817   3.292
 2966SOL    HW2 9798   4.723   5.671   3.357
 2967SOL     OW 9799   6.219   0.597   4.893
 2967SOL    HW1 9800   6.155   0.611   4.818
 2967SOL    HW2 9801   6.194   0.515   4.944
 2968SOL     OW 9802   0.894   2.965   0.482
 2968SOL    HW1 9803   0.805   2.923   0.464
 2968SOL    HW2 9804   0.932   3.000   0.396
 2969SOL     OW 9805   4.904   2.356   4.274
 2969SOL    HW1 9806   4.961   2.276   4.293
 2969SOL    HW2 9807   4.807   2.329   4.280
 2970SOL     OW 9808   2.500   3.318   5.845
 2970SOL    HW1 9809   2.431   3.250   5.868
 2970SOL    HW2 9810   2.499   3.335   5.746
 2971SOL     OW 9811   5.273   4.584   7.016
 2971SOL    HW1 9812   5.200   4.552   0.058
 2971SOL    HW2 9813   5.360   4.581   0.047
 2972SOL     OW 9814   6.476   4.651   6.511
 2972SOL    HW1 9815   6.412   4.578   6.534
 2972SOL    HW2 9816   6.533   4.623   6.434
 2973SOL     OW 9817   5.316   6.398   2.104
 2973SOL    HW1 9818   5.366   6.442   2.179
 2973SOL    HW2 9819   5.312   6.460   2.026
 2974SOL     OW 9820   0.823   4.331   3.755
 2974SOL    HW1 9821   0.902   4.386   3.729
 2974SOL    HW2 9822   0.845   4.278   3.838
 2975SOL     OW 9823   5.251   3.557   3.844
 2975SOL    HW1 9824   5.224   3.639   3.894
 2975SOL    HW2 9825   5.285   3.583   3.753
 2976SOL     OW 9826   3.807   2.050   2.669
 2976SOL    HW1 9827   3.793   2.058   2.571
 2976SOL    HW2 9828   3.728   2.090   2.717
 2977SOL     OW 9829   2.480   7.014   2.478
 2977SOL    HW1 9830   2.398   6.987   2.530
 2977SOL    HW2 9831   2.552   6.947   2.494
 2978SOL     OW 9832   4.414   5.067   0.274
 2978SOL    HW1 9833   4.344   5.010   0.232
 2978SOL    HW2 9834   4.402   5.162   0.246
 2979SOL     OW 9835   3.350   0.670   3.886
 2979SOL    HW1 9836   3.413   0.747   3.880
 2979SOL    HW2 9837   3.393   0.588   3.849
 2980SOL     OW 9838   1.306   5.769   4.117
 2980SOL    HW1 9839   1.287   5.719   4.033
 2980SOL    HW2 9840   1.299   5.707   4.196
 2981SOL     OW 9841   2.540   1.203   6.264
 2981SOL    HW1 9842   2.518   1.233   6.171
 2981SOL    HW2 9843   2.467   1.144   6.298
 2982SOL     OW 9844   3.147   5.545   2.004
 2982SOL    HW1 9845   3.061   5.530   1.957
 2982SOL    HW2 9846   3.131   5.548   2.103
 2983SOL     OW 9847   6.828   1.842   2.493
 2983SOL    HW1 9848   6.886   1.923   2.505
 2983SOL    HW2 9849   6.813   1.825   2.396
 2984SOL     OW 9850   5.535   4.686   0.571
 2984SOL    HW1 9851   5.475   4.708   0.495
 2984SOL    HW2 9852   5.597   4.612   0.544
 2985SOL     OW 9853   1.690   2.648   4.990
 2985SOL    HW1 9854   1.782   2.673   4.961
 2985SOL    HW2 9855   1.695   2.591   5.072
 2986SOL     OW 9856   3.578   4.072   3.348
 2986SOL    HW1 9857   3.641   4.008   3.394
 2986SOL    HW2 9858   3.525   4.122   3.417
 2987SOL     OW 9859   0.374   1.678   3.975
 2987SOL    HW1 9860   0.473   1.689   3.961
 2987SOL    HW2 9861   0.333   1.638   3.893
 2988SOL     OW 9862   1.700   5.839   2.948
 2988SOL    HW1 9863   1.720   5.796   3.036
 2988SOL    HW2 9864   1.686   5.767   2.879
 2989SOL     OW 9865   5.383   5.830   5.911
 2989SOL    HW1 9866   5.409   5.914   5.960
 2989SOL    HW2 9867   5.299   5.846   5.860
 2990SOL     OW 9868   3.536   2.067   4.515
 2990SOL    HW1 9869   3.443   2.099   4.535
 2990SOL    HW2 9870   3.587   2.057   4.600
 2991SOL     OW 9871   6.703   3.583   5.306
 2991SOL    HW1 9872   6.752   3.502   5.273
 2991SOL    HW2 9873   6.666   3.565   5.397
 2992SOL     OW 9874   1.977   6.116   4.419
 2992SOL    HW1 9875   1.931   6.032   4.445
 2992SOL    HW2 9876   1.909   6.186   4.397
 2993SOL     OW 9877   0.884   4.875   1.055
 2993SOL    HW1 9878   0.960   4.925   1.014
 2993SOL    HW2 9879   0.816   4.939   1.089
 2994SOL     OW 9880   3.938   6.908   6.680
 2994SOL    HW1 9881   3.918   6.876   6.587
 2994SOL    HW2 9882   3.895   6.847   6.746
 2995SOL     OW 9883   2.825   1.481   6.203
 2995SOL    HW1 9884   2.738   1.433   6.188
 2995SOL    HW2 9885   2.878   1.480   6.118
 2996SOL     OW 9886   1.431   1.444   4.650
 2996SOL    HW1 9887   1.467   1.365   4.699
 2996SOL    HW2 9888   1.360   1.488   4.706
 2997SOL     OW 9889   5.718   0.037   3.200
 2997SOL    HW1 9890   5.635   7.001   3.195
 2997SOL    HW2 9891   5.795   6.996   3.225
 2998SOL     OW 9892   4.638   0.109   3.938
 2998SOL    HW1 9893   4.703   0.034   3.924
 2998SOL    HW2 9894   4.687   0.196   3.937
 2999SOL     OW 9895   2.376   5.211   4.789
 2999SOL    HW1 9896   2.407   5.116   4.795
 2999SOL    HW2 9897   2.313   5.230   4.865
 3000SOL     OW 9898   3.361   3.523   6.437
 3000SOL    HW1 9899   3.407   3.576   6.507
 3000SOL    HW2 9900   3.264   3.514   6.461
 3001SOL     OW 9901   6.894   0.309   6.040
 3001SOL    HW1 9902   6.912   0.397   6.084
 3001SOL    HW2 9903   6.976   0.278   5.992
 3002SOL     OW 9904   2.953   1.733   6.822
 3002SOL    HW1 9905   3.005   1.705   6.740
 3002SOL    HW2 9906   3.017   1.767   6.891
 3003SOL     OW 9907   1.506   6.789   0.637
 3003SOL    HW1 9908   1.420   6.794   0.586
 3003SOL    HW2 9909   1.497   6.840   0.723
 3004SOL     OW 9910   0.513   4.189   3.592
 3004SOL    HW1 9911   0.552   4.279   3.575
 3004SOL    HW2 9912   0.587   4.122   3.605
 3005SOL     OW 9913   1.996   1.874   0.533
 3005SOL    HW1 9914   1.945   1.841   0.454
 3005SOL    HW2 9915   2.027   1.796   0.588
 3006SOL     OW 9916   5.437   1.383   4.744
 3006SOL    HW1 9917   5.384   1.363   4.662
 3006SOL    HW2 9918   5.459   1.297   4.791
 3007SOL     OW 9919   5.235   4.343   0.341
 3007SOL    HW1 9920   5.147   4.300   0.362
 3007SOL    HW2 9921   5.310   4.285   0.373
 3008SOL     OW 9922   3.695   2.342   5.841
 3008SOL    HW1 9923   3.732   2.346   5.748
 3008SOL    HW2 9924   3.768   2.363   5.906
 3009SOL     OW 9925   0.087   1.677   2.624
 3009SOL    HW1 9926   0.071   1.594   2.679
 3009SOL    HW2 9927   0.109   1.753   2.685
 3010SOL     OW 9928   3.763   5.358   3.550
 3010SOL    HW1 9929   3.849   5.349   3.600
 3010SOL    HW2 9930   3.759   5.288   3.479
 3011SOL     OW 9931   6.365   1.634   2.492
 3011SOL    HW1 9932   6.446   1.689   2.512
 3011SOL    HW2 9933   6.332   1.656   2.400
 3012SOL     OW 9934   2.076   3.340   6.115
 3012SOL    HW1 9935   2.095   3.407   6.042
 3012SOL    HW2 9936   1.993   3.367   6.164
 3013SOL     OW 9937   5.255   5.482   3.836
 3013SOL    HW1 9938   5.258   5.470   3.935
 3013SOL    HW2 9939   5.347   5.505   3.803
 3014SOL     OW 9940   4.498   2.264   4.687
 3014SOL    HW1 9941   4.430   2.191   4.691
 3014SOL    HW2 9942   4.463   2.339   4.629
 3015SOL     OW 9943   3.120   1.719   0.232
 3015SOL    HW1 9944   3.061   1.747   0.156
 3015SOL    HW2 9945   3.178   1.796   0.258
 3016SOL     OW 9946   2.538   6.242   3.849
 3016SOL    HW1 9947   2.619   6.296   3.823
 3016SOL    HW2 9948   2.538   6.156   3.798
 3017SOL     OW 9949   6.148   5.274   2.267
 3017SOL    HW1 9950   6.176   5.348   2.329
 3017SOL    HW2 9951   6.100   5.203   2.319
 3018SOL     OW 9952   2.742   0.118   5.984
 3018SOL    HW1 9953   2.838   0.092   6.000
 3018SOL    HW2 9954   2.684   0.037   5.991
 3019SOL     OW 9955   0.737   6.617   0.292
 3019SOL    HW1 9956   0.643   6.610   0.327
 3019SOL    HW2 9957   0.765   6.529   0.255
 3020SOL     OW 9958   3.745   2.643   1.627
 3020SOL    HW1 9959   3.805   2.701   1.683
 3020SOL    HW2 9960   3.776   2.548   1.632
 3021SOL     OW 9961   2.955   6.998   6.190
 3021SOL    HW1 9962   2.965   6.923   6.124
 3021SOL    HW2 9963   2.865   6.994   6.232
 3022SOL     OW 9964   4.035   5.243   4.967
 3022SOL    HW1 9965   4.092   5.183   4.911
 3022SOL    HW2 9966   3.940   5.235   4.938
 3023SOL     OW 9967   4.249   6.726   2.835
 3023SOL    HW1 9968   4.223   6.800   2.898
 3023SOL    HW2 9969   4.216   6.747   2.743
 3024SOL     OW 9970   4.871   0.377   4.827
 3024SOL    HW1 9971   4.876   0.408   4.922
 3024SOL    HW2 9972   4.900   0.452   4.767
 3025SOL     OW 9973   4.166   6.699   0.552
 3025SOL    HW1 9974   4.115   6.732   0.632
 3025SOL    HW2 9975   4.123   6.615   0.518
 3026SOL     OW 9976   1.395   0.216   6.300
 3026SOL    HW1 9977   1.454   0.232   6.378
 3026SOL    HW2 9978   1.422   0.276   6.224
 3027SOL     OW 9979   3.962   1.280   2.998
 3027SOL    HW1 9980   4.047   1.273   2.946
 3027SOL    HW2 9981   3.911   1.361   2.970
 3028SOL     OW 9982   1.611   3.655   6.272
 3028SOL    HW1 9983   1.549   3.578   6.259
 3028SOL    HW2 9984   1.577   3.734   6.220
 3029SOL     OW 9985   0.232   2.243   5.355
 3029SOL    HW1 9986   0.162   2.295   5.405
 3029SOL    HW2 9987   0.311   2.229   5.415
 3030SOL     OW 9988   0.610   3.474   0.144
 3030SOL    HW1 9989   0.538   3.524   0.096
 3030SOL    HW2 9990   0.657   3.535   0.207
 3031SOL     OW 9991   0.139   4.248   1.373
 3031SOL    HW1 9992   0.040   4.244   1.362
 3031SOL    HW2 9993   0.181   4.278   1.287
 3032SOL     OW 9994   2.872   6.275   1.481
 3032SOL    HW1 9995   2.949   6.222   1.443
 3032SOL    HW2 9996   2.792   6.264   1.422
 3033SOL     OW 9997   5.587   1.931   1.403
 3033SOL    HW1 9998   5.628   2.020   1.383
 3033SOL    HW2 9999   5.489   1.943   1.420
 3034SOL     OW10000   1.606   6.432   2.845
 3034SOL    HW110001   1.682   6.370   2.866
 3034SOL    HW210002   1.619   6.473   2.755
 3035SOL     OW10003   0.211   2.802   6.891
 3035SOL    HW110004   0.172   2.823   6.981
 3035SOL    HW210005   0.305   2.835   6.887
 3036SOL     OW10006   2.215   1.851   6.301
 3036SOL    HW110007   2.268   1.935   6.301
 3036SOL    HW210008   2.179   1.835   6.393
 3037SOL     OW10009   5.888   5.892   6.092
 3037SOL    HW110010   5.827   5.867   6.167
 3037SOL    HW210011   5.982   5.891   6.124
 3038SOL     OW10012   4.796   5.980   5.770
 3038SOL    HW110013   4.754   5.906   5.823
 3038SOL    HW210014   4.824   6.054   5.832
 3039SOL     OW10015   7.015   3.400   0.947
 3039SOL    HW110016   0.056   3.366   1.020
 3039SOL    HW210017   0.048   3.398   0.860
 3040SOL     OW10018   3.761   3.602   6.054
 3040SOL    HW110019   3.690   3.559   6.111
 3040SOL    HW210020   3.738   3.698   6.040
 3041SOL     OW10021   2.180   3.021   4.647
 3041SOL    HW110022   2.173   3.114   4.684
 3041SOL    HW210023   2.213   3.026   4.552
 3042SOL     OW10024   5.324   5.631   2.572
 3042SOL    HW110025   5.262   5.693   2.620
 3042SOL    HW210026   5.361   5.676   2.491
 3043SOL     OW10027   2.717   4.212   1.663
 3043SOL    HW110028   2.701   4.114   1.664
 3043SOL    HW210029   2.756   4.239   1.575
 3044SOL     OW10030   3.504   4.693   5.626
 3044SOL    HW110031   3.576   4.653   5.569
 3044SOL    HW210032   3.545   4.758   5.690
 3045SOL     OW10033   5.116   6.904   3.575
 3045SOL    HW110034   5.036   6.876   3.522
 3045SOL    HW210035   5.137   6.834   3.643
 3046SOL     OW10036   2.385   1.159   5.700
 3046SOL    HW110037   2.323   1.215   5.756
 3046SOL    HW210038   2.332   1.108   5.632
 3047SOL     OW10039   5.485   0.379   1.850
 3047SOL    HW110040   5.566   0.423   1.812
 3047SOL    HW210041   5.413   0.448   1.863
 3048SOL     OW10042   3.825   2.389   1.670
 3048SOL    HW110043   3.745   2.367   1.724
 3048SOL    HW210044   3.908   2.375   1.725
 3049SOL     OW10045   1.546   0.139   2.614
 3049SOL    HW110046   1.475   0.137   2.544
 3049SOL    HW210047   1.559   0.047   2.652
 3050SOL     OW10048   3.618   1.334   2.209
 3050SOL    HW110049   3.552   1.266   2.177
 3050SOL    HW210050   3.711   1.301   2.191
 3051SOL     OW10051   1.622   5.470   6.249
 3051SOL    HW110052   1.630   5.442   6.153
 3051SOL    HW210053   1.664   5.400   6.307
 3052SOL     OW10054   5.182   5.227   2.298
 3052SOL    HW110055   5.098   5.261   2.255
 3052SOL    HW210056   5.157   5.167   2.374
 3053SOL     OW10057   6.684   2.120   0.688
 3053SOL    HW110058   6.775   2.091   0.659
 3053SOL    HW210059   6.693   2.186   0.763
 3054SOL     OW10060   6.552   2.331   1.166
 3054SOL    HW110061   6.514   2.418   1.197
 3054SOL    HW210062   6.488   2.257   1.189
 3055SOL     OW10063   4.717   0.803   4.876
 3055SOL    HW110064   4.630   0.776   4.918
 3055SOL    HW210065   4.698   0.855   4.793
 3056SOL     OW10066   6.616   0.348   5.605
 3056SOL    HW110067   6.659   0.418   5.548
 3056SOL    HW210068   6.686   0.295   5.652
 3057SOL     OW10069   4.785   6.110   2.560
 3057SOL    HW110070   4.701   6.096   2.612
 3057SOL    HW210071   4.775   6.073   2.468
 3058SOL     OW10072   6.930   4.703   1.247
 3058SOL    HW110073   6.984   4.697   1.331
 3058SOL    HW210074   6.882   4.791   1.245
 3059SOL     OW10075   2.841   2.031   4.092
 3059SOL    HW110076   2.859   2.102   4.161
 3059SOL    HW210077   2.908   2.039   4.018
 3060SOL     OW10078   1.555   5.008   0.529
 3060SOL    HW110079   1.469   5.026   0.482
 3060SOL    HW210080   1.537   4.965   0.618
 3061SOL     OW10081   0.393   6.477   5.964
 3061SOL    HW110082   0.466   6.517   6.021
 3061SOL    HW210083   0.424   6.472   5.869
 3062SOL     OW10084   2.045   7.008   0.387
 3062SOL    HW110085   2.079   0.029   0.301
 3062SOL    HW210086   2.044   0.061   0.457
 3063SOL     OW10087   2.065   4.854   2.193
 3063SOL    HW110088   1.993   4.916   2.225
 3063SOL    HW210089   2.145   4.861   2.253
 3064SOL     OW10090   4.833   3.643   1.946
 3064SOL    HW110091   4.777   3.665   1.866
 3064SOL    HW210092   4.907   3.710   1.955
 3065SOL     OW10093   1.875   1.614   0.147
 3065SOL    HW110094   1.909   1.529   0.187
 3065SOL    HW210095   1.921   1.631   0.060
 3066SOL     OW10096   4.802   4.698   0.684
 3066SOL    HW110097   4.703   4.698   0.702
 3066SOL    HW210098   4.849   4.752   0.754
 3067SOL     OW10099   4.007   1.012   5.831
 3067SOL    HW110100   3.952   0.957   5.768
 3067SOL    HW210101   4.104   0.995   5.815
 3068SOL     OW10102   6.435   6.870   0.646
 3068SOL    HW110103   6.396   6.952   0.687
 3068SOL    HW210104   6.477   6.893   0.559
 3069SOL     OW10105   6.356   5.789   1.368
 3069SOL    HW110106   6.275   5.826   1.322
 3069SOL    HW210107   6.402   5.862   1.419
 3070SOL     OW10108   3.064   1.439   0.132
 3070SOL    HW110109   3.119   1.440   0.215
 3070SOL    HW210110   3.000   1.516   0.134
 3071SOL     OW10111   6.766   6.369   3.004
 3071SOL    HW110112   6.682   6.400   2.959
 3071SOL    HW210113   6.845   6.411   2.961
 3072SOL     OW10114   2.342   6.023   6.279
 3072SOL    HW110115   2.312   5.947   6.337
 3072SOL    HW210116   2.406   6.081   6.329
 3073SOL     OW10117   6.335   3.472   4.792
 3073SOL    HW110118   6.389   3.418   4.728
 3073SOL    HW210119   6.274   3.533   4.742
 3074SOL     OW10120   6.031   3.922   1.227
 3074SOL    HW110121   5.938   3.959   1.230
 3074SOL    HW210122   6.045   3.861   1.305
 3075SOL     OW10123   2.890   5.560   1.573
 3075SOL    HW110124   2.925   5.503   1.498
 3075SOL    HW210125   2.808   5.517   1.611
 3076SOL     OW10126   6.603   0.551   3.687
 3076SOL    HW110127   6.567   0.509   3.603
 3076SOL    HW210128   6.616   0.649   3.672
 3077SOL     OW10129   6.042   4.705   1.276
 3077SOL    HW110130   6.012   4.717   1.371
 3077SOL    HW210131   5.994   4.769   1.217
 3078SOL     OW10132   0.381   2.654   2.990
 3078SOL    HW110133   0.429   2.742   2.987
 3078SOL    HW210134   0.347   2.637   3.082
 3079SOL     OW10135   2.493   2.540   2.622
 3079SOL    HW110136   2.441   2.623   2.643
 3079SOL    HW210137   2.534   2.549   2.531
 3080SOL     OW10138   5.428   5.006   2.439
 3080SOL    HW110139   5.425   4.916   2.482
 3080SOL    HW210140   5.363   5.009   2.362
 3081SOL     OW10141   0.934   2.667   5.695
 3081SOL    HW110142   0.948   2.710   5.605
 3081SOL    HW210143   0.897   2.735   5.758
 3082SOL     OW10144   2.227   5.560   3.799
 3082SOL    HW110145   2.176   5.514   3.872
 3082SOL    HW210146   2.323   5.535   3.806
 3083SOL     OW10147   2.981   6.391   3.838
 3083SOL    HW110148   2.981   6.491   3.837
 3083SOL    HW210149   2.931   6.358   3.918
 3084SOL     OW10150   6.412   3.735   4.244
 3084SOL    HW110151   6.476   3.790   4.190
 3084SOL    HW210152   6.459   3.694   4.321
 3085SOL     OW10153   5.630   4.677   0.223
 3085SOL    HW110154   5.712   4.654   0.275
 3085SOL    HW210155   5.652   4.748   0.156
 3086SOL     OW10156   5.097   1.301   1.441
 3086SOL    HW110157   5.094   1.211   1.487
 3086SOL    HW210158   5.029   1.303   1.368
 3087SOL     OW10159   1.563   6.142   4.148
 3087SOL    HW110160   1.532   6.059   4.103
 3087SOL    HW210161   1.658   6.131   4.178
 3088SOL     OW10162   2.203   4.820   5.118
 3088SOL    HW110163   2.179   4.844   5.024
 3088SOL    HW210164   2.302   4.813   5.126
 3089SOL     OW10165   2.210   2.610   5.715
 3089SOL    HW110166   2.153   2.537   5.678
 3089SOL    HW210167   2.152   2.676   5.764
 3090SOL     OW10168   2.282   1.955   1.599
 3090SOL    HW110169   2.197   1.902   1.601
 3090SOL    HW210170   2.299   1.995   1.689
 3091SOL     OW10171   2.097   0.358   1.366
 3091SOL    HW110172   2.170   0.391   1.425
 3091SOL    HW210173   2.017   0.418   1.376
 3092SOL     OW10174   5.215   1.433   0.035
 3092SOL    HW110175   5.180   1.365   0.099
 3092SOL    HW210176   5.307   1.461   0.063
 3093SOL     OW10177   5.355   6.372   6.503
 3093SOL    HW110178   5.272   6.381   6.558
 3093SOL    HW210179   5.330   6.347   6.409
 3094SOL     OW10180   2.230   0.097   4.151
 3094SOL    HW110181   2.165   0.049   4.091
 3094SOL    HW210182   2.294   0.031   4.190
 3095SOL     OW10183   2.428   4.999   5.331
 3095SOL    HW110184   2.411   4.930   5.401
 3095SOL    HW210185   2.458   4.954   5.247
 3096SOL     OW10186   0.668   5.117   5.599
 3096SOL    HW110187   0.580   5.164   5.606
 3096SOL    HW210188   0.654   5.025   5.562
 3097SOL     OW10189   5.561   2.381   6.894
 3097SOL    HW110190   5.490   2.447   6.869
 3097SOL    HW210191   5.610   2.354   6.812
 3098SOL     OW10192   2.137   2.536   1.444
 3098SOL    HW110193   2.199   2.482   1.502
 3098SOL    HW210194   2.190   2.603   1.393
 3099SOL     OW10195   0.506   0.160   3.623
 3099SOL    HW110196   0.464   0.158   3.532
 3099SOL    HW210197   0.543   0.069   3.644
 3100SOL     OW10198   6.844   6.367   3.462
 3100SOL    HW110199   6.811   6.318   3.382
 3100SOL    HW210200   6.943   6.375   3.459
 3101SOL     OW10201   6.083   6.055   0.080
 3101SOL    HW110202   6.158   5.992   0.101
 3101SOL    HW210203   6.011   6.045   0.149
 3102SOL     OW10204   6.537   5.511   2.298
 3102SOL    HW110205   6.459   5.499   2.359
 3102SOL    HW210206   6.596   5.583   2.334
 3103SOL     OW10207   4.393   0.940   2.198
 3103SOL    HW110208   4.332   0.868   2.164
 3103SOL    HW210209   4.484   0.927   2.158
 3104SOL     OW10210   5.334   0.931   5.189
 3104SOL    HW110211   5.273   0.859   5.221
 3104SOL    HW210212   5.293   1.021   5.207
 3105SOL     OW10213   5.495   4.209   1.082
 3105SOL    HW110214   5.576   4.229   1.136
 3105SOL    HW210215   5.496   4.262   0.997
 3106SOL     OW10216   4.617   0.706   3.830
 3106SOL    HW110217   4.624   0.745   3.922
 3106SOL    HW210218   4.545   0.753   3.779
 3107SOL     OW10219   4.672   1.785   4.931
 3107SOL    HW110220   4.582   1.783   4.973
 3107SOL    HW210221   4.695   1.695   4.895
 3108SOL     OW10222   1.790   6.325   4.401
 3108SOL    HW110223   1.745   6.414   4.409
 3108SOL    HW210224   1.772   6.288   4.310
 3109SOL     OW10225   5.614   6.258   3.796
 3109SOL    HW110226   5.694   6.199   3.786
 3109SOL    HW210227   5.536   6.203   3.825
 3110SOL     OW10228   0.989   3.125   2.674
 3110SOL    HW110229   0.959   3.200   2.615
 3110SOL    HW210230   0.927   3.047   2.662
 3111SOL     OW10231   0.274   4.840   3.635
 3111SOL    HW110232   0.299   4.744   3.649
 3111SOL    HW210233   0.186   4.858   3.678
 3112SOL     OW10234   3.857   2.901   6.958
 3112SOL    HW110235   3.918   2.931   6.885
 3112SOL    HW210236   3.830   2.806   6.943
 3113SOL     OW10237   2.600   4.601   3.477
 3113SOL    HW110238   2.549   4.676   3.518
 3113SOL    HW210239   2.546   4.558   3.405
 3114SOL     OW10240   3.831   2.163   0.792
 3114SOL    HW110241   3.743   2.120   0.813
 3114SOL    HW210242   3.847   2.239   0.856
 3115SOL     OW10243   4.119   4.662   6.146
 3115SOL    HW110244   4.113   4.587   6.211
 3115SOL    HW210245   4.047   4.654   6.077
 3116SOL     OW10246   6.855   2.989   0.657
 3116SOL    HW110247   6.786   3.040   0.709
 3116SOL    HW210248   6.914   2.938   0.720
 3117SOL     OW10249   4.911   3.846   5.027
 3117SOL    HW110250   4.887   3.750   5.016
 3117SOL    HW210251   4.871   3.881   5.112
 3118SOL     OW10252   0.653   5.728   2.059
 3118SOL    HW110253   0.648   5.634   2.023
 3118SOL    HW210254   0.712   5.729   2.140
 3119SOL     OW10255   2.505   2.834   6.429
 3119SOL    HW110256   2.466   2.855   6.518
 3119SOL    HW210257   2.596   2.794   6.441
 3120SOL     OW10258   3.082   0.300   5.526
 3120SOL    HW110259   3.148   0.227   5.543
 3120SOL    HW210260   3.030   0.318   5.610
 3121SOL     OW10261   0.335   1.080   3.590
 3121SOL    HW110262   0.425   1.052   3.623
 3121SOL    HW210263   0.341   1.174   3.555
 3122SOL     OW10264   3.961   5.425   6.164
 3122SOL    HW110265   3.872   5.408   6.123
 3122SOL    HW210266   4.033   5.392   6.103
 3123SOL     OW10267   1.849   1.956   3.251
 3123SOL    HW110268   1.874   1.999   3.338
 3123SOL    HW210269   1.915   1.982   3.181
 3124SOL     OW10270   4.806   6.903   4.631
 3124SOL    HW110271   4.716   6.946   4.627
 3124SOL    HW210272   4.825   6.874   4.725
 3125SOL     OW10273   0.952   2.848   4.761
 3125SOL    HW110274   0.880   2.851   4.691
 3125SOL    HW210275   0.981   2.941   4.784
 3126SOL     OW10276   5.705   3.844   5.739
 3126SOL    HW110277   5.635   3.891   5.686
 3126SOL    HW210278   5.765   3.794   5.678
 3127SOL     OW10279   1.156   2.836   5.789
 3127SOL    HW110280   1.107   2.903   5.734
 3127SOL    HW210281   1.212   2.778   5.729
 3128SOL     OW10282   3.385   0.618   6.747
 3128SOL    HW110283   3.405   0.558   6.670
 3128SOL    HW210284   3.373   0.712   6.714
 3129SOL     OW10285   6.291   3.474   6.969
 3129SOL    HW110286   6.245   3.444   6.885
 3129SOL    HW210287   6.372   3.529   6.945
 3130SOL     OW10288   1.733   4.107   1.649
 3130SOL    HW110289   1.672   4.186   1.644
 3130SOL    HW210290   1.826   4.138   1.667
 3131SOL     OW10291   0.429   3.479   2.347
 3131SOL    HW110292   0.447   3.398   2.291
 3131SOL    HW210293   0.505   3.543   2.337
 3132SOL     OW10294   3.850   5.931   6.605
 3132SOL    HW110295   3.786   5.953   6.532
 3132SOL    HW210296   3.928   5.882   6.567
 3133SOL     OW10297   3.045   1.474   3.106
 3133SOL    HW110298   3.034   1.567   3.140
 3133SOL    HW210299   2.959   1.423   3.118
 3134SOL     OW10300   4.824   4.242   1.582
 3134SOL    HW110301   4.802   4.210   1.674
 3134SOL    HW210302   4.795   4.174   1.514
 3135SOL     OW10303   4.342   1.052   5.045
 3135SOL    HW110304   4.284   1.121   5.001
 3135SOL    HW210305   4.315   1.043   5.141
 3136SOL     OW10306   5.200   0.705   2.160
 3136SOL    HW110307   5.123   0.765   2.135
 3136SOL    HW210308   5.232   0.728   2.252
 3137SOL     OW10309   6.589   0.709   2.202
 3137SOL    HW110310   6.550   0.717   2.294
 3137SOL    HW210311   6.538   0.640   2.151
 3138SOL     OW10312   6.320   4.630   3.631
 3138SOL    HW110313   6.247   4.592   3.575
 3138SOL    HW210314   6.362   4.708   3.583
 3139SOL     OW10315   4.715   5.968   0.491
 3139SOL    HW110316   4.709   6.067   0.483
 3139SOL    HW210317   4.774   5.944   0.568
 3140SOL     OW10318   6.547   6.919   0.350
 3140SOL    HW110319   6.469   6.958   0.301
 3140SOL    HW210320   6.602   6.863   0.288
 3141SOL     OW10321   0.594   6.804   6.731
 3141SOL    HW110322   0.581   6.847   6.641
 3141SOL    HW210323   0.680   6.837   6.770
 3142SOL     OW10324   3.691   0.068   2.508
 3142SOL    HW110325   3.704   0.070   2.409
 3142SOL    HW210326   3.657   6.996   2.535
 3143SOL     OW10327   6.305   2.115   0.242
 3143SOL    HW110328   6.316   2.108   0.143
 3143SOL    HW210329   6.369   2.052   0.287
 3144SOL     OW10330   3.534   3.782   1.737
 3144SOL    HW110331   3.618   3.738   1.767
 3144SOL    HW210332   3.490   3.827   1.815
 3145SOL     OW10333   2.264   5.759   1.457
 3145SOL    HW110334   2.345   5.767   1.515
 3145SOL    HW210335   2.264   5.833   1.389
 3146SOL     OW10336   1.159   1.125   4.202
 3146SOL    HW110337   1.069   1.117   4.244
 3146SOL    HW210338   1.228   1.083   4.261
 3147SOL     OW10339   3.300   5.389   1.216
 3147SOL    HW110340   3.291   5.290   1.221
 3147SOL    HW210341   3.214   5.430   1.187
 3148SOL     OW10342   6.288   6.853   3.936
 3148SOL    HW110343   6.251   6.807   4.017
 3148SOL    HW210344   6.232   6.830   3.857
 3149SOL     OW10345   2.776   0.739   5.548
 3149SOL    HW110346   2.745   0.808   5.483
 3149SOL    HW210347   2.787   0.652   5.501
 3150SOL     OW10348   6.088   5.365   4.434
 3150SOL    HW110349   6.111   5.319   4.520
 3150SOL    HW210350   5.991   5.389   4.435
 3151SOL     OW10351   6.934   1.194   5.500
 3151SOL    HW110352   6.859   1.260   5.498
 3151SOL    HW210353   6.959   1.169   5.406
 3152SOL     OW10354   1.296   5.278   0.992
 3152SOL    HW110355   1.312   5.207   0.925
 3152SOL    HW210356   1.367   5.274   1.062
 3153SOL     OW10357   5.892   5.088   0.470
 3153SOL    HW110358   5.804   5.089   0.423
 3153SOL    HW210359   5.934   4.998   0.461
 3154SOL     OW10360   6.605   1.438   6.898
 3154SOL    HW110361   6.566   1.525   6.930
 3154SOL    HW210362   6.676   1.457   6.831
 3155SOL     OW10363   6.514   4.647   0.723
 3155SOL    HW110364   6.578   4.589   0.673
 3155SOL    HW210365   6.443   4.591   0.765
 3156SOL     OW10366   3.459   3.097   3.413
 3156SOL    HW110367   3.493   3.113   3.506
 3156SOL    HW210368   3.362   3.073   3.416
 3157SOL     OW10369   2.823   1.959   5.225
 3157SOL    HW110370   2.761   1.967   5.304
 3157SOL    HW210371   2.892   2.032   5.230
 3158SOL     OW10372   3.494   1.600   3.348
 3158SOL    HW110373   3.550   1.523   3.316
 3158SOL    HW210374   3.530   1.685   3.310
 3159SOL     OW10375   6.108   1.284   0.281
 3159SOL    HW110376   6.208   1.283   0.282
 3159SOL    HW210377   6.073   1.193   0.303
 3160SOL     OW10378   0.441   5.817   5.660
 3160SOL    HW110379   0.428   5.772   5.748
 3160SOL    HW210380   0.539   5.827   5.642
 3161SOL     OW10381   2.372   2.769   3.001
 3161SOL    HW110382   2.355   2.673   3.023
 3161SOL    HW210383   2.342   2.826   3.077
 3162SOL     OW10384   1.398   5.996   2.129
 3162SOL    HW110385   1.336   5.963   2.200
 3162SOL    HW210386   1.350   6.063   2.072
 3163SOL     OW10387   4.783   3.032   5.984
 3163SOL    HW110388   4.839   3.006   5.905
 3163SOL    HW210389   4.820   3.116   6.025
 3164SOL     OW10390   4.650   5.462   1.041
 3164SOL    HW110391   4.708   5.442   1.120
 3164SOL    HW210392   4.638   5.561   1.033
 3165SOL     OW10393   0.728   6.333   0.735
 3165SOL    HW110394   0.710   6.431   0.743
 3165SOL    HW210395   0.820   6.314   0.769
 3166SOL     OW10396   4.168   1.693   4.116
 3166SOL    HW110397   4.155   1.716   4.213
 3166SOL    HW210398   4.159   1.775   4.061
 3167SOL     OW10399   6.387   4.898   1.057
 3167SOL    HW110400   6.479   4.879   1.024
 3167SOL    HW210401   6.321   4.879   0.984
 3168SOL     OW10402   4.792   2.709   6.793
 3168SOL    HW110403   4.837   2.794   6.819
 3168SOL    HW210404   4.851   2.632   6.817
 3169SOL     OW10405   2.071   3.857   4.344
 3169SOL    HW110406   2.083   3.819   4.252
 3169SOL    HW210407   2.087   3.786   4.412
 3170SOL     OW10408   4.351   6.602   1.368
 3170SOL    HW110409   4.412   6.555   1.304
 3170SOL    HW210410   4.317   6.687   1.327
 3171SOL     OW10411   0.406   0.367   2.149
 3171SOL    HW110412   0.341   0.441   2.166
 3171SOL    HW210413   0.368   0.306   2.079
 3172SOL     OW10414   6.685   5.088   0.465
 3172SOL    HW110415   6.656   5.092   0.561
 3172SOL    HW210416   6.719   5.178   0.437
 3173SOL     OW10417   2.525   1.709   0.504
 3173SOL    HW110418   2.457   1.693   0.576
 3173SOL    HW210419   2.485   1.767   0.433
 3174SOL     OW10420   2.612   2.312   0.564
 3174SOL    HW110421   2.584   2.381   0.498
 3174SOL    HW210422   2.536   2.291   0.625
 3175SOL     OW10423   6.177   1.060   1.673
 3175SOL    HW110424   6.251   1.086   1.735
 3175SOL    HW210425   6.089   1.086   1.713
 3176SOL     OW10426   1.697   3.990   5.432
 3176SOL    HW110427   1.663   3.915   5.490
 3176SOL    HW210428   1.759   4.048   5.485
 3177SOL     OW10429   4.935   3.754   4.043
 3177SOL    HW110430   4.914   3.666   4.086
 3177SOL    HW210431   4.862   3.819   4.062
 3178SOL     OW10432   6.353   2.040   1.050
 3178SOL    HW110433   6.311   2.116   1.100
 3178SOL    HW210434   6.282   1.989   1.002
 3179SOL     OW10435   0.968   3.060   2.239
 3179SOL    HW110436   0.959   2.961   2.227
 3179SOL    HW210437   0.906   3.091   2.310
 3180SOL     OW10438   4.658   1.162   0.060
 3180SOL    HW110439   4.596   1.187   7.004
 3180SOL    HW210440   4.752   1.178   0.031
 3181SOL     OW10441   6.791   1.808   3.571
 3181SOL    HW110442   6.882   1.836   3.603
 3181SOL    HW210443   6.722   1.841   3.635
 3182SOL     OW10444   3.170   0.232   5.808
 3182SOL    HW110445   3.184   0.143   5.764
 3182SOL    HW210446   3.172   0.222   5.907
 3183SOL     OW10447   4.088   3.978   1.684
 3183SOL    HW110448   4.049   4.013   1.769
 3183SOL    HW210449   4.188   3.981   1.690
 3184SOL     OW10450   0.707   3.701   2.775
 3184SOL    HW110451   0.625   3.647   2.754
 3184SOL    HW210452   0.734   3.753   2.694
 3185SOL     OW10453   5.419   6.004   6.921
 3185SOL    HW110454   5.396   5.907   6.925
 3185SOL    HW210455   5.514   6.015   6.893
 3186SOL     OW10456   3.633   1.705   1.603
 3186SOL    HW110457   3.661   1.771   1.534
 3186SOL    HW210458   3.633   1.749   1.693
 3187SOL     OW10459   4.547   4.662   0.191
 3187SOL    HW110460   4.476   4.610   0.238
 3187SOL    HW210461   4.633   4.610   0.192
 3188SOL     OW10462   2.104   0.519   4.023
 3188SOL    HW110463   2.076   0.615   4.030
 3188SOL    HW210464   2.078   0.471   4.107
 3189SOL     OW10465   1.093   0.959   1.290
 3189SOL    HW110466   1.173   1.014   1.315
 3189SOL    HW210467   1.111   0.913   1.203
 3190SOL     OW10468   0.015   5.974   0.331
 3190SOL    HW110469   6.997   6.064   0.304
 3190SOL    HW210470   0.109   5.984   0.364
 3191SOL     OW10471   5.019   6.098   0.781
 3191SOL    HW110472   5.033   6.193   0.754
 3191SOL    HW210473   5.103   6.046   0.768
 3192SOL     OW10474   6.825   2.400   1.143
 3192SOL    HW110475   6.894   2.332   1.171
 3192SOL    HW210476   6.735   2.368   1.170
 3193SOL     OW10477   3.307   1.711   6.474
 3193SOL    HW110478   3.236   1.676   6.536
 3193SOL    HW210479   3.378   1.757   6.528
 3194SOL     OW10480   1.798   2.444   6.526
 3194SOL    HW110481   1.780   2.359   6.475
 3194SOL    HW210482   1.722   2.507   6.512
 3195SOL     OW10483   2.880   2.292   3.390
 3195SOL    HW110484   2.914   2.381   3.418
 3195SOL    HW210485   2.937   2.220   3.430
 3196SOL     OW10486   0.250   1.315   6.332
 3196SOL    HW110487   0.283   1.285   6.242
 3196SOL    HW210488   0.267   1.412   6.343
 3197SOL     OW10489   2.422   6.548   3.481
 3197SOL    HW110490   2.511   6.503   3.482
 3197SOL    HW210491   2.360   6.500   3.419
 3198SOL     OW10492   5.602   2.750   4.796
 3198SOL    HW110493   5.697   2.778   4.780
 3198SOL    HW210494   5.595   2.651   4.792
 3199SOL     OW10495   5.389   3.249   2.564
 3199SOL    HW110496   5.323   3.212   2.629
 3199SOL    HW210497   5.354   3.336   2.527
 3200SOL     OW10498   6.268   2.913   1.711
 3200SOL    HW110499   6.187   2.865   1.678
 3200SOL    HW210500   6.288   2.990   1.650
 3201SOL     OW10501   5.678   4.849   4.361
 3201SOL    HW110502   5.768   4.820   4.393
 3201SOL    HW210503   5.612   4.842   4.436
 3202SOL     OW10504   6.892   4.771   1.543
 3202SOL    HW110505   6.962   4.700   1.533
 3202SOL    HW210506   6.925   4.842   1.605
 3203SOL     OW10507   6.302   2.364   0.604
 3203SOL    HW110508   6.394   2.398   0.626
 3203SOL    HW210509   6.282   2.384   0.508
 3204SOL     OW10510   4.653   6.619   2.168
 3204SOL    HW110511   4.677   6.558   2.244
 3204SOL    HW210512   4.634   6.710   2.203
 3205SOL     OW10513   6.983   3.082   6.187
 3205SOL    HW110514   6.997   3.068   6.285
 3205SOL    HW210515   6.995   2.995   6.139
 3206SOL     OW10516   0.952   5.627   6.302
 3206SOL    HW110517   0.860   5.650   6.270
 3206SOL    HW210518   1.019   5.685   6.255
 3207SOL     OW10519   0.949   0.422   5.651
 3207SOL    HW110520   1.024   0.478   5.684
 3207SOL    HW210521   0.862   0.470   5.665
 3208SOL     OW10522   5.039   5.977   5.622
 3208SOL    HW110523   5.091   6.062   5.608
 3208SOL    HW210524   4.951   5.999   5.664
 3209SOL     OW10525   4.547   6.023   3.222
 3209SOL    HW110526   4.474   6.037   3.289
 3209SOL    HW210527   4.627   5.986   3.268
 3210SOL     OW10528   0.796   4.601   1.531
 3210SOL    HW110529   0.718   4.590   1.593
 3210SOL    HW210530   0.817   4.514   1.487
 3211SOL     OW10531   1.506   4.121   0.990
 3211SOL    HW110532   1.529   4.200   0.933
 3211SOL    HW210533   1.435   4.146   1.055
 3212SOL     OW10534   3.271   0.670   0.722
 3212SOL    HW110535   3.325   0.594   0.688
 3212SOL    HW210536   3.189   0.636   0.768
 3213SOL     OW10537   0.713   5.695   1.746
 3213SOL    HW110538   0.811   5.690   1.728
 3213SOL    HW210539   0.692   5.779   1.797
 3214SOL     OW10540   5.004   5.471   0.460
 3214SOL    HW110541   5.097   5.505   0.445
 3214SOL    HW210542   4.989   5.388   0.406
 3215SOL     OW10543   6.766   3.290   1.044
 3215SOL    HW110544   6.861   3.316   1.030
 3215SOL    HW210545   6.712   3.371   1.065
 3216SOL     OW10546   5.804   5.191   0.695
 3216SOL    HW110547   5.846   5.159   0.610
 3216SOL    HW210548   5.717   5.236   0.675
 3217SOL     OW10549   0.064   5.454   2.358
 3217SOL    HW110550   0.031   5.530   2.301
 3217SOL    HW210551   0.150   5.419   2.321
 3218SOL     OW10552   4.171   1.251   3.245
 3218SOL    HW110553   4.107   1.250   3.168
 3218SOL    HW210554   4.265   1.252   3.210
 3219SOL     OW10555   6.863   1.463   3.506
 3219SOL    HW110556   6.808   1.494   3.583
 3219SOL    HW210557   6.879   1.539   3.444
 3220SOL     OW10558   6.306   5.898   6.623
 3220SOL    HW110559   6.239   5.909   6.696
 3220SOL    HW210560   6.377   5.834   6.653
 3221SOL     OW10561   3.907   0.603   1.517
 3221SOL    HW110562   3.912   0.536   1.443
 3221SOL    HW210563   3.994   0.653   1.522
 3222SOL     OW10564   3.907   1.502   2.398
 3222SOL    HW110565   3.855   1.433   2.448
 3222SOL    HW210566   3.857   1.529   2.316
 3223SOL     OW10567   1.728   5.670   6.378
 3223SOL    HW110568   1.711   5.660   6.476
 3223SOL    HW210569   1.690   5.591   6.329
 3224SOL     OW10570   4.440   3.640   6.588
 3224SOL    HW110571   4.399   3.585   6.660
 3224SOL    HW210572   4.434   3.737   6.612
 3225SOL     OW10573   4.597   3.687   6.347
 3225SOL    HW110574   4.527   3.649   6.408
 3225SOL    HW210575   4.554   3.722   6.264
 3226SOL     OW10576   2.051   1.400   3.929
 3226SOL    HW110577   2.077   1.496   3.937
 3226SOL    HW210578   2.115   1.352   3.870
 3227SOL     OW10579   3.825   2.486   0.139
 3227SOL    HW110580   3.855   2.400   0.096
 3227SOL    HW210581   3.902   2.529   0.185
 3228SOL     OW10582   6.571   4.259   3.035
 3228SOL    HW110583   6.651   4.224   3.085
 3228SOL    HW210584   6.593   4.266   2.938
 3229SOL     OW10585   4.291   0.413   5.318
 3229SOL    HW110586   4.260   0.478   5.387
 3229SOL    HW210587   4.260   0.321   5.344
 3230SOL     OW10588   1.793   3.203   4.843
 3230SOL    HW110589   1.820   3.281   4.787
 3230SOL    HW210590   1.749   3.134   4.785
 3231SOL     OW10591   2.218   0.598   1.017
 3231SOL    HW110592   2.303   0.577   0.968
 3231SOL    HW210593   2.224   0.689   1.057
 3232SOL     OW10594   4.930   5.370   5.024
 3232SOL    HW110595   4.876   5.298   5.068
 3232SOL    HW210596   4.907   5.458   5.065
 3233SOL     OW10597   1.138   2.743   1.460
 3233SOL    HW110598   1.106   2.705   1.373
 3233SOL    HW210599   1.237   2.752   1.458
 3234SOL     OW10600   6.763   1.745   6.847
 3234SOL    HW110601   6.790   1.789   6.933
 3234SOL    HW210602   6.845   1.707   6.803
 3235SOL     OW10603   5.738   0.998   1.777
 3235SOL    HW110604   5.733   1.033   1.683
 3235SOL    HW210605   5.669   1.044   1.833
 3236SOL     OW10606   1.453   3.375   1.138
 3236SOL    HW110607   1.547   3.340   1.134
 3236SOL    HW210608   1.431   3.419   1.051
 3237SOL     OW10609   4.849   1.653   3.998
 3237SOL    HW110610   4.880   1.562   3.971
 3237SOL    HW210611   4.909   1.689   4.070
 3238SOL     OW10612   0.358   4.771   0.693
 3238SOL    HW110613   0.394   4.853   0.738
 3238SOL    HW210614   0.405   4.759   0.605
 3239SOL     OW10615   6.309   1.621   1.887
 3239SOL    HW110616   6.367   1.701   1.904
 3239SOL    HW210617   6.223   1.651   1.846
 3240SOL     OW10618   0.933   0.002   6.556
 3240SOL    HW110619   0.880   0.058   6.619
 3240SOL    HW210620   1.002   0.059   6.510
 3241SOL     OW10621   4.469   1.925   5.449
 3241SOL    HW110622   4.414   1.905   5.368
 3241SOL    HW210623   4.415   1.903   5.531
 3242SOL     OW10624   3.454   4.295   6.846
 3242SOL    HW110625   3.381   4.332   6.789
 3242SOL    HW210626   3.457   4.345   6.932
 3243SOL     OW10627   4.425   4.844   0.431
 3243SOL    HW110628   4.467   4.787   0.360
 3243SOL    HW210629   4.412   4.937   0.395
 3244SOL     OW10630   5.227   5.637   0.402
 3244SOL    HW110631   5.172   5.701   0.456
 3244SOL    HW210632   5.323   5.642   0.431
 3245SOL     OW10633   5.019   3.105   5.037
 3245SOL    HW110634   4.991   3.049   4.959
 3245SOL    HW210635   4.956   3.181   5.049
 3246SOL     OW10636   5.968   0.720   2.491
 3246SOL    HW110637   6.064   0.695   2.495
 3246SOL    HW210638   5.954   0.807   2.540
 3247SOL     OW10639   6.188   4.415   2.350
 3247SOL    HW110640   6.255   4.342   2.338
 3247SOL    HW210641   6.189   4.445   2.446
 3248SOL     OW10642   6.588   3.529   0.841
 3248SOL    HW110643   6.617   3.601   0.778
 3248SOL    HW210644   6.577   3.443   0.790
 3249SOL     OW10645   3.929   3.072   4.111
 3249SOL    HW110646   3.920   3.058   4.012
 3249SOL    HW210647   3.989   3.149   4.129
 3250SOL     OW10648   6.121   6.604   2.052
 3250SOL    HW110649   6.220   6.596   2.053
 3250SOL    HW210650   6.080   6.518   2.021
 3251SOL     OW10651   2.800   1.133   2.842
 3251SOL    HW110652   2.776   1.041   2.872
 3251SOL    HW210653   2.749   1.200   2.896
 3252SOL     OW10654   2.386   2.120   2.958
 3252SOL    HW110655   2.474   2.087   2.926
 3252SOL    HW210656   2.399   2.182   3.035
 3253SOL     OW10657   5.414   3.456   2.162
 3253SOL    HW110658   5.373   3.546   2.148
 3253SOL    HW210659   5.364   3.389   2.108
 3254SOL     OW10660   5.211   5.622   5.139
 3254SOL    HW110661   5.304   5.644   5.110
 3254SOL    HW210662   5.151   5.619   5.059
 3255SOL     OW10663   5.440   5.851   0.422
 3255SOL    HW110664   5.349   5.893   0.422
 3255SOL    HW210665   5.457   5.807   0.334
 3256SOL     OW10666   3.394   1.153   6.909
 3256SOL    HW110667   3.297   1.181   6.911
 3256SOL    HW210668   3.403   1.063   6.950
 3257SOL     OW10669   2.039   1.522   1.584
 3257SOL    HW110670   2.040   1.422   1.593
 3257SOL    HW210671   1.944   1.554   1.586
 3258SOL     OW10672   4.243   4.648   1.955
 3258SOL    HW110673   4.332   4.628   1.997
 3258SOL    HW210674   4.241   4.610   1.862
 3259SOL     OW10675   4.646   5.348   3.383
 3259SOL    HW110676   4.585   5.343   3.304
 3259SOL    HW210677   4.708   5.269   3.382
 3260SOL     OW10678   1.997   1.957   0.949
 3260SOL    HW110679   1.965   2.014   0.873
 3260SOL    HW210680   1.987   2.007   1.035
 3261SOL     OW10681   4.972   6.899   1.115
 3261SOL    HW110682   4.901   6.849   1.065
 3261SOL    HW210683   4.929   6.966   1.175
 3262SOL     OW10684   3.293   1.945   2.145
 3262SOL    HW110685   3.327   1.854   2.120
 3262SOL    HW210686   3.260   1.943   2.240
 3263SOL     OW10687   2.366   0.750   3.293
 3263SOL    HW110688   2.448   0.696   3.311
 3263SOL    HW210689   2.298   0.693   3.246
 3264SOL     OW10690   1.621   4.388   0.894
 3264SOL    HW110691   1.624   4.433   0.805
 3264SOL    HW210692   1.691   4.317   0.899
 3265SOL     OW10693   4.941   0.807   6.550
 3265SOL    HW110694   4.945   0.747   6.631
 3265SOL    HW210695   5.024   0.862   6.547
 3266SOL     OW10696   1.381   3.390   0.762
 3266SOL    HW110697   1.340   3.403   0.672
 3266SOL    HW210698   1.413   3.296   0.771
 3267SOL     OW10699   3.876   0.666   0.536
 3267SOL    HW110700   3.815   0.668   0.457
 3267SOL    HW210701   3.953   0.604   0.516
 3268SOL     OW10702   1.530   3.725   0.571
 3268SOL    HW110703   1.445   3.764   0.605
 3268SOL    HW210704   1.608   3.774   0.612
 3269SOL     OW10705   4.132   5.235   2.352
 3269SOL    HW110706   4.216   5.289   2.351
 3269SOL    HW210707   4.153   5.140   2.378
 3270SOL     OW10708   0.603   4.281   5.400
 3270SOL    HW110709   0.518   4.302   5.352
 3270SOL    HW210710   0.679   4.330   5.357
 3271SOL     OW10711   6.095   3.560   2.459
 3271SOL    HW110712   6.086   3.461   2.446
 3271SOL    HW210713   6.092   3.581   2.556
 3272SOL     OW10714   3.704   4.117   6.177
 3272SOL    HW110715   3.746   4.176   6.107
 3272SOL    HW210716   3.622   4.073   6.138
 3273SOL     OW10717   0.657   6.311   1.293
 3273SOL    HW110718   0.616   6.378   1.354
 3273SOL    HW210719   0.753   6.299   1.315
 3274SOL     OW10720   4.569   1.383   1.355
 3274SOL    HW110721   4.612   1.419   1.273
 3274SOL    HW210722   4.472   1.368   1.339
 3275SOL     OW10723   6.487   1.527   6.555
 3275SOL    HW110724   6.388   1.519   6.568
 3275SOL    HW210725   6.512   1.494   6.464
 3276SOL     OW10726   1.912   5.973   0.407
 3276SOL    HW110727   1.845   5.988   0.335
 3276SOL    HW210728   1.867   5.977   0.496
 3277SOL     OW10729   4.429   6.922   0.336
 3277SOL    HW110730   4.334   6.901   0.314
 3277SOL    HW210731   4.433   7.011   0.381
 3278SOL     OW10732   0.927   1.005   6.366
 3278SOL    HW110733   1.005   1.049   6.409
 3278SOL    HW210734   0.885   1.067   6.300
 3279SOL     OW10735   5.495   0.750   6.799
 3279SOL    HW110736   5.562   0.792   6.737
 3279SOL    HW210737   5.499   0.796   6.888
 3280SOL     OW10738   3.682   5.704   4.314
 3280SOL    HW110739   3.675   5.628   4.378
 3280SOL    HW210740   3.659   5.672   4.222
 3281SOL     OW10741   2.333   5.994   1.723
 3281SOL    HW110742   2.290   6.067   1.670
 3281SOL    HW210743   2.429   5.984   1.695
 3282SOL     OW10744   0.636   4.856   5.571
 3282SOL    HW110745   0.639   4.852   5.671
 3282SOL    HW210746   0.569   4.790   5.537
 3283SOL     OW10747   4.646   1.081   1.275
 3283SOL    HW110748   4.625   1.177   1.292
 3283SOL    HW210749   4.744   1.065   1.282
 3284SOL     OW10750   6.711   5.347   7.017
 3284SOL    HW110751   6.686   5.264   0.050
 3284SOL    HW210752   6.763   5.408   0.059
 3285SOL     OW10753   5.098   2.783   3.778
 3285SOL    HW110754   5.035   2.706   3.793
 3285SOL    HW210755   5.047   2.860   3.739
 3286SOL     OW10756   4.048   3.647   2.520
 3286SOL    HW110757   3.949   3.638   2.526
 3286SOL    HW210758   4.084   3.578   2.457
 3287SOL     OW10759   1.216   6.501   0.042
 3287SOL    HW110760   1.121   6.521   0.064
 3287SOL    HW210761   1.221   6.455   6.971
 3288SOL     OW10762   0.170   5.275   6.396
 3288SOL    HW110763   0.156   5.364   6.440
 3288SOL    HW210764   0.147   5.202   6.460
 3289SOL     OW10765   2.539   6.904   5.721
 3289SOL    HW110766   2.532   6.925   5.624
 3289SOL    HW210767   2.554   6.805   5.733
 3290SOL     OW10768   0.510   0.212   1.799
 3290SOL    HW110769   0.455   0.172   1.725
 3290SOL    HW210770   0.452   0.226   1.879
 3291SOL     OW10771   1.974   6.674   1.061
 3291SOL    HW110772   2.048   6.674   0.994
 3291SOL    HW210773   1.911   6.599   1.041
 3292SOL     OW10774   0.692   0.902   0.970
 3292SOL    HW110775   0.676   0.820   0.914
 3292SOL    HW210776   0.756   0.962   0.923
 3293SOL     OW10777   0.702   3.867   3.196
 3293SOL    HW110778   0.612   3.885   3.237
 3293SOL    HW210779   0.722   3.936   3.128
 3294SOL     OW10780   6.529   1.731   6.029
 3294SOL    HW110781   6.628   1.742   6.018
 3294SOL    HW210782   6.482   1.814   5.997
 3295SOL     OW10783   1.381   3.052   1.846
 3295SOL    HW110784   1.418   3.144   1.843
 3295SOL    HW210785   1.326   3.035   1.764
 3296SOL     OW10786   1.763   6.570   2.345
 3296SOL    HW110787   1.808   6.627   2.276
 3296SOL    HW210788   1.688   6.519   2.302
 3297SOL     OW10789   3.172   0.742   4.543
 3297SOL    HW110790   3.140   0.656   4.505
 3297SOL    HW210791   3.125   0.759   4.630
 3298SOL     OW10792   5.778   1.554   4.562
 3298SOL    HW110793   5.741   1.611   4.636
 3298SOL    HW210794   5.877   1.568   4.557
 3299SOL     OW10795   2.742   5.354   3.754
 3299SOL    HW110796   2.795   5.291   3.811
 3299SOL    HW210797   2.796   5.436   3.734
 3300SOL     OW10798   0.315   0.781   5.460
 3300SOL    HW110799   0.304   0.860   5.521
 3300SOL    HW210800   0.231   0.768   5.407
 3301SOL     OW10801   2.151   3.280   3.716
 3301SOL    HW110802   2.172   3.212   3.646
 3301SOL    HW210803   2.052   3.291   3.722
 3302SOL     OW10804   0.313   5.058   4.966
 3302SOL    HW110805   0.312   5.135   5.029
 3302SOL    HW210806   0.235   4.998   4.983
 3303SOL     OW10807   3.362   3.337   1.742
 3303SOL    HW110808   3.393   3.290   1.825
 3303SOL    HW210809   3.429   3.406   1.715
 3304SOL     OW10810   1.009   5.826   3.924
 3304SOL    HW110811   1.086   5.778   3.967
 3304SOL    HW210812   0.925   5.774   3.941
 3305SOL     OW10813   2.013   1.673   3.141
 3305SOL    HW110814   1.943   1.688   3.071
 3305SOL    HW210815   2.043   1.761   3.177
 3306SOL     OW10816   1.666   5.613   4.766
 3306SOL    HW110817   1.723   5.561   4.829
 3306SOL    HW210818   1.586   5.558   4.741
 3307SOL     OW10819   6.852   5.719   0.312
 3307SOL    HW110820   6.827   5.676   0.399
 3307SOL    HW210821   6.889   5.810   0.329
 3308SOL     OW10822   3.960   6.393   6.988
 3308SOL    HW110823   3.916   6.304   7.000
 3308SOL    HW210824   4.050   6.381   6.946
 3309SOL     OW10825   6.754   5.546   2.620
 3309SOL    HW110826   6.723   5.621   2.562
 3309SOL    HW210827   6.853   5.536   2.612
 3310SOL     OW10828   0.218   3.665   5.796
 3310SOL    HW110829   0.139   3.709   5.840
 3310SOL    HW210830   0.262   3.730   5.734
 3311SOL     OW10831   2.606   3.656   1.600
 3311SOL    HW110832   2.587   3.705   1.514
 3311SOL    HW210833   2.701   3.673   1.628
 3312SOL     OW10834   4.250   4.649   5.833
 3312SOL    HW110835   4.266   4.732   5.886
 3312SOL    HW210836   4.337   4.608   5.807
 3313SOL     OW10837   0.426   5.102   3.593
 3313SOL    HW110838   0.482   5.075   3.515
 3313SOL    HW210839   0.341   5.049   3.592
 3314SOL     OW10840   2.525   1.571   3.526
 3314SOL    HW110841   2.465   1.623   3.465
 3314SOL    HW210842   2.609   1.547   3.478
 3315SOL     OW10843   6.594   3.093   4.944
 3315SOL    HW110844   6.675   3.110   4.888
 3315SOL    HW210845   6.537   3.175   4.944
 3316SOL     OW10846   4.554   2.196   6.067
 3316SOL    HW110847   4.518   2.111   6.106
 3316SOL    HW210848   4.499   2.273   6.100
 3317SOL     OW10849   4.389   3.118   1.737
 3317SOL    HW110850   4.342   3.186   1.795
 3317SOL    HW210851   4.459   3.071   1.791
 3318SOL     OW10852   2.979   0.922   0.256
 3318SOL    HW110853   2.907   0.958   0.196
 3318SOL    HW210854   2.996   0.826   0.235
 3319SOL     OW10855   6.345   0.813   4.137
 3319SOL    HW110856   6.413   0.746   4.110
 3319SOL    HW210857   6.386   0.904   4.139
 3320SOL     OW10858   5.849   0.254   4.887
 3320SOL    HW110859   5.860   0.218   4.980
 3320SOL    HW210860   5.767   0.312   4.882
 3321SOL     OW10861   4.138   2.437   0.572
 3321SOL    HW110862   4.226   2.483   0.569
 3321SOL    HW210863   4.068   2.495   0.531
 3322SOL     OW10864   5.566   3.707   0.778
 3322SOL    HW110865   5.558   3.607   0.783
 3322SOL    HW210866   5.661   3.731   0.756
 3323SOL     OW10867   2.937   2.836   0.541
 3323SOL    HW110868   2.937   2.927   0.584
 3323SOL    HW210869   3.022   2.824   0.490
 3324SOL     OW10870   2.288   4.392   6.217
 3324SOL    HW110871   2.203   4.385   6.165
 3324SOL    HW210872   2.284   4.471   6.278
 3325SOL     OW10873   1.761   3.361   6.773
 3325SOL    HW110874   1.718   3.378   6.684
 3325SOL    HW210875   1.715   3.285   6.818
 3326SOL     OW10876   5.187   2.256   2.255
 3326SOL    HW110877   5.182   2.178   2.193
 3326SOL    HW210878   5.226   2.335   2.206
 3327SOL     OW10879   2.598   5.867   1.844
 3327SOL    HW110880   2.576   5.795   1.778
 3327SOL    HW210881   2.659   5.831   1.914
 3328SOL     OW10882   4.304   1.642   1.193
 3328SOL    HW110883   4.310   1.660   1.095
 3328SOL    HW210884   4.269   1.550   1.209
 3329SOL     OW10885   5.086   0.219   4.783
 3329SOL    HW110886   4.999   0.263   4.806
 3329SOL    HW210887   5.120   0.257   4.697
 3330SOL     OW10888   6.370   5.138   1.194
 3330SOL    HW110889   6.371   5.116   1.292
 3330SOL    HW210890   6.400   5.059   1.142
 3331SOL     OW10891   1.305   3.915   1.267
 3331SOL    HW110892   1.267   4.007   1.276
 3331SOL    HW210893   1.288   3.863   1.351
 3332SOL     OW10894   6.820   4.849   0.243
 3332SOL    HW110895   6.766   4.770   0.269
 3332SOL    HW210896   6.877   4.877   0.320
 3333SOL     OW10897   3.215   3.776   6.638
 3333SOL    HW110898   3.154   3.697   6.641
 3333SOL    HW210899   3.183   3.840   6.569
 3334SOL     OW10900   2.362   4.014   1.373
 3334SOL    HW110901   2.274   3.969   1.361
 3334SOL    HW210902   2.365   4.098   1.319
 3335SOL     OW10903   4.867   0.275   5.957
 3335SOL    HW110904   4.916   0.340   5.899
 3335SOL    HW210905   4.926   0.245   6.032
 3336SOL     OW10906   1.684   6.593   4.472
 3336SOL    HW110907   1.649   6.565   4.562
 3336SOL    HW210908   1.759   6.659   4.485
 3337SOL     OW10909   2.983   4.050   1.347
 3337SOL    HW110910   2.935   4.029   1.262
 3337SOL    HW210911   3.063   3.991   1.355
 3338SOL     OW10912   6.104   3.329   2.230
 3338SOL    HW110913   6.095   3.396   2.155
 3338SOL    HW210914   6.178   3.265   2.208
 3339SOL     OW10915   0.898   6.792   6.416
 3339SOL    HW110916   0.909   6.873   6.473
 3339SOL    HW210917   0.807   6.753   6.430
 3340SOL     OW10918   3.180   2.093   3.189
 3340SOL    HW110919   3.089   2.054   3.179
 3340SOL    HW210920   3.218   2.066   3.277
 3341SOL     OW10921   0.555   4.439   3.789
 3341SOL    HW110922   0.512   4.400   3.870
 3341SOL    HW210923   0.649   4.405   3.781
 3342SOL     OW10924   1.391   6.137   3.634
 3342SOL    HW110925   1.392   6.074   3.712
 3342SOL    HW210926   1.405   6.086   3.550
 3343SOL     OW10927   4.801   3.879   7.013
 3343SOL    HW110928   4.760   3.935   6.942
 3343SOL    HW210929   4.895   3.855   6.986
 3344SOL     OW10930   6.234   3.138   3.432
 3344SOL    HW110931   6.135   3.130   3.445
 3344SOL    HW210932   6.261   3.084   3.352
 3345SOL     OW10933   1.425   2.978   6.307
 3345SOL    HW110934   1.445   2.955   6.402
 3345SOL    HW210935   1.479   2.920   6.246
 3346SOL     OW10936   0.904   1.046   6.895
 3346SOL    HW110937   0.963   1.125   6.911
 3346SOL    HW210938   0.814   1.077   6.863
 3347SOL     OW10939   1.049   2.992   5.096
 3347SOL    HW110940   1.047   3.073   5.155
 3347SOL    HW210941   1.020   3.018   5.004
 3348SOL     OW10942   4.080   3.683   4.583
 3348SOL    HW110943   4.133   3.634   4.652
 3348SOL    HW210944   3.988   3.645   4.578
 3349SOL     OW10945   1.735   4.945   3.123
 3349SOL    HW110946   1.721   4.872   3.190
 3349SOL    HW210947   1.716   4.910   3.031
 3350SOL     OW10948   0.165   2.278   5.851
 3350SOL    HW110949   0.155   2.196   5.795
 3350SOL    HW210950   0.196   2.354   5.794
 3351SOL     OW10951   5.162   0.607   2.716
 3351SOL    HW110952   5.237   0.585   2.779
 3351SOL    HW210953   5.083   0.549   2.737
 3352SOL     OW10954   6.578   3.308   0.668
 3352SOL    HW110955   6.603   3.226   0.720
 3352SOL    HW210956   6.640   3.317   0.589
 3353SOL     OW10957   3.096   5.843   1.959
 3353SOL    HW110958   3.160   5.808   1.891
 3353SOL    HW210959   3.146   5.883   2.036
 3354SOL     OW10960   4.760   2.560   5.717
 3354SOL    HW110961   4.854   2.531   5.699
 3354SOL    HW210962   4.732   2.627   5.648
 3355SOL     OW10963   2.451   2.034   6.182
 3355SOL    HW110964   2.526   2.089   6.218
 3355SOL    HW210965   2.487   1.955   6.134
 3356SOL     OW10966   0.266   5.141   5.867
 3356SOL    HW110967   0.206   5.217   5.841
 3356SOL    HW210968   0.285   5.085   5.787
 3357SOL     OW10969   2.192   3.788   2.091
 3357SOL    HW110970   2.265   3.848   2.058
 3357SOL    HW210971   2.223   3.693   2.087
 3358SOL     OW10972   4.672   2.219   1.157
 3358SOL    HW110973   4.727   2.210   1.239
 3358SOL    HW210974   4.577   2.241   1.182
 3359SOL     OW10975   0.550   6.566   2.672
 3359SOL    HW110976   0.552   6.496   2.744
 3359SOL    HW210977   0.528   6.522   2.585
 3360SOL     OW10978   1.729   1.203   0.172
 3360SOL    HW110979   1.815   1.242   0.140
 3360SOL    HW210980   1.741   1.163   0.262
 3361SOL     OW10981   0.317   5.449   4.505
 3361SOL    HW110982   0.405   5.456   4.458
 3361SOL    HW210983   0.244   5.478   4.443
 3362SOL     OW10984   3.410   1.700   2.527
 3362SOL    HW110985   3.439   1.783   2.480
 3362SOL    HW210986   3.360   1.725   2.610
 3363SOL     OW10987   6.863   0.630   2.240
 3363SOL    HW110988   6.784   0.654   2.184
 3363SOL    HW210989   6.924   0.570   2.187
 3364SOL     OW10990   1.603   4.918   3.584
 3364SOL    HW110991   1.572   4.994   3.642
 3364SOL    HW210992   1.607   4.948   3.489
 3365SOL     OW10993   0.170   2.036   5.176
 3365SOL    HW110994   0.095   2.066   5.117
 3365SOL    HW210995   0.198   2.112   5.234
 3366SOL     OW10996   5.835   5.300   4.552
 3366SOL    HW110997   5.764   5.307   4.483
 3366SOL    HW210998   5.833   5.381   4.610
 3367SOL     OW10999   3.965   3.005   2.535
 3367SOL    HW111000   4.027   2.928   2.552
 3367SOL    HW211001   3.896   3.009   2.606
 3368SOL     OW11002   0.200   5.777   6.789
 3368SOL    HW111003   0.229   5.736   6.703
 3368SOL    HW211004   0.111   5.740   6.816
 3369SOL     OW11005   3.618   1.673   0.804
 3369SOL    HW111006   3.520   1.677   0.824
 3369SOL    HW211007   3.642   1.746   0.741
 3370SOL     OW11008   6.977   6.154   0.619
 3370SOL    HW111009   6.957   6.074   0.563
 3370SOL    HW211010   0.057   6.175   0.613
 3371SOL     OW11011   2.037   2.269   1.698
 3371SOL    HW111012   2.022   2.283   1.600
 3371SOL    HW211013   2.046   2.358   1.743
 3372SOL     OW11014   6.452   1.926   0.359
 3372SOL    HW111015   6.501   1.868   0.294
 3372SOL    HW211016   6.470   1.894   0.452
 3373SOL     OW11017   0.605   1.772   3.763
 3373SOL    HW111018   0.636   1.798   3.855
 3373SOL    HW211019   0.679   1.723   3.717
 3374SOL     OW11020   1.058   6.589   4.611
 3374SOL    HW111021   1.043   6.553   4.518
 3374SOL    HW211022   1.118   6.668   4.607
 3375SOL     OW11023   0.250   4.821   0.070
 3375SOL    HW111024   0.237   4.878   0.151
 3375SOL    HW211025   0.168   4.766   0.054
 3376SOL     OW11026   4.097   3.295   4.219
 3376SOL    HW111027   4.166   3.247   4.274
 3376SOL    HW211028   4.113   3.393   4.224
 3377SOL     OW11029   6.176   5.913   6.129
 3377SOL    HW111030   6.133   6.000   6.154
 3377SOL    HW211031   6.261   5.902   6.180
 3378SOL     OW11032   0.960   0.940   0.787
 3378SOL    HW111033   1.019   0.860   0.782
 3378SOL    HW211034   0.907   0.948   0.703
 3379SOL     OW11035   0.895   1.150   5.862
 3379SOL    HW111036   0.828   1.222   5.879
 3379SOL    HW211037   0.965   1.151   5.933
 3380SOL     OW11038   5.646   6.576   4.757
 3380SOL    HW111039   5.692   6.665   4.761
 3380SOL    HW211040   5.622   6.555   4.662
 3381SOL     OW11041   0.575   2.550   1.214
 3381SOL    HW111042   0.603   2.629   1.268
 3381SOL    HW211043   0.572   2.469   1.272
 3382SOL     OW11044   0.661   2.917   0.321
 3382SOL    HW111045   0.568   2.922   0.357
 3382SOL    HW211046   0.660   2.935   0.222
 3383SOL     OW11047   4.285   5.850   1.183
 3383SOL    HW111048   4.301   5.939   1.139
 3383SOL    HW211049   4.344   5.842   1.264
 3384SOL     OW11050   3.178   3.108   0.111
 3384SOL    HW111051   3.176   3.078   0.015
 3384SOL    HW211052   3.100   3.069   0.159
 3385SOL     OW11053   0.129   3.333   4.967
 3385SOL    HW111054   0.184   3.416   4.973
 3385SOL    HW211055   0.045   3.352   4.916
 3386SOL     OW11056   5.389   4.733   0.343
 3386SOL    HW111057   5.470   4.694   0.299
 3386SOL    HW211058   5.376   4.827   0.311
 3387SOL     OW11059   2.535   0.711   2.830
 3387SOL    HW111060   2.611   0.773   2.851
 3387SOL    HW211061   2.533   0.636   2.897
 3388SOL     OW11062   5.473   3.130   2.331
 3388SOL    HW111063   5.511   3.185   2.257
 3388SOL    HW211064   5.486   3.178   2.418
 3389SOL     OW11065   6.078   5.585   6.618
 3389SOL    HW111066   6.047   5.628   6.533
 3389SOL    HW211067   6.014   5.512   6.643
 3390SOL     OW11068   5.857   6.871   6.417
 3390SOL    HW111069   5.808   6.947   6.460
 3390SOL    HW211070   5.822   6.858   6.324
 3391SOL     OW11071   4.780   2.454   4.541
 3391SOL    HW111072   4.784   2.496   4.450
 3391SOL    HW211073   4.732   2.516   4.604
 3392SOL     OW11074   2.234   0.135   3.451
 3392SOL    HW111075   2.223   0.226   3.412
 3392SOL    HW211076   2.261   0.143   3.547
 3393SOL     OW11077   0.099   6.044   0.859
 3393SOL    HW111078   0.068   6.092   0.776
 3393SOL    HW211079   0.193   6.069   0.878
 3394SOL     OW11080   5.638   3.287   1.346
 3394SOL    HW111081   5.600   3.328   1.263
 3394SOL    HW211082   5.661   3.191   1.328
 3395SOL     OW11083   5.528   3.261   3.304
 3395SOL    HW111084   5.608   3.271   3.363
 3395SOL    HW211085   5.445   3.266   3.360
 3396SOL     OW11086   5.031   1.599   3.129
 3396SOL    HW111087   4.975   1.559   3.056
 3396SOL    HW211088   4.972   1.641   3.197
 3397SOL     OW11089   3.007   6.022   5.769
 3397SOL    HW111090   3.103   5.999   5.779
 3397SOL    HW211091   2.952   5.938   5.764
 3398SOL     OW11092   0.646   6.870   4.987
 3398SOL    HW111093   0.621   6.792   4.930
 3398SOL    HW211094   0.582   6.945   4.970
 3399SOL     OW11095   5.675   4.553   3.497
 3399SOL    HW111096   5.736   4.625   3.532
 3399SOL    HW211097   5.619   4.518   3.573
 3400SOL     OW11098   4.749   3.334   6.566
 3400SOL    HW111099   4.779   3.409   6.506
 3400SOL    HW211100   4.802   3.252   6.545
 3401SOL     OW11101   0.428   2.987   0.453
 3401SOL    HW111102   0.417   2.945   0.543
 3401SOL    HW211103   0.367   3.066   0.446
 3402SOL     OW11104   4.319   5.629   6.536
 3402SOL    HW111105   4.305   5.728   6.532
 3402SOL    HW211106   4.270   5.592   6.615
 3403SOL     OW11107   3.288   5.466   5.891
 3403SOL    HW111108   3.352   5.451   5.816
 3403SOL    HW211109   3.250   5.378   5.920
 3404SOL     OW11110   5.133   1.766   0.491
 3404SOL    HW111111   5.154   1.685   0.435
 3404SOL    HW211112   5.178   1.757   0.580
 3405SOL     OW11113   6.404   4.201   5.863
 3405SOL    HW111114   6.433   4.266   5.793
 3405SOL    HW211115   6.457   4.116   5.853
 3406SOL     OW11116   0.819   3.236   1.841
 3406SOL    HW111117   0.807   3.315   1.782
 3406SOL    HW211118   0.916   3.224   1.862
 3407SOL     OW11119   1.425   4.483   6.413
 3407SOL    HW111120   1.482   4.405   6.441
 3407SOL    HW211121   1.483   4.555   6.376
 3408SOL     OW11122   5.330   3.621   4.790
 3408SOL    HW111123   5.280   3.693   4.839
 3408SOL    HW211124   5.374   3.561   4.856
 3409SOL     OW11125   3.351   6.358   6.405
 3409SOL    HW111126   3.441   6.399   6.387
 3409SOL    HW211127   3.330   6.363   6.502
 3410SOL     OW11128   6.514   0.005   1.350
 3410SOL    HW111129   6.611   7.000   1.341
 3410SOL    HW211130   6.459   6.944   1.323
 3411SOL     OW11131   0.696   3.024   1.362
 3411SOL    HW111132   0.780   3.061   1.323
 3411SOL    HW211133   0.617   3.063   1.315
 3412SOL     OW11134   4.593   2.801   1.052
 3412SOL    HW111135   4.516   2.762   1.101
 3412SOL    HW211136   4.672   2.740   1.060
 3413SOL     OW11137   6.017   1.557   0.744
 3413SOL    HW111138   5.933   1.548   0.797
 3413SOL    HW211139   6.031   1.474   0.690
 3414SOL     OW11140   3.702   1.850   6.118
 3414SOL    HW111141   3.614   1.837   6.073
 3414SOL    HW211142   3.690   1.844   6.217
 3415SOL     OW11143   1.675   3.416   3.897
 3415SOL    HW111144   1.731   3.478   3.842
 3415SOL    HW211145   1.587   3.402   3.852
 3416SOL     OW11146   6.161   6.373   1.069
 3416SOL    HW111147   6.068   6.346   1.095
 3416SOL    HW211148   6.158   6.427   0.985
 3417SOL     OW11149   0.080   6.449   3.484
 3417SOL    HW111150   0.163   6.413   3.442
 3417SOL    HW211151   0.059   6.539   3.445
 3418SOL     OW11152   3.288   5.731   3.318
 3418SOL    HW111153   3.379   5.691   3.304
 3418SOL    HW211154   3.293   5.798   3.392
 3419SOL     OW11155   2.902   5.793   5.721
 3419SOL    HW111156   2.932   5.729   5.792
 3419SOL    HW211157   2.812   5.766   5.688
 3420SOL     OW11158   5.959   2.950   4.036
 3420SOL    HW111159   5.999   2.859   4.026
 3420SOL    HW211160   6.027   3.019   4.013
 3421SOL     OW11161   4.874   1.578   4.347
 3421SOL    HW111162   4.776   1.591   4.362
 3421SOL    HW211163   4.922   1.583   4.434
 3422SOL     OW11164   2.193   0.371   0.039
 3422SOL    HW111165   2.200   0.318   6.972
 3422SOL    HW211166   2.159   0.462   0.018
 3423SOL     OW11167   0.240   4.787   6.598
 3423SOL    HW111168   0.247   4.751   6.506
 3423SOL    HW211169   0.172   4.735   6.650
 3424SOL     OW11170   2.276   6.384   0.747
 3424SOL    HW111171   2.345   6.414   0.681
 3424SOL    HW211172   2.202   6.337   0.700
 3425SOL     OW11173   5.131   5.046   2.509
 3425SOL    HW111174   5.033   5.026   2.508
 3425SOL    HW211175   5.182   4.962   2.525
 3426SOL     OW11176   4.377   2.597   0.618
 3426SOL    HW111177   4.469   2.636   0.624
 3426SOL    HW211178   4.373   2.512   0.670
 3427SOL     OW11179   0.155   1.207   0.793
 3427SOL    HW111180   0.138   1.246   0.884
 3427SOL    HW211181   0.070   1.169   0.758
 3428SOL     OW11182   2.378   5.493   6.921
 3428SOL    HW111183   2.414   5.450   6.838
 3428SOL    HW211184   2.326   5.426   6.974
 3429SOL     OW11185   0.513   1.580   0.542
 3429SOL    HW111186   0.434   1.572   0.602
 3429SOL    HW211187   0.486   1.555   0.449
 3430SOL     OW11188   1.703   6.610   5.559
 3430SOL    HW111189   1.716   6.612   5.658
 3430SOL    HW211190   1.606   6.614   5.538
 3431SOL     OW11191   1.644   0.111   1.308
 3431SOL    HW111192   1.651   0.025   1.259
 3431SOL    HW211193   1.547   0.130   1.329
 3432SOL     OW11194   1.431   3.457   6.223
 3432SOL    HW111195   1.340   3.479   6.187
 3432SOL    HW211196   1.435   3.360   6.247
 3433SOL     OW11197   1.444   6.286   5.150
 3433SOL    HW111198   1.520   6.349   5.135
 3433SOL    HW211199   1.466   6.224   5.225
 3434SOL     OW11200   4.411   1.083   2.447
 3434SOL    HW111201   4.341   1.152   2.469
 3434SOL    HW211202   4.394   1.047   2.355
 3435SOL     OW11203   1.915   0.828   0.884
 3435SOL    HW111204   1.876   0.920   0.884
 3435SOL    HW211205   1.999   0.828   0.829
 3436SOL     OW11206   3.752   6.573   0.026
 3436SOL    HW111207   3.812   6.505   7.002
 3436SOL    HW211208   3.796   6.611   0.108
 3437SOL     OW11209   2.301   0.119   5.427
 3437SOL    HW111210   2.335   0.169   5.507
 3437SOL    HW211211   2.337   0.161   5.344
 3438SOL     OW11212   1.284   3.225   0.243
 3438SOL    HW111213   1.291   3.312   0.195
 3438SOL    HW211214   1.357   3.163   0.212
 3439SOL     OW11215   2.198   6.168   4.725
 3439SOL    HW111216   2.265   6.240   4.708
 3439SOL    HW211217   2.226   6.084   4.679
 3440SOL     OW11218   2.970   3.296   1.008
 3440SOL    HW111219   2.957   3.325   0.914
 3440SOL    HW211220   2.908   3.347   1.068
 3441SOL     OW11221   6.217   5.097   5.641
 3441SOL    HW111222   6.312   5.128   5.645
 3441SOL    HW211223   6.195   5.066   5.548
 3442SOL     OW11224   2.019   4.638   1.745
 3442SOL    HW111225   2.082   4.651   1.821
 3442SOL    HW211226   2.043   4.555   1.695
 3443SOL     OW11227   3.802   6.402   1.841
 3443SOL    HW111228   3.761   6.463   1.773
 3443SOL    HW211229   3.866   6.455   1.897
 3444SOL     OW11230   5.053   5.877   6.370
 3444SOL    HW111231   5.144   5.880   6.330
 3444SOL    HW211232   5.052   5.813   6.447
 3445SOL     OW11233   5.967   5.368   2.888
 3445SOL    HW111234   5.959   5.268   2.878
 3445SOL    HW211235   5.889   5.413   2.846
 3446SOL     OW11236   6.518   1.565   1.701
 3446SOL    HW111237   6.435   1.582   1.756
 3446SOL    HW211238   6.539   1.648   1.648
 3447SOL     OW11239   5.326   5.679   1.020
 3447SOL    HW111240   5.359   5.653   1.111
 3447SOL    HW211241   5.405   5.703   0.962
 3448SOL     OW11242   4.299   1.032   6.811
 3448SOL    HW111243   4.324   1.125   6.786
 3448SOL    HW211244   4.316   0.971   6.733
 3449SOL     OW11245   5.711   5.745   4.493
 3449SOL    HW111246   5.743   5.768   4.400
 3449SOL    HW211247   5.623   5.789   4.509
 3450SOL     OW11248   0.018   2.607   6.992
 3450SOL    HW111249   6.959   2.652   6.947
 3450SOL    HW211250   0.099   2.614   6.934
 3451SOL     OW11251   2.167   6.236   0.099
 3451SOL    HW111252   2.192   6.170   0.169
 3451SOL    HW211253   2.188   6.198   0.009
 3452SOL     OW11254   5.682   0.835   6.616
 3452SOL    HW111255   5.692   0.913   6.553
 3452SOL    HW211256   5.692   0.750   6.565
 3453SOL     OW11257   6.349   5.527   6.520
 3453SOL    HW111258   6.349   5.512   6.421
 3453SOL    HW211259   6.255   5.538   6.552
 3454SOL     OW11260   0.921   3.144   4.870
 3454SOL    HW111261   0.858   3.189   4.807
 3454SOL    HW211262   0.992   3.208   4.897
 3455SOL     OW11263   2.547   2.163   4.222
 3455SOL    HW111264   2.598   2.184   4.138
 3455SOL    HW211265   2.489   2.241   4.245
 3456SOL     OW11266   5.437   5.079   1.663
 3456SOL    HW111267   5.337   5.089   1.662
 3456SOL    HW211268   5.475   5.129   1.740
 3457SOL     OW11269   2.854   5.127   3.605
 3457SOL    HW111270   2.815   5.206   3.557
 3457SOL    HW211271   2.903   5.159   3.686
 3458SOL     OW11272   5.016   0.932   2.380
 3458SOL    HW111273   5.016   1.032   2.375
 3458SOL    HW211274   5.086   0.903   2.445
 3459SOL     OW11275   5.425   3.141   2.894
 3459SOL    HW111276   5.503   3.098   2.940
 3459SOL    HW211277   5.385   3.076   2.831
 3460SOL     OW11278   2.294   2.448   6.927
 3460SOL    HW111279   2.258   2.477   7.015
 3460SOL    HW211280   2.372   2.386   6.941
 3461SOL     OW11281   5.400   3.971   5.916
 3461SOL    HW111282   5.498   3.967   5.934
 3461SOL    HW211283   5.350   3.973   6.003
 3462SOL     OW11284   0.360   4.019   4.501
 3462SOL    HW111285   0.453   4.055   4.507
 3462SOL    HW211286   0.362   3.919   4.509
 3463SOL     OW11287   0.929   4.101   2.018
 3463SOL    HW111288   0.988   4.051   2.083
 3463SOL    HW211289   0.984   4.167   1.967
 3464SOL     OW11290   6.608   4.306   5.019
 3464SOL    HW111291   6.542   4.301   4.944
 3464SOL    HW211292   6.662   4.390   5.010
 3465SOL     OW11293   1.192   1.813   2.033
 3465SOL    HW111294   1.280   1.845   2.069
 3465SOL    HW211295   1.157   1.740   2.091
 3466SOL     OW11296   6.663   4.733   6.704
 3466SOL    HW111297   6.596   4.691   6.642
 3466SOL    HW211298   6.735   4.775   6.650
 3467SOL     OW11299   2.098   2.806   0.099
 3467SOL    HW111300   2.137   2.886   0.053
 3467SOL    HW211301   2.018   2.834   0.153
 3468SOL     OW11302   4.500   6.326   3.390
 3468SOL    HW111303   4.480   6.389   3.315
 3468SOL    HW211304   4.599   6.323   3.406
 3469SOL     OW11305   5.197   0.375   3.512
 3469SOL    HW111306   5.140   0.440   3.461
 3469SOL    HW211307   5.146   0.290   3.526
 3470SOL     OW11308   6.183   3.809   1.031
 3470SOL    HW111309   6.126   3.864   1.093
 3470SOL    HW211310   6.214   3.865   0.955
 3471SOL     OW11311   3.977   5.515   3.939
 3471SOL    HW111312   4.074   5.526   3.959
 3471SOL    HW211313   3.948   5.421   3.960
 3472SOL     OW11314   2.310   0.857   2.227
 3472SOL    HW111315   2.291   0.825   2.134
 3472SOL    HW211316   2.342   0.952   2.224
 3473SOL     OW11317   0.058   2.126   0.955
 3473SOL    HW111318   7.001   2.104   1.017
 3473SOL    HW211319   0.097   2.215   0.980
 3474SOL     OW11320   1.631   4.953   2.692
 3474SOL    HW111321   1.577   4.882   2.647
 3474SOL    HW211322   1.728   4.940   2.670
 3475SOL     OW11323   0.886   5.349   4.780
 3475SOL    HW111324   0.911   5.373   4.686
 3475SOL    HW211325   0.851   5.255   4.783
 3476SOL     OW11326   3.288   2.080   2.926
 3476SOL    HW111327   3.199   2.069   2.883
 3476SOL    HW211328   3.277   2.090   3.025
 3477SOL     OW11329   3.044   4.928   1.417
 3477SOL    HW111330   3.042   4.999   1.347
 3477SOL    HW211331   3.127   4.937   1.472
 3478SOL     OW11332   2.204   6.011   4.457
 3478SOL    HW111333   2.123   6.069   4.448
 3478SOL    HW211334   2.185   5.938   4.522
 3479SOL     OW11335   1.413   0.745   2.792
 3479SOL    HW111336   1.506   0.748   2.754
 3479SOL    HW211337   1.413   0.691   2.876
 3480SOL     OW11338   0.236   7.002   5.317
 3480SOL    HW111339   0.245   7.015   5.218
 3480SOL    HW211340   0.156   6.945   5.336
 3481SOL     OW11341   4.857   0.180   0.369
 3481SOL    HW111342   4.923   0.246   0.334
 3481SOL    HW211343   4.879   0.158   0.464
 3482SOL     OW11344   5.832   1.773   1.406
 3482SOL    HW111345   5.745   1.819   1.387
 3482SOL    HW211346   5.884   1.825   1.473
 3483SOL     OW11347   4.749   1.640   1.721
 3483SOL    HW111348   4.749   1.629   1.621
 3483SOL    HW211349   4.657   1.664   1.751
 3484SOL     OW11350   2.681   3.686   1.150
 3484SOL    HW111351   2.727   3.607   1.191
 3484SOL    HW211352   2.619   3.656   1.078
 3485SOL     OW11353   1.469   0.518   3.618
 3485SOL    HW111354   1.419   0.556   3.541
 3485SOL    HW211355   1.410   0.454   3.668
 3486SOL     OW11356   2.910   1.533   2.573
 3486SOL    HW111357   2.821   1.501   2.538
 3486SOL    HW211358   2.927   1.625   2.538
 3487SOL     OW11359   5.818   3.074   6.002
 3487SOL    HW111360   5.818   3.148   6.070
 3487SOL    HW211361   5.887   3.006   6.027
 3488SOL     OW11362   6.303   1.808   5.136
 3488SOL    HW111363   6.235   1.850   5.196
 3488SOL    HW211364   6.313   1.711   5.160
 3489SOL     OW11365   3.275   6.830   0.411
 3489SOL    HW111366   3.199   6.838   0.346
 3489SOL    HW211367   3.258   6.891   0.489
 3490SOL     OW11368   4.161   4.915   0.155
 3490SOL    HW111369   4.165   4.918   0.055
 3490SOL    HW211370   4.066   4.917   0.185
 3491SOL     OW11371   5.522   2.657   5.299
 3491SOL    HW111372   5.428   2.649   5.266
 3491SOL    HW211373   5.522   2.660   5.399
 3492SOL     OW11374   1.426   5.816   1.150
 3492SOL    HW111375   1.414   5.893   1.088
 3492SOL    HW211376   1.457   5.736   1.099
 3493SOL     OW11377   5.893   4.586   6.316
 3493SOL    HW111378   5.953   4.629   6.249
 3493SOL    HW211379   5.825   4.530   6.269
 3494SOL     OW11380   4.047   0.750   1.864
 3494SOL    HW111381   4.023   0.656   1.843
 3494SOL    HW211382   3.965   0.807   1.862
 3495SOL     OW11383   4.574   5.449   2.059
 3495SOL    HW111384   4.625   5.363   2.066
 3495SOL    HW211385   4.634   5.521   2.024
 3496SOL     OW11386   6.934   4.024   0.643
 3496SOL    HW111387   6.984   3.987   0.721
 3496SOL    HW211388   6.970   3.984   0.559
 3497SOL     OW11389   3.026   0.513   3.599
 3497SOL    HW111390   3.058   0.429   3.556
 3497SOL    HW211391   3.100   0.580   3.599
 3498SOL     OW11392   2.170   2.499   0.932
 3498SOL    HW111393   2.118   2.414   0.924
 3498SOL    HW211394   2.188   2.519   1.028
 3499SOL     OW11395   4.760   2.834   4.561
 3499SOL    HW111396   4.684   2.873   4.509
 3499SOL    HW211397   4.828   2.905   4.581
 3500SOL     OW11398   1.410   3.688   5.135
 3500SOL    HW111399   1.467   3.608   5.118
 3500SOL    HW211400   1.459   3.771   5.110
 3501SOL     OW11401   2.114   5.393   3.967
 3501SOL    HW111402   2.072   5.315   3.921
 3501SOL    HW211403   2.171   5.362   4.043
 3502SOL     OW11404   5.972   2.701   2.470
 3502SOL    HW111405   5.995   2.632   2.401
 3502SOL    HW211406   5.984   2.792   2.430
 3503SOL     OW11407   6.249   6.111   5.153
 3503SOL    HW111408   6.283   6.017   5.150
 3503SOL    HW211409   6.189   6.127   5.075
 3504SOL     OW11410   2.185   1.523   1.057
 3504SOL    HW111411   2.156   1.530   1.152
 3504SOL    HW211412   2.126   1.581   1.000
 3505SOL     OW11413   5.270   5.271   4.729
 3505SOL    HW111414   5.230   5.262   4.820
 3505SOL    HW211415   5.307   5.182   4.700
 3506SOL     OW11416   4.841   6.182   6.000
 3506SOL    HW111417   4.769   6.210   6.064
 3506SOL    HW211418   4.894   6.107   6.041
 3507SOL     OW11419   2.582   0.520   6.962
 3507SOL    HW111420   2.518   0.591   6.934
 3507SOL    HW211421   2.553   0.432   6.927
 3508SOL     OW11422   2.963   1.949   6.026
 3508SOL    HW111423   2.965   2.003   6.110
 3508SOL    HW211424   3.004   2.001   5.951
 3509SOL     OW11425   5.664   0.038   6.055
 3509SOL    HW111426   5.639   0.002   5.965
 3509SOL    HW211427   5.585   0.085   6.095
 3510SOL     OW11428   1.674   2.365   1.344
 3510SOL    HW111429   1.602   2.300   1.370
 3510SOL    HW211430   1.714   2.336   1.257
 3511SOL     OW11431   2.143   4.765   0.544
 3511SOL    HW111432   2.076   4.838   0.549
 3511SOL    HW211433   2.145   4.727   0.451
 3512SOL     OW11434   6.917   4.335   0.314
 3512SOL    HW111435   6.947   4.407   0.377
 3512SOL    HW211436   6.817   4.329   0.314
 3513SOL     OW11437   6.088   3.879   0.408
 3513SOL    HW111438   6.016   3.815   0.382
 3513SOL    HW211439   6.167   3.827   0.442
 3514SOL     OW11440   0.046   1.417   1.371
 3514SOL    HW111441   0.124   1.386   1.425
 3514SOL    HW211442   0.077   1.485   1.304
 3515SOL     OW11443   4.767   6.358   3.423
 3515SOL    HW111444   4.856   6.341   3.464
 3515SOL    HW211445   4.779   6.412   3.339
 3516SOL     OW11446   4.319   6.777   0.968
 3516SOL    HW111447   4.341   6.872   0.944
 3516SOL    HW211448   4.379   6.716   0.915
 3517SOL     OW11449   0.798   2.179   0.576
 3517SOL    HW111450   0.876   2.171   0.637
 3517SOL    HW211451   0.813   2.254   0.511
 3518SOL     OW11452   5.724   4.183   4.829
 3518SOL    HW111453   5.749   4.109   4.892
 3518SOL    HW211454   5.697   4.143   4.741
 3519SOL     OW11455   1.454   0.748   6.149
 3519SOL    HW111456   1.458   0.715   6.055
 3519SOL    HW211457   1.396   0.687   6.203
 3520SOL     OW11458   2.949   4.805   6.491
 3520SOL    HW111459   2.954   4.871   6.417
 3520SOL    HW211460   2.976   4.848   6.577
 3521SOL     OW11461   5.530   3.439   0.755
 3521SOL    HW111462   5.488   3.352   0.780
 3521SOL    HW211463   5.614   3.423   0.703
 3522SOL     OW11464   5.874   4.972   2.197
 3522SOL    HW111465   5.959   4.934   2.160
 3522SOL    HW211466   5.890   5.008   2.289
 3523SOL     OW11467   3.009   5.153   5.650
 3523SOL    HW111468   2.910   5.159   5.634
 3523SOL    HW211469   3.043   5.065   5.618
 3524SOL     OW11470   3.106   1.052   0.907
 3524SOL    HW111471   3.122   0.962   0.867
 3524SOL    HW211472   3.008   1.071   0.908
 3525SOL     OW11473   0.635   3.996   1.567
 3525SOL    HW111474   0.624   4.096   1.560
 3525SOL    HW211475   0.629   3.956   1.476
 3526SOL     OW11476   2.763   6.541   3.577
 3526SOL    HW111477   2.858   6.510   3.577
 3526SOL    HW211478   2.728   6.542   3.670
 3527SOL     OW11479   6.219   3.541   6.104
 3527SOL    HW111480   6.144   3.603   6.129
 3527SOL    HW211481   6.303   3.594   6.093
 3528SOL     OW11482   0.904   5.328   3.971
 3528SOL    HW111483   0.989   5.314   4.021
 3528SOL    HW211484   0.831   5.350   4.036
 3529SOL     OW11485   4.932   6.689   5.969
 3529SOL    HW111486   4.910   6.773   6.017
 3529SOL    HW211487   4.855   6.663   5.911
 3530SOL     OW11488   1.752   4.366   3.144
 3530SOL    HW111489   1.679   4.337   3.206
 3530SOL    HW211490   1.714   4.419   3.069
 3531SOL     OW11491   4.800   4.132   1.118
 3531SOL    HW111492   4.795   4.218   1.067
 3531SOL    HW211493   4.752   4.060   1.068
 3532SOL     OW11494   2.737   0.404   0.143
 3532SOL    HW111495   2.675   0.449   0.078
 3532SOL    HW211496   2.812   0.360   0.093
 3533SOL     OW11497   1.009   2.137   2.485
 3533SOL    HW111498   1.007   2.055   2.427
 3533SOL    HW211499   0.943   2.127   2.559
 3534SOL     OW11500   5.987   1.226   5.267
 3534SOL    HW111501   6.064   1.164   5.278
 3534SOL    HW211502   5.916   1.182   5.211
 3535SOL     OW11503   0.348   5.834   0.770
 3535SOL    HW111504   0.441   5.864   0.748
 3535SOL    HW211505   0.334   5.838   0.869
 3536SOL     OW11506   1.997   2.597   3.949
 3536SOL    HW111507   2.045   2.544   4.020
 3536SOL    HW211508   2.035   2.573   3.859
 3537SOL     OW11509   2.296   4.969   0.064
 3537SOL    HW111510   2.380   5.012   0.098
 3537SOL    HW211511   2.252   5.030   7.016
 3538SOL     OW11512   2.413   0.521   4.500
 3538SOL    HW111513   2.494   0.569   4.531
 3538SOL    HW211514   2.431   0.477   4.412
 3539SOL     OW11515   5.581   3.499   6.578
 3539SOL    HW111516   5.527   3.442   6.516
 3539SOL    HW211517   5.526   3.523   6.658
 3540SOL     OW11518   2.109   1.658   4.985
 3540SOL    HW111519   2.068   1.660   4.894
 3540SOL    HW211520   2.089   1.569   5.028
 3541SOL     OW11521   2.605   2.773   6.777
 3541SOL    HW111522   2.550   2.826   6.842
 3541SOL    HW211523   2.545   2.714   6.724
 3542SOL     OW11524   0.721   3.421   1.664
 3542SOL    HW111525   0.701   3.518   1.657
 3542SOL    HW211526   0.718   3.379   1.574
 3543SOL     OW11527   0.905   3.174   5.416
 3543SOL    HW111528   0.992   3.220   5.395
 3543SOL    HW211529   0.838   3.197   5.345
 3544SOL     OW11530   2.393   4.705   6.172
 3544SOL    HW111531   2.472   4.686   6.113
 3544SOL    HW211532   2.414   4.678   6.266
 3545SOL     OW11533   3.793   5.218   6.752
 3545SOL    HW111534   3.738   5.212   6.669
 3545SOL    HW211535   3.762   5.296   6.807
 3546SOL     OW11536   6.891   4.338   3.177
 3546SOL    HW111537   6.830   4.292   3.242
 3546SOL    HW211538   6.934   4.416   3.222
 3547SOL     OW11539   5.845   3.934   4.080
 3547SOL    HW111540   5.777   3.902   4.013
 3547SOL    HW211541   5.937   3.921   4.042
 3548SOL     OW11542   5.186   0.220   5.813
 3548SOL    HW111543   5.253   0.193   5.744
 3548SOL    HW211544   5.233   0.241   5.898
 3549SOL     OW11545   0.907   5.044   6.272
 3549SOL    HW111546   0.943   5.136   6.257
 3549SOL    HW211547   0.810   5.049   6.294
 3550SOL     OW11548   5.622   2.488   4.819
 3550SOL    HW111549   5.580   2.414   4.765
 3550SOL    HW211550   5.715   2.462   4.844
 3551SOL     OW11551   3.802   1.624   3.807
 3551SOL    HW111552   3.775   1.610   3.711
 3551SOL    HW211553   3.750   1.700   3.846
 3552SOL     OW11554   5.744   6.817   1.984
 3552SOL    HW111555   5.651   6.783   1.967
 3552SOL    HW211556   5.790   6.835   1.897
 3553SOL     OW11557   3.485   5.857   0.066
 3553SOL    HW111558   3.401   5.822   0.023
 3553SOL    HW211559   3.526   5.926   0.007
 3554SOL     OW11560   4.167   2.890   0.805
 3554SOL    HW111561   4.222   2.840   0.739
 3554SOL    HW211562   4.218   2.897   0.891
 3555SOL     OW11563   0.802   3.486   4.524
 3555SOL    HW111564   0.730   3.455   4.463
 3555SOL    HW211565   0.885   3.432   4.508
 3556SOL     OW11566   3.552   0.285   4.274
 3556SOL    HW111567   3.574   0.292   4.371
 3556SOL    HW211568   3.548   0.377   4.234
 3557SOL     OW11569   1.231   0.356   3.971
 3557SOL    HW111570   1.317   0.398   3.998
 3557SOL    HW211571   1.155   0.410   4.007
 3558SOL     OW11572   1.624   5.139   2.305
 3558SOL    HW111573   1.615   5.184   2.216
 3558SOL    HW211574   1.541   5.153   2.358
 3559SOL     OW11575   0.603   5.989   5.156
 3559SOL    HW111576   0.642   6.066   5.205
 3559SOL    HW211577   0.628   5.994   5.059
 3560SOL     OW11578   2.176   5.061   2.932
 3560SOL    HW111579   2.123   5.001   2.992
 3560SOL    HW211580   2.140   5.154   2.938
 3561SOL     OW11581   5.173   4.111   5.143
 3561SOL    HW111582   5.110   4.033   5.140
 3561SOL    HW211583   5.125   4.194   5.113
 3562SOL     OW11584   3.040   1.103   2.990
 3562SOL    HW111585   2.961   1.146   2.946
 3562SOL    HW211586   3.098   1.060   2.921
 3563SOL     OW11587   6.632   2.084   6.920
 3563SOL    HW111588   6.656   2.016   6.851
 3563SOL    HW211589   6.682   2.063   7.005
 3564SOL     OW11590   0.772   4.539   2.417
 3564SOL    HW111591   0.757   4.452   2.464
 3564SOL    HW211592   0.728   4.613   2.467
 3565SOL     OW11593   2.840   6.164   4.380
 3565SOL    HW111594   2.767   6.214   4.427
 3565SOL    HW211595   2.918   6.225   4.366
 3566SOL     OW11596   6.213   2.850   6.834
 3566SOL    HW111597   6.289   2.795   6.803
 3566SOL    HW211598   6.183   2.818   6.924
 3567SOL     OW11599   0.623   2.393   6.951
 3567SOL    HW111600   0.723   2.389   6.963
 3567SOL    HW211601   0.581   2.427   0.017
 3568SOL     OW11602   5.485   4.450   4.474
 3568SOL    HW111603   5.575   4.408   4.461
 3568SOL    HW211604   5.416   4.378   4.484
 3569SOL     OW11605   2.610   2.443   6.196
 3569SOL    HW111606   2.624   2.521   6.135
 3569SOL    HW211607   2.699   2.408   6.226
 3570SOL     OW11608   5.030   0.601   5.883
 3570SOL    HW111609   4.947   0.568   5.839
 3570SOL    HW211610   5.106   0.599   5.818
 3571SOL     OW11611   0.427   5.168   6.312
 3571SOL    HW111612   0.332   5.194   6.331
 3571SOL    HW211613   0.452   5.201   6.221
 3572SOL     OW11614   5.909   4.162   3.133
 3572SOL    HW111615   5.926   4.233   3.065
 3572SOL    HW211616   5.817   4.124   3.118
 3573SOL     OW11617   0.335   5.104   3.981
 3573SOL    HW111618   0.363   5.011   3.960
 3573SOL    HW211619   0.401   5.169   3.943
 3574SOL     OW11620   0.248   3.832   0.845
 3574SOL    HW111621   0.320   3.821   0.913
 3574SOL    HW211622   0.205   3.922   0.856
 3575SOL     OW11623   5.281   4.802   2.893
 3575SOL    HW111624   5.295   4.866   2.968
 3575SOL    HW211625   5.195   4.824   2.846
 3576SOL     OW11626   0.318   1.550   6.088
 3576SOL    HW111627   0.383   1.626   6.084
 3576SOL    HW211628   0.357   1.471   6.040
 3577SOL     OW11629   1.599   2.599   6.410
 3577SOL    HW111630   1.641   2.690   6.398
 3577SOL    HW211631   1.529   2.585   6.341
 3578SOL     OW11632   2.699   2.319   1.025
 3578SOL    HW111633   2.748   2.346   1.107
 3578SOL    HW211634   2.639   2.242   1.046
 3579SOL     OW11635   5.962   3.242   4.840
 3579SOL    HW111636   6.014   3.299   4.905
 3579SOL    HW211637   5.895   3.299   4.792
 3580SOL     OW11638   5.872   3.098   1.566
 3580SOL    HW111639   5.927   3.115   1.485
 3580SOL    HW211640   5.810   3.021   1.549
 3581SOL     OW11641   0.584   6.182   3.797
 3581SOL    HW111642   0.612   6.255   3.859
 3581SOL    HW211643   0.665   6.148   3.748
 3582SOL     OW11644   0.877   2.320   5.659
 3582SOL    HW111645   0.971   2.347   5.640
 3582SOL    HW211646   0.842   2.372   5.737
 3583SOL     OW11647   1.477   3.779   6.930
 3583SOL    HW111648   1.454   3.855   6.869
 3583SOL    HW211649   1.555   3.729   6.893
 3584SOL     OW11650   5.684   5.252   6.327
 3584SOL    HW111651   5.693   5.205   6.240
 3584SOL    HW211652   5.718   5.194   6.401
 3585SOL     OW11653   4.007   6.909   4.502
 3585SOL    HW111654   4.059   6.874   4.425
 3585SOL    HW211655   3.961   6.994   4.476
 3586SOL     OW11656   0.206   1.596   5.128
 3586SOL    HW111657   0.305   1.611   5.127
 3586SOL    HW211658   0.163   1.664   5.188
 3587SOL     OW11659   3.187   5.461   6.353
 3587SOL    HW111660   3.190   5.561   6.348
 3587SOL    HW211661   3.254   5.429   6.420
 3588SOL     OW11662   1.450   2.690   5.698
 3588SOL    HW111663   1.476   2.777   5.741
 3588SOL    HW211664   1.464   2.697   5.600
 3589SOL     OW11665   3.644   1.679   5.063
 3589SOL    HW111666   3.668   1.608   4.997
 3589SOL    HW211667   3.547   1.701   5.056
 3590SOL     OW11668   1.193   2.607   6.944
 3590SOL    HW111669   1.220   2.692   6.991
 3590SOL    HW211670   1.267   2.540   6.951
 3591SOL     OW11671   5.184   3.616   6.661
 3591SOL    HW111672   5.118   3.578   6.726
 3591SOL    HW211673   5.168   3.577   6.571
 3592SOL     OW11674   6.805   4.341   1.690
 3592SOL    HW111675   6.795   4.307   1.597
 3592SOL    HW211676   6.894   4.386   1.699
 3593SOL     OW11677   1.157   5.663   5.272
 3593SOL    HW111678   1.093   5.708   5.210
 3593SOL    HW211679   1.161   5.565   5.252
 3594SOL     OW11680   4.464   0.646   3.359
 3594SOL    HW111681   4.542   0.658   3.421
 3594SOL    HW211682   4.383   0.690   3.398
 3595SOL     OW11683   2.522   5.992   6.911
 3595SOL    HW111684   2.611   5.987   6.957
 3595SOL    HW211685   2.498   5.902   6.876
 3596SOL     OW11686   6.976   2.436   3.595
 3596SOL    HW111687   0.006   2.523   3.601
 3596SOL    HW211688   6.879   2.453   3.576
 3597SOL     OW11689   1.679   1.599   4.289
 3597SOL    HW111690   1.648   1.510   4.255
 3597SOL    HW211691   1.778   1.595   4.307
 3598SOL     OW11692   0.696   5.179   5.853
 3598SOL    HW111693   0.703   5.170   5.754
 3598SOL    HW211694   0.750   5.257   5.884
 3599SOL     OW11695   0.342   1.235   6.098
 3599SOL    HW111696   0.276   1.181   6.045
 3599SOL    HW211697   0.434   1.199   6.084
 3600SOL     OW11698   0.950   3.620   0.725
 3600SOL    HW111699   0.984   3.628   0.632
 3600SOL    HW211700   0.981   3.534   0.765
 3601SOL     OW11701   5.261   4.727   5.954
 3601SOL    HW111702   5.202   4.743   6.033
 3601SOL    HW211703   5.205   4.717   5.872
 3602SOL     OW11704   1.594   2.128   0.853
 3602SOL    HW111705   1.591   2.126   0.753
 3602SOL    HW211706   1.581   2.035   0.889
 3603SOL     OW11707   3.344   0.150   3.348
 3603SOL    HW111708   3.327   0.057   3.381
 3603SOL    HW211709   3.439   0.159   3.319
 3604SOL     OW11710   7.015   4.532   3.304
 3604SOL    HW111711   0.045   4.473   3.368
 3604SOL    HW211712   0.051   4.615   3.288
 3605SOL     OW11713   6.377   3.923   5.412
 3605SOL    HW111714   6.318   3.871   5.474
 3605SOL    HW211715   6.470   3.924   5.448
 3606SOL     OW11716   6.570   6.755   5.420
 3606SOL    HW111717   6.595   6.849   5.445
 3606SOL    HW211718   6.470   6.749   5.411
 3607SOL     OW11719   5.361   5.974   2.066
 3607SOL    HW111720   5.304   6.047   2.105
 3607SOL    HW211721   5.304   5.913   2.012
 3608SOL     OW11722   5.613   1.915   3.757
 3608SOL    HW111723   5.676   1.977   3.710
 3608SOL    HW211724   5.649   1.822   3.753
 3609SOL     OW11725   1.085   6.883   4.124
 3609SOL    HW111726   1.163   6.845   4.073
 3609SOL    HW211727   1.118   6.955   4.185
 3610SOL     OW11728   1.279   0.002   5.895
 3610SOL    HW111729   1.326   7.001   5.809
 3610SOL    HW211730   1.299   0.096   5.923
 3611SOL     OW11731   4.655   6.125   5.571
 3611SOL    HW111732   4.661   6.091   5.477
 3611SOL    HW211733   4.711   6.068   5.631
 3612SOL     OW11734   6.444   0.053   0.032
 3612SOL    HW111735   6.395   6.984   0.045
 3612SOL    HW211736   6.542   0.036   0.032
 3613SOL     OW11737   4.782   5.017   1.957
 3613SOL    HW111738   4.753   4.922   1.964
 3613SOL    HW211739   4.725   5.064   1.889
 3614SOL     OW11740   3.869   3.257   1.592
 3614SOL    HW111741   3.889   3.190   1.664
 3614SOL    HW211742   3.783   3.302   1.612
 3615SOL     OW11743   4.910   5.575   6.814
 3615SOL    HW111744   4.865   5.575   6.724
 3615SOL    HW211745   4.859   5.516   6.876
 3616SOL     OW11746   0.539   2.507   6.733
 3616SOL    HW111747   0.457   2.547   6.775
 3616SOL    HW211748   0.601   2.476   6.805
 3617SOL     OW11749   4.023   1.751   0.095
 3617SOL    HW111750   4.031   1.752   7.013
 3617SOL    HW211751   3.933   1.786   0.122
 3618SOL     OW11752   2.438   1.985   5.721
 3618SOL    HW111753   2.419   2.082   5.703
 3618SOL    HW211754   2.440   1.935   5.635
 3619SOL     OW11755   5.412   2.832   4.563
 3619SOL    HW111756   5.472   2.786   4.629
 3619SOL    HW211757   5.438   2.928   4.556
 3620SOL     OW11758   6.084   6.269   5.975
 3620SOL    HW111759   6.007   6.246   5.916
 3620SOL    HW211760   6.074   6.224   6.063
 3621SOL     OW11761   3.282   2.858   5.332
 3621SOL    HW111762   3.310   2.879   5.426
 3621SOL    HW211763   3.258   2.761   5.326
 3622SOL     OW11764   2.255   1.814   5.219
 3622SOL    HW111765   2.296   1.897   5.181
 3622SOL    HW211766   2.158   1.830   5.237
 3623SOL     OW11767   6.148   6.029   3.976
 3623SOL    HW111768   6.155   6.030   3.877
 3623SOL    HW211769   6.120   5.937   4.006
 3624SOL     OW11770   1.777   6.336   2.040
 3624SOL    HW111771   1.843   6.270   2.076
 3624SOL    HW211772   1.724   6.294   1.966
 3625SOL     OW11773   6.188   2.734   0.079
 3625SOL    HW111774   6.139   2.658   0.121
 3625SOL    HW211775   6.129   2.815   0.079
 3626SOL     OW11776   1.553   2.621   5.967
 3626SOL    HW111777   1.552   2.586   5.873
 3626SOL    HW211778   1.641   2.600   6.010
 3627SOL     OW11779   3.512   2.845   3.309
 3627SOL    HW111780   3.572   2.817   3.384
 3627SOL    HW211781   3.468   2.931   3.333
 3628SOL     OW11782   1.454   1.056   1.505
 3628SOL    HW111783   1.458   1.034   1.603
 3628SOL    HW211784   1.546   1.054   1.467
 3629SOL     OW11785   0.142   1.346   5.468
 3629SOL    HW111786   0.095   1.278   5.524
 3629SOL    HW211787   0.204   1.299   5.404
 3630SOL     OW11788   5.621   2.685   4.092
 3630SOL    HW111789   5.577   2.619   4.030
 3630SOL    HW211790   5.720   2.678   4.084
 3631SOL     OW11791   1.911   0.199   3.766
 3631SOL    HW111792   1.812   0.211   3.772
 3631SOL    HW211793   1.942   0.145   3.845
 3632SOL     OW11794   5.124   5.865   1.598
 3632SOL    HW111795   5.184   5.794   1.561
 3632SOL    HW211796   5.145   5.953   1.556
 3633SOL     OW11797   4.111   1.624   5.990
 3633SOL    HW111798   4.036   1.689   5.983
 3633SOL    HW211799   4.161   1.621   5.903
 3634SOL     OW11800   0.981   4.693   4.699
 3634SOL    HW111801   1.037   4.639   4.762
 3634SOL    HW211802   0.895   4.717   4.744
 3635SOL     OW11803   3.527   0.221   6.267
 3635SOL    HW111804   3.439   0.267   6.254
 3635SOL    HW211805   3.522   0.160   6.346
 3636SOL     OW11806   0.523   5.586   0.545
 3636SOL    HW111807   0.547   5.662   0.485
 3636SOL    HW211808   0.585   5.584   0.623
 3637SOL     OW11809   6.747   1.293   1.940
 3637SOL    HW111810   6.708   1.326   2.027
 3637SOL    HW211811   6.773   1.372   1.885
 3638SOL     OW11812   0.324   3.946   3.951
 3638SOL    HW111813   0.357   3.982   4.039
 3638SOL    HW211814   0.224   3.947   3.950
 3639SOL     OW11815   3.248   4.596   0.963
 3639SOL    HW111816   3.248   4.504   1.003
 3639SOL    HW211817   3.179   4.600   0.890
 3640SOL     OW11818   4.046   1.218   1.084
 3640SOL    HW111819   3.980   1.180   1.020
 3640SOL    HW211820   4.091   1.297   1.044
 3641SOL     OW11821   5.481   3.604   3.034
 3641SOL    HW111822   5.473   3.511   3.069
 3641SOL    HW211823   5.525   3.602   2.944
 3642SOL     OW11824   5.598   0.915   7.008
 3642SOL    HW111825   5.570   0.871   0.075
 3642SOL    HW211826   5.592   1.015   0.001
 3643SOL     OW11827   2.831   5.584   4.743
 3643SOL    HW111828   2.775   5.663   4.769
 3643SOL    HW211829   2.793   5.501   4.785
 3644SOL     OW11830   6.919   1.580   1.573
 3644SOL    HW111831   6.948   1.500   1.520
 3644SOL    HW211832   6.859   1.551   1.647
 3645SOL     OW11833   0.472   2.862   3.410
 3645SOL    HW111834   0.561   2.893   3.444
 3645SOL    HW211835   0.472   2.762   3.404
 3646SOL     OW11836   0.762   3.660   6.318
 3646SOL    HW111837   0.716   3.670   6.229
 3646SOL    HW211838   0.712   3.711   6.387
 3647SOL     OW11839   2.460   5.243   6.075
 3647SOL    HW111840   2.542   5.204   6.117
 3647SOL    HW211841   2.487   5.317   6.013
 3648SOL     OW11842   3.869   4.862   2.058
 3648SOL    HW111843   3.796   4.797   2.036
 3648SOL    HW211844   3.837   4.955   2.036
 3649SOL     OW11845   5.301   2.862   1.914
 3649SOL    HW111846   5.276   2.935   1.977
 3649SOL    HW211847   5.245   2.867   1.831
 3650SOL     OW11848   0.140   5.570   1.366
 3650SOL    HW111849   0.159   5.488   1.311
 3650SOL    HW211850   0.215   5.635   1.355
 3651SOL     OW11851   0.476   6.388   5.015
 3651SOL    HW111852   0.402   6.324   4.992
 3651SOL    HW211853   0.562   6.352   4.981
 3652SOL     OW11854   5.560   6.453   3.347
 3652SOL    HW111855   5.504   6.421   3.424
 3652SOL    HW211856   5.500   6.497   3.280
 3653SOL     OW11857   0.491   1.188   3.888
 3653SOL    HW111858   0.488   1.254   3.963
 3653SOL    HW211859   0.561   1.119   3.906
 3654SOL     OW11860   3.158   4.039   0.703
 3654SOL    HW111861   3.129   4.134   0.698
 3654SOL    HW211862   3.114   3.995   0.781
 3655SOL     OW11863   1.863   5.614   4.355
 3655SOL    HW111864   1.872   5.591   4.258
 3655SOL    HW211865   1.880   5.532   4.410
 3656SOL     OW11866   0.429   4.115   1.297
 3656SOL    HW111867   0.353   4.096   1.360
 3656SOL    HW211868   0.463   4.208   1.315
 3657SOL     OW11869   5.091   5.352   5.322
 3657SOL    HW111870   5.072   5.371   5.226
 3657SOL    HW211871   5.182   5.388   5.346
 3658SOL     OW11872   1.713   5.035   5.885
 3658SOL    HW111873   1.792   5.031   5.946
 3658SOL    HW211874   1.743   5.019   5.791
 3659SOL     OW11875   1.820   3.390   5.587
 3659SOL    HW111876   1.887   3.429   5.525
 3659SOL    HW211877   1.847   3.296   5.610
 3660SOL     OW11878   5.927   6.729   3.865
 3660SOL    HW111879   5.952   6.633   3.854
 3660SOL    HW211880   5.856   6.737   3.935
 3661SOL     OW11881   5.611   0.543   5.111
 3661SOL    HW111882   5.640   0.527   5.205
 3661SOL    HW211883   5.607   0.641   5.092
 3662SOL     OW11884   3.314   0.426   3.692
 3662SOL    HW111885   3.282   0.510   3.650
 3662SOL    HW211886   3.264   0.348   3.652
 3663SOL     OW11887   1.972   1.341   0.172
 3663SOL    HW111888   2.050   1.316   0.113
 3663SOL    HW211889   1.987   1.303   0.263
 3664SOL     OW11890   4.468   2.751   1.548
 3664SOL    HW111891   4.556   2.784   1.583
 3664SOL    HW211892   4.405   2.736   1.624
 3665SOL     OW11893   1.676   6.631   5.005
 3665SOL    HW111894   1.583   6.635   4.969
 3665SOL    HW211895   1.684   6.553   5.068
 3666SOL     OW11896   1.127   3.701   2.810
 3666SOL    HW111897   1.205   3.641   2.792
 3666SOL    HW211898   1.124   3.725   2.907
 3667SOL     OW11899   1.303   1.242   2.790
 3667SOL    HW111900   1.215   1.288   2.774
 3667SOL    HW211901   1.375   1.293   2.744
 3668SOL     OW11902   1.693   0.746   1.324
 3668SOL    HW111903   1.736   0.723   1.236
 3668SOL    HW211904   1.599   0.774   1.309
 3669SOL     OW11905   4.741   1.099   3.670
 3669SOL    HW111906   4.825   1.061   3.710
 3669SOL    HW211907   4.730   1.193   3.702
 3670SOL     OW11908   2.010   4.998   0.172
 3670SOL    HW111909   2.110   4.992   0.168
 3670SOL    HW211910   1.979   5.074   0.115
 3671SOL     OW11911   6.379   1.762   4.088
 3671SOL    HW111912   6.461   1.768   4.144
 3671SOL    HW211913   6.315   1.833   4.116
 3672SOL     OW11914   5.406   1.736   1.268
 3672SOL    HW111915   5.352   1.820   1.256
 3672SOL    HW211916   5.484   1.755   1.327
 3673SOL     OW11917   3.986   6.441   6.610
 3673SOL    HW111918   3.998   6.345   6.634
 3673SOL    HW211919   4.026   6.498   6.682
 3674SOL     OW11920   1.239   5.430   6.024
 3674SOL    HW111921   1.273   5.411   6.116
 3674SOL    HW211922   1.246   5.347   5.969
 3675SOL     OW11923   2.184   3.207   3.977
 3675SOL    HW111924   2.184   3.244   3.885
 3675SOL    HW211925   2.220   3.114   3.976
 3676SOL     OW11926   5.130   4.579   2.862
 3676SOL    HW111927   5.089   4.608   2.776
 3676SOL    HW211928   5.198   4.648   2.891
 3677SOL     OW11929   2.209   6.062   3.631
 3677SOL    HW111930   2.118   6.092   3.604
 3677SOL    HW211931   2.215   5.963   3.624
 3678SOL     OW11932   0.254   2.026   4.907
 3678SOL    HW111933   0.320   1.955   4.885
 3678SOL    HW211934   0.238   2.026   5.006
 3679SOL     OW11935   1.094   0.905   3.625
 3679SOL    HW111936   1.033   0.978   3.655
 3679SOL    HW211937   1.040   0.822   3.606
 3680SOL     OW11938   5.132   3.330   3.901
 3680SOL    HW111939   5.076   3.329   3.983
 3680SOL    HW211940   5.198   3.406   3.906
 3681SOL     OW11941   0.555   0.533   6.612
 3681SOL    HW111942   0.622   0.488   6.671
 3681SOL    HW211943   0.533   0.473   6.535
 3682SOL     OW11944   5.223   2.127   0.132
 3682SOL    HW111945   5.173   2.192   0.190
 3682SOL    HW211946   5.157   2.066   0.087
 3683SOL     OW11947   6.871   0.845   2.969
 3683SOL    HW111948   6.796   0.894   2.924
 3683SOL    HW211949   6.845   0.827   3.064
 3684SOL     OW11950   1.790   4.755   0.741
 3684SOL    HW111951   1.871   4.801   0.776
 3684SOL    HW211952   1.801   4.656   0.749
 3685SOL     OW11953   0.893   6.111   6.721
 3685SOL    HW111954   0.931   6.204   6.719
 3685SOL    HW211955   0.857   6.088   6.631
 3686SOL     OW11956   4.922   5.759   3.935
 3686SOL    HW111957   4.891   5.852   3.954
 3686SOL    HW211958   4.843   5.697   3.936
 3687SOL     OW11959   3.539   6.080   5.144
 3687SOL    HW111960   3.517   6.142   5.069
 3687SOL    HW211961   3.530   5.985   5.113
 3688SOL     OW11962   0.342   4.325   6.611
 3688SOL    HW111963   0.345   4.319   6.511
 3688SOL    HW211964   0.248   4.312   6.642
 3689SOL     OW11965   2.095   6.676   5.346
 3689SOL    HW111966   2.014   6.718   5.385
 3689SOL    HW211967   2.122   6.726   5.264
 3690SOL     OW11968   4.321   6.045   0.651
 3690SOL    HW111969   4.277   6.122   0.605
 3690SOL    HW211970   4.312   5.963   0.593
 3691SOL     OW11971   2.351   1.991   6.881
 3691SOL    HW111972   2.413   1.912   6.875
 3691SOL    HW211973   2.308   2.005   6.792
 3692SOL     OW11974   6.599   5.817   5.041
 3692SOL    HW111975   6.541   5.857   5.112
 3692SOL    HW211976   6.554   5.827   4.952
 3693SOL     OW11977   2.154   3.525   3.097
 3693SOL    HW111978   2.131   3.560   3.006
 3693SOL    HW211979   2.104   3.440   3.113
 3694SOL     OW11980   1.958   6.666   3.010
 3694SOL    HW111981   1.867   6.655   3.051
 3694SOL    HW211982   2.005   6.744   3.051
 3695SOL     OW11983   6.504   3.112   1.781
 3695SOL    HW111984   6.463   3.200   1.759
 3695SOL    HW211985   6.527   3.109   1.878
 3696SOL     OW11986   3.675   6.424   5.046
 3696SOL    HW111987   3.765   6.432   5.004
 3696SOL    HW211988   3.685   6.397   5.142
 3697SOL     OW11989   0.449   6.256   2.515
 3697SOL    HW111990   0.500   6.178   2.480
 3697SOL    HW211991   0.485   6.341   2.476
 3698SOL     OW11992   2.531   0.642   4.006
 3698SOL    HW111993   2.609   0.590   4.039
 3698SOL    HW211994   2.499   0.704   4.078
 3699SOL     OW11995   1.068   2.173   3.875
 3699SOL    HW111996   1.036   2.237   3.944
 3699SOL    HW211997   1.034   2.200   3.785
 3700SOL     OW11998   0.384   5.756   4.719
 3700SOL    HW111999   0.296   5.763   4.671
 3700SOL    HW212000   0.372   5.702   4.802
 3701SOL     OW12001   1.245   0.978   3.941
 3701SOL    HW112002   1.273   1.012   4.031
 3701SOL    HW212003   1.269   1.045   3.871
 3702SOL     OW12004   5.914   6.344   2.996
 3702SOL    HW112005   5.836   6.373   2.941
 3702SOL    HW212006   5.893   6.256   3.039
 3703SOL     OW12007   5.554   1.004   5.336
 3703SOL    HW112008   5.476   0.986   5.276
 3703SOL    HW212009   5.566   0.927   5.399
 3704SOL     OW12010   3.402   1.816   1.143
 3704SOL    HW112011   3.458   1.896   1.121
 3704SOL    HW212012   3.381   1.816   1.240
 3705SOL     OW12013   4.305   4.725   3.910
 3705SOL    HW112014   4.257   4.795   3.963
 3705SOL    HW212015   4.396   4.758   3.887
 3706SOL     OW12016   1.802   3.382   0.301
 3706SOL    HW112017   1.750   3.436   0.367
 3706SOL    HW212018   1.877   3.438   0.265
 3707SOL     OW12019   5.396   4.562   3.834
 3707SOL    HW112020   5.456   4.640   3.812
 3707SOL    HW212021   5.332   4.589   3.906
 3708SOL     OW12022   0.071   0.414   6.763
 3708SOL    HW112023   0.135   0.358   6.710
 3708SOL    HW212024   0.034   0.486   6.705
 3709SOL     OW12025   3.726   0.475   0.674
 3709SOL    HW112026   3.752   0.476   0.770
 3709SOL    HW212027   3.770   0.551   0.626
 3710SOL     OW12028   5.911   5.261   5.102
 3710SOL    HW112029   5.929   5.344   5.050
 3710SOL    HW212030   5.822   5.269   5.149
 3711SOL     OW12031   0.635   6.633   4.091
 3711SOL    HW112032   0.723   6.680   4.086
 3711SOL    HW212033   0.647   6.544   4.134
 3712SOL     OW12034   0.026   4.844   6.387
 3712SOL    HW112035   0.115   4.855   6.343
 3712SOL    HW212036   6.975   4.896   6.337
 3713SOL     OW12037   0.950   6.481   5.986
 3713SOL    HW112038   0.937   6.508   5.891
 3713SOL    HW212039   1.044   6.503   6.014
 3714SOL     OW12040   5.181   6.233   6.015
 3714SOL    HW112041   5.131   6.171   5.955
 3714SOL    HW212042   5.195   6.320   5.967
 3715SOL     OW12043   0.292   4.128   2.695
 3715SOL    HW112044   0.386   4.094   2.689
 3715SOL    HW212045   0.234   4.059   2.737
 3716SOL     OW12046   6.388   6.709   4.743
 3716SOL    HW112047   6.486   6.728   4.749
 3716SOL    HW212048   6.355   6.674   4.831
 3717SOL     OW12049   6.703   6.765   0.145
 3717SOL    HW112050   6.653   6.796   0.064
 3717SOL    HW212051   6.793   6.807   0.146
 3718SOL     OW12052   1.127   0.532   0.005
 3718SOL    HW112053   1.029   0.551   0.006
 3718SOL    HW212054   1.158   0.512   0.098
 3719SOL     OW12055   5.187   3.837   1.741
 3719SOL    HW112056   5.260   3.902   1.722
 3719SOL    HW212057   5.126   3.830   1.662
 3720SOL     OW12058   6.359   2.688   6.654
 3720SOL    HW112059   6.389   2.764   6.597
 3720SOL    HW212060   6.352   2.605   6.598
 3721SOL     OW12061   6.589   4.501   1.755
 3721SOL    HW112062   6.597   4.596   1.783
 3721SOL    HW212063   6.680   4.463   1.737
 3722SOL     OW12064   6.282   6.122   0.743
 3722SOL    HW112065   6.343   6.104   0.820
 3722SOL    HW212066   6.321   6.194   0.686
 3723SOL     OW12067   6.000   5.287   1.472
 3723SOL    HW112068   6.082   5.307   1.417
 3723SOL    HW212069   5.999   5.189   1.495
 3724SOL     OW12070   1.952   4.134   4.774
 3724SOL    HW112071   1.856   4.158   4.762
 3724SOL    HW212072   2.000   4.144   4.687
 3725SOL     OW12073   6.707   5.604   0.531
 3725SOL    HW112074   6.620   5.630   0.491
 3725SOL    HW212075   6.703   5.617   0.630
 3726SOL     OW12076   6.011   3.330   0.585
 3726SOL    HW112077   6.044   3.386   0.510
 3726SOL    HW212078   6.038   3.235   0.570
 3727SOL     OW12079   6.641   1.102   5.039
 3727SOL    HW112080   6.664   1.173   5.106
 3727SOL    HW212081   6.543   1.104   5.021
 3728SOL     OW12082   1.628   4.036   0.078
 3728SOL    HW112083   1.537   4.011   0.045
 3728SOL    HW212084   1.695   4.018   0.006
 3729SOL     OW12085   1.306   2.371   3.807
 3729SOL    HW112086   1.334   2.296   3.746
 3729SOL    HW212087   1.229   2.341   3.862
 3730SOL     OW12088   2.276   5.563   5.803
 3730SOL    HW112089   2.275   5.621   5.885
 3730SOL    HW212090   2.195   5.505   5.803
 3731SOL     OW12091   0.160   1.509   0.524
 3731SOL    HW112092   0.206   1.579   0.580
 3731SOL    HW212093   0.103   1.554   0.456
 3732SOL     OW12094   3.202   1.497   0.329
 3732SOL    HW112095   3.180   1.493   0.427
 3732SOL    HW212096   3.190   1.591   0.297
 3733SOL     OW12097   1.373   3.519   2.797
 3733SOL    HW112098   1.447   3.501   2.862
 3733SOL    HW212099   1.293   3.465   2.823
 3734SOL     OW12100   4.943   0.336   1.615
 3734SOL    HW112101   4.928   0.401   1.540
 3734SOL    HW212102   4.902   0.248   1.591
 3735SOL     OW12103   2.105   1.440   3.317
 3735SOL    HW112104   2.100   1.522   3.260
 3735SOL    HW212105   2.152   1.367   3.268
 3736SOL     OW12106   6.848   1.847   0.840
 3736SOL    HW112107   6.765   1.895   0.869
 3736SOL    HW212108   6.903   1.908   0.784
 3737SOL     OW12109   5.470   1.548   3.597
 3737SOL    HW112110   5.529   1.567   3.675
 3737SOL    HW212111   5.401   1.620   3.589
 3738SOL     OW12112   0.475   0.252   2.527
 3738SOL    HW112113   0.472   0.167   2.580
 3738SOL    HW212114   0.382   0.283   2.509
 3739SOL     OW12115   2.292   4.905   1.031
 3739SOL    HW112116   2.335   4.862   0.951
 3739SOL    HW212117   2.273   4.835   1.100
 3740SOL     OW12118   5.737   1.402   1.584
 3740SOL    HW112119   5.704   1.348   1.507
 3740SOL    HW212120   5.800   1.348   1.639
 3741SOL     OW12121   5.348   2.944   6.929
 3741SOL    HW112122   5.257   2.935   6.890
 3741SOL    HW212123   5.390   2.854   6.939
 3742SOL     OW12124   2.067   2.051   0.161
 3742SOL    HW112125   1.978   2.044   0.205
 3742SOL    HW212126   2.087   1.965   0.113
 3743SOL     OW12127   5.666   3.973   0.483
 3743SOL    HW112128   5.764   3.991   0.474
 3743SOL    HW212129   5.630   4.024   0.561
 3744SOL     OW12130   1.656   6.019   2.224
 3744SOL    HW112131   1.677   6.106   2.269
 3744SOL    HW212132   1.567   6.025   2.180
 3745SOL     OW12133   4.268   4.989   1.848
 3745SOL    HW112134   4.280   5.088   1.853
 3745SOL    HW212135   4.336   4.943   1.905
 3746SOL     OW12136   5.723   0.676   3.234
 3746SOL    HW112137   5.769   0.658   3.321
 3746SOL    HW212138   5.752   0.608   3.167
 3747SOL     OW12139   2.377   6.454   5.009
 3747SOL    HW112140   2.377   6.554   5.015
 3747SOL    HW212141   2.286   6.419   5.032
 3748SOL     OW12142   5.683   1.402   1.939
 3748SOL    HW112143   5.630   1.448   2.009
 3748SOL    HW212144   5.763   1.458   1.915
 3749SOL     OW12145   1.893   5.541   4.046
 3749SOL    HW112146   1.966   5.474   4.055
 3749SOL    HW212147   1.925   5.618   3.991
 3750SOL     OW12148   0.225   4.715   1.080
 3750SOL    HW112149   0.155   4.724   1.150
 3750SOL    HW212150   0.280   4.798   1.076
 3751SOL     OW12151   6.625   3.582   1.538
 3751SOL    HW112152   6.568   3.569   1.457
 3751SOL    HW212153   6.606   3.671   1.578
 3752SOL     OW12154   5.627   0.213   1.095
 3752SOL    HW112155   5.540   0.244   1.134
 3752SOL    HW212156   5.623   0.218   0.996
 3753SOL     OW12157   6.555   7.012   4.174
 3753SOL    HW112158   6.468   6.970   4.149
 3753SOL    HW212159   6.585   0.056   4.101
 3754SOL     OW12160   3.408   0.798   1.011
 3754SOL    HW112161   3.506   0.812   1.027
 3754SOL    HW212162   3.395   0.754   0.922
 3755SOL     OW12163   4.805   5.207   3.897
 3755SOL    HW112164   4.718   5.236   3.938
 3755SOL    HW212165   4.878   5.266   3.931
 3756SOL     OW12166   3.226   5.295   6.771
 3756SOL    HW112167   3.144   5.351   6.787
 3756SOL    HW212168   3.247   5.293   6.673
 3757SOL     OW12169   5.046   6.166   0.045
 3757SOL    HW112170   4.982   6.242   0.038
 3757SOL    HW212171   5.130   6.188   7.014
 3758SOL     OW12172   2.339   1.128   4.787
 3758SOL    HW112173   2.336   1.226   4.768
 3758SOL    HW212174   2.356   1.113   4.884
 3759SOL     OW12175   4.812   6.779   6.574
 3759SOL    HW112176   4.725   6.746   6.611
 3759SOL    HW212177   4.832   6.869   6.612
 3760SOL     OW12178   2.007   1.337   4.608
 3760SOL    HW112179   2.033   1.303   4.517
 3760SOL    HW212180   1.948   1.417   4.597
 3761SOL     OW12181   0.954   1.181   4.802
 3761SOL    HW112182   0.871   1.234   4.822
 3761SOL    HW212183   0.954   1.153   4.706
 3762SOL     OW12184   1.603   4.790   1.074
 3762SOL    HW112185   1.615   4.881   1.034
 3762SOL    HW212186   1.686   4.737   1.061
 3763SOL     OW12187   6.882   4.080   0.957
 3763SOL    HW112188   6.868   4.127   1.044
 3763SOL    HW212189   6.978   4.089   0.929
 3764SOL     OW12190   1.743   0.378   2.507
 3764SOL    HW112191   1.660   0.355   2.559
 3764SOL    HW212192   1.801   0.298   2.499
 3765SOL     OW12193   4.718   1.494   1.169
 3765SOL    HW112194   4.772   1.576   1.186
 3765SOL    HW212195   4.742   1.455   1.080
 3766SOL     OW12196   1.947   1.635   4.316
 3766SOL    HW112197   1.973   1.724   4.278
 3766SOL    HW212198   2.022   1.570   4.304
 3767SOL     OW12199   2.082   4.853   6.856
 3767SOL    HW112200   2.175   4.888   6.869
 3767SOL    HW212201   2.023   4.890   6.928
 3768SOL     OW12202   0.915   6.629   3.634
 3768SOL    HW112203   0.886   6.605   3.726
 3768SOL    HW212204   0.925   6.546   3.579
 3769SOL     OW12205   6.049   6.310   4.309
 3769SOL    HW112206   6.051   6.294   4.210
 3769SOL    HW212207   5.985   6.246   4.352
 3770SOL     OW12208   1.364   1.012   6.139
 3770SOL    HW112209   1.410   1.073   6.074
 3770SOL    HW212210   1.415   0.926   6.146
 3771SOL     OW12211   5.215   2.733   0.332
 3771SOL    HW112212   5.214   2.808   0.398
 3771SOL    HW212213   5.297   2.678   0.346
 3772SOL     OW12214   0.025   1.593   0.047
 3772SOL    HW112215   0.072   1.518   7.018
 3772SOL    HW212216   6.953   1.563   0.078
 3773SOL     OW12217   5.871   3.241   6.244
 3773SOL    HW112218   5.931   3.301   6.191
 3773SOL    HW212219   5.919   3.210   6.326
 3774SOL     OW12220   6.327   6.146   1.037
 3774SOL    HW112221   6.265   6.224   1.043
 3774SOL    HW212222   6.397   6.152   1.109
 3775SOL     OW12223   4.207   4.971   2.398
 3775SOL    HW112224   4.305   4.953   2.400
 3775SOL    HW212225   4.167   4.951   2.487
 3776SOL     OW12226   4.468   2.123   6.828
 3776SOL    HW112227   4.449   2.057   6.900
 3776SOL    HW212228   4.438   2.214   6.857
 3777SOL     OW12229   3.529   5.929   3.995
 3777SOL    HW112230   3.622   5.907   4.024
 3777SOL    HW212231   3.533   5.995   3.919
 3778SOL     OW12232   3.421   4.932   2.716
 3778SOL    HW112233   3.349   4.875   2.754
 3778SOL    HW212234   3.399   5.029   2.731
 3779SOL     OW12235   1.506   4.623   0.124
 3779SOL    HW112236   1.456   4.652   0.205
 3779SOL    HW212237   1.604   4.618   0.145
 3780SOL     OW12238   5.880   4.872   4.838
 3780SOL    HW112239   5.858   4.941   4.769
 3780SOL    HW212240   5.942   4.911   4.905
 3781SOL     OW12241   0.430   6.371   4.640
 3781SOL    HW112242   0.348   6.315   4.648
 3781SOL    HW212243   0.431   6.440   4.712
 3782SOL     OW12244   2.276   0.161   3.131
 3782SOL    HW112245   2.372   0.141   3.114
 3782SOL    HW212246   2.268   0.239   3.193
 3783SOL     OW12247   5.685   5.375   3.633
 3783SOL    HW112248   5.640   5.426   3.706
 3783SOL    HW212249   5.655   5.279   3.637
 3784SOL     OW12250   4.575   2.610   3.380
 3784SOL    HW112251   4.591   2.561   3.294
 3784SOL    HW212252   4.569   2.708   3.362
 3785SOL     OW12253   1.611   3.313   5.928
 3785SOL    HW112254   1.708   3.290   5.927
 3785SOL    HW212255   1.566   3.269   6.005
 3786SOL     OW12256   2.281   5.283   3.168
 3786SOL    HW112257   2.296   5.377   3.197
 3786SOL    HW212258   2.211   5.241   3.226
 3787SOL     OW12259   5.771   1.504   3.006
 3787SOL    HW112260   5.723   1.592   3.002
 3787SOL    HW212261   5.841   1.502   2.934
 3788SOL     OW12262   0.164   5.150   4.590
 3788SOL    HW112263   0.195   5.240   4.620
 3788SOL    HW212264   0.070   5.157   4.555
 3789SOL     OW12265   6.854   2.873   4.768
 3789SOL    HW112266   6.946   2.852   4.801
 3789SOL    HW212267   6.787   2.834   4.831
 3790SOL     OW12268   1.131   4.371   5.789
 3790SOL    HW112269   1.128   4.277   5.822
 3790SOL    HW212270   1.116   4.372   5.690
 3791SOL     OW12271   5.395   1.426   6.506
 3791SOL    HW112272   5.395   1.505   6.568
 3791SOL    HW212273   5.302   1.412   6.471
 3792SOL     OW12274   1.056   2.645   4.225
 3792SOL    HW112275   1.058   2.652   4.324
 3792SOL    HW212276   1.012   2.726   4.187
 3793SOL     OW12277   5.053   6.325   1.762
 3793SOL    HW112278   5.053   6.293   1.857
 3793SOL    HW212279   5.000   6.410   1.756
 3794SOL     OW12280   2.152   3.204   0.996
 3794SOL    HW112281   2.239   3.157   0.987
 3794SOL    HW212282   2.161   3.298   0.964
 3795SOL     OW12283   4.277   6.274   0.516
 3795SOL    HW112284   4.253   6.327   0.597
 3795SOL    HW212285   4.254   6.326   0.434
 3796SOL     OW12286   3.248   2.063   1.896
 3796SOL    HW112287   3.292   2.005   1.965
 3796SOL    HW212288   3.159   2.092   1.929
 3797SOL     OW12289   0.022   2.978   1.825
 3797SOL    HW112290   0.104   2.926   1.805
 3797SOL    HW212291   0.023   3.005   1.921
 3798SOL     OW12292   2.764   5.368   3.398
 3798SOL    HW112293   2.814   5.336   3.318
 3798SOL    HW212294   2.674   5.401   3.370
 3799SOL     OW12295   0.065   2.382   4.144
 3799SOL    HW112296   0.039   2.352   4.052
 3799SOL    HW212297   7.006   2.430   4.187
 3800SOL     OW12298   6.007   3.236   4.151
 3800SOL    HW112299   6.024   3.329   4.117
 3800SOL    HW212300   5.916   3.207   4.123
 3801SOL     OW12301   5.976   0.202   1.964
 3801SOL    HW112302   5.881   0.175   1.982
 3801SOL    HW212303   6.000   0.177   1.870
 3802SOL     OW12304   1.287   2.273   1.952
 3802SOL    HW112305   1.281   2.179   1.921
 3802SOL    HW212306   1.272   2.335   1.875
 3803SOL     OW12307   3.719   2.861   2.028
 3803SOL    HW112308   3.625   2.859   2.062
 3803SOL    HW212309   3.782   2.867   2.105
 3804SOL     OW12310   4.710   1.752   3.785
 3804SOL    HW112311   4.764   1.728   3.866
 3804SOL    HW212312   4.644   1.823   3.808
 3805SOL     OW12313   2.795   2.613   1.709
 3805SOL    HW112314   2.703   2.652   1.716
 3805SOL    HW212315   2.804   2.536   1.773
 3806SOL     OW12316   3.464   3.262   6.421
 3806SOL    HW112317   3.438   3.357   6.404
 3806SOL    HW212318   3.562   3.256   6.438
 3807SOL     OW12319   1.196   6.195   2.796
 3807SOL    HW112320   1.199   6.223   2.700
 3807SOL    HW212321   1.255   6.255   2.850
 3808SOL     OW12322   4.915   1.272   1.217
 3808SOL    HW112323   4.927   1.249   1.121
 3808SOL    HW212324   4.868   1.361   1.224
 3809SOL     OW12325   5.652   2.936   1.584
 3809SOL    HW112326   5.586   2.895   1.521
 3809SOL    HW212327   5.607   3.008   1.637
 3810SOL     OW12328   4.540   2.418   3.856
 3810SOL    HW112329   4.625   2.389   3.900
 3810SOL    HW212330   4.556   2.437   3.760
 3811SOL     OW12331   1.329   5.188   4.657
 3811SOL    HW112332   1.298   5.245   4.581
 3811SOL    HW212333   1.294   5.095   4.646
 3812SOL     OW12334   5.020   5.656   4.960
 3812SOL    HW112335   4.956   5.633   5.033
 3812SOL    HW212336   4.995   5.606   4.877
 3813SOL     OW12337   4.494   3.623   0.763
 3813SOL    HW112338   4.476   3.606   0.666
 3813SOL    HW212339   4.478   3.539   0.814
 3814SOL     OW12340   0.458   6.920   6.521
 3814SOL    HW112341   0.415   6.986   6.584
 3814SOL    HW212342   0.402   6.837   6.517
 3815SOL     OW12343   4.124   2.753   0.523
 3815SOL    HW112344   4.219   2.724   0.536
 3815SOL    HW212345   4.119   2.853   0.529
 3816SOL     OW12346   1.431   5.589   0.133
 3816SOL    HW112347   1.481   5.510   0.168
 3816SOL    HW212348   1.494   5.651   0.088
 3817SOL     OW12349   5.048   3.565   2.713
 3817SOL    HW112350   4.958   3.609   2.710
 3817SOL    HW212351   5.117   3.632   2.740
 3818SOL     OW12352   6.327   1.061   6.494
 3818SOL    HW112353   6.257   1.121   6.535
 3818SOL    HW212354   6.287   0.971   6.476
 3819SOL     OW12355   5.122   5.027   2.021
 3819SOL    HW112356   5.030   5.067   2.020
 3819SOL    HW212357   5.190   5.097   1.999
 3820SOL     OW12358   4.810   0.044   4.231
 3820SOL    HW112359   4.803   0.015   4.136
 3820SOL    HW212360   4.906   0.042   4.259
 3821SOL     OW12361   2.464   1.488   0.934
 3821SOL    HW112362   2.504   1.574   0.966
 3821SOL    HW212363   2.374   1.476   0.975
 3822SOL     OW12364   2.168   0.247   0.869
 3822SOL    HW112365   2.247   0.255   0.929
 3822SOL    HW212366   2.084   0.268   0.920
 3823SOL     OW12367   3.548   3.050   5.868
 3823SOL    HW112368   3.570   3.053   5.771
 3823SOL    HW212369   3.460   3.005   5.881
 3824SOL     OW12370   6.719   2.303   0.501
 3824SOL    HW112371   6.711   2.224   0.561
 3824SOL    HW212372   6.809   2.303   0.458
 3825SOL     OW12373   0.715   5.561   0.740
 3825SOL    HW112374   0.802   5.543   0.694
 3825SOL    HW212375   0.701   5.495   0.814
 3826SOL     OW12376   1.094   2.915   6.651
 3826SOL    HW112377   1.135   2.918   6.742
 3826SOL    HW212378   1.159   2.876   6.586
 3827SOL     OW12379   1.571   1.766   1.813
 3827SOL    HW112380   1.545   1.676   1.779
 3827SOL    HW212381   1.640   1.757   1.884
 3828SOL     OW12382   3.564   3.151   2.564
 3828SOL    HW112383   3.559   3.056   2.596
 3828SOL    HW212384   3.567   3.152   2.464
 3829SOL     OW12385   1.694   4.733   3.296
 3829SOL    HW112386   1.749   4.737   3.380
 3829SOL    HW212387   1.618   4.670   3.309
 3830SOL     OW12388   0.356   1.465   4.797
 3830SOL    HW112389   0.364   1.434   4.702
 3830SOL    HW212390   0.275   1.523   4.805
 3831SOL     OW12391   4.833   2.618   2.238
 3831SOL    HW112392   4.867   2.701   2.194
 3831SOL    HW212393   4.738   2.601   2.211
 3832SOL     OW12394   5.856   0.912   2.657
 3832SOL    HW112395   5.769   0.954   2.629
 3832SOL    HW212396   5.916   0.983   2.694
 3833SOL     OW12397   0.336   6.268   6.365
 3833SOL    HW112398   0.326   6.364   6.389
 3833SOL    HW212399   0.274   6.213   6.421
 3834SOL     OW12400   4.643   4.727   1.766
 3834SOL    HW112401   4.652   4.639   1.718
 3834SOL    HW212402   4.570   4.780   1.724
 3835SOL     OW12403   3.284   5.339   4.355
 3835SOL    HW112404   3.355   5.393   4.399
 3835SOL    HW212405   3.252   5.268   4.418
 3836SOL     OW12406   2.014   3.766   6.115
 3836SOL    HW112407   2.086   3.707   6.152
 3836SOL    HW212408   1.938   3.710   6.083
 3837SOL     OW12409   4.712   5.336   6.436
 3837SOL    HW112410   4.687   5.406   6.503
 3837SOL    HW212411   4.678   5.363   6.346
 3838SOL     OW12412   0.523   3.596   4.840
 3838SOL    HW112413   0.514   3.527   4.769
 3838SOL    HW212414   0.619   3.605   4.866
 3839SOL     OW12415   4.907   0.909   3.808
 3839SOL    HW112416   4.980   0.961   3.763
 3839SOL    HW212417   4.928   0.811   3.800
 3840SOL     OW12418   2.179   0.588   6.251
 3840SOL    HW112419   2.119   0.652   6.204
 3840SOL    HW212420   2.170   0.497   6.210
 3841SOL     OW12421   0.228   2.956   4.696
 3841SOL    HW112422   0.269   3.022   4.633
 3841SOL    HW212423   0.288   2.877   4.706
 3842SOL     OW12424   2.088   3.288   0.224
 3842SOL    HW112425   2.069   3.368   0.167
 3842SOL    HW212426   2.090   3.316   0.320
 3843SOL     OW12427   5.943   4.185   2.517
 3843SOL    HW112428   5.932   4.144   2.608
 3843SOL    HW212429   6.039   4.176   2.489
 3844SOL     OW12430   0.628   2.354   6.282
 3844SOL    HW112431   0.539   2.337   6.325
 3844SOL    HW212432   0.639   2.453   6.267
 3845SOL     OW12433   3.489   3.004   5.231
 3845SOL    HW112434   3.492   3.097   5.267
 3845SOL    HW212435   3.413   2.954   5.272
 3846SOL     OW12436   0.783   5.365   3.732
 3846SOL    HW112437   0.824   5.448   3.693
 3846SOL    HW212438   0.830   5.341   3.816
 3847SOL     OW12439   6.012   1.016   4.905
 3847SOL    HW112440   5.922   0.975   4.891
 3847SOL    HW212441   6.006   1.115   4.891
 3848SOL     OW12442   4.234   5.652   2.955
 3848SOL    HW112443   4.317   5.696   2.987
 3848SOL    HW212444   4.170   5.721   2.920
 3849SOL     OW12445   1.467   1.498   5.308
 3849SOL    HW112446   1.388   1.538   5.355
 3849SOL    HW212447   1.511   1.568   5.252
 3850SOL     OW12448   2.454   3.268   0.791
 3850SOL    HW112449   2.533   3.216   0.760
 3850SOL    HW212450   2.417   3.226   0.873
 3851SOL     OW12451   1.107   4.348   2.230
 3851SOL    HW112452   1.142   4.318   2.141
 3851SOL    HW212453   1.179   4.394   2.280
 3852SOL     OW12454   3.970   6.776   3.779
 3852SOL    HW112455   3.949   6.683   3.808
 3852SOL    HW212456   3.886   6.829   3.773
 3853SOL     OW12457   1.115   4.204   3.580
 3853SOL    HW112458   1.023   4.184   3.545
 3853SOL    HW212459   1.113   4.204   3.680
 3854SOL     OW12460   1.757   3.190   2.107
 3854SOL    HW112461   1.751   3.164   2.204
 3854SOL    HW212462   1.838   3.149   2.066
 3855SOL     OW12463   5.206   6.538   6.675
 3855SOL    HW112464   5.181   6.588   6.592
 3855SOL    HW212465   5.196   6.598   6.754
 3856SOL     OW12466   0.111   6.891   5.795
 3856SOL    HW112467   0.181   6.942   5.745
 3856SOL    HW212468   0.046   6.956   5.835
 3857SOL     OW12469   0.374   5.639   6.569
 3857SOL    HW112470   0.443   5.578   6.608
 3857SOL    HW212471   0.288   5.590   6.559
 3858SOL     OW12472   1.417   6.603   5.536
 3858SOL    HW112473   1.438   6.508   5.514
 3858SOL    HW212474   1.343   6.607   5.603
 3859SOL     OW12475   6.492   2.084   3.196
 3859SOL    HW112476   6.537   2.050   3.278
 3859SOL    HW212477   6.393   2.077   3.207
 3860SOL     OW12478   2.270   0.522   5.748
 3860SOL    HW112479   2.289   0.600   5.808
 3860SOL    HW212480   2.195   0.468   5.786
 3861SOL     OW12481   4.585   4.455   3.301
 3861SOL    HW112482   4.631   4.540   3.328
 3861SOL    HW212483   4.646   4.401   3.244
 3862SOL     OW12484   1.438   0.137   5.131
 3862SOL    HW112485   1.372   0.197   5.087
 3862SOL    HW212486   1.396   0.091   5.208
 3863SOL     OW12487   4.334   3.131   6.212
 3863SOL    HW112488   4.382   3.131   6.300
 3863SOL    HW212489   4.331   3.224   6.175
 3864SOL     OW12490   2.364   0.754   5.842
 3864SOL    HW112491   2.427   0.827   5.817
 3864SOL    HW212492   2.273   0.792   5.860
 3865SOL     OW12493   3.513   6.721   6.995
 3865SOL    HW112494   3.502   6.725   0.077
 3865SOL    HW212495   3.589   6.660   6.973
 3866SOL     OW12496   3.821   0.908   1.933
 3866SOL    HW112497   3.768   0.946   2.009
 3866SOL    HW212498   3.794   0.952   1.847
 3867SOL     OW12499   1.485   4.396   4.216
 3867SOL    HW112500   1.497   4.485   4.260
 3867SOL    HW212501   1.524   4.325   4.273
 3868SOL     OW12502   3.473   6.774   0.248
 3868SOL    HW112503   3.394   6.801   0.303
 3868SOL    HW212504   3.554   6.825   0.278
 3869SOL     OW12505   6.075   3.524   5.278
 3869SOL    HW112506   6.163   3.500   5.319
 3869SOL    HW212507   6.073   3.622   5.257
 3870SOL     OW12508   4.096   5.652   6.953
 3870SOL    HW112509   4.114   5.564   6.909
 3870SOL    HW212510   4.151   5.661   0.018
 3871SOL     OW12511   3.932   0.283   2.776
 3871SOL    HW112512   4.017   0.306   2.729
 3871SOL    HW212513   3.940   0.310   2.872
 3872SOL     OW12514   3.869   3.290   2.760
 3872SOL    HW112515   3.834   3.284   2.853
 3872SOL    HW212516   3.884   3.198   2.723
 3873SOL     OW12517   6.038   3.365   1.837
 3873SOL    HW112518   5.944   3.331   1.830
 3873SOL    HW212519   6.048   3.418   1.921
 3874SOL     OW12520   3.983   6.173   6.664
 3874SOL    HW112521   4.026   6.126   6.587
 3874SOL    HW212522   3.896   6.130   6.686
 3875SOL     OW12523   2.024   2.528   1.851
 3875SOL    HW112524   2.020   2.624   1.823
 3875SOL    HW212525   1.948   2.508   1.913
 3876SOL     OW12526   5.166   5.160   0.428
 3876SOL    HW112527   5.250   5.187   0.380
 3876SOL    HW212528   5.109   5.105   0.367
 3877SOL     OW12529   6.902   2.836   0.343
 3877SOL    HW112530   6.833   2.791   0.399
 3877SOL    HW212531   6.955   2.767   0.294
 3878SOL     OW12532   2.521   6.342   4.792
 3878SOL    HW112533   2.471   6.377   4.872
 3878SOL    HW212534   2.610   6.387   4.786
 3879SOL     OW12535   5.081   6.332   1.432
 3879SOL    HW112536   4.993   6.361   1.471
 3879SOL    HW212537   5.107   6.395   1.359
 3880SOL     OW12538   6.432   5.109   3.650
 3880SOL    HW112539   6.443   5.198   3.605
 3880SOL    HW212540   6.380   5.122   3.735
 3881SOL     OW12541   1.164   4.470   1.066
 3881SOL    HW112542   1.261   4.478   1.042
 3881SOL    HW212543   1.134   4.554   1.112
 3882SOL     OW12544   0.405   1.769   4.864
 3882SOL    HW112545   0.440   1.718   4.942
 3882SOL    HW212546   0.308   1.746   4.851
 3883SOL     OW12547   4.251   0.876   3.340
 3883SOL    HW112548   4.303   0.948   3.386
 3883SOL    HW212549   4.262   0.885   3.241
 3884SOL     OW12550   0.982   5.493   3.460
 3884SOL    HW112551   1.082   5.495   3.463
 3884SOL    HW212552   0.951   5.519   3.368
 3885SOL     OW12553   6.399   0.142   2.716
 3885SOL    HW112554   6.392   0.082   2.637
 3885SOL    HW212555   6.493   0.172   2.728
 3886SOL     OW12556   6.480   5.915   4.801
 3886SOL    HW112557   6.382   5.905   4.821
 3886SOL    HW212558   6.494   5.998   4.747
 3887SOL     OW12559   6.744   0.892   5.841
 3887SOL    HW112560   6.817   0.961   5.837
 3887SOL    HW212561   6.702   0.883   5.751
 3888SOL     OW12562   1.066   0.311   6.717
 3888SOL    HW112563   1.075   0.381   6.646
 3888SOL    HW212564   1.146   0.313   6.776
 3889SOL     OW12565   6.244   3.148   6.582
 3889SOL    HW112566   6.333   3.103   6.590
 3889SOL    HW212567   6.183   3.116   6.653
 3890SOL     OW12568   5.817   5.740   2.627
 3890SOL    HW112569   5.748   5.801   2.587
 3890SOL    HW212570   5.907   5.781   2.617
 3891SOL     OW12571   5.424   4.830   4.092
 3891SOL    HW112572   5.466   4.890   4.023
 3891SOL    HW212573   5.491   4.809   4.163
 3892SOL     OW12574   0.257   2.424   1.584
 3892SOL    HW112575   0.257   2.496   1.653
 3892SOL    HW212576   0.174   2.431   1.528
 3893SOL     OW12577   3.345   5.477   1.481
 3893SOL    HW112578   3.344   5.577   1.482
 3893SOL    HW212579   3.346   5.445   1.386
 3894SOL     OW12580   2.598   1.736   0.979
 3894SOL    HW112581   2.598   1.776   1.070
 3894SOL    HW212582   2.641   1.799   0.914
 3895SOL     OW12583   1.674   0.138   5.354
 3895SOL    HW112584   1.633   0.048   5.340
 3895SOL    HW212585   1.750   0.151   5.289
 3896SOL     OW12586   0.354   1.862   6.455
 3896SOL    HW112587   0.388   1.827   6.542
 3896SOL    HW212588   0.390   1.807   6.380
 3897SOL     OW12589   3.644   6.986   1.948
 3897SOL    HW112590   3.577   6.919   1.981
 3897SOL    HW212591   3.600   0.028   1.881
 3898SOL     OW12592   3.544   3.778   4.087
 3898SOL    HW112593   3.564   3.782   4.185
 3898SOL    HW212594   3.594   3.702   4.046
 3899SOL     OW12595   4.687   0.942   4.336
 3899SOL    HW112596   4.726   1.033   4.345
 3899SOL    HW212597   4.620   0.941   4.263
 3900SOL     OW12598   5.395   2.779   3.754
 3900SOL    HW112599   5.296   2.776   3.768
 3900SOL    HW212600   5.430   2.867   3.788
 3901SOL     OW12601   3.291   6.222   5.730
 3901SOL    HW112602   3.223   6.281   5.775
 3901SOL    HW212603   3.300   6.136   5.780
 3902SOL     OW12604   5.935   3.942   1.591
 3902SOL    HW112605   6.017   3.898   1.628
 3902SOL    HW212606   5.863   3.873   1.581
 3903SOL     OW12607   4.837   4.399   6.894
 3903SOL    HW112608   4.822   4.497   6.897
 3903SOL    HW212609   4.935   4.381   6.883
 3904SOL     OW12610   2.312   6.594   5.723
 3904SOL    HW112611   2.304   6.612   5.625
 3904SOL    HW212612   2.257   6.514   5.747
 3905SOL     OW12613   5.739   6.810   6.180
 3905SOL    HW112614   5.659   6.760   6.214
 3905SOL    HW212615   5.709   6.882   6.118
 3906SOL     OW12616   1.814   5.423   5.521
 3906SOL    HW112617   1.776   5.491   5.459
 3906SOL    HW212618   1.742   5.359   5.549
 3907SOL     OW12619   6.262   0.143   3.971
 3907SOL    HW112620   6.180   0.155   3.916
 3907SOL    HW212621   6.243   0.079   4.046
 3908SOL     OW12622   1.702   0.948   6.662
 3908SOL    HW112623   1.710   1.046   6.640
 3908SOL    HW212624   1.606   0.921   6.654
 3909SOL     OW12625   0.004   4.639   6.711
 3909SOL    HW112626   6.989   4.733   6.705
 3909SOL    HW212627   0.028   4.617   6.805
 3910SOL     OW12628   3.552   3.866   2.129
 3910SOL    HW112629   3.641   3.859   2.084
 3910SOL    HW212630   3.535   3.961   2.153
 3911SOL     OW12631   5.048   1.676   0.040
 3911SOL    HW112632   5.105   1.611   7.008
 3911SOL    HW212633   4.956   1.639   0.051
 3912SOL     OW12634   3.899   1.572   6.214
 3912SOL    HW112635   3.954   1.653   6.237
 3912SOL    HW212636   3.957   1.505   6.168
 3913SOL     OW12637   2.962   6.659   6.570
 3913SOL    HW112638   2.961   6.758   6.556
 3913SOL    HW212639   2.976   6.613   6.482
 3914SOL     OW12640   5.169   0.831   1.388
 3914SOL    HW112641   5.078   0.872   1.386
 3914SOL    HW212642   5.218   0.862   1.470
 3915SOL     OW12643   4.536   6.273   0.374
 3915SOL    HW112644   4.452   6.267   0.427
 3915SOL    HW212645   4.537   6.359   0.323
 3916SOL     OW12646   2.258   6.658   2.635
 3916SOL    HW112647   2.279   6.648   2.538
 3916SOL    HW212648   2.178   6.602   2.658
 3917SOL     OW12649   1.246   4.174   1.333
 3917SOL    HW112650   1.318   4.215   1.276
 3917SOL    HW212651   1.283   4.154   1.424
 3918SOL     OW12652   4.207   6.305   2.009
 3918SOL    HW112653   4.248   6.278   1.922
 3918SOL    HW212654   4.197   6.224   2.067
 3919SOL     OW12655   3.456   0.439   6.557
 3919SOL    HW112656   3.388   0.462   6.487
 3919SOL    HW212657   3.417   0.375   6.622
 3920SOL     OW12658   2.784   1.859   6.257
 3920SOL    HW112659   2.829   1.825   6.174
 3920SOL    HW212660   2.835   1.828   6.337
 3921SOL     OW12661   6.804   2.622   0.478
 3921SOL    HW112662   6.887   2.584   0.437
 3921SOL    HW212663   6.724   2.578   0.439
 3922SOL     OW12664   4.244   5.551   0.869
 3922SOL    HW112665   4.303   5.599   0.804
 3922SOL    HW212666   4.258   5.452   0.859
 3923SOL     OW12667   5.929   2.110   0.106
 3923SOL    HW112668   5.963   2.105   0.200
 3923SOL    HW212669   5.915   2.017   0.071
 3924SOL     OW12670   0.644   4.810   2.967
 3924SOL    HW112671   0.630   4.804   3.065
 3924SOL    HW212672   0.557   4.828   2.921
 3925SOL     OW12673   4.085   4.467   0.881
 3925SOL    HW112674   4.051   4.401   0.814
 3925SOL    HW212675   4.091   4.557   0.839
 3926SOL     OW12676   0.279   0.461   4.628
 3926SOL    HW112677   0.232   0.376   4.609
 3926SOL    HW212678   0.357   0.471   4.565
 3927SOL     OW12679   0.118   2.340   4.862
 3927SOL    HW112680   0.125   2.420   4.921
 3927SOL    HW212681   0.208   2.316   4.828
 3928SOL     OW12682   3.680   5.553   4.081
 3928SOL    HW112683   3.622   5.476   4.054
 3928SOL    HW212684   3.691   5.615   4.004
 3929SOL     OW12685   6.572   1.765   6.661
 3929SOL    HW112686   6.640   1.736   6.729
 3929SOL    HW212687   6.547   1.687   6.604
 3930SOL     OW12688   1.190   1.927   3.580
 3930SOL    HW112689   1.103   1.896   3.616
 3930SOL    HW212690   1.259   1.855   3.590
 3931SOL     OW12691   1.691   1.616   2.040
 3931SOL    HW112692   1.744   1.571   2.112
 3931SOL    HW212693   1.678   1.553   1.964
 3932SOL     OW12694   1.777   4.436   3.718
 3932SOL    HW112695   1.800   4.426   3.622
 3932SOL    HW212696   1.680   4.460   3.727
 3933SOL     OW12697   1.529   6.707   0.231
 3933SOL    HW112698   1.610   6.756   0.262
 3933SOL    HW212699   1.524   6.618   0.275
 3934SOL     OW12700   7.016   0.806   2.386
 3934SOL    HW112701   6.971   0.729   2.340
 3934SOL    HW212702   6.968   0.828   2.471
 3935SOL     OW12703   1.275   1.112   5.625
 3935SOL    HW112704   1.250   1.172   5.701
 3935SOL    HW212705   1.368   1.077   5.639
 3936SOL     OW12706   6.649   6.011   5.325
 3936SOL    HW112707   6.728   5.953   5.347
 3936SOL    HW212708   6.568   5.955   5.313
 3937SOL     OW12709   6.836   6.314   2.094
 3937SOL    HW112710   6.858   6.391   2.154
 3937SOL    HW212711   6.890   6.321   2.010
 3938SOL     OW12712   6.126   3.732   4.280
 3938SOL    HW112713   6.207   3.743   4.222
 3938SOL    HW212714   6.145   3.665   4.351
 3939SOL     OW12715   2.318   1.764   3.423
 3939SOL    HW112716   2.279   1.768   3.330
 3939SOL    HW212717   2.245   1.779   3.490
 3940SOL     OW12718   2.931   4.830   1.885
 3940SOL    HW112719   3.014   4.857   1.934
 3940SOL    HW212720   2.894   4.747   1.925
 3941SOL     OW12721   5.968   0.225   4.631
 3941SOL    HW112722   5.924   0.235   4.720
 3941SOL    HW212723   6.055   0.178   4.641
 3942SOL     OW12724   0.931   6.452   5.521
 3942SOL    HW112725   0.942   6.411   5.612
 3942SOL    HW212726   1.019   6.488   5.490
 3943SOL     OW12727   0.390   3.624   3.108
 3943SOL    HW112728   0.481   3.606   3.071
 3943SOL    HW212729   0.365   3.719   3.090
 3944SOL     OW12730   5.906   3.610   6.162
 3944SOL    HW112731   5.834   3.679   6.150
 3944SOL    HW212732   5.887   3.532   6.103
 3945SOL     OW12733   1.176   2.346   2.932
 3945SOL    HW112734   1.084   2.340   2.972
 3945SOL    HW212735   1.172   2.398   2.847
 3946SOL     OW12736   0.049   3.860   6.247
 3946SOL    HW112737   7.015   3.775   6.254
 3946SOL    HW212738   0.144   3.840   6.223
 3947SOL     OW12739   5.566   5.431   0.984
 3947SOL    HW112740   5.552   5.496   1.058
 3947SOL    HW212741   5.478   5.393   0.956
 3948SOL     OW12742   1.241   4.430   6.855
 3948SOL    HW112743   1.246   4.511   6.796
 3948SOL    HW212744   1.180   4.363   6.814
 3949SOL     OW12745   6.003   6.788   2.777
 3949SOL    HW112746   6.089   6.838   2.789
 3949SOL    HW212747   5.988   6.728   2.856
 3950SOL     OW12748   3.633   3.968   1.557
 3950SOL    HW112749   3.729   3.964   1.585
 3950SOL    HW212750   3.587   3.885   1.588
 3951SOL     OW12751   0.635   1.010   0.320
 3951SOL    HW112752   0.548   1.002   0.273
 3951SOL    HW212753   0.677   1.098   0.299
 3952SOL     OW12754   6.114   3.393   4.989
 3952SOL    HW112755   6.164   3.351   5.064
 3952SOL    HW212756   6.168   3.469   4.951
 3953SOL     OW12757   3.950   4.379   6.741
 3953SOL    HW112758   3.866   4.426   6.717
 3953SOL    HW212759   3.984   4.329   6.661
 3954SOL     OW12760   5.643   4.848   5.283
 3954SOL    HW112761   5.707   4.844   5.360
 3954SOL    HW212762   5.690   4.822   5.199
 3955SOL     OW12763   4.882   6.696   6.848
 3955SOL    HW112764   4.888   6.715   6.750
 3955SOL    HW212765   4.827   6.613   6.863
 3956SOL     OW12766   1.004   2.105   4.755
 3956SOL    HW112767   0.914   2.145   4.776
 3956SOL    HW212768   0.995   2.043   4.677
 3957SOL     OW12769   4.594   6.578   3.590
 3957SOL    HW112770   4.505   6.594   3.547
 3957SOL    HW212771   4.651   6.522   3.529
 3958SOL     OW12772   6.018   6.668   6.406
 3958SOL    HW112773   5.942   6.733   6.402
 3958SOL    HW212774   6.104   6.717   6.395
 3959SOL     OW12775   3.163   6.300   1.172
 3959SOL    HW112776   3.236   6.355   1.133
 3959SOL    HW212777   3.075   6.343   1.152
 3960SOL     OW12778   6.017   2.376   6.162
 3960SOL    HW112779   6.015   2.440   6.239
 3960SOL    HW212780   6.034   2.284   6.197
 3961SOL     OW12781   5.547   2.286   2.004
 3961SOL    HW112782   5.610   2.362   1.989
 3961SOL    HW212783   5.505   2.260   1.918
 3962SOL     OW12784   1.160   5.592   0.024
 3962SOL    HW112785   1.243   5.548   0.060
 3962SOL    HW212786   1.186   5.676   6.995
 3963SOL     OW12787   5.404   4.330   3.684
 3963SOL    HW112788   5.314   4.309   3.644
 3963SOL    HW212789   5.395   4.407   3.747
 3964SOL     OW12790   4.328   4.704   4.812
 3964SOL    HW112791   4.366   4.635   4.874
 3964SOL    HW212792   4.231   4.715   4.831
 3965SOL     OW12793   3.908   4.343   6.136
 3965SOL    HW112794   3.884   4.394   6.053
 3965SOL    HW212795   3.888   4.399   6.216
 3966SOL     OW12796   6.917   4.932   0.016
 3966SOL    HW112797   6.882   4.912   0.107
 3966SOL    HW212798   6.913   4.849   6.978
 3967SOL     OW12799   1.179   4.419   2.813
 3967SOL    HW112800   1.213   4.490   2.875
 3967SOL    HW212801   1.133   4.462   2.735
 3968SOL     OW12802   6.282   0.663   1.156
 3968SOL    HW112803   6.363   0.637   1.104
 3968SOL    HW212804   6.201   0.620   1.116
 3969SOL     OW12805   0.294   3.893   3.095
 3969SOL    HW112806   0.380   3.944   3.089
 3969SOL    HW212807   0.237   3.931   3.167
 3970SOL     OW12808   4.812   5.154   3.341
 3970SOL    HW112809   4.764   5.131   3.256
 3970SOL    HW212810   4.870   5.078   3.368
 3971SOL     OW12811   2.302   4.864   2.430
 3971SOL    HW112812   2.248   4.870   2.514
 3971SOL    HW212813   2.400   4.861   2.453
 3972SOL     OW12814   1.318   5.690   1.800
 3972SOL    HW112815   1.380   5.703   1.722
 3972SOL    HW212816   1.353   5.741   1.879
 3973SOL     OW12817   2.582   3.603   5.449
 3973SOL    HW112818   2.666   3.605   5.505
 3973SOL    HW212819   2.593   3.537   5.375
 3974SOL     OW12820   1.603   0.808   5.409
 3974SOL    HW112821   1.625   0.745   5.334
 3974SOL    HW212822   1.554   0.887   5.372
 3975SOL     OW12823   6.087   7.018   6.408
 3975SOL    HW112824   6.006   6.960   6.412
 3975SOL    HW212825   6.080   0.072   6.478
 3976SOL     OW12826   1.972   4.887   0.945
 3976SOL    HW112827   1.941   4.975   0.979
 3976SOL    HW212828   2.026   4.841   1.016
 3977SOL     OW12829   3.248   4.697   5.742
 3977SOL    HW112830   3.217   4.790   5.764
 3977SOL    HW212831   3.339   4.701   5.701
 3978SOL     OW12832   5.627   0.454   4.598
 3978SOL    HW112833   5.644   0.364   4.557
 3978SOL    HW212834   5.615   0.444   4.696
 3979SOL     OW12835   2.526   5.816   1.538
 3979SOL    HW112836   2.527   5.780   1.445
 3979SOL    HW212837   2.529   5.916   1.535
 3980SOL     OW12838   0.268   4.521   5.605
 3980SOL    HW112839   0.213   4.440   5.623
 3980SOL    HW212840   0.291   4.566   5.692
 3981SOL     OW12841   1.713   2.195   6.402
 3981SOL    HW112842   1.629   2.246   6.424
 3981SOL    HW212843   1.711   2.106   6.447
 3982SOL     OW12844   2.773   0.470   4.044
 3982SOL    HW112845   2.833   0.550   4.042
 3982SOL    HW212846   2.779   0.422   3.956
 3983SOL     OW12847   2.929   5.920   4.426
 3983SOL    HW112848   2.894   6.007   4.389
 3983SOL    HW212849   3.009   5.939   4.484
 3984SOL     OW12850   2.112   0.494   1.818
 3984SOL    HW112851   2.185   0.520   1.881
 3984SOL    HW212852   2.048   0.433   1.865
 3985SOL     OW12853   2.798   4.240   0.124
 3985SOL    HW112854   2.782   4.235   0.222
 3985SOL    HW212855   2.726   4.192   0.075
 3986SOL     OW12856   0.014   1.485   3.221
 3986SOL    HW112857   6.991   1.570   3.255
 3986SOL    HW212858   6.987   1.458   3.136
 3987SOL     OW12859   1.166   5.468   4.937
 3987SOL    HW112860   1.070   5.445   4.918
 3987SOL    HW212861   1.189   5.554   4.891
 3988SOL     OW12862   3.442   2.607   5.473
 3988SOL    HW112863   3.461   2.664   5.552
 3988SOL    HW212864   3.520   2.547   5.456
 3989SOL     OW12865   6.252   0.864   6.987
 3989SOL    HW112866   6.289   0.944   6.940
 3989SOL    HW212867   6.152   0.869   6.987
 3990SOL     OW12868   5.988   1.502   3.813
 3990SOL    HW112869   5.924   1.545   3.876
 3990SOL    HW212870   5.982   1.402   3.822
 3991SOL     OW12871   6.685   2.251   3.115
 3991SOL    HW112872   6.727   2.204   3.037
 3991SOL    HW212873   6.615   2.193   3.156
 3992SOL     OW12874   4.255   2.214   5.992
 3992SOL    HW112875   4.308   2.293   6.022
 3992SOL    HW212876   4.179   2.199   6.056
 3993SOL     OW12877   1.539   2.075   3.388
 3993SOL    HW112878   1.534   2.164   3.341
 3993SOL    HW212879   1.469   2.014   3.351
 3994SOL     OW12880   1.379   2.698   5.234
 3994SOL    HW112881   1.445   2.774   5.227
 3994SOL    HW212882   1.417   2.618   5.188
 3995SOL     OW12883   2.204   4.024   4.077
 3995SOL    HW112884   2.222   3.928   4.097
 3995SOL    HW212885   2.218   4.041   3.979
 3996SOL     OW12886   1.361   0.884   5.002
 3996SOL    HW112887   1.358   0.936   5.088
 3996SOL    HW212888   1.287   0.915   4.942
 3997SOL     OW12889   4.999   3.262   3.358
 3997SOL    HW112890   5.016   3.352   3.398
 3997SOL    HW212891   5.020   3.265   3.260
 3998SOL     OW12892   5.136   1.783   1.993
 3998SOL    HW112893   5.095   1.794   1.903
 3998SOL    HW212894   5.203   1.856   2.009
 3999SOL     OW12895   5.907   3.617   3.536
 3999SOL    HW112896   5.977   3.572   3.480
 3999SOL    HW212897   5.938   3.621   3.631
 4000SOL     OW12898   3.306   5.720   2.872
 4000SOL    HW112899   3.336   5.639   2.923
 4000SOL    HW212900   3.359   5.728   2.787
 4001SOL     OW12901   2.255   2.603   4.875
 4001SOL    HW112902   2.327   2.570   4.936
 4001SOL    HW212903   2.288   2.683   4.825
 4002SOL     OW12904   3.309   3.358   6.031
 4002SOL    HW112905   3.381   3.299   6.068
 4002SOL    HW212906   3.347   3.413   5.956
 4003SOL     OW12907   2.563   0.325   6.024
 4003SOL    HW112908   2.613   0.249   5.982
 4003SOL    HW212909   2.506   0.291   6.098
 4004SOL     OW12910   6.162   3.059   4.251
 4004SOL    HW112911   6.136   3.149   4.216
 4004SOL    HW212912   6.098   2.990   4.217
 4005SOL     OW12913   5.405   4.990   0.991
 4005SOL    HW112914   5.428   5.028   1.081
 4005SOL    HW212915   5.488   4.953   0.948
 4006SOL     OW12916   4.624   4.786   2.162
 4006SOL    HW112917   4.593   4.701   2.120
 4006SOL    HW212918   4.689   4.765   2.235
 4007SOL     OW12919   0.816   2.567   2.047
 4007SOL    HW112920   0.822   2.468   2.063
 4007SOL    HW212921   0.882   2.594   1.977
 4008SOL     OW12922   3.875   1.500   5.490
 4008SOL    HW112923   3.854   1.408   5.458
 4008SOL    HW212924   3.885   1.499   5.590
 4009SOL     OW12925   4.629   2.714   0.594
 4009SOL    HW112926   4.605   2.770   0.673
 4009SOL    HW212927   4.606   2.763   0.510
 4010SOL     OW12928   2.178   3.363   1.438
 4010SOL    HW112929   2.268   3.331   1.408
 4010SOL    HW212930   2.121   3.284   1.462
 4011SOL     OW12931   1.392   6.371   2.134
 4011SOL    HW112932   1.355   6.294   2.082
 4011SOL    HW212933   1.317   6.417   2.183
 4012SOL     OW12934   4.903   4.926   1.537
 4012SOL    HW112935   4.929   4.898   1.445
 4012SOL    HW212936   4.945   4.864   1.603
 4013SOL     OW12937   3.074   0.530   0.859
 4013SOL    HW112938   3.132   0.463   0.814
 4013SOL    HW212939   3.028   0.488   0.937
 4014SOL     OW12940   4.067   5.561   3.495
 4014SOL    HW112941   4.025   5.488   3.550
 4014SOL    HW212942   3.998   5.631   3.476
 4015SOL     OW12943   4.320   5.009   6.431
 4015SOL    HW112944   4.307   4.927   6.375
 4015SOL    HW212945   4.235   5.031   6.479
 4016SOL     OW12946   0.955   5.560   6.581
 4016SOL    HW112947   1.035   5.600   6.625
 4016SOL    HW212948   0.967   5.562   6.482
 4017SOL     OW12949   0.657   6.406   6.956
 4017SOL    HW112950   0.739   6.464   6.961
 4017SOL    HW212951   0.685   6.310   6.953
 4018SOL     OW12952   5.898   6.462   1.656
 4018SOL    HW112953   5.881   6.372   1.698
 4018SOL    HW212954   5.991   6.491   1.676
 4019SOL     OW12955   6.243   3.831   2.055
 4019SOL    HW112956   6.265   3.737   2.079
 4019SOL    HW212957   6.324   3.888   2.065
 4020SOL     OW12958   6.857   2.534   5.735
 4020SOL    HW112959   6.875   2.436   5.742
 4020SOL    HW212960   6.811   2.565   5.818
 4021SOL     OW12961   3.358   3.707   5.308
 4021SOL    HW112962   3.346   3.685   5.211
 4021SOL    HW212963   3.437   3.657   5.343
 4022SOL     OW12964   4.905   0.516   6.452
 4022SOL    HW112965   4.928   0.436   6.397
 4022SOL    HW212966   4.847   0.488   6.529
 4023SOL     OW12967   6.962   0.658   4.478
 4023SOL    HW112968   0.023   0.675   4.419
 4023SOL    HW212969   6.880   0.648   4.421
 4024SOL     OW12970   2.533   5.181   4.193
 4024SOL    HW112971   2.602   5.253   4.193
 4024SOL    HW212972   2.539   5.128   4.277
 4025SOL     OW12973   6.976   6.125   4.632
 4025SOL    HW112974   6.956   6.036   4.592
 4025SOL    HW212975   6.941   6.127   4.726
 4026SOL     OW12976   6.178   0.034   2.819
 4026SOL    HW112977   6.260   0.079   2.781
 4026SOL    HW212978   6.100   0.052   2.759
 4027SOL     OW12979   2.450   2.696   1.478
 4027SOL    HW112980   2.431   2.604   1.445
 4027SOL    HW212981   2.549   2.709   1.486
 4028SOL     OW12982   2.411   2.398   2.822
 4028SOL    HW112983   2.342   2.342   2.777
 4028SOL    HW212984   2.458   2.453   2.754
 4029SOL     OW12985   2.947   4.812   6.009
 4029SOL    HW112986   3.001   4.728   6.008
 4029SOL    HW212987   2.948   4.852   6.101
 4030SOL     OW12988   1.205   1.615   1.110
 4030SOL    HW112989   1.145   1.535   1.122
 4030SOL    HW212990   1.293   1.585   1.073
 4031SOL     OW12991   5.147   6.479   3.398
 4031SOL    HW112992   5.197   6.404   3.355
 4031SOL    HW212993   5.137   6.461   3.496
 4032SOL     OW12994   6.447   0.180   2.292
 4032SOL    HW112995   6.494   0.091   2.288
 4032SOL    HW212996   6.511   0.253   2.269
 4033SOL     OW12997   2.883   3.765   1.613
 4033SOL    HW112998   2.943   3.765   1.693
 4033SOL    HW212999   2.935   3.738   1.532
 4034SOL     OW13000   6.951   1.493   4.774
 4034SOL    HW113001   6.889   1.425   4.813
 4034SOL    HW213002   6.928   1.506   4.677
 4035SOL     OW13003   6.283   2.515   1.020
 4035SOL    HW113004   6.261   2.534   0.924
 4035SOL    HW213005   6.281   2.601   1.072
 4036SOL     OW13006   4.765   6.366   2.643
 4036SOL    HW113007   4.770   6.269   2.618
 4036SOL    HW213008   4.755   6.375   2.742
 4037SOL     OW13009   2.414   1.200   0.480
 4037SOL    HW113010   2.397   1.207   0.381
 4037SOL    HW213011   2.491   1.257   0.505
 4038SOL     OW13012   4.359   4.008   1.675
 4038SOL    HW113013   4.348   4.085   1.612
 4038SOL    HW213014   4.406   4.038   1.757
 4039SOL     OW13015   4.676   4.472   1.660
 4039SOL    HW113016   4.588   4.424   1.655
 4039SOL    HW213017   4.750   4.407   1.641
 4040SOL     OW13018   3.867   6.841   5.772
 4040SOL    HW113019   3.889   6.828   5.675
 4040SOL    HW213020   3.949   6.874   5.820
 4041SOL     OW13021   1.864   5.177   1.370
 4041SOL    HW113022   1.876   5.167   1.469
 4041SOL    HW213023   1.926   5.115   1.322
 4042SOL     OW13024   6.281   5.471   3.131
 4042SOL    HW113025   6.270   5.530   3.052
 4042SOL    HW213026   6.206   5.406   3.136
 4043SOL     OW13027   5.175   1.502   4.075
 4043SOL    HW113028   5.273   1.489   4.066
 4043SOL    HW213029   5.156   1.592   4.113
 4044SOL     OW13030   4.884   0.333   3.236
 4044SOL    HW113031   4.805   0.321   3.296
 4044SOL    HW213032   4.855   0.374   3.150
 4045SOL     OW13033   2.712   5.246   5.860
 4045SOL    HW113034   2.645   5.319   5.851
 4045SOL    HW213035   2.707   5.185   5.781
 4046SOL     OW13036   0.928   1.743   3.763
 4046SOL    HW113037   0.954   1.648   3.742
 4046SOL    HW213038   1.003   1.787   3.813
 4047SOL     OW13039   1.366   1.862   0.628
 4047SOL    HW113040   1.332   1.906   0.711
 4047SOL    HW213041   1.435   1.794   0.652
 4048SOL     OW13042   5.234   2.286   1.901
 4048SOL    HW113043   5.154   2.235   1.933
 4048SOL    HW213044   5.261   2.354   1.969
 4049SOL     OW13045   6.213   5.468   5.949
 4049SOL    HW113046   6.186   5.564   5.955
 4049SOL    HW213047   6.234   5.444   5.854
 4050SOL     OW13048   1.633   6.585   1.229
 4050SOL    HW113049   1.586   6.616   1.147
 4050SOL    HW213050   1.686   6.661   1.268
 4051SOL     OW13051   3.677   2.373   6.603
 4051SOL    HW113052   3.757   2.413   6.648
 4051SOL    HW213053   3.642   2.437   6.535
 4052SOL     OW13054   6.833   0.571   2.501
 4052SOL    HW113055   6.920   0.582   2.549
 4052SOL    HW213056   6.841   0.607   2.409
 4053SOL     OW13057   3.191   4.851   4.149
 4053SOL    HW113058   3.155   4.762   4.119
 4053SOL    HW213059   3.229   4.899   4.069
 4054SOL     OW13060   6.823   3.649   2.028
 4054SOL    HW113061   6.764   3.648   2.109
 4054SOL    HW213062   6.830   3.556   1.991
 4055SOL     OW13063   3.280   3.420   6.811
 4055SOL    HW113064   3.361   3.450   6.761
 4055SOL    HW213065   3.218   3.372   6.748
 4056SOL     OW13066   3.655   4.237   0.905
 4056SOL    HW113067   3.589   4.277   0.841
 4056SOL    HW213068   3.716   4.176   0.856
 4057SOL     OW13069   5.495   2.636   1.636
 4057SOL    HW113070   5.591   2.654   1.619
 4057SOL    HW213071   5.484   2.543   1.670
 4058SOL     OW13072   1.725   0.308   4.041
 4058SOL    HW113073   1.693   0.241   3.975
 4058SOL    HW213074   1.712   0.273   4.134
 4059SOL     OW13075   0.967   2.612   3.862
 4059SOL    HW113076   0.974   2.606   3.762
 4059SOL    HW213077   0.871   2.608   3.888
 4060SOL     OW13078   4.833   5.513   4.214
 4060SOL    HW113079   4.811   5.598   4.263
 4060SOL    HW213080   4.774   5.439   4.248
 4061SOL     OW13081   3.003   5.015   1.701
 4061SOL    HW113082   2.971   4.958   1.776
 4061SOL    HW213083   3.003   4.963   1.615
 4062SOL     OW13084   2.092   2.365   2.223
 4062SOL    HW113085   2.072   2.277   2.180
 4062SOL    HW213086   2.172   2.356   2.282
 4063SOL     OW13087   6.022   6.338   5.291
 4063SOL    HW113088   6.036   6.384   5.379
 4063SOL    HW213089   6.001   6.241   5.307
 4064SOL     OW13090   1.534   6.753   3.599
 4064SOL    HW113091   1.567   6.806   3.522
 4064SOL    HW213092   1.463   6.689   3.568
 4065SOL     OW13093   6.968   0.012   0.882
 4065SOL    HW113094   6.889   6.985   0.925
 4065SOL    HW213095   6.974   7.001   0.787
 4066SOL     OW13096   5.486   5.930   2.747
 4066SOL    HW113097   5.576   5.951   2.784
 4066SOL    HW213098   5.442   6.015   2.717
 4067SOL     OW13099   6.653   3.144   3.253
 4067SOL    HW113100   6.735   3.181   3.297
 4067SOL    HW213101   6.573   3.191   3.287
 4068SOL     OW13102   3.250   0.459   4.919
 4068SOL    HW113103   3.237   0.386   4.852
 4068SOL    HW213104   3.250   0.547   4.873
 4069SOL     OW13105   3.634   4.986   6.123
 4069SOL    HW113106   3.649   4.888   6.130
 4069SOL    HW213107   3.710   5.028   6.071
 4070SOL     OW13108   0.476   3.201   2.145
 4070SOL    HW113109   0.456   3.193   2.047
 4070SOL    HW213110   0.533   3.124   2.173
 4071SOL     OW13111   1.384   1.218   5.383
 4071SOL    HW113112   1.368   1.202   5.480
 4071SOL    HW213113   1.432   1.305   5.371
 4072SOL     OW13114   0.476   5.907   3.937
 4072SOL    HW113115   0.393   5.920   3.883
 4072SOL    HW213116   0.548   5.968   3.903
 4073SOL     OW13117   2.414   6.054   6.564
 4073SOL    HW113118   2.362   5.969   6.567
 4073SOL    HW213119   2.358   6.129   6.599
 4074SOL     OW13120   0.054   2.731   2.338
 4074SOL    HW113121   0.016   2.719   2.247
 4074SOL    HW213122   0.147   2.694   2.340
 4075SOL     OW13123   4.271   2.291   2.609
 4075SOL    HW113124   4.190   2.273   2.554
 4075SOL    HW213125   4.313   2.204   2.637
 4076SOL     OW13126   3.302   3.467   5.575
 4076SOL    HW113127   3.249   3.552   5.574
 4076SOL    HW213128   3.368   3.470   5.651
 4077SOL     OW13129   3.556   0.406   0.093
 4077SOL    HW113130   3.639   0.416   0.037
 4077SOL    HW213131   3.484   0.365   0.037
 4078SOL     OW13132   6.407   5.582   2.048
 4078SOL    HW113133   6.436   5.521   2.122
 4078SOL    HW213134   6.322   5.547   2.009
 4079SOL     OW13135   0.362   1.880   3.742
 4079SOL    HW113136   0.457   1.854   3.729
 4079SOL    HW213137   0.355   1.948   3.815
 4080SOL     OW13138   2.756   3.695   6.805
 4080SOL    HW113139   2.659   3.694   6.780
 4080SOL    HW213140   2.777   3.612   6.858
 4081SOL     OW13141   2.187   1.967   4.147
 4081SOL    HW113142   2.094   1.943   4.122
 4081SOL    HW213143   2.238   1.885   4.173
 4082SOL     OW13144   1.283   2.799   0.510
 4082SOL    HW113145   1.284   2.898   0.497
 4082SOL    HW213146   1.188   2.768   0.518
 4083SOL     OW13147   6.731   4.741   2.034
 4083SOL    HW113148   6.805   4.677   2.053
 4083SOL    HW213149   6.715   4.746   1.936
 4084SOL     OW13150   4.361   2.353   3.015
 4084SOL    HW113151   4.410   2.435   3.044
 4084SOL    HW213152   4.403   2.272   3.057
 4085SOL     OW13153   2.624   5.756   0.648
 4085SOL    HW113154   2.638   5.696   0.726
 4085SOL    HW213155   2.712   5.789   0.615
 4086SOL     OW13156   0.345   4.524   1.271
 4086SOL    HW113157   0.322   4.460   1.198
 4086SOL    HW213158   0.333   4.618   1.238
 4087SOL     OW13159   1.547   1.659   3.307
 4087SOL    HW113160   1.637   1.618   3.290
 4087SOL    HW213161   1.476   1.589   3.296
 4088SOL     OW13162   6.585   1.022   6.646
 4088SOL    HW113163   6.552   1.073   6.567
 4088SOL    HW213164   6.548   1.062   6.730
 4089SOL     OW13165   6.202   4.696   3.871
 4089SOL    HW113166   6.156   4.607   3.877
 4089SOL    HW213167   6.256   4.700   3.787
 4090SOL     OW13168   1.496   5.623   5.212
 4090SOL    HW113169   1.473   5.574   5.295
 4090SOL    HW213170   1.416   5.673   5.179
 4091SOL     OW13171   0.767   6.149   6.947
 4091SOL    HW113172   0.803   6.119   6.859
 4091SOL    HW213173   0.726   6.071   6.994
 4092SOL     OW13174   5.752   2.937   4.310
 4092SOL    HW113175   5.789   2.860   4.363
 4092SOL    HW213176   5.800   2.944   4.223
 4093SOL     OW13177   4.938   6.562   1.769
 4093SOL    HW113178   4.887   6.600   1.846
 4093SOL    HW213179   5.017   6.620   1.748
 4094SOL     OW13180   1.689   4.694   5.908
 4094SOL    HW113181   1.643   4.720   5.823
 4094SOL    HW213182   1.781   4.733   5.909
 4095SOL     OW13183   0.542   4.229   0.654
 4095SOL    HW113184   0.518   4.133   0.643
 4095SOL    HW213185   0.610   4.238   0.727
 4096SOL     OW13186   5.206   0.960   0.018
 4096SOL    HW113187   5.190   0.862   0.032
 4096SOL    HW213188   5.295   0.973   6.992
 4097SOL     OW13189   4.516   4.695   4.376
 4097SOL    HW113190   4.603   4.661   4.412
 4097SOL    HW213191   4.442   4.675   4.441
 4098SOL     OW13192   0.701   1.610   2.063
 4098SOL    HW113193   0.676   1.668   2.142
 4098SOL    HW213194   0.790   1.640   2.028
 4099SOL     OW13195   4.151   5.319   1.216
 4099SOL    HW113196   4.052   5.333   1.223
 4099SOL    HW213197   4.172   5.272   1.130
 4100SOL     OW13198   0.403   6.270   4.253
 4100SOL    HW113199   0.386   6.257   4.155
 4100SOL    HW213200   0.377   6.363   4.279
 4101SOL     OW13201   0.191   0.856   0.298
 4101SOL    HW113202   0.223   0.865   0.392
 4101SOL    HW213203   0.267   0.872   0.235
 4102SOL     OW13204   1.054   0.683   0.812
 4102SOL    HW113205   1.110   0.708   0.733
 4102SOL    HW213206   1.028   0.587   0.806
 4103SOL     OW13207   0.586   0.210   0.680
 4103SOL    HW113208   0.567   0.129   0.624
 4103SOL    HW213209   0.504   0.267   0.687
 4104SOL     OW13210   0.012   4.871   3.369
 4104SOL    HW113211   0.015   4.809   3.448
 4104SOL    HW213212   6.980   4.827   3.294
 4105SOL     OW13213   5.835   0.276   2.562
 4105SOL    HW113214   5.815   0.368   2.596
 4105SOL    HW213215   5.824   0.274   2.463
 4106SOL     OW13216   6.697   2.691   3.339
 4106SOL    HW113217   6.755   2.634   3.281
 4106SOL    HW213218   6.748   2.719   3.420
 4107SOL     OW13219   1.444   5.549   1.355
 4107SOL    HW113220   1.447   5.540   1.256
 4107SOL    HW213221   1.510   5.486   1.396
 4108SOL     OW13222   6.851   5.116   4.790
 4108SOL    HW113223   6.845   5.060   4.707
 4108SOL    HW213224   6.773   5.178   4.794
 4109SOL     OW13225   6.854   0.121   4.581
 4109SOL    HW113226   6.839   0.032   4.536
 4109SOL    HW213227   6.897   0.184   4.517
 4110SOL     OW13228   4.105   3.913   5.743
 4110SOL    HW113229   4.121   3.912   5.644
 4110SOL    HW213230   4.007   3.917   5.761
 4111SOL     OW13231   5.423   4.894   6.250
 4111SOL    HW113232   5.399   4.850   6.337
 4111SOL    HW213233   5.419   4.827   6.176
 4112SOL     OW13234   4.774   6.561   4.869
 4112SOL    HW113235   4.787   6.526   4.961
 4112SOL    HW213236   4.720   6.496   4.816
 4113SOL     OW13237   5.738   5.590   4.881
 4113SOL    HW113238   5.665   5.524   4.866
 4113SOL    HW213239   5.814   5.570   4.819
 4114SOL     OW13240   4.134   2.213   3.942
 4114SOL    HW113241   4.075   2.226   4.022
 4114SOL    HW213242   4.229   2.201   3.972
 4115SOL     OW13243   3.038   5.218   2.357
 4115SOL    HW113244   3.082   5.230   2.446
 4115SOL    HW213245   3.107   5.211   2.286
 4116SOL     OW13246   3.669   1.337   2.550
 4116SOL    HW113247   3.579   1.371   2.577
 4116SOL    HW213248   3.717   1.301   2.630
 4117SOL     OW13249   0.969   3.710   2.576
 4117SOL    HW113250   1.029   3.727   2.654
 4117SOL    HW213251   1.003   3.633   2.523
 4118SOL     OW13252   5.291   6.494   0.693
 4118SOL    HW113253   5.299   6.508   0.595
 4118SOL    HW213254   5.223   6.557   0.730
 4119SOL     OW13255   3.075   1.738   3.943
 4119SOL    HW113256   3.054   1.820   3.891
 4119SOL    HW213257   3.109   1.764   4.034
 4120SOL     OW13258   4.274   0.821   5.984
 4120SOL    HW113259   4.240   0.884   6.055
 4120SOL    HW213260   4.357   0.775   6.017
 4121SOL     OW13261   6.518   0.010   3.336
 4121SOL    HW113262   6.454   0.077   3.299
 4121SOL    HW213263   6.500   6.939   3.295
 4122SOL     OW13264   1.407   6.542   4.945
 4122SOL    HW113265   1.324   6.594   4.964
 4122SOL    HW213266   1.384   6.453   4.906
 4123SOL     OW13267   4.331   4.770   5.249
 4123SOL    HW113268   4.389   4.839   5.293
 4123SOL    HW213269   4.286   4.714   5.318
 4124SOL     OW13270   6.419   6.264   0.558
 4124SOL    HW113271   6.461   6.354   0.546
 4124SOL    HW213272   6.455   6.201   0.489
 4125SOL     OW13273   4.571   1.739   2.432
 4125SOL    HW113274   4.487   1.705   2.389
 4125SOL    HW213275   4.629   1.781   2.362
 4126SOL     OW13276   2.003   3.364   3.434
 4126SOL    HW113277   2.017   3.463   3.436
 4126SOL    HW213278   1.924   3.343   3.376
 4127SOL     OW13279   5.786   3.499   5.719
 4127SOL    HW113280   5.739   3.538   5.640
 4127SOL    HW213281   5.767   3.401   5.725
 4128SOL     OW13282   1.053   3.086   1.120
 4128SOL    HW113283   1.131   3.146   1.137
 4128SOL    HW213284   1.002   3.072   1.205
 4129SOL     OW13285   3.628   1.195   6.707
 4129SOL    HW113286   3.570   1.216   6.785
 4129SOL    HW213287   3.628   1.096   6.691
 4130SOL     OW13288   6.410   3.024   1.136
 4130SOL    HW113289   6.370   3.084   1.066
 4130SOL    HW213290   6.476   2.963   1.093
 4131SOL     OW13291   0.021   1.233   3.455
 4131SOL    HW113292   0.104   1.280   3.484
 4131SOL    HW213293   6.959   1.288   3.480
 4132SOL     OW13294   4.834   4.064   3.371
 4132SOL    HW113295   4.867   3.969   3.378
 4132SOL    HW213296   4.784   4.075   3.285
 4133SOL     OW13297   3.292   6.039   1.547
 4133SOL    HW113298   3.380   6.057   1.503
 4133SOL    HW213299   3.285   5.942   1.569
 4134SOL     OW13300   2.562   3.783   1.380
 4134SOL    HW113301   2.481   3.825   1.340
 4134SOL    HW213302   2.624   3.754   1.306
 4135SOL     OW13303   0.290   2.226   1.852
 4135SOL    HW113304   0.285   2.323   1.827
 4135SOL    HW213305   0.350   2.215   1.930
 4136SOL     OW13306   1.137   3.076   2.925
 4136SOL    HW113307   1.229   3.044   2.900
 4136SOL    HW213308   1.078   3.070   2.845
 4137SOL     OW13309   1.054   3.379   1.787
 4137SOL    HW113310   1.153   3.368   1.781
 4137SOL    HW213311   1.032   3.474   1.807
 4138SOL     OW13312   4.264   5.802   2.653
 4138SOL    HW113313   4.269   5.782   2.555
 4138SOL    HW213314   4.318   5.735   2.704
 4139SOL     OW13315   1.970   1.537   5.320
 4139SOL    HW113316   1.953   1.635   5.333
 4139SOL    HW213317   1.949   1.512   5.226
 4140SOL     OW13318   3.468   0.792   5.638
 4140SOL    HW113319   3.434   0.832   5.553
 4140SOL    HW213320   3.394   0.742   5.683
 4141SOL     OW13321   5.036   6.550   1.262
 4141SOL    HW113322   5.018   6.634   1.313
 4141SOL    HW213323   5.082   6.572   1.177
 4142SOL     OW13324   6.551   5.114   0.711
 4142SOL    HW113325   6.576   5.026   0.750
 4142SOL    HW213326   6.605   5.186   0.755
 4143SOL     OW13327   5.205   1.767   0.759
 4143SOL    HW113328   5.128   1.746   0.818
 4143SOL    HW213329   5.291   1.749   0.807
 4144SOL     OW13330   5.555   1.366   6.866
 4144SOL    HW113331   5.543   1.319   6.778
 4144SOL    HW213332   5.489   1.440   6.874
 4145SOL     OW13333   0.501   6.440   1.482
 4145SOL    HW113334   0.406   6.459   1.459
 4145SOL    HW213335   0.546   6.524   1.513
 4146SOL     OW13336   6.696   0.552   2.845
 4146SOL    HW113337   6.609   0.567   2.892
 4146SOL    HW213338   6.685   0.480   2.776
 4147SOL     OW13339   4.963   4.984   6.069
 4147SOL    HW113340   4.980   5.012   5.975
 4147SOL    HW213341   5.043   4.936   6.105
 4148SOL     OW13342   1.869   0.427   4.442
 4148SOL    HW113343   1.942   0.379   4.393
 4148SOL    HW213344   1.793   0.363   4.460
 4149SOL     OW13345   0.197   4.330   1.111
 4149SOL    HW113346   0.107   4.369   1.090
 4149SOL    HW213347   0.250   4.322   1.027
 4150SOL     OW13348   1.131   0.048   6.161
 4150SOL    HW113349   1.087   0.088   6.080
 4150SOL    HW213350   1.112   6.968   6.164
 4151SOL     OW13351   3.460   6.305   5.556
 4151SOL    HW113352   3.388   6.266   5.614
 4151SOL    HW213353   3.434   6.295   5.460
 4152SOL     OW13354   4.534   6.054   1.553
 4152SOL    HW113355   4.562   6.007   1.470
 4152SOL    HW213356   4.438   6.081   1.546
 4153SOL     OW13357   5.570   5.320   0.568
 4153SOL    HW113358   5.577   5.283   0.476
 4153SOL    HW213359   5.587   5.419   0.566
 4154SOL     OW13360   0.128   5.142   3.601
 4154SOL    HW113361   0.122   5.106   3.508
 4154SOL    HW213362   0.131   5.242   3.598
 4155SOL     OW13363   6.963   1.269   2.337
 4155SOL    HW113364   0.027   1.212   2.338
 4155SOL    HW213365   6.984   1.361   2.369
 4156SOL     OW13366   5.896   6.263   5.046
 4156SOL    HW113367   5.839   6.340   5.017
 4156SOL    HW213368   5.938   6.283   5.134
 4157SOL     OW13369   4.670   5.644   3.909
 4157SOL    HW113370   4.584   5.637   3.958
 4157SOL    HW213371   4.669   5.582   3.830
 4158SOL     OW13372   0.014   3.039   1.563
 4158SOL    HW113373   6.936   3.067   1.567
 4158SOL    HW213374   0.046   3.017   1.655
 4159SOL     OW13375   2.181   3.100   3.094
 4159SOL    HW113376   2.087   3.071   3.110
 4159SOL    HW213377   2.182   3.180   3.034
 4160SOL     OW13378   5.824   1.046   0.506
 4160SOL    HW113379   5.903   1.008   0.457
 4160SOL    HW213380   5.855   1.106   0.579
 4161SOL     OW13381   1.007   2.246   0.737
 4161SOL    HW113382   1.086   2.308   0.730
 4161SOL    HW213383   1.038   2.154   0.760
 4162SOL     OW13384   6.566   5.685   0.211
 4162SOL    HW113385   6.657   5.727   0.209
 4162SOL    HW213386   6.504   5.739   0.153
 4163SOL     OW13387   4.767   0.427   2.991
 4163SOL    HW113388   4.685   0.377   2.966
 4163SOL    HW213389   4.751   0.525   2.980
 4164SOL     OW13390   1.783   6.625   5.812
 4164SOL    HW113391   1.879   6.601   5.798
 4164SOL    HW213392   1.758   6.607   5.908
 4165SOL     OW13393   4.518   0.664   6.041
 4165SOL    HW113394   4.488   0.576   6.005
 4165SOL    HW213395   4.612   0.681   6.011
 4166SOL     OW13396   5.381   1.869   0.437
 4166SOL    HW113397   5.415   1.898   0.348
 4166SOL    HW213398   5.291   1.826   0.426
 4167SOL     OW13399   2.156   4.340   0.619
 4167SOL    HW113400   2.190   4.374   0.531
 4167SOL    HW213401   2.097   4.260   0.603
 4168SOL     OW13402   0.016   4.544   1.463
 4168SOL    HW113403   0.104   4.535   1.509
 4168SOL    HW213404   6.991   4.454   1.455
 4169SOL     OW13405   5.721   4.730   5.013
 4169SOL    HW113406   5.637   4.707   4.964
 4169SOL    HW213407   5.785   4.775   4.951
 4170SOL     OW13408   4.433   3.588   6.039
 4170SOL    HW113409   4.472   3.678   6.055
 4170SOL    HW213410   4.437   3.534   6.123
 4171SOL     OW13411   6.680   5.639   0.787
 4171SOL    HW113412   6.607   5.570   0.786
 4171SOL    HW213413   6.729   5.633   0.874
 4172SOL     OW13414   1.260   1.742   6.166
 4172SOL    HW113415   1.359   1.754   6.155
 4172SOL    HW213416   1.223   1.817   6.220
 4173SOL     OW13417   5.254   4.308   4.749
 4173SOL    HW113418   5.281   4.277   4.658
 4173SOL    HW213419   5.159   4.283   4.767
 4174SOL     OW13420   4.978   1.545   2.693
 4174SOL    HW113421   4.944   1.497   2.774
 4174SOL    HW213422   5.063   1.593   2.715
 4175SOL     OW13423   1.963   5.184   4.676
 4175SOL    HW113424   1.973   5.196   4.775
 4175SOL    HW213425   1.941   5.089   4.656
 4176SOL     OW13426   3.583   5.924   1.883
 4176SOL    HW113427   3.589   5.977   1.968
 4176SOL    HW213428   3.561   5.829   1.904
 4177SOL     OW13429   5.985   5.008   5.040
 4177SOL    HW113430   6.031   4.969   5.120
 4177SOL    HW213431   5.961   5.103   5.059
 4178SOL     OW13432   4.417   6.829   4.222
 4178SOL    HW113433   4.500   6.846   4.276
 4178SOL    HW213434   4.404   6.904   4.157
 4179SOL     OW13435   6.087   3.441   3.423
 4179SOL    HW113436   6.037   3.415   3.340
 4179SOL    HW213437   6.104   3.359   3.479
 4180SOL     OW13438   4.904   4.449   1.371
 4180SOL    HW113439   4.872   4.367   1.419
 4180SOL    HW213440   4.999   4.436   1.343
 4181SOL     OW13441   3.664   0.921   0.251
 4181SOL    HW113442   3.566   0.932   0.235
 4181SOL    HW213443   3.695   0.990   0.316
 4182SOL     OW13444   0.881   0.053   3.789
 4182SOL    HW113445   0.876   0.037   3.691
 4182SOL    HW213446   0.976   0.049   3.819
 4183SOL     OW13447   3.197   1.442   6.898
 4183SOL    HW113448   3.161   1.349   6.888
 4183SOL    HW213449   3.164   1.482   6.983
 4184SOL     OW13450   4.271   6.070   2.166
 4184SOL    HW113451   4.303   5.976   2.154
 4184SOL    HW213452   4.185   6.070   2.215
 4185SOL     OW13453   0.399   4.717   2.084
 4185SOL    HW113454   0.475   4.777   2.062
 4185SOL    HW213455   0.418   4.670   2.171
 4186SOL     OW13456   2.935   4.867   6.987
 4186SOL    HW113457   2.937   4.772   6.955
 4186SOL    HW213458   2.841   4.898   6.993
 4187SOL     OW13459   3.693   3.022   5.630
 4187SOL    HW113460   3.680   2.951   5.561
 4187SOL    HW213461   3.693   3.112   5.585
 4188SOL     OW13462   4.846   0.451   5.085
 4188SOL    HW113463   4.839   0.542   5.125
 4188SOL    HW213464   4.867   0.384   5.157
 4189SOL     OW13465   3.341   4.989   5.308
 4189SOL    HW113466   3.285   4.979   5.390
 4189SOL    HW213467   3.353   5.086   5.287
 4190SOL     OW13468   0.919   0.508   0.261
 4190SOL    HW113469   0.873   0.576   0.319
 4190SOL    HW213470   0.955   0.435   0.319
 4191SOL     OW13471   4.760   4.358   3.135
 4191SOL    HW113472   4.744   4.260   3.120
 4191SOL    HW213473   4.812   4.395   3.057
 4192SOL     OW13474   0.608   0.988   4.085
 4192SOL    HW113475   0.608   0.960   4.181
 4192SOL    HW213476   0.641   0.913   4.028
 4193SOL     OW13477   0.480   0.995   1.779
 4193SOL    HW113478   0.451   1.089   1.792
 4193SOL    HW213479   0.554   0.991   1.712
 4194SOL     OW13480   5.839   0.590   4.137
 4194SOL    HW113481   5.889   0.632   4.214
 4194SOL    HW213482   5.859   0.492   4.134
 4195SOL     OW13483   3.853   6.187   2.026
 4195SOL    HW113484   3.819   6.275   1.995
 4195SOL    HW213485   3.903   6.143   1.951
 4196SOL     OW13486   6.163   2.125   3.236
 4196SOL    HW113487   6.190   2.049   3.177
 4196SOL    HW213488   6.081   2.169   3.199
 4197SOL     OW13489   4.720   5.576   5.652
 4197SOL    HW113490   4.770   5.545   5.733
 4197SOL    HW213491   4.748   5.521   5.573
 4198SOL     OW13492   5.665   2.217   0.091
 4198SOL    HW113493   5.645   2.271   0.009
 4198SOL    HW213494   5.759   2.183   0.087
 4199SOL     OW13495   2.093   2.414   6.123
 4199SOL    HW113496   2.169   2.359   6.087
 4199SOL    HW213497   2.110   2.435   6.220
 4200SOL     OW13498   3.851   0.070   6.003
 4200SOL    HW113499   3.937   0.024   6.024
 4200SOL    HW213500   3.841   0.150   6.063
 4201SOL     OW13501   6.081   6.571   3.347
 4201SOL    HW113502   6.125   6.581   3.437
 4201SOL    HW213503   5.982   6.563   3.359
 4202SOL     OW13504   3.990   5.715   5.611
 4202SOL    HW113505   4.021   5.646   5.677
 4202SOL    HW213506   4.068   5.766   5.576
 4203SOL     OW13507   4.291   5.360   0.621
 4203SOL    HW113508   4.226   5.314   0.681
 4203SOL    HW213509   4.303   5.454   0.651
 4204SOL     OW13510   3.942   3.923   2.874
 4204SOL    HW113511   3.902   3.941   2.964
 4204SOL    HW213512   4.020   3.861   2.885
 4205SOL     OW13513   3.993   5.351   3.672
 4205SOL    HW113514   4.047   5.281   3.624
 4205SOL    HW213515   4.008   5.344   3.770
 4206SOL     OW13516   6.865   0.003   5.927
 4206SOL    HW113517   6.827   0.096   5.933
 4206SOL    HW213518   6.929   7.007   6.002
 4207SOL     OW13519   1.599   1.193   1.083
 4207SOL    HW113520   1.664   1.265   1.105
 4207SOL    HW213521   1.638   1.131   1.015
 4208SOL     OW13522   0.090   2.698   5.913
 4208SOL    HW113523   0.158   2.766   5.938
 4208SOL    HW213524   0.016   2.741   5.862
 4209SOL     OW13525   0.552   0.298   4.202
 4209SOL    HW113526   0.649   0.287   4.181
 4209SOL    HW213527   0.501   0.310   4.117
 4210SOL     OW13528   3.281   3.483   2.327
 4210SOL    HW113529   3.307   3.579   2.323
 4210SOL    HW213530   3.219   3.462   2.251
 4211SOL     OW13531   4.263   6.139   5.901
 4211SOL    HW113532   4.245   6.119   5.997
 4211SOL    HW213533   4.297   6.233   5.892
 4212SOL     OW13534   5.834   2.051   2.796
 4212SOL    HW113535   5.797   2.056   2.704
 4212SOL    HW213536   5.918   2.105   2.801
 4213SOL     OW13537   1.688   1.062   1.364
 4213SOL    HW113538   1.733   1.018   1.286
 4213SOL    HW213539   1.716   1.157   1.370
 4214SOL     OW13540   1.340   4.814   5.391
 4214SOL    HW113541   1.303   4.897   5.348
 4214SOL    HW213542   1.435   4.802   5.364
 4215SOL     OW13543   5.761   6.579   5.769
 4215SOL    HW113544   5.747   6.485   5.738
 4215SOL    HW213545   5.810   6.578   5.856
 4216SOL     OW13546   0.973   1.280   3.109
 4216SOL    HW113547   0.945   1.346   3.179
 4216SOL    HW213548   1.073   1.277   3.105
 4217SOL     OW13549   1.142   0.250   2.085
 4217SOL    HW113550   1.176   0.344   2.097
 4217SOL    HW213551   1.066   0.250   2.021
 4218SOL     OW13552   4.526   0.922   1.726
 4218SOL    HW113553   4.437   0.877   1.723
 4218SOL    HW213554   4.515   1.017   1.756
 4219SOL     OW13555   3.042   5.353   4.101
 4219SOL    HW113556   2.971   5.414   4.066
 4219SOL    HW213557   3.066   5.380   4.194
 4220SOL     OW13558   5.257   2.907   3.997
 4220SOL    HW113559   5.284   2.978   3.933
 4220SOL    HW213560   5.187   2.849   3.955
 4221SOL     OW13561   6.026   5.143   6.587
 4221SOL    HW113562   6.072   5.096   6.662
 4221SOL    HW213563   5.963   5.080   6.541
 4222SOL     OW13564   6.085   2.236   2.777
 4222SOL    HW113565   6.164   2.263   2.722
 4222SOL    HW213566   6.068   2.305   2.847
 4223SOL     OW13567   3.521   3.187   6.106
 4223SOL    HW113568   3.609   3.207   6.149
 4223SOL    HW213569   3.537   3.140   6.019
 4224SOL     OW13570   5.162   3.808   3.943
 4224SOL    HW113571   5.157   3.895   3.894
 4224SOL    HW213572   5.072   3.785   3.980
 4225SOL     OW13573   4.162   0.933   6.188
 4225SOL    HW113574   4.079   0.979   6.158
 4225SOL    HW213575   4.157   0.917   6.287
 4226SOL     OW13576   0.945   0.123   2.295
 4226SOL    HW113577   0.853   0.161   2.298
 4226SOL    HW213578   1.001   0.176   2.232
 4227SOL     OW13579   3.743   4.431   1.309
 4227SOL    HW113580   3.673   4.496   1.336
 4227SOL    HW213581   3.823   4.441   1.368
 4228SOL     OW13582   0.300   4.177   4.860
 4228SOL    HW113583   0.217   4.133   4.895
 4228SOL    HW213584   0.304   4.167   4.761
 4229SOL     OW13585   5.297   5.425   5.498
 4229SOL    HW113586   5.347   5.453   5.416
 4229SOL    HW213587   5.294   5.502   5.562
 4230SOL     OW13588   1.427   6.832   2.620
 4230SOL    HW113589   1.459   6.822   2.526
 4230SOL    HW213590   1.502   6.865   2.677
 4231SOL     OW13591   5.381   6.551   5.386
 4231SOL    HW113592   5.386   6.544   5.486
 4231SOL    HW213593   5.330   6.633   5.361
 4232SOL     OW13594   6.907   4.567   2.666
 4232SOL    HW113595   6.908   4.508   2.746
 4232SOL    HW213596   6.948   4.656   2.689
 4233SOL     OW13597   0.015   0.731   6.327
 4233SOL    HW113598   6.963   0.798   6.348
 4233SOL    HW213599   0.094   0.777   6.286
 4234SOL     OW13600   2.488   6.903   5.456
 4234SOL    HW113601   2.407   6.960   5.470
 4234SOL    HW213602   2.529   6.925   5.368
 4235SOL     OW13603   6.063   3.886   5.854
 4235SOL    HW113604   6.159   3.859   5.846
 4235SOL    HW213605   6.010   3.845   5.781
 4236SOL     OW13606   0.013   3.334   3.046
 4236SOL    HW113607   6.965   3.396   3.089
 4236SOL    HW213608   0.098   3.384   3.027
 4237SOL     OW13609   5.488   5.437   2.694
 4237SOL    HW113610   5.491   5.366   2.625
 4237SOL    HW213611   5.427   5.511   2.664
 4238SOL     OW13612   2.963   5.123   2.884
 4238SOL    HW113613   3.054   5.156   2.910
 4238SOL    HW213614   2.920   5.189   2.823
 4239SOL     OW13615   5.557   1.742   2.975
 4239SOL    HW113616   5.507   1.792   2.904
 4239SOL    HW213617   5.498   1.670   3.012
 4240SOL     OW13618   2.504   0.204   0.160
 4240SOL    HW113619   2.577   0.146   0.198
 4240SOL    HW213620   2.480   0.275   0.227
 4241SOL     OW13621   6.056   0.999   0.348
 4241SOL    HW113622   6.150   0.967   0.333
 4241SOL    HW213623   6.008   1.004   0.261
 4242SOL     OW13624   2.223   0.983   3.294
 4242SOL    HW113625   2.278   0.899   3.294
 4242SOL    HW213626   2.126   0.958   3.289
 4243SOL     OW13627   6.623   2.998   3.511
 4243SOL    HW113628   6.634   3.035   3.418
 4243SOL    HW213629   6.528   2.972   3.525
 4244SOL     OW13630   4.566   4.663   1.373
 4244SOL    HW113631   4.620   4.732   1.325
 4244SOL    HW213632   4.545   4.695   1.466
 4245SOL     OW13633   6.769   0.819   6.118
 4245SOL    HW113634   6.779   0.833   6.020
 4245SOL    HW213635   6.812   0.894   6.168
 4246SOL     OW13636   6.620   3.482   2.498
 4246SOL    HW113637   6.539   3.425   2.484
 4246SOL    HW213638   6.693   3.451   2.437
 4247SOL     OW13639   2.583   4.926   3.202
 4247SOL    HW113640   2.578   4.898   3.298
 4247SOL    HW213641   2.678   4.923   3.171
 4248SOL     OW13642   1.854   1.660   3.900
 4248SOL    HW113643   1.952   1.660   3.919
 4248SOL    HW213644   1.806   1.606   3.970
 4249SOL     OW13645   5.891   2.656   4.094
 4249SOL    HW113646   5.940   2.637   4.179
 4249SOL    HW213647   5.957   2.659   4.018
 4250SOL     OW13648   6.824   5.841   3.425
 4250SOL    HW113649   6.747   5.777   3.429
 4250SOL    HW213650   6.829   5.892   3.511
 4251SOL     OW13651   5.390   3.898   1.073
 4251SOL    HW113652   5.381   3.971   1.141
 4251SOL    HW213653   5.348   3.927   0.988
 4252SOL     OW13654   6.285   6.893   6.660
 4252SOL    HW113655   6.339   6.971   6.690
 4252SOL    HW213656   6.346   6.823   6.623
 4253SOL     OW13657   3.112   6.616   0.930
 4253SOL    HW113658   3.124   6.657   1.021
 4253SOL    HW213659   3.066   6.528   0.939
 4254SOL     OW13660   1.146   3.308   2.036
 4254SOL    HW113661   1.189   3.230   2.081
 4254SOL    HW213662   1.104   3.279   1.950
 4255SOL     OW13663   6.972   4.095   4.255
 4255SOL    HW113664   0.012   4.108   4.336
 4255SOL    HW213665   6.969   4.181   4.203
 4256SOL     OW13666   1.792   6.424   1.064
 4256SOL    HW113667   1.848   6.376   1.131
 4256SOL    HW213668   1.723   6.479   1.110
 4257SOL     OW13669   3.092   0.442   4.179
 4257SOL    HW113670   3.142   0.528   4.185
 4257SOL    HW213671   3.080   0.418   4.082
 4258SOL     OW13672   3.598   5.795   1.106
 4258SOL    HW113673   3.559   5.860   1.170
 4258SOL    HW213674   3.532   5.773   1.035
 4259SOL     OW13675   2.136   0.503   0.781
 4259SOL    HW113676   2.132   0.543   0.872
 4259SOL    HW213677   2.155   0.405   0.788
 4260SOL     OW13678   5.755   0.658   1.613
 4260SOL    HW113679   5.746   0.559   1.605
 4260SOL    HW213680   5.699   0.691   1.689
 4261SOL     OW13681   2.453   0.456   2.448
 4261SOL    HW113682   2.493   0.447   2.539
 4261SOL    HW213683   2.503   0.397   2.384
 4262SOL     OW13684   0.702   4.304   6.454
 4262SOL    HW113685   0.674   4.210   6.432
 4262SOL    HW213686   0.777   4.331   6.394
 4263SOL     OW13687   2.953   0.692   2.365
 4263SOL    HW113688   3.030   0.711   2.426
 4263SOL    HW213689   2.867   0.708   2.414
 4264SOL     OW13690   6.140   1.635   3.616
 4264SOL    HW113691   6.083   1.612   3.695
 4264SOL    HW213692   6.117   1.573   3.540
 4265SOL     OW13693   3.989   1.353   0.727
 4265SOL    HW113694   3.958   1.442   0.760
 4265SOL    HW213695   4.044   1.365   0.645
 4266SOL     OW13696   1.440   5.947   6.385
 4266SOL    HW113697   1.470   5.946   6.480
 4266SOL    HW213698   1.346   5.913   6.379
 4267SOL     OW13699   2.167   3.786   3.559
 4267SOL    HW113700   2.248   3.816   3.508
 4267SOL    HW213701   2.141   3.694   3.528
 4268SOL     OW13702   0.682   5.694   6.613
 4268SOL    HW113703   0.684   5.737   6.523
 4268SOL    HW213704   0.673   5.595   6.602
 4269SOL     OW13705   2.869   0.614   2.088
 4269SOL    HW113706   2.905   0.612   2.181
 4269SOL    HW213707   2.935   0.570   2.026
 4270SOL     OW13708   4.118   3.549   3.371
 4270SOL    HW113709   4.103   3.451   3.362
 4270SOL    HW213710   4.161   3.583   3.287
 4271SOL     OW13711   6.465   1.279   6.689
 4271SOL    HW113712   6.441   1.305   6.596
 4271SOL    HW213713   6.467   1.361   6.747
 4272SOL     OW13714   6.517   1.986   4.687
 4272SOL    HW113715   6.603   2.032   4.711
 4272SOL    HW213716   6.459   1.980   4.768
 4273SOL     OW13717   4.130   6.625   5.040
 4273SOL    HW113718   4.225   6.653   5.054
 4273SOL    HW213719   4.089   6.679   4.966
 4274SOL     OW13720   0.992   0.583   1.473
 4274SOL    HW113721   0.926   0.510   1.495
 4274SOL    HW213722   1.007   0.639   1.555
 4275SOL     OW13723   6.018   2.250   4.768
 4275SOL    HW113724   6.038   2.220   4.861
 4275SOL    HW213725   6.042   2.178   4.703
 4276SOL     OW13726   2.337   5.077   3.848
 4276SOL    HW113727   2.342   5.103   3.752
 4276SOL    HW213728   2.377   5.150   3.905
 4277SOL     OW13729   6.287   4.685   3.254
 4277SOL    HW113730   6.258   4.679   3.159
 4277SOL    HW213731   6.376   4.640   3.264
 4278SOL     OW13732   6.868   6.714   4.925
 4278SOL    HW113733   6.959   6.726   4.965
 4278SOL    HW213734   6.803   6.689   4.996
 4279SOL     OW13735   3.450   1.128   3.695
 4279SOL    HW113736   3.482   1.136   3.790
 4279SOL    HW213737   3.361   1.083   3.694
 4280SOL     OW13738   5.285   0.485   6.309
 4280SOL    HW113739   5.264   0.576   6.343
 4280SOL    HW213740   5.217   0.458   6.241
 4281SOL     OW13741   6.684   4.461   3.800
 4281SOL    HW113742   6.780   4.465   3.773
 4281SOL    HW213743   6.640   4.549   3.781
 4282SOL     OW13744   3.750   4.645   6.318
 4282SOL    HW113745   3.822   4.679   6.379
 4282SOL    HW213746   3.755   4.545   6.314
 4283SOL     OW13747   1.542   0.713   3.171
 4283SOL    HW113748   1.477   0.639   3.152
 4283SOL    HW213749   1.635   0.676   3.175
 4284SOL     OW13750   3.961   4.581   1.119
 4284SOL    HW113751   4.032   4.529   1.165
 4284SOL    HW213752   3.927   4.530   1.040
 4285SOL     OW13753   1.510   0.387   6.144
 4285SOL    HW113754   1.511   0.401   6.045
 4285SOL    HW213755   1.603   0.400   6.180
 4286SOL     OW13756   5.080   6.558   5.440
 4286SOL    HW113757   5.040   6.628   5.499
 4286SOL    HW213758   5.153   6.510   5.489
 4287SOL     OW13759   5.815   1.120   6.052
 4287SOL    HW113760   5.867   1.165   5.980
 4287SOL    HW213761   5.858   1.032   6.074
 4288SOL     OW13762   0.828   5.933   3.092
 4288SOL    HW113763   0.742   5.891   3.123
 4288SOL    HW213764   0.834   5.927   2.993
 4289SOL     OW13765   0.119   2.791   6.250
 4289SOL    HW113766   0.020   2.797   6.250
 4289SOL    HW213767   0.148   2.715   6.309
 4290SOL     OW13768   1.337   6.556   3.468
 4290SOL    HW113769   1.432   6.572   3.441
 4290SOL    HW213770   1.278   6.560   3.388
 4291SOL     OW13771   4.775   3.631   0.646
 4291SOL    HW113772   4.847   3.589   0.592
 4291SOL    HW213773   4.693   3.575   0.642
 4292SOL     OW13774   5.151   3.191   0.347
 4292SOL    HW113775   5.184   3.103   0.382
 4292SOL    HW213776   5.184   3.265   0.406
 4293SOL     OW13777   2.578   2.629   0.004
 4293SOL    HW113778   2.577   2.530   7.004
 4293SOL    HW213779   2.610   2.677   6.940
 4294SOL     OW13780   2.219   2.452   6.658
 4294SOL    HW113781   2.142   2.515   6.654
 4294SOL    HW213782   2.235   2.425   6.752
 4295SOL     OW13783   3.841   5.809   4.815
 4295SOL    HW113784   3.794   5.896   4.830
 4295SOL    HW213785   3.903   5.791   4.891
 4296SOL     OW13786   3.561   6.719   0.603
 4296SOL    HW113787   3.576   6.693   0.507
 4296SOL    HW213788   3.488   6.787   0.607
 4297SOL     OW13789   4.934   0.112   0.966
 4297SOL    HW113790   4.992   0.083   0.890
 4297SOL    HW213791   4.982   0.098   1.053
 4298SOL     OW13792   3.822   5.309   0.343
 4298SOL    HW113793   3.842   5.394   0.295
 4298SOL    HW213794   3.893   5.241   0.322
 4299SOL     OW13795   1.304   3.153   6.640
 4299SOL    HW113796   1.208   3.174   6.661
 4299SOL    HW213797   1.351   3.237   6.612
 4300SOL     OW13798   3.124   6.824   0.147
 4300SOL    HW113799   3.172   6.818   0.060
 4300SOL    HW213800   3.102   6.920   0.166
 4301SOL     OW13801   4.215   0.939   1.727
 4301SOL    HW113802   4.156   0.872   1.773
 4301SOL    HW213803   4.238   1.012   1.791
 4302SOL     OW13804   0.722   0.180   6.078
 4302SOL    HW113805   0.815   0.143   6.071
 4302SOL    HW213806   0.663   0.133   6.013
 4303SOL     OW13807   6.883   4.940   3.968
 4303SOL    HW113808   6.952   4.989   3.914
 4303SOL    HW213809   6.798   4.932   3.916
 4304SOL     OW13810   3.195   3.663   2.689
 4304SOL    HW113811   3.272   3.726   2.681
 4304SOL    HW213812   3.220   3.575   2.647
 4305SOL     OW13813   0.571   6.802   5.880
 4305SOL    HW113814   0.531   6.768   5.795
 4305SOL    HW213815   0.574   6.728   5.947
 4306SOL     OW13816   5.024   4.744   5.309
 4306SOL    HW113817   5.118   4.754   5.344
 4306SOL    HW213818   4.962   4.725   5.385
 4307SOL     OW13819   5.695   3.775   6.159
 4307SOL    HW113820   5.701   3.874   6.152
 4307SOL    HW213821   5.639   3.750   6.237
 4308SOL     OW13822   5.977   4.549   0.998
 4308SOL    HW113823   5.889   4.506   0.977
 4308SOL    HW213824   5.963   4.645   1.022
 4309SOL     OW13825   1.018   1.065   0.169
 4309SOL    HW113826   0.954   1.007   0.119
 4309SOL    HW213827   1.077   1.113   0.104
 4310SOL     OW13828   2.219   2.547   2.065
 4310SOL    HW113829   2.153   2.547   1.990
 4310SOL    HW213830   2.183   2.491   2.141
 4311SOL     OW13831   1.749   6.072   2.621
 4311SOL    HW113832   1.807   6.128   2.561
 4311SOL    HW213833   1.803   5.994   2.653
 4312SOL     OW13834   2.120   5.834   1.800
 4312SOL    HW113835   2.204   5.885   1.780
 4312SOL    HW213836   2.053   5.895   1.843
 4313SOL     OW13837   4.351   1.246   1.263
 4313SOL    HW113838   4.290   1.317   1.298
 4313SOL    HW213839   4.335   1.161   1.313
 4314SOL     OW13840   5.738   1.390   4.354
 4314SOL    HW113841   5.743   1.456   4.429
 4314SOL    HW213842   5.819   1.332   4.356
 4315SOL     OW13843   2.838   6.263   2.620
 4315SOL    HW113844   2.801   6.355   2.636
 4315SOL    HW213845   2.782   6.216   2.551
 4316SOL     OW13846   5.177   1.086   1.894
 4316SOL    HW113847   5.238   1.015   1.857
 4316SOL    HW213848   5.208   1.176   1.864
 4317SOL     OW13849   5.068   2.286   4.819
 4317SOL    HW113850   5.028   2.310   4.730
 4317SOL    HW213851   5.054   2.188   4.836
 4318SOL     OW13852   0.036   2.716   4.889
 4318SOL    HW113853   0.127   2.755   4.871
 4318SOL    HW213854   0.036   2.676   4.981
 4319SOL     OW13855   1.918   1.439   0.516
 4319SOL    HW113856   1.965   1.367   0.465
 4319SOL    HW213857   1.823   1.445   0.487
 4320SOL     OW13858   4.765   5.034   0.839
 4320SOL    HW113859   4.809   5.097   0.902
 4320SOL    HW213860   4.797   5.052   0.746
 4321SOL     OW13861   0.222   5.933   5.548
 4321SOL    HW113862   0.282   5.876   5.605
 4321SOL    HW213863   0.254   5.932   5.453
 4322SOL     OW13864   5.953   2.882   0.045
 4322SOL    HW113865   5.912   2.973   0.049
 4322SOL    HW213866   5.943   2.845   6.971
 4323SOL     OW13867   4.509   4.348   0.206
 4323SOL    HW113868   4.575   4.313   0.140
 4323SOL    HW213869   4.425   4.374   0.159
 4324SOL     OW13870   5.733   4.106   6.845
 4324SOL    HW113871   5.765   4.190   6.803
 4324SOL    HW213872   5.795   4.031   6.824
 4325SOL     OW13873   2.268   1.131   1.649
 4325SOL    HW113874   2.312   1.182   1.576
 4325SOL    HW213875   2.334   1.069   1.691
 4326SOL     OW13876   4.612   4.746   3.438
 4326SOL    HW113877   4.514   4.738   3.461
 4326SOL    HW213878   4.666   4.702   3.510
 4327SOL     OW13879   5.674   5.946   1.810
 4327SOL    HW113880   5.581   5.966   1.780
 4327SOL    HW213881   5.689   5.983   1.901
 4328SOL     OW13882   4.295   4.093   5.723
 4328SOL    HW113883   4.360   4.092   5.800
 4328SOL    HW213884   4.227   4.021   5.737
 4329SOL     OW13885   4.796   2.145   5.421
 4329SOL    HW113886   4.794   2.233   5.373
 4329SOL    HW213887   4.718   2.138   5.483
 4330SOL     OW13888   2.057   6.385   4.557
 4330SOL    HW113889   2.082   6.420   4.466
 4330SOL    HW213890   2.051   6.285   4.554
 4331SOL     OW13891   6.125   1.550   2.146
 4331SOL    HW113892   6.092   1.620   2.084
 4331SOL    HW213893   6.053   1.484   2.165
 4332SOL     OW13894   4.904   3.200   2.489
 4332SOL    HW113895   4.887   3.112   2.533
 4332SOL    HW213896   4.866   3.200   2.397
 4333SOL     OW13897   4.506   1.299   6.058
 4333SOL    HW113898   4.592   1.291   6.108
 4333SOL    HW213899   4.473   1.393   6.064
 4334SOL     OW13900   1.708   1.995   2.843
 4334SOL    HW113901   1.717   2.079   2.897
 4334SOL    HW213902   1.621   1.997   2.793
 4335SOL     OW13903   3.205   4.062   2.646
 4335SOL    HW113904   3.229   4.038   2.552
 4335SOL    HW213905   3.130   4.004   2.677
 4336SOL     OW13906   3.617   6.595   5.871
 4336SOL    HW113907   3.556   6.593   5.792
 4336SOL    HW213908   3.618   6.687   5.911
 4337SOL     OW13909   1.128   4.431   0.378
 4337SOL    HW113910   1.178   4.500   0.325
 4337SOL    HW213911   1.138   4.342   0.334
 4338SOL     OW13912   6.097   6.916   6.137
 4338SOL    HW113913   6.153   6.884   6.213
 4338SOL    HW213914   6.124   6.868   6.054
 4339SOL     OW13915   4.668   3.344   5.839
 4339SOL    HW113916   4.629   3.277   5.774
 4339SOL    HW213917   4.735   3.400   5.791
 4340SOL     OW13918   6.016   3.443   1.292
 4340SOL    HW113919   5.968   3.382   1.230
 4340SOL    HW213920   5.981   3.430   1.385
 4341SOL     OW13921   0.801   4.860   1.811
 4341SOL    HW113922   0.847   4.945   1.837
 4341SOL    HW213923   0.787   4.858   1.712
 4342SOL     OW13924   5.206   3.883   3.237
 4342SOL    HW113925   5.301   3.915   3.245
 4342SOL    HW213926   5.195   3.834   3.151
 4343SOL     OW13927   2.834   5.803   4.961
 4343SOL    HW113928   2.835   5.863   4.881
 4343SOL    HW213929   2.747   5.815   5.010
 4344SOL     OW13930   0.342   3.807   1.894
 4344SOL    HW113931   0.279   3.796   1.817
 4344SOL    HW213932   0.350   3.721   1.943
 4345SOL     OW13933   3.517   4.227   5.659
 4345SOL    HW113934   3.450   4.153   5.659
 4345SOL    HW213935   3.516   4.273   5.571
 4346SOL     OW13936   1.748   3.584   2.875
 4346SOL    HW113937   1.678   3.539   2.931
 4346SOL    HW213938   1.822   3.519   2.857
 4347SOL     OW13939   6.142   6.960   2.093
 4347SOL    HW113940   6.074   6.912   2.149
 4347SOL    HW213941   6.143   6.920   2.001
 4348SOL     OW13942   0.321   5.382   3.307
 4348SOL    HW113943   0.275   5.460   3.265
 4348SOL    HW213944   0.303   5.381   3.405
 4349SOL     OW13945   5.406   1.938   2.807
 4349SOL    HW113946   5.384   2.029   2.774
 4349SOL    HW213947   5.407   1.873   2.731
 4350SOL     OW13948   3.521   1.659   3.607
 4350SOL    HW113949   3.508   1.575   3.659
 4350SOL    HW213950   3.487   1.646   3.513
 4351SOL     OW13951   1.628   6.168   1.112
 4351SOL    HW113952   1.637   6.082   1.161
 4351SOL    HW213953   1.633   6.244   1.177
 4352SOL     OW13954   6.497   3.712   2.345
 4352SOL    HW113955   6.545   3.636   2.390
 4352SOL    HW213956   6.563   3.767   2.293
 4353SOL     OW13957   3.905   2.708   6.561
 4353SOL    HW113958   3.974   2.684   6.629
 4353SOL    HW213959   3.819   2.732   6.607
 4354SOL     OW13960   1.841   0.725   5.876
 4354SOL    HW113961   1.857   0.672   5.792
 4354SOL    HW213962   1.773   0.796   5.858
 4355SOL     OW13963   2.584   0.101   2.744
 4355SOL    HW113964   2.566   0.194   2.712
 4355SOL    HW213965   2.540   0.035   2.682
 4356SOL     OW13966   5.304   3.707   0.037
 4356SOL    HW113967   5.354   3.793   0.049
 4356SOL    HW213968   5.302   3.656   0.123
 4357SOL     OW13969   6.291   1.171   1.436
 4357SOL    HW113970   6.245   1.132   1.515
 4357SOL    HW213971   6.367   1.112   1.409
 4358SOL     OW13972   0.175   0.666   0.589
 4358SOL    HW113973   0.190   0.706   0.680
 4358SOL    HW213974   0.226   0.719   0.521
 4359SOL     OW13975   1.615   0.930   5.945
 4359SOL    HW113976   1.536   0.869   5.952
 4359SOL    HW213977   1.659   0.938   6.034
 4360SOL     OW13978   0.854   3.238   3.513
 4360SOL    HW113979   0.941   3.272   3.477
 4360SOL    HW213980   0.859   3.235   3.613
 4361SOL     OW13981   2.601   3.400   1.486
 4361SOL    HW113982   2.681   3.408   1.425
 4361SOL    HW213983   2.584   3.487   1.530
 4362SOL     OW13984   6.529   5.360   3.236
 4362SOL    HW113985   6.468   5.427   3.193
 4362SOL    HW213986   6.491   5.268   3.223
 4363SOL     OW13987   5.337   2.115   1.112
 4363SOL    HW113988   5.301   2.149   1.199
 4363SOL    HW213989   5.264   2.118   1.043
 4364SOL     OW13990   3.194   4.071   4.434
 4364SOL    HW113991   3.158   4.145   4.490
 4364SOL    HW213992   3.186   3.984   4.484
 4365SOL     OW13993   2.696   0.723   1.589
 4365SOL    HW113994   2.726   0.635   1.552
 4365SOL    HW213995   2.763   0.793   1.567
 4366SOL     OW13996   6.432   0.087   6.779
 4366SOL    HW113997   6.423   0.081   6.879
 4366SOL    HW213998   6.405   0.179   6.749
 4367SOL     OW13999   2.422   4.399   4.445
 4367SOL    HW114000   2.398   4.349   4.362
 4367SOL    HW214001   2.385   4.351   4.525
 4368SOL     OW14002   3.698   5.466   0.808
 4368SOL    HW114003   3.746   5.539   0.759
 4368SOL    HW214004   3.615   5.442   0.759
 4369SOL     OW14005   4.936   5.733   2.755
 4369SOL    HW114006   4.866   5.744   2.685
 4369SOL    HW214007   4.946   5.818   2.806
 4370SOL     OW14008   3.618   4.909   1.681
 4370SOL    HW114009   3.619   4.988   1.742
 4370SOL    HW214010   3.616   4.825   1.735
 4371SOL     OW14011   0.660   2.163   2.211
 4371SOL    HW114012   0.723   2.110   2.154
 4371SOL    HW214013   0.700   2.252   2.230
 4372SOL     OW14014   2.356   2.400   3.637
 4372SOL    HW114015   2.342   2.320   3.695
 4372SOL    HW214016   2.421   2.377   3.564
 4373SOL     OW14017   5.601   1.203   0.085
 4373SOL    HW114018   5.593   1.257   0.169
 4373SOL    HW214019   5.597   1.263   0.006
 4374SOL     OW14020   0.603   1.256   0.561
 4374SOL    HW114021   0.508   1.287   0.566
 4374SOL    HW214022   0.664   1.334   0.573
 4375SOL     OW14023   4.355   6.625   3.450
 4375SOL    HW114024   4.385   6.710   3.405
 4375SOL    HW214025   4.255   6.626   3.459
 4376SOL     OW14026   6.193   6.514   2.678
 4376SOL    HW114027   6.150   6.576   2.743
 4376SOL    HW214028   6.177   6.546   2.585
 4377SOL     OW14029   5.585   5.175   6.963
 4377SOL    HW114030   5.563   5.097   0.003
 4377SOL    HW214031   5.565   5.260   7.012
 4378SOL     OW14032   2.078   3.053   2.506
 4378SOL    HW114033   1.978   3.062   2.504
 4378SOL    HW214034   2.109   3.041   2.600
 4379SOL     OW14035   2.196   2.330   2.673
 4379SOL    HW114036   2.105   2.373   2.679
 4379SOL    HW214037   2.192   2.239   2.715
 4380SOL     OW14038   0.985   6.759   2.897
 4380SOL    HW114039   0.988   6.720   2.989
 4380SOL    HW214040   1.040   6.843   2.894
 4381SOL     OW14041   1.967   4.060   5.600
 4381SOL    HW114042   2.060   4.037   5.630
 4381SOL    HW214043   1.970   4.098   5.508
 4382SOL     OW14044   5.975   3.201   6.495
 4382SOL    HW114045   6.060   3.250   6.471
 4382SOL    HW214046   5.920   3.258   6.556
 4383SOL     OW14047   0.662   1.947   5.915
 4383SOL    HW114048   0.594   1.999   5.864
 4383SOL    HW214049   0.682   1.993   6.001
 4384SOL     OW14050   5.991   2.080   5.956
 4384SOL    HW114051   6.017   1.995   6.002
 4384SOL    HW214052   5.898   2.104   5.983
 4385SOL     OW14053   6.189   2.881   5.114
 4385SOL    HW114054   6.240   2.847   5.194
 4385SOL    HW214055   6.099   2.837   5.112
 4386SOL     OW14056   2.317   3.519   0.235
 4386SOL    HW114057   2.321   3.440   0.173
 4386SOL    HW214058   2.236   3.511   0.293
 4387SOL     OW14059   6.860   1.255   1.249
 4387SOL    HW114060   6.815   1.212   1.326
 4387SOL    HW214061   6.924   1.324   1.282
 4388SOL     OW14062   5.301   1.861   6.596
 4388SOL    HW114063   5.281   1.905   6.509
 4388SOL    HW214064   5.218   1.815   6.630
 4389SOL     OW14065   0.516   3.934   0.665
 4389SOL    HW114066   0.595   3.878   0.690
 4389SOL    HW214067   0.464   3.889   0.593
 4390SOL     OW14068   3.818   0.773   0.924
 4390SOL    HW114069   3.807   0.700   0.857
 4390SOL    HW214070   3.894   0.751   0.985
 4391SOL     OW14071   1.752   5.712   0.232
 4391SOL    HW114072   1.780   5.759   0.148
 4391SOL    HW214073   1.700   5.775   0.290
 4392SOL     OW14074   0.158   3.274   6.154
 4392SOL    HW114075   0.110   3.188   6.138
 4392SOL    HW214076   0.096   3.350   6.133
 4393SOL     OW14077   5.901   0.788   2.194
 4393SOL    HW114078   5.939   0.815   2.283
 4393SOL    HW214079   5.815   0.836   2.178
 4394SOL     OW14080   5.801   5.816   2.286
 4394SOL    HW114081   5.717   5.818   2.233
 4394SOL    HW214082   5.790   5.875   2.367
 4395SOL     OW14083   3.112   0.019   1.669
 4395SOL    HW114084   3.158   0.047   1.584
 4395SOL    HW214085   3.146   0.074   1.745
 4396SOL     OW14086   2.143   2.262   4.021
 4396SOL    HW114087   2.201   2.190   4.060
 4396SOL    HW214088   2.093   2.308   4.094
 4397SOL     OW14089   0.191   1.117   4.651
 4397SOL    HW114090   0.122   1.074   4.593
 4397SOL    HW214091   0.229   1.050   4.715
 4398SOL     OW14092   0.813   4.510   5.524
 4398SOL    HW114093   0.822   4.596   5.474
 4398SOL    HW214094   0.764   4.443   5.468
 4399SOL     OW14095   1.964   0.655   1.628
 4399SOL    HW114096   2.034   0.721   1.601
 4399SOL    HW214097   1.999   0.597   1.702
 4400SOL     OW14098   3.740   6.670   5.390
 4400SOL    HW114099   3.811   6.601   5.406
 4400SOL    HW214100   3.669   6.631   5.330
 4401SOL     OW14101   4.555   6.824   6.718
 4401SOL    HW114102   4.524   6.895   6.654
 4401SOL    HW214103   4.475   6.783   6.763
 4402SOL     OW14104   2.681   6.804   1.325
 4402SOL    HW114105   2.633   6.752   1.395
 4402SOL    HW214106   2.723   6.885   1.367
 4403SOL     OW14107   0.700   0.360   3.295
 4403SOL    HW114108   0.792   0.334   3.325
 4403SOL    HW214109   0.658   0.417   3.365
 4404SOL     OW14110   0.316   4.595   5.860
 4404SOL    HW114111   0.394   4.536   5.882
 4404SOL    HW214112   0.332   4.686   5.897
 4405SOL     OW14113   1.821   4.672   1.456
 4405SOL    HW114114   1.818   4.738   1.531
 4405SOL    HW214115   1.897   4.692   1.396
 4406SOL     OW14116   0.108   4.103   0.823
 4406SOL    HW114117   0.067   4.168   0.760
 4406SOL    HW214118   0.194   4.139   0.857
 4407SOL     OW14119   6.614   4.860   0.844
 4407SOL    HW114120   6.554   4.793   0.800
 4407SOL    HW214121   6.699   4.815   0.872
 4408SOL     OW14122   3.383   0.822   1.745
 4408SOL    HW114123   3.448   0.886   1.787
 4408SOL    HW214124   3.290   0.857   1.755
 4409SOL     OW14125   4.969   0.405   2.823
 4409SOL    HW114126   5.022   0.321   2.836
 4409SOL    HW214127   4.891   0.406   2.886
 4410SOL     OW14128   1.467   5.607   6.808
 4410SOL    HW114129   1.432   5.695   6.837
 4410SOL    HW214130   1.455   5.597   6.709
 4411SOL     OW14131   3.728   4.060   4.388
 4411SOL    HW114132   3.662   4.114   4.335
 4411SOL    HW214133   3.725   4.088   4.484
 4412SOL     OW14134   4.281   6.335   4.886
 4412SOL    HW114135   4.341   6.386   4.947
 4412SOL    HW214136   4.233   6.265   4.938
 4413SOL     OW14137   6.411   5.264   4.332
 4413SOL    HW114138   6.440   5.345   4.281
 4413SOL    HW214139   6.385   5.192   4.268
 4414SOL     OW14140   3.587   4.641   1.406
 4414SOL    HW114141   3.491   4.668   1.413
 4414SOL    HW214142   3.644   4.723   1.405
 4415SOL     OW14143   3.810   3.426   0.499
 4415SOL    HW114144   3.753   3.455   0.423
 4415SOL    HW214145   3.906   3.443   0.477
 4416SOL     OW14146   2.678   0.654   3.760
 4416SOL    HW114147   2.615   0.658   3.837
 4416SOL    HW214148   2.730   0.569   3.763
 4417SOL     OW14149   5.853   4.329   3.390
 4417SOL    HW114150   5.773   4.374   3.430
 4417SOL    HW214151   5.850   4.231   3.409
 4418SOL     OW14152   5.794   2.119   2.277
 4418SOL    HW114153   5.761   2.053   2.210
 4418SOL    HW214154   5.716   2.159   2.325
 4419SOL     OW14155   5.911   6.486   6.602
 4419SOL    HW114156   5.986   6.489   6.669
 4419SOL    HW214157   5.940   6.530   6.517
 4420SOL     OW14158   5.542   1.740   1.855
 4420SOL    HW114159   5.475   1.671   1.885
 4420SOL    HW214160   5.623   1.694   1.819
 4421SOL     OW14161   1.536   0.676   5.159
 4421SOL    HW114162   1.567   0.746   5.095
 4421SOL    HW214163   1.482   0.607   5.111
 4422SOL     OW14164   2.492   3.612   6.695
 4422SOL    HW114165   2.427   3.568   6.757
 4422SOL    HW214166   2.443   3.654   6.619
 4423SOL     OW14167   1.005   2.694   5.978
 4423SOL    HW114168   0.920   2.652   5.946
 4423SOL    HW214169   1.061   2.719   5.900
 4424SOL     OW14170   5.964   0.686   4.353
 4424SOL    HW114171   6.061   0.709   4.346
 4424SOL    HW214172   5.921   0.744   4.422
 4425SOL     OW14173   3.191   4.891   0.151
 4425SOL    HW114174   3.129   4.852   0.220
 4425SOL    HW214175   3.137   4.935   0.080
 4426SOL     OW14176   0.225   0.734   4.707
 4426SOL    HW114177   0.289   0.725   4.783
 4426SOL    HW214178   0.219   0.647   4.657
 4427SOL     OW14179   0.830   6.048   2.321
 4427SOL    HW114180   0.878   6.042   2.409
 4427SOL    HW214181   0.893   6.026   2.247
 4428SOL     OW14182   3.224   0.181   2.698
 4428SOL    HW114183   3.310   0.231   2.702
 4428SOL    HW214184   3.157   0.235   2.646
 4429SOL     OW14185   2.545   6.720   2.608
 4429SOL    HW114186   2.452   6.726   2.644
 4429SOL    HW214187   2.608   6.699   2.683
 4430SOL     OW14188   5.149   3.793   4.885
 4430SOL    HW114189   5.205   3.871   4.859
 4430SOL    HW214190   5.071   3.825   4.939
 4431SOL     OW14191   1.880   1.203   1.906
 4431SOL    HW114192   1.849   1.196   2.001
 4431SOL    HW214193   1.973   1.241   1.904
 4432SOL     OW14194   3.362   3.230   4.879
 4432SOL    HW114195   3.455   3.194   4.872
 4432SOL    HW214196   3.354   3.311   4.821
 4433SOL     OW14197   4.449   1.514   4.566
 4433SOL    HW114198   4.374   1.564   4.522
 4433SOL    HW214199   4.420   1.487   4.658
 4434SOL     OW14200   5.141   1.927   4.033
 4434SOL    HW114201   5.092   2.001   4.077
 4434SOL    HW214202   5.138   1.845   4.091
 4435SOL     OW14203   4.573   3.286   1.605
 4435SOL    HW114204   4.498   3.220   1.609
 4435SOL    HW214205   4.654   3.247   1.650
 4436SOL     OW14206   4.535   0.955   0.963
 4436SOL    HW114207   4.626   0.953   1.003
 4436SOL    HW214208   4.488   0.869   0.984
 4437SOL     OW14209   6.216   1.956   2.823
 4437SOL    HW114210   6.205   2.042   2.775
 4437SOL    HW214211   6.222   1.881   2.757
 4438SOL     OW14212   5.649   6.967   0.013
 4438SOL    HW114213   5.724   0.013   7.012
 4438SOL    HW214214   5.685   6.874   0.022
 4439SOL     OW14215   0.256   5.304   2.014
 4439SOL    HW114216   0.173   5.358   2.008
 4439SOL    HW214217   0.320   5.348   2.077
 4440SOL     OW14218   2.717   5.214   0.383
 4440SOL    HW114219   2.779   5.194   0.307
 4440SOL    HW214220   2.696   5.130   0.432
 4441SOL     OW14221   6.975   1.432   2.703
 4441SOL    HW114222   6.950   1.420   2.799
 4441SOL    HW214223   6.976   1.344   2.657
 4442SOL     OW14224   2.518   5.771   4.571
 4442SOL    HW114225   2.515   5.671   4.568
 4442SOL    HW214226   2.596   5.800   4.626
 4443SOL     OW14227   0.148   3.401   0.698
 4443SOL    HW114228   0.230   3.348   0.722
 4443SOL    HW214229   0.078   3.339   0.663
 4444SOL     OW14230   3.147   4.854   5.478
 4444SOL    HW114231   3.200   4.820   5.556
 4444SOL    HW214232   3.150   4.787   5.404
 4445SOL     OW14233   0.821   0.084   1.038
 4445SOL    HW114234   0.921   0.094   1.030
 4445SOL    HW214235   0.787   0.149   1.105
 4446SOL     OW14236   5.622   1.146   1.958
 4446SOL    HW114237   5.545   1.176   2.014
 4446SOL    HW214238   5.681   1.224   1.938
 4447SOL     OW14239   5.500   3.688   6.346
 4447SOL    HW114240   5.514   3.606   6.400
 4447SOL    HW214241   5.447   3.666   6.264
 4448SOL     OW14242   2.667   3.936   1.639
 4448SOL    HW114243   2.746   3.875   1.647
 4448SOL    HW214244   2.597   3.893   1.582
 4449SOL     OW14245   5.057   0.467   6.125
 4449SOL    HW114246   5.051   0.517   6.038
 4449SOL    HW214247   4.965   0.451   6.160
 4450SOL     OW14248   3.883   3.467   4.648
 4450SOL    HW114249   3.949   3.415   4.594
 4450SOL    HW214250   3.792   3.428   4.635
 4451SOL     OW14251   6.003   4.654   3.146
 4451SOL    HW114252   5.932   4.583   3.149
 4451SOL    HW214253   6.068   4.637   3.220
 4452SOL     OW14254   5.053   6.562   4.734
 4452SOL    HW114255   5.133   6.612   4.770
 4452SOL    HW214256   4.984   6.554   4.806
 4453SOL     OW14257   0.510   2.581   1.596
 4453SOL    HW114258   0.452   2.660   1.577
 4453SOL    HW214259   0.488   2.507   1.533
 4454SOL     OW14260   1.422   2.383   0.338
 4454SOL    HW114261   1.439   2.327   0.257
 4454SOL    HW214262   1.324   2.384   0.358
 4455SOL     OW14263   4.277   6.426   5.856
 4455SOL    HW114264   4.354   6.449   5.797
 4455SOL    HW214265   4.301   6.445   5.951
 4456SOL     OW14266   3.602   6.099   2.116
 4456SOL    HW114267   3.573   6.139   2.204
 4456SOL    HW214268   3.694   6.130   2.093
 4457SOL     OW14269   4.798   1.611   2.140
 4457SOL    HW114270   4.884   1.567   2.114
 4457SOL    HW214271   4.764   1.571   2.225
 4458SOL     OW14272   1.650   3.074   6.611
 4458SOL    HW114273   1.576   3.006   6.609
 4458SOL    HW214274   1.661   3.108   6.705
 4459SOL     OW14275   3.671   0.717   4.922
 4459SOL    HW114276   3.721   0.660   4.857
 4459SOL    HW214277   3.715   0.713   5.012
 4460SOL     OW14278   2.603   2.609   5.975
 4460SOL    HW114279   2.667   2.570   5.909
 4460SOL    HW214280   2.600   2.708   5.965
 4461SOL     OW14281   1.268   0.547   1.373
 4461SOL    HW114282   1.180   0.538   1.420
 4461SOL    HW214283   1.288   0.644   1.357
 4462SOL     OW14284   6.025   4.860   1.907
 4462SOL    HW114285   6.000   4.766   1.928
 4462SOL    HW214286   6.090   4.894   1.975
 4463SOL     OW14287   5.540   2.059   6.819
 4463SOL    HW114288   5.581   2.107   6.896
 4463SOL    HW214289   5.441   2.076   6.817
 4464SOL     OW14290   6.359   5.242   0.554
 4464SOL    HW114291   6.432   5.182   0.585
 4464SOL    HW214292   6.398   5.326   0.516
 4465SOL     OW14293   2.897   5.596   1.234
 4465SOL    HW114294   2.818   5.585   1.295
 4465SOL    HW214295   2.935   5.506   1.212
 4466SOL     OW14296   1.350   1.907   3.247
 4466SOL    HW114297   1.255   1.879   3.265
 4466SOL    HW214298   1.406   1.827   3.229
 4467SOL     OW14299   2.047   6.390   2.563
 4467SOL    HW114300   1.961   6.355   2.527
 4467SOL    HW214301   2.029   6.468   2.623
 4468SOL     OW14302   2.009   2.852   0.525
 4468SOL    HW114303   1.917   2.880   0.551
 4468SOL    HW214304   2.004   2.795   0.443
 4469SOL     OW14305   3.705   0.801   1.618
 4469SOL    HW114306   3.613   0.782   1.583
 4469SOL    HW214307   3.769   0.732   1.585
 4470SOL     OW14308   5.785   2.510   2.548
 4470SOL    HW114309   5.860   2.576   2.537
 4470SOL    HW214310   5.734   2.503   2.463
 4471SOL     OW14311   0.630   1.927   6.690
 4471SOL    HW114312   0.695   1.871   6.742
 4471SOL    HW214313   0.540   1.884   6.693
 4472SOL     OW14314   1.503   3.105   2.744
 4472SOL    HW114315   1.471   3.031   2.802
 4472SOL    HW214316   1.429   3.133   2.682
 4473SOL     OW14317   6.397   2.936   4.767
 4473SOL    HW114318   6.393   2.851   4.819
 4473SOL    HW214319   6.455   3.002   4.815
 4474SOL     OW14320   2.775   0.766   1.861
 4474SOL    HW114321   2.714   0.715   1.800
 4474SOL    HW214322   2.785   0.715   1.946
 4475SOL     OW14323   1.728   3.778   2.704
 4475SOL    HW114324   1.752   3.751   2.611
 4475SOL    HW214325   1.727   3.697   2.763
 4476SOL     OW14326   3.995   0.019   3.409
 4476SOL    HW114327   4.053   0.035   3.489
 4476SOL    HW214328   3.908   6.997   3.439
 4477SOL     OW14329   2.013   6.914   5.146
 4477SOL    HW114330   2.004   6.912   5.047
 4477SOL    HW214331   1.927   6.946   5.187
 4478SOL     OW14332   3.825   6.954   2.913
 4478SOL    HW114333   3.760   0.002   2.875
 4478SOL    HW214334   3.787   6.861   2.905
 4479SOL     OW14335   0.866   1.065   1.824
 4479SOL    HW114336   0.949   1.118   1.812
 4479SOL    HW214337   0.827   1.042   1.735
 4480SOL     OW14338   1.809   3.683   5.368
 4480SOL    HW114339   1.862   3.757   5.409
 4480SOL    HW214340   1.794   3.703   5.271
 4481SOL     OW14341   2.715   6.145   5.039
 4481SOL    HW114342   2.649   6.077   5.008
 4481SOL    HW214343   2.692   6.234   5.001
 4482SOL     OW14344   1.087   3.369   4.452
 4482SOL    HW114345   1.102   3.283   4.501
 4482SOL    HW214346   1.167   3.428   4.464
 4483SOL     OW14347   5.664   2.903   2.240
 4483SOL    HW114348   5.636   2.959   2.162
 4483SOL    HW214349   5.585   2.885   2.299
 4484SOL     OW14350   2.860   2.903   5.984
 4484SOL    HW114351   2.857   2.976   5.916
 4484SOL    HW214352   2.788   2.917   6.052
 4485SOL     OW14353   5.639   1.715   5.325
 4485SOL    HW114354   5.736   1.702   5.300
 4485SOL    HW214355   5.616   1.812   5.320
 4486SOL     OW14356   5.294   4.362   5.370
 4486SOL    HW114357   5.331   4.281   5.324
 4486SOL    HW214358   5.333   4.445   5.331
 4487SOL     OW14359   2.127   3.121   5.945
 4487SOL    HW114360   2.214   3.071   5.951
 4487SOL    HW214361   2.123   3.188   6.019
 4488SOL     OW14362   0.154   3.336   6.429
 4488SOL    HW114363   0.164   3.285   6.344
 4488SOL    HW214364   0.242   3.339   6.477
 4489SOL     OW14365   5.610   5.653   4.153
 4489SOL    HW114366   5.622   5.602   4.067
 4489SOL    HW214367   5.691   5.708   4.171
 4490SOL     OW14368   6.423   3.102   2.872
 4490SOL    HW114369   6.371   3.031   2.920
 4490SOL    HW214370   6.406   3.190   2.916
 4491SOL     OW14371   6.888   2.470   4.792
 4491SOL    HW114372   6.926   2.553   4.835
 4491SOL    HW214373   6.951   2.394   4.806
 4492SOL     OW14374   5.702   4.278   1.235
 4492SOL    HW114375   5.724   4.192   1.282
 4492SOL    HW214376   5.698   4.352   1.303
 4493SOL     OW14377   4.409   5.292   4.862
 4493SOL    HW114378   4.336   5.233   4.828
 4493SOL    HW214379   4.484   5.296   4.796
 4494SOL     OW14380   7.013   1.181   6.517
 4494SOL    HW114381   0.051   1.110   6.474
 4494SOL    HW214382   6.977   1.242   6.447
 4495SOL     OW14383   3.543   6.571   4.428
 4495SOL    HW114384   3.467   6.627   4.462
 4495SOL    HW214385   3.629   6.623   4.437
 4496SOL     OW14386   5.633   5.833   1.395
 4496SOL    HW114387   5.568   5.858   1.324
 4496SOL    HW214388   5.660   5.915   1.446
 4497SOL     OW14389   5.153   1.193   0.137
 4497SOL    HW114390   5.179   1.108   0.092
 4497SOL    HW214391   5.073   1.177   0.195
 4498SOL     OW14392   7.017   3.925   0.385
 4498SOL    HW114393   7.012   3.927   0.285
 4498SOL    HW214394   6.990   3.835   0.418
 4499SOL     OW14395   6.329   3.722   5.223
 4499SOL    HW114396   6.361   3.786   5.293
 4499SOL    HW214397   6.343   3.628   5.254
 4500SOL     OW14398   2.910   3.289   4.369
 4500SOL    HW114399   2.880   3.296   4.464
 4500SOL    HW214400   2.972   3.211   4.358
 4501SOL     OW14401   0.296   3.441   3.678
 4501SOL    HW114402   0.296   3.349   3.639
 4501SOL    HW214403   0.259   3.505   3.610
 4502SOL     OW14404   0.756   2.897   6.756
 4502SOL    HW114405   0.743   2.850   6.669
 4502SOL    HW214406   0.844   2.944   6.755
 4503SOL     OW14407   3.489   0.117   1.774
 4503SOL    HW114408   3.505   0.093   1.678
 4503SOL    HW214409   3.391   0.133   1.788
 4504SOL     OW14410   6.605   0.808   5.302
 4504SOL    HW114411   6.521   0.792   5.251
 4504SOL    HW214412   6.683   0.779   5.247
 4505SOL     OW14413   5.387   4.783   2.057
 4505SOL    HW114414   5.433   4.697   2.079
 4505SOL    HW214415   5.295   4.765   2.023
 4506SOL     OW14416   4.714   1.968   3.511
 4506SOL    HW114417   4.760   2.024   3.580
 4506SOL    HW214418   4.636   1.921   3.552
 4507SOL     OW14419   5.221   4.272   2.318
 4507SOL    HW114420   5.187   4.201   2.256
 4507SOL    HW214421   5.321   4.273   2.317
 4508SOL     OW14422   1.383   5.340   6.859
 4508SOL    HW114423   1.408   5.436   6.847
 4508SOL    HW214424   1.284   5.333   6.873
 4509SOL     OW14425   4.405   2.469   2.758
 4509SOL    HW114426   4.341   2.420   2.699
 4509SOL    HW214427   4.389   2.443   2.853
 4510SOL     OW14428   3.645   1.113   3.914
 4510SOL    HW114429   3.742   1.127   3.894
 4510SOL    HW214430   3.615   1.178   3.982
 4511SOL     OW14431   6.607   3.002   0.397
 4511SOL    HW114432   6.684   3.002   0.461
 4511SOL    HW214433   6.536   2.939   0.431
 4512SOL     OW14434   3.108   1.586   5.731
 4512SOL    HW114435   3.148   1.548   5.648
 4512SOL    HW214436   3.049   1.663   5.707
 4513SOL     OW14437   6.087   5.480   0.283
 4513SOL    HW114438   6.075   5.571   0.324
 4513SOL    HW214439   6.107   5.413   0.354
 4514SOL     OW14440   4.325   1.782   6.471
 4514SOL    HW114441   4.349   1.821   6.559
 4514SOL    HW214442   4.332   1.853   6.400
 4515SOL     OW14443   6.688   1.493   5.877
 4515SOL    HW114444   6.634   1.454   5.951
 4515SOL    HW214445   6.639   1.482   5.790
 4516SOL     OW14446   1.968   0.339   6.631
 4516SOL    HW114447   2.008   0.253   6.663
 4516SOL    HW214448   2.039   0.408   6.622
 4517SOL     OW14449   4.162   1.104   0.025
 4517SOL    HW114450   4.205   1.063   6.963
 4517SOL    HW214451   4.232   1.119   0.096
 4518SOL     OW14452   6.966   0.583   2.898
 4518SOL    HW114453   6.869   0.562   2.885
 4518SOL    HW214454   6.976   0.679   2.925
 4519SOL     OW14455   6.756   0.561   1.647
 4519SOL    HW114456   6.709   0.473   1.638
 4519SOL    HW214457   6.719   0.610   1.726
 4520SOL     OW14458   4.672   6.355   4.665
 4520SOL    HW114459   4.641   6.276   4.613
 4520SOL    HW214460   4.693   6.430   4.603
 4521SOL     OW14461   6.123   1.686   4.296
 4521SOL    HW114462   6.088   1.673   4.203
 4521SOL    HW214463   6.104   1.779   4.325
 4522SOL     OW14464   6.126   6.025   3.090
 4522SOL    HW114465   6.202   6.065   3.039
 4522SOL    HW214466   6.063   5.981   3.026
 4523SOL     OW14467   0.814   4.436   0.065
 4523SOL    HW114468   0.858   4.349   0.045
 4523SOL    HW214469   0.803   4.446   0.164
 4524SOL     OW14470   6.369   2.733   3.444
 4524SOL    HW114471   6.442   2.671   3.414
 4524SOL    HW214472   6.292   2.727   3.380
 4525SOL     OW14473   4.976   1.299   5.313
 4525SOL    HW114474   4.925   1.215   5.332
 4525SOL    HW214475   4.929   1.350   5.241
 4526SOL     OW14476   6.512   0.578   1.048
 4526SOL    HW114477   6.590   0.626   1.007
 4526SOL    HW214478   6.537   0.542   1.137
 4527SOL     OW14479   5.063   1.063   3.651
 4527SOL    HW114480   5.083   1.161   3.646
 4527SOL    HW214481   5.073   1.023   3.560
 4528SOL     OW14482   5.270   0.282   0.533
 4528SOL    HW114483   5.300   0.187   0.543
 4528SOL    HW214484   5.325   0.340   0.593
 4529SOL     OW14485   2.831   0.488   5.449
 4529SOL    HW114486   2.790   0.453   5.365
 4529SOL    HW214487   2.909   0.429   5.474
 4530SOL     OW14488   1.965   4.777   5.245
 4530SOL    HW114489   1.915   4.704   5.200
 4530SOL    HW214490   2.058   4.781   5.210
 4531SOL     OW14491   0.363   2.914   5.299
 4531SOL    HW114492   0.396   3.007   5.316
 4531SOL    HW214493   0.298   2.889   5.371
 4532SOL     OW14494   6.611   1.968   2.959
 4532SOL    HW114495   6.605   2.014   2.871
 4532SOL    HW214496   6.556   2.017   3.026
 4533SOL     OW14497   0.981   1.488   1.655
 4533SOL    HW114498   1.005   1.521   1.746
 4533SOL    HW214499   1.022   1.549   1.586
 4534SOL     OW14500   4.727   4.146   3.932
 4534SOL    HW114501   4.763   4.078   3.995
 4534SOL    HW214502   4.673   4.213   3.982
 4535SOL     OW14503   3.713   0.737   2.876
 4535SOL    HW114504   3.727   0.657   2.817
 4535SOL    HW214505   3.696   0.818   2.819
 4536SOL     OW14506   3.656   1.609   4.210
 4536SOL    HW114507   3.744   1.615   4.163
 4536SOL    HW214508   3.581   1.615   4.144
 4537SOL     OW14509   4.317   3.244   6.827
 4537SOL    HW114510   4.241   3.216   6.769
 4537SOL    HW214511   4.378   3.166   6.842
 4538SOL     OW14512   1.901   0.315   3.262
 4538SOL    HW114513   1.877   0.385   3.329
 4538SOL    HW214514   1.925   0.230   3.309
 4539SOL     OW14515   2.629   0.355   4.942
 4539SOL    HW114516   2.530   0.366   4.943
 4539SOL    HW214517   2.653   0.268   4.900
 4540SOL     OW14518   3.107   2.440   5.601
 4540SOL    HW114519   3.155   2.512   5.550
 4540SOL    HW214520   3.013   2.432   5.568
 4541SOL     OW14521   5.831   2.089   0.850
 4541SOL    HW114522   5.847   2.007   0.905
 4541SOL    HW214523   5.771   2.151   0.900
 4542SOL     OW14524   6.958   1.017   2.204
 4542SOL    HW114525   7.010   0.962   2.269
 4542SOL    HW214526   6.941   1.108   2.243
 4543SOL     OW14527   4.482   2.133   1.599
 4543SOL    HW114528   4.517   2.214   1.552
 4543SOL    HW214529   4.386   2.119   1.575
 4544SOL     OW14530   3.148   6.353   5.933
 4544SOL    HW114531   3.053   6.364   5.962
 4544SOL    HW214532   3.203   6.325   6.011
 4545SOL     OW14533   5.346   3.783   4.561
 4545SOL    HW114534   5.282   3.787   4.484
 4545SOL    HW214535   5.312   3.718   4.630
 4546SOL     OW14536   1.523   1.005   5.235
 4546SOL    HW114537   1.605   1.062   5.229
 4546SOL    HW214538   1.451   1.056   5.282
 4547SOL     OW14539   5.542   2.349   2.523
 4547SOL    HW114540   5.475   2.410   2.481
 4547SOL    HW214541   5.619   2.402   2.559
 4548SOL     OW14542   0.976   3.245   4.061
 4548SOL    HW114543   1.002   3.229   3.966
 4548SOL    HW214544   0.883   3.282   4.064
 4549SOL     OW14545   6.883   4.237   1.279
 4549SOL    HW114546   6.842   4.287   1.203
 4549SOL    HW214547   6.811   4.205   1.340
 4550SOL     OW14548   0.850   4.992   2.917
 4550SOL    HW114549   0.860   4.999   2.817
 4550SOL    HW214550   0.794   4.912   2.939
 4551SOL     OW14551   0.569   2.343   5.374
 4551SOL    HW114552   0.567   2.379   5.280
 4551SOL    HW214553   0.589   2.418   5.437
 4552SOL     OW14554   6.247   3.724   1.619
 4552SOL    HW114555   6.285   3.806   1.661
 4552SOL    HW214556   6.311   3.688   1.551
 4553SOL     OW14557   3.220   4.460   6.772
 4553SOL    HW114558   3.191   4.550   6.805
 4553SOL    HW214559   3.150   4.392   6.796
 4554SOL     OW14560   5.704   0.189   1.666
 4554SOL    HW114561   5.737   0.199   1.572
 4554SOL    HW214562   5.745   0.261   1.723
 4555SOL     OW14563   2.873   2.282   5.833
 4555SOL    HW114564   2.846   2.372   5.800
 4555SOL    HW214565   2.916   2.291   5.923
 4556SOL     OW14566   5.496   3.270   4.124
 4556SOL    HW114567   5.496   3.237   4.030
 4556SOL    HW214568   5.492   3.191   4.186
 4557SOL     OW14569   4.632   6.311   5.781
 4557SOL    HW114570   4.573   6.293   5.860
 4557SOL    HW214571   4.637   6.228   5.724
 4558SOL     OW14572   0.549   4.081   5.021
 4558SOL    HW114573   0.553   3.983   5.042
 4558SOL    HW214574   0.456   4.104   4.990
 4559SOL     OW14575   0.249   4.066   1.510
 4559SOL    HW114576   0.194   4.127   1.453
 4559SOL    HW214577   0.256   4.103   1.602
 4560SOL     OW14578   5.300   4.137   1.663
 4560SOL    HW114579   5.281   4.234   1.649
 4560SOL    HW214580   5.348   4.124   1.750
 4561SOL     OW14581   1.872   2.002   2.607
 4561SOL    HW114582   1.867   1.939   2.530
 4561SOL    HW214583   1.803   1.977   2.675
 4562SOL     OW14584   2.544   6.190   5.411
 4562SOL    HW114585   2.595   6.107   5.387
 4562SOL    HW214586   2.473   6.166   5.477
 4563SOL     OW14587   0.472   2.875   1.216
 4563SOL    HW114588   0.518   2.829   1.292
 4563SOL    HW214589   0.395   2.821   1.185
 4564SOL     OW14590   6.782   6.157   1.336
 4564SOL    HW114591   6.835   6.108   1.266
 4564SOL    HW214592   6.843   6.187   1.409
 4565SOL     OW14593   0.571   1.097   5.251
 4565SOL    HW114594   0.652   1.088   5.192
 4565SOL    HW214595   0.566   1.020   5.314
 4566SOL     OW14596   6.467   2.799   0.531
 4566SOL    HW114597   6.507   2.731   0.469
 4566SOL    HW214598   6.508   2.789   0.622
 4567SOL     OW14599   6.137   0.294   6.874
 4567SOL    HW114600   6.184   0.342   6.948
 4567SOL    HW214601   6.103   0.206   6.908
 4568SOL     OW14602   2.547   4.022   5.632
 4568SOL    HW114603   2.581   3.953   5.568
 4568SOL    HW214604   2.621   4.085   5.655
 4569SOL     OW14605   2.077   2.075   3.101
 4569SOL    HW114606   2.151   2.115   3.046
 4569SOL    HW214607   2.111   1.994   3.148
 4570SOL     OW14608   0.578   6.400   3.412
 4570SOL    HW114609   0.539   6.322   3.362
 4570SOL    HW214610   0.536   6.404   3.503
 4571SOL     OW14611   3.978   4.238   6.515
 4571SOL    HW114612   4.076   4.218   6.512
 4571SOL    HW214613   3.926   4.157   6.487
 4572SOL     OW14614   1.575   0.368   6.883
 4572SOL    HW114615   1.570   0.396   6.979
 4572SOL    HW214616   1.482   0.366   6.844
 4573SOL     OW14617   6.396   0.567   0.196
 4573SOL    HW114618   6.471   0.544   0.259
 4573SOL    HW214619   6.433   0.588   0.106
 4574SOL     OW14620   5.994   3.960   0.811
 4574SOL    HW114621   6.004   4.054   0.844
 4574SOL    HW214622   6.084   3.922   0.791
 4575SOL     OW14623   6.035   0.744   6.358
 4575SOL    HW114624   5.991   0.670   6.410
 4575SOL    HW214625   6.125   0.763   6.397
 4576SOL     OW14626   2.690   6.307   5.729
 4576SOL    HW114627   2.719   6.252   5.808
 4576SOL    HW214628   2.748   6.286   5.651
 4577SOL     OW14629   1.320   2.732   4.795
 4577SOL    HW114630   1.276   2.750   4.884
 4577SOL    HW214631   1.399   2.673   4.809
 4578SOL     OW14632   0.854   2.898   5.282
 4578SOL    HW114633   0.907   2.890   5.197
 4578SOL    HW214634   0.776   2.958   5.266
 4579SOL     OW14635   4.014   0.627   3.292
 4579SOL    HW114636   3.966   0.622   3.205
 4579SOL    HW214637   4.008   0.720   3.328
 4580SOL     OW14638   5.630   5.336   0.235
 4580SOL    HW114639   5.676   5.423   0.250
 4580SOL    HW214640   5.694   5.261   0.252
 4581SOL     OW14641   2.174   4.873   2.695
 4581SOL    HW114642   2.150   4.955   2.748
 4581SOL    HW214643   2.100   4.807   2.701
 4582SOL     OW14644   5.273   0.169   5.219
 4582SOL    HW114645   5.259   0.140   5.125
 4582SOL    HW214646   5.209   0.244   5.241
 4583SOL     OW14647   2.739   2.655   6.408
 4583SOL    HW114648   2.729   2.557   6.424
 4583SOL    HW214649   2.804   2.670   6.334
 4584SOL     OW14650   0.767   4.758   6.079
 4584SOL    HW114651   0.850   4.742   6.024
 4584SOL    HW214652   0.703   4.814   6.026
 4585SOL     OW14653   3.194   5.939   3.166
 4585SOL    HW114654   3.273   5.938   3.105
 4585SOL    HW214655   3.207   5.873   3.240
 4586SOL     OW14656   3.443   5.382   0.680
 4586SOL    HW114657   3.442   5.475   0.641
 4586SOL    HW214658   3.502   5.324   0.624
 4587SOL     OW14659   3.659   3.548   3.047
 4587SOL    HW114660   3.612   3.602   3.117
 4587SOL    HW214661   3.756   3.571   3.046
 4588SOL     OW14662   3.161   3.413   5.018
 4588SOL    HW114663   3.260   3.402   5.020
 4588SOL    HW214664   3.118   3.322   5.020
 4589SOL     OW14665   6.086   1.256   2.539
 4589SOL    HW114666   6.001   1.295   2.574
 4589SOL    HW214667   6.066   1.169   2.494
 4590SOL     OW14668   5.233   6.146   1.581
 4590SOL    HW114669   5.286   6.177   1.659
 4590SOL    HW214670   5.189   6.224   1.537
 4591SOL     OW14671   0.826   6.569   4.742
 4591SOL    HW114672   0.921   6.569   4.712
 4591SOL    HW214673   0.767   6.546   4.664
 4592SOL     OW14674   2.918   1.348   2.307
 4592SOL    HW114675   2.876   1.386   2.225
 4592SOL    HW214676   2.969   1.419   2.355
 4593SOL     OW14677   4.982   5.450   2.634
 4593SOL    HW114678   4.994   5.520   2.563
 4593SOL    HW214679   4.975   5.494   2.723
 4594SOL     OW14680   2.601   1.707   3.127
 4594SOL    HW114681   2.661   1.649   3.072
 4594SOL    HW214682   2.645   1.795   3.143
 4595SOL     OW14683   3.707   2.973   6.408
 4595SOL    HW114684   3.642   2.963   6.483
 4595SOL    HW214685   3.663   2.944   6.323
 4596SOL     OW14686   5.791   0.065   2.121
 4596SOL    HW114687   5.794   0.004   2.042
 4596SOL    HW214688   5.702   0.059   2.165
 4597SOL     OW14689   3.986   5.520   5.784
 4597SOL    HW114690   3.997   5.425   5.813
 4597SOL    HW214691   4.034   5.581   5.847
 4598SOL     OW14692   2.258   6.300   6.605
 4598SOL    HW114693   2.211   6.271   6.522
 4598SOL    HW214694   2.338   6.354   6.580
 4599SOL     OW14695   1.231   4.935   0.691
 4599SOL    HW114696   1.296   4.861   0.706
 4599SOL    HW214697   1.281   5.021   0.680
 4600SOL     OW14698   1.164   5.232   5.845
 4600SOL    HW114699   1.095   5.289   5.802
 4600SOL    HW214700   1.120   5.155   5.891
 4601SOL     OW14701   2.248   0.955   5.583
 4601SOL    HW114702   2.151   0.941   5.562
 4601SOL    HW214703   2.277   0.886   5.651
 4602SOL     OW14704   2.119   6.400   1.389
 4602SOL    HW114705   2.029   6.364   1.362
 4602SOL    HW214706   2.184   6.386   1.314
 4603SOL     OW14707   3.078   6.172   0.746
 4603SOL    HW114708   3.092   6.077   0.773
 4603SOL    HW214709   3.166   6.219   0.743
 4604SOL     OW14710   4.370   0.586   0.697
 4604SOL    HW114711   4.325   0.565   0.784
 4604SOL    HW214712   4.469   0.594   0.711
 4605SOL     OW14713   2.765   0.487   2.791
 4605SOL    HW114714   2.768   0.581   2.759
 4605SOL    HW214715   2.729   0.485   2.885
 4606SOL     OW14716   1.119   6.221   2.236
 4606SOL    HW114717   1.173   6.138   2.253
 4606SOL    HW214718   1.141   6.290   2.305
 4607SOL     OW14719   1.810   2.978   1.426
 4607SOL    HW114720   1.742   2.941   1.362
 4607SOL    HW214721   1.900   2.941   1.403
 4608SOL     OW14722   0.300   6.095   3.678
 4608SOL    HW114723   0.276   5.999   3.695
 4608SOL    HW214724   0.398   6.108   3.693
 4609SOL     OW14725   3.997   5.557   6.599
 4609SOL    HW114726   3.900   5.542   6.577
 4609SOL    HW214727   4.041   5.469   6.615
 4610SOL     OW14728   4.906   2.999   0.762
 4610SOL    HW114729   4.852   2.936   0.707
 4610SOL    HW214730   4.911   3.088   0.716
 4611SOL     OW14731   0.505   5.490   6.337
 4611SOL    HW114732   0.582   5.443   6.380
 4611SOL    HW214733   0.429   5.497   6.402
 4612SOL     OW14734   1.556   5.946   6.891
 4612SOL    HW114735   1.589   6.037   6.917
 4612SOL    HW214736   1.613   5.877   6.935
 4613SOL     OW14737   2.575   6.160   1.871
 4613SOL    HW114738   2.612   6.068   1.856
 4613SOL    HW214739   2.591   6.216   1.789
 4614SOL     OW14740   6.839   3.142   4.815
 4614SOL    HW114741   6.876   3.058   4.776
 4614SOL    HW214742   6.891   3.167   4.897
 4615SOL     OW14743   1.778   6.925   6.991
 4615SOL    HW114744   1.725   6.886   0.048
 4615SOL    HW214745   1.727   6.999   6.948
 4616SOL     OW14746   6.606   0.414   5.218
 4616SOL    HW114747   6.530   0.441   5.277
 4616SOL    HW214748   6.604   0.315   5.203
 4617SOL     OW14749   0.435   2.381   2.337
 4617SOL    HW114750   0.424   2.359   2.240
 4617SOL    HW214751   0.492   2.462   2.346
 4618SOL     OW14752   2.370   2.820   4.725
 4618SOL    HW114753   2.438   2.866   4.782
 4618SOL    HW214754   2.307   2.888   4.687
 4619SOL     OW14755   3.298   6.185   3.328
 4619SOL    HW114756   3.218   6.236   3.360
 4619SOL    HW214757   3.280   6.147   3.238
 4620SOL     OW14758   2.682   4.748   0.534
 4620SOL    HW114759   2.781   4.749   0.546
 4620SOL    HW214760   2.638   4.784   0.616
 4621SOL     OW14761   5.461   0.982   2.319
 4621SOL    HW114762   5.421   0.895   2.349
 4621SOL    HW214763   5.550   0.966   2.277
 4622SOL     OW14764   2.553   4.749   0.804
 4622SOL    HW114765   2.591   4.684   0.869
 4622SOL    HW214766   2.454   4.735   0.796
 4623SOL     OW14767   5.025   6.678   0.304
 4623SOL    HW114768   4.982   6.676   0.394
 4623SOL    HW214769   5.023   6.772   0.269
 4624SOL     OW14770   4.570   0.117   3.233
 4624SOL    HW114771   4.615   0.078   3.152
 4624SOL    HW214772   4.612   0.205   3.256
 4625SOL     OW14773   2.363   4.546   1.066
 4625SOL    HW114774   2.413   4.596   1.137
 4625SOL    HW214775   2.416   4.466   1.037
 4626SOL     OW14776   5.221   4.432   1.822
 4626SOL    HW114777   5.310   4.413   1.864
 4626SOL    HW214778   5.148   4.408   1.886
 4627SOL     OW14779   2.470   4.637   4.595
 4627SOL    HW114780   2.461   4.546   4.555
 4627SOL    HW214781   2.517   4.630   4.683
 4628SOL     OW14782   6.296   4.136   3.822
 4628SOL    HW114783   6.291   4.117   3.920
 4628SOL    HW214784   6.330   4.229   3.808
 4629SOL     OW14785   2.448   5.214   5.538
 4629SOL    HW114786   2.390   5.294   5.523
 4629SOL    HW214787   2.479   5.178   5.450
 4630SOL     OW14788   3.331   5.227   2.719
 4630SOL    HW114789   3.411   5.249   2.663
 4630SOL    HW214790   3.250   5.271   2.680
 4631SOL     OW14791   1.644   6.187   3.170
 4631SOL    HW114792   1.569   6.175   3.104
 4631SOL    HW214793   1.731   6.171   3.124
 4632SOL     OW14794   3.422   4.917   2.440
 4632SOL    HW114795   3.508   4.959   2.412
 4632SOL    HW214796   3.411   4.924   2.539
 4633SOL     OW14797   5.217   0.296   4.517
 4633SOL    HW114798   5.235   0.200   4.538
 4633SOL    HW214799   5.149   0.302   4.444
 4634SOL     OW14800   3.632   4.465   5.837
 4634SOL    HW114801   3.578   4.403   5.781
 4634SOL    HW214802   3.710   4.499   5.784
 4635SOL     OW14803   4.622   3.823   1.317
 4635SOL    HW114804   4.595   3.787   1.228
 4635SOL    HW214805   4.559   3.789   1.387
 4636SOL     OW14806   1.845   4.460   6.834
 4636SOL    HW114807   1.770   4.525   6.843
 4636SOL    HW214808   1.848   4.425   6.740
 4637SOL     OW14809   1.081   6.555   0.876
 4637SOL    HW114810   1.149   6.504   0.823
 4637SOL    HW214811   1.039   6.495   0.943
 4638SOL     OW14812   4.527   4.553   6.475
 4638SOL    HW114813   4.585   4.626   6.438
 4638SOL    HW214814   4.484   4.585   6.559
 4639SOL     OW14815   3.107   4.445   5.784
 4639SOL    HW114816   3.153   4.531   5.761
 4639SOL    HW214817   3.040   4.423   5.713
 4640SOL     OW14818   5.183   4.069   3.833
 4640SOL    HW114819   5.108   4.051   3.769
 4640SOL    HW214820   5.167   4.155   3.881
 4641SOL     OW14821   2.426   0.036   4.953
 4641SOL    HW114822   2.412   0.058   4.857
 4641SOL    HW214823   2.522   0.015   4.970
 4642SOL     OW14824   0.982   5.422   4.517
 4642SOL    HW114825   1.078   5.398   4.503
 4642SOL    HW214826   0.944   5.456   4.431
 4643SOL     OW14827   6.262   2.752   1.188
 4643SOL    HW114828   6.254   2.769   1.286
 4643SOL    HW214829   6.213   2.824   1.137
 4644SOL     OW14830   6.680   5.126   5.087
 4644SOL    HW114831   6.636   5.140   4.999
 4644SOL    HW214832   6.779   5.116   5.074
 4645SOL     OW14833   0.552   0.467   3.974
 4645SOL    HW114834   0.497   0.550   3.964
 4645SOL    HW214835   0.584   0.437   3.884
 4646SOL     OW14836   1.841   6.205   4.137
 4646SOL    HW114837   1.938   6.219   4.117
 4646SOL    HW214838   1.804   6.136   4.075
 4647SOL     OW14839   1.745   0.643   2.960
 4647SOL    HW114840   1.795   0.730   2.964
 4647SOL    HW214841   1.810   0.567   2.971
 4648SOL     OW14842   3.471   0.974   2.528
 4648SOL    HW114843   3.550   0.961   2.468
 4648SOL    HW214844   3.428   1.062   2.508
 4649SOL     OW14845   5.536   0.366   0.003
 4649SOL    HW114846   5.525   0.283   6.965
 4649SOL    HW214847   5.559   0.339   0.097
 4650SOL     OW14848   4.503   5.330   2.594
 4650SOL    HW114849   4.591   5.360   2.629
 4650SOL    HW214850   4.430   5.358   2.656
 4651SOL     OW14851   6.682   3.140   0.838
 4651SOL    HW114852   6.723   3.197   0.909
 4651SOL    HW214853   6.640   3.060   0.879
 4652SOL     OW14854   6.513   6.889   3.568
 4652SOL    HW114855   6.460   6.946   3.632
 4652SOL    HW214856   6.536   6.943   3.487
 4653SOL     OW14857   5.465   5.123   0.697
 4653SOL    HW114858   5.497   5.193   0.633
 4653SOL    HW214859   5.473   5.158   0.791
 4654SOL     OW14860   1.008   7.014   0.512
 4654SOL    HW114861   0.956   6.931   0.493
 4654SOL    HW214862   0.957   0.076   0.480
 4655SOL     OW14863   4.770   4.057   1.384
 4655SOL    HW114864   4.799   4.117   1.310
 4655SOL    HW214865   4.719   3.980   1.347
 4656SOL     OW14866   1.472   0.576   2.385
 4656SOL    HW114867   1.419   0.609   2.307
 4656SOL    HW214868   1.507   0.654   2.438
 4657SOL     OW14869   4.594   6.798   1.598
 4657SOL    HW114870   4.620   6.751   1.513
 4657SOL    HW214871   4.499   6.827   1.592
 4658SOL     OW14872   3.417   1.196   2.908
 4658SOL    HW114873   3.372   1.181   2.996
 4658SOL    HW214874   3.451   1.290   2.904
 4659SOL     OW14875   3.577   4.954   5.057
 4659SOL    HW114876   3.516   4.885   5.095
 4659SOL    HW214877   3.524   5.026   5.013
 4660SOL     OW14878   1.271   3.833   5.888
 4660SOL    HW114879   1.174   3.855   5.891
 4660SOL    HW214880   1.283   3.734   5.888
 4661SOL     OW14881   2.748   4.617   5.593
 4661SOL    HW114882   2.706   4.560   5.663
 4661SOL    HW214883   2.777   4.704   5.632
 4662SOL     OW14884   3.187   7.008   5.692
 4662SOL    HW114885   3.098   6.977   5.659
 4662SOL    HW214886   3.214   6.953   5.772
 4663SOL     OW14887   0.433   1.967   1.695
 4663SOL    HW114888   0.430   1.982   1.794
 4663SOL    HW214889   0.363   1.901   1.669
 4664SOL     OW14890   1.494   0.964   0.788
 4664SOL    HW114891   1.423   1.014   0.838
 4664SOL    HW214892   1.484   0.981   0.690
 4665SOL     OW14893   3.521   0.037   6.488
 4665SOL    HW114894   3.546   6.980   6.427
 4665SOL    HW214895   3.595   0.051   6.555
 4666SOL     OW14896   1.598   2.477   0.548
 4666SOL    HW114897   1.551   2.442   0.466
 4666SOL    HW214898   1.543   2.550   0.589
 4667SOL     OW14899   6.494   3.376   2.203
 4667SOL    HW114900   6.470   3.303   2.139
 4667SOL    HW214901   6.593   3.383   2.211
 4668SOL     OW14902   4.456   2.423   2.443
 4668SOL    HW114903   4.370   2.414   2.492
 4668SOL    HW214904   4.526   2.367   2.487
 4669SOL     OW14905   4.958   6.527   6.195
 4669SOL    HW114906   4.870   6.483   6.210
 4669SOL    HW214907   4.958   6.572   6.105
 4670SOL     OW14908   2.432   2.272   5.491
 4670SOL    HW114909   2.412   2.357   5.442
 4670SOL    HW214910   2.360   2.255   5.559
 4671SOL     OW14911   6.738   2.698   1.166
 4671SOL    HW114912   6.779   2.627   1.108
 4671SOL    HW214913   6.650   2.666   1.202
 4672SOL     OW14914   2.641   4.480   5.788
 4672SOL    HW114915   2.659   4.557   5.850
 4672SOL    HW214916   2.606   4.403   5.841
 4673SOL     OW14917   5.099   0.263   2.093
 4673SOL    HW114918   5.046   0.343   2.067
 4673SOL    HW214919   5.129   0.272   2.188
 4674SOL     OW14920   5.352   0.601   6.638
 4674SOL    HW114921   5.395   0.662   6.705
 4674SOL    HW214922   5.354   0.645   6.548
 4675SOL     OW14923   1.793   1.481   6.462
 4675SOL    HW114924   1.731   1.463   6.386
 4675SOL    HW214925   1.872   1.532   6.429
 4676SOL     OW14926   6.814   6.322   3.731
 4676SOL    HW114927   6.791   6.335   3.634
 4676SOL    HW214928   6.817   6.224   3.752
 4677SOL     OW14929   2.375   1.665   6.680
 4677SOL    HW114930   2.400   1.641   6.586
 4677SOL    HW214931   2.290   1.718   6.679
 4678SOL     OW14932   2.036   4.300   3.057
 4678SOL    HW114933   1.979   4.296   2.974
 4678SOL    HW214934   2.027   4.390   3.099
 4679SOL     OW14935   4.087   0.968   0.715
 4679SOL    HW114936   4.038   0.915   0.647
 4679SOL    HW214937   4.170   1.007   0.674
 4680SOL     OW14938   3.455   1.473   0.602
 4680SOL    HW114939   3.426   1.387   0.559
 4680SOL    HW214940   3.551   1.467   0.627
 4681SOL     OW14941   5.301   5.867   6.237
 4681SOL    HW114942   5.339   5.929   6.169
 4681SOL    HW214943   5.371   5.802   6.266
 4682SOL     OW14944   4.413   4.486   5.577
 4682SOL    HW114945   4.427   4.585   5.569
 4682SOL    HW214946   4.498   4.443   5.606
 4683SOL     OW14947   4.429   4.881   2.786
 4683SOL    HW114948   4.369   4.814   2.743
 4683SOL    HW214949   4.451   4.850   2.879
 4684SOL     OW14950   6.353   1.117   4.983
 4684SOL    HW114951   6.328   1.021   4.971
 4684SOL    HW214952   6.337   1.166   4.897
 4685SOL     OW14953   0.516   6.104   5.601
 4685SOL    HW114954   0.517   6.005   5.583
 4685SOL    HW214955   0.468   6.121   5.687
 4686SOL     OW14956   4.022   5.355   6.981
 4686SOL    HW114957   3.999   5.258   6.989
 4686SOL    HW214958   4.083   5.368   6.903
 4687SOL     OW14959   6.183   3.892   4.809
 4687SOL    HW114960   6.276   3.912   4.779
 4687SOL    HW214961   6.124   3.970   4.790
 4688SOL     OW14962   6.122   4.361   4.752
 4688SOL    HW114963   6.161   4.416   4.825
 4688SOL    HW214964   6.041   4.406   4.716
 4689SOL     OW14965   5.576   1.010   0.393
 4689SOL    HW114966   5.580   0.920   0.349
 4689SOL    HW214967   5.657   1.022   0.450
 4690SOL     OW14968   1.043   6.751   0.116
 4690SOL    HW114969   1.138   6.726   0.136
 4690SOL    HW214970   1.038   6.848   0.092
 4691SOL     OW14971   2.907   5.262   1.674
 4691SOL    HW114972   2.807   5.259   1.676
 4691SOL    HW214973   2.944   5.176   1.708
 4692SOL     OW14974   5.684   5.521   2.024
 4692SOL    HW114975   5.626   5.537   2.103
 4692SOL    HW214976   5.769   5.476   2.053
 4693SOL     OW14977   0.839   1.683   3.186
 4693SOL    HW114978   0.905   1.704   3.113
 4693SOL    HW214979   0.845   1.752   3.258
 4694SOL     OW14980   1.815   0.564   6.915
 4694SOL    HW114981   1.773   0.479   6.883
 4694SOL    HW214982   1.896   0.542   6.971
 4695SOL     OW14983   1.384   3.577   1.658
 4695SOL    HW114984   1.361   3.505   1.722
 4695SOL    HW214985   1.379   3.542   1.564
 4696SOL     OW14986   0.231   4.294   0.120
 4696SOL    HW114987   0.202   4.200   0.104
 4696SOL    HW214988   0.279   4.329   0.040
 4697SOL     OW14989   1.734   2.920   0.594
 4697SOL    HW114990   1.686   2.898   0.679
 4697SOL    HW214991   1.762   3.016   0.595
 4698SOL     OW14992   4.579   5.022   2.616
 4698SOL    HW114993   4.524   4.973   2.685
 4698SOL    HW214994   4.528   5.101   2.583
 4699SOL     OW14995   2.071   6.682   2.123
 4699SOL    HW114996   2.160   6.726   2.121
 4699SOL    HW214997   2.012   6.725   2.054
 4700SOL     OW14998   6.856   1.410   2.966
 4700SOL    HW114999   6.828   1.321   2.930
 4700SOL    HW215000   6.776   1.460   3.000
 4701SOL     OW15001   2.520   2.299   6.956
 4701SOL    HW115002   2.496   2.237   0.013
 4701SOL    HW215003   2.618   2.320   6.960
 4702SOL     OW15004   4.223   5.440   0.351
 4702SOL    HW115005   4.243   5.415   0.446
 4702SOL    HW215006   4.270   5.377   0.289
 4703SOL     OW15007   0.753   1.294   1.458
 4703SOL    HW115008   0.712   1.385   1.451
 4703SOL    HW215009   0.840   1.293   1.408
 4704SOL     OW15010   0.655   6.120   0.324
 4704SOL    HW115011   0.586   6.137   0.253
 4704SOL    HW215012   0.618   6.055   0.390
 4705SOL     OW15013   3.405   3.277   2.014
 4705SOL    HW115014   3.493   3.314   2.042
 4705SOL    HW215015   3.338   3.290   2.087
 4706SOL     OW15016   3.330   0.383   6.917
 4706SOL    HW115017   3.300   0.327   6.840
 4706SOL    HW215018   3.345   0.477   6.886
 4707SOL     OW15019   1.954   6.644   1.355
 4707SOL    HW115020   1.953   6.636   1.255
 4707SOL    HW215021   2.029   6.589   1.391
 4708SOL     OW15022   1.239   1.476   6.365
 4708SOL    HW115023   1.215   1.533   6.443
 4708SOL    HW215024   1.158   1.456   6.311
 4709SOL     OW15025   4.601   5.801   5.187
 4709SOL    HW115026   4.566   5.802   5.281
 4709SOL    HW215027   4.535   5.846   5.127
 4710SOL     OW15028   4.432   0.738   5.475
 4710SOL    HW115029   4.420   0.752   5.377
 4710SOL    HW215030   4.428   0.826   5.522
 4711SOL     OW15031   6.027   1.394   1.483
 4711SOL    HW115032   6.045   1.493   1.487
 4711SOL    HW215033   6.084   1.354   1.411
 4712SOL     OW15034   3.006   4.455   0.155
 4712SOL    HW115035   3.084   4.413   0.108
 4712SOL    HW215036   3.001   4.423   0.249
 4713SOL     OW15037   3.619   4.417   0.475
 4713SOL    HW115038   3.717   4.400   0.477
 4713SOL    HW215039   3.570   4.334   0.503
 4714SOL     OW15040   0.786   2.167   6.813
 4714SOL    HW115041   0.870   2.207   6.849
 4714SOL    HW215042   0.798   2.143   6.716
 4715SOL     OW15043   5.353   2.505   2.405
 4715SOL    HW115044   5.418   2.581   2.404
 4715SOL    HW215045   5.265   2.535   2.441
 4716SOL     OW15046   4.525   5.927   6.343
 4716SOL    HW115047   4.491   5.932   6.437
 4716SOL    HW215048   4.601   5.863   6.338
 4717SOL     OW15049   0.141   0.458   4.084
 4717SOL    HW115050   0.084   0.540   4.096
 4717SOL    HW215051   0.144   0.434   3.987
 4718SOL     OW15052   5.450   2.843   1.417
 4718SOL    HW115053   5.360   2.838   1.460
 4718SOL    HW215054   5.469   2.757   1.369
 4719SOL     OW15055   4.846   3.263   1.670
 4719SOL    HW115056   4.891   3.325   1.606
 4719SOL    HW215057   4.914   3.208   1.718
 4720SOL     OW15058   1.786   5.537   5.893
 4720SOL    HW115059   1.791   5.594   5.975
 4720SOL    HW215060   1.812   5.591   5.814
 4721SOL     OW15061   6.535   2.398   2.276
 4721SOL    HW115062   6.576   2.468   2.218
 4721SOL    HW215063   6.598   2.376   2.350
 4722SOL     OW15064   0.652   5.741   6.324
 4722SOL    HW115065   0.624   5.827   6.282
 4722SOL    HW215066   0.576   5.677   6.324
 4723SOL     OW15067   2.543   3.805   6.029
 4723SOL    HW115068   2.487   3.866   5.973
 4723SOL    HW215069   2.529   3.828   6.126
 4724SOL     OW15070   6.221   6.359   2.203
 4724SOL    HW115071   6.183   6.335   2.113
 4724SOL    HW215072   6.212   6.457   2.218
 4725SOL     OW15073   6.358   5.172   2.139
 4725SOL    HW115074   6.412   5.135   2.214
 4725SOL    HW215075   6.280   5.224   2.177
 4726SOL     OW15076   1.742   2.425   5.640
 4726SOL    HW115077   1.692   2.506   5.612
 4726SOL    HW215078   1.678   2.354   5.670
 4727SOL     OW15079   1.662   5.961   1.296
 4727SOL    HW115080   1.587   5.920   1.243
 4727SOL    HW215081   1.637   5.965   1.392
 4728SOL     OW15082   6.442   1.209   1.769
 4728SOL    HW115083   6.448   1.256   1.681
 4728SOL    HW215084   6.534   1.179   1.796
 4729SOL     OW15085   3.084   1.517   0.624
 4729SOL    HW115086   3.166   1.478   0.665
 4729SOL    HW215087   3.018   1.539   0.696
 4730SOL     OW15088   3.351   6.282   5.311
 4730SOL    HW115089   3.399   6.204   5.271
 4730SOL    HW215090   3.295   6.326   5.240
 4731SOL     OW15091   4.430   0.312   7.004
 4731SOL    HW115092   4.429   0.222   6.961
 4731SOL    HW215093   4.337   0.345   7.015
 4732SOL     OW15094   1.080   3.335   5.915
 4732SOL    HW115095   1.168   3.296   5.885
 4732SOL    HW215096   1.096   3.397   5.992
 4733SOL     OW15097   1.115   4.104   3.831
 4733SOL    HW115098   1.204   4.089   3.876
 4733SOL    HW215099   1.092   4.025   3.775
 4734SOL     OW15100   4.091   2.679   7.013
 4734SOL    HW115101   4.162   2.745   6.990
 4734SOL    HW215102   4.042   2.710   0.076
 4735SOL     OW15103   6.442   5.538   4.286
 4735SOL    HW115104   6.483   5.590   4.360
 4735SOL    HW215105   6.451   5.589   4.200
 4736SOL     OW15106   6.973   1.497   5.857
 4736SOL    HW115107   6.874   1.480   5.860
 4736SOL    HW215108   7.017   1.454   5.935
 4737SOL     OW15109   2.475   4.567   2.013
 4737SOL    HW115110   2.569   4.555   1.981
 4737SOL    HW215111   2.468   4.650   2.068
 4738SOL     OW15112   0.369   6.169   2.791
 4738SOL    HW115113   0.411   6.182   2.701
 4738SOL    HW215114   0.282   6.120   2.781
 4739SOL     OW15115   3.658   0.723   3.358
 4739SOL    HW115116   3.730   0.667   3.401
 4739SOL    HW215117   3.688   0.753   3.268
 4740SOL     OW15118   1.006   1.344   1.320
 4740SOL    HW115119   1.034   1.342   1.224
 4740SOL    HW215120   1.085   1.325   1.378
 4741SOL     OW15121   4.146   3.634   0.982
 4741SOL    HW115122   4.186   3.600   1.067
 4741SOL    HW215123   4.056   3.674   1.001
 4742SOL     OW15124   3.479   6.824   6.300
 4742SOL    HW115125   3.503   6.739   6.253
 4742SOL    HW215126   3.425   6.882   6.239
 4743SOL     OW15127   1.591   3.093   3.495
 4743SOL    HW115128   1.656   3.033   3.542
 4743SOL    HW215129   1.632   3.128   3.411
 4744SOL     OW15130   1.984   4.147   0.565
 4744SOL    HW115131   1.910   4.212   0.548
 4744SOL    HW215132   1.963   4.093   0.646
 4745SOL     OW15133   2.912   4.364   6.100
 4745SOL    HW115134   2.941   4.271   6.124
 4745SOL    HW215135   2.992   4.422   6.087
 4746SOL     OW15136   5.484   5.529   2.227
 4746SOL    HW115137   5.402   5.555   2.278
 4746SOL    HW215138   5.482   5.431   2.208
 4747SOL     OW15139   1.959   3.737   0.394
 4747SOL    HW115140   1.947   3.729   0.493
 4747SOL    HW215141   2.041   3.791   0.375
 4748SOL     OW15142   2.096   5.331   0.922
 4748SOL    HW115143   2.022   5.335   0.855
 4748SOL    HW215144   2.067   5.376   1.006
 4749SOL     OW15145   2.002   6.470   5.777
 4749SOL    HW115146   1.950   6.423   5.706
 4749SOL    HW215147   2.037   6.404   5.843
 4750SOL     OW15148   0.723   3.952   4.238
 4750SOL    HW115149   0.716   4.021   4.310
 4750SOL    HW215150   0.754   3.865   4.278
 4751SOL     OW15151   4.028   1.904   2.163
 4751SOL    HW115152   4.024   1.818   2.113
 4751SOL    HW215153   4.010   1.980   2.101
 4752SOL     OW15154   4.545   1.382   6.606
 4752SOL    HW115155   4.577   1.302   6.555
 4752SOL    HW215156   4.551   1.464   6.548
 4753SOL     OW15157   5.744   0.236   3.893
 4753SOL    HW115158   5.689   0.301   3.840
 4753SOL    HW215159   5.683   0.172   3.939
 4754SOL     OW15160   5.939   6.139   4.518
 4754SOL    HW115161   5.850   6.114   4.558
 4754SOL    HW215162   6.004   6.065   4.534
 4755SOL     OW15163   3.056   0.365   0.522
 4755SOL    HW115164   3.101   0.337   0.438
 4755SOL    HW215165   3.049   0.465   0.525
 4756SOL     OW15166   5.423   2.570   0.379
 4756SOL    HW115167   5.505   2.572   0.436
 4756SOL    HW215168   5.355   2.509   0.420
 4757SOL     OW15169   2.897   1.629   0.857
 4757SOL    HW115170   2.887   1.704   0.791
 4757SOL    HW215171   2.809   1.581   0.865
 4758SOL     OW15172   1.898   6.523   3.479
 4758SOL    HW115173   1.876   6.467   3.399
 4758SOL    HW215174   1.879   6.472   3.563
 4759SOL     OW15175   6.335   4.426   5.287
 4759SOL    HW115176   6.374   4.353   5.231
 4759SOL    HW215177   6.272   4.387   5.354
 4760SOL     OW15178   2.271   1.851   0.893
 4760SOL    HW115179   2.183   1.895   0.913
 4760SOL    HW215180   2.319   1.832   0.978
 4761SOL     OW15181   0.872   5.771   0.422
 4761SOL    HW115182   0.781   5.809   0.403
 4761SOL    HW215183   0.933   5.790   0.346
 4762SOL     OW15184   1.273   5.837   2.670
 4762SOL    HW115185   1.339   5.912   2.674
 4762SOL    HW215186   1.196   5.858   2.731
 4763SOL     OW15187   6.058   6.659   3.003
 4763SOL    HW115188   6.090   6.572   3.041
 4763SOL    HW215189   6.098   6.734   3.055
 4764SOL     OW15190   4.882   3.769   4.604
 4764SOL    HW115191   4.849   3.702   4.671
 4764SOL    HW215192   4.867   3.861   4.641
 4765SOL     OW15193   4.912   1.449   4.649
 4765SOL    HW115194   4.986   1.387   4.674
 4765SOL    HW215195   4.877   1.494   4.731
 4766SOL     OW15196   5.396   5.838   4.224
 4766SOL    HW115197   5.324   5.785   4.269
 4766SOL    HW215198   5.455   5.777   4.172
 4767SOL     OW15199   3.063   5.527   5.214
 4767SOL    HW115200   3.150   5.511   5.261
 4767SOL    HW215201   3.046   5.625   5.207
 4768SOL     OW15202   4.415   2.441   6.101
 4768SOL    HW115203   4.358   2.522   6.107
 4768SOL    HW215204   4.485   2.455   6.031
 4769SOL     OW15205   4.815   4.982   6.948
 4769SOL    HW115206   4.767   4.912   6.895
 4769SOL    HW215207   4.798   4.967   0.027
 4770SOL     OW15208   0.442   1.340   4.142
 4770SOL    HW115209   0.372   1.410   4.154
 4770SOL    HW215210   0.483   1.319   4.230
 4771SOL     OW15211   2.884   5.767   5.359
 4771SOL    HW115212   2.893   5.673   5.392
 4771SOL    HW215213   2.967   5.818   5.379
 4772SOL     OW15214   4.250   5.114   1.010
 4772SOL    HW115215   4.331   5.164   0.979
 4772SOL    HW215216   4.277   5.048   1.080
 4773SOL     OW15217   6.740   5.307   3.938
 4773SOL    HW115218   6.813   5.281   3.875
 4773SOL    HW215219   6.773   5.379   4.000
 4774SOL     OW15220   1.567   3.284   1.564
 4774SOL    HW115221   1.623   3.322   1.491
 4774SOL    HW215222   1.625   3.258   1.641
 4775SOL     OW15223   5.352   6.541   2.797
 4775SOL    HW115224   5.347   6.481   2.718
 4775SOL    HW215225   5.261   6.550   2.838
 4776SOL     OW15226   1.242   6.278   5.677
 4776SOL    HW115227   1.255   6.266   5.776
 4776SOL    HW215228   1.184   6.205   5.643
 4777SOL     OW15229   2.147   5.120   1.088
 4777SOL    HW115230   2.195   5.045   1.042
 4777SOL    HW215231   2.112   5.184   1.020
 4778SOL     OW15232   6.607   2.610   4.050
 4778SOL    HW115233   6.695   2.617   4.003
 4778SOL    HW215234   6.614   2.652   4.141
 4779SOL     OW15235   5.939   5.436   2.470
 4779SOL    HW115236   5.867   5.446   2.538
 4779SOL    HW215237   5.961   5.525   2.430
 4780SOL     OW15238   5.779   1.626   0.132
 4780SOL    HW115239   5.743   1.534   0.122
 4780SOL    HW215240   5.856   1.625   0.196
 4781SOL     OW15241   2.587   6.030   2.682
 4781SOL    HW115242   2.557   6.124   2.665
 4781SOL    HW215243   2.637   5.996   2.603
 4782SOL     OW15244   6.219   5.750   0.142
 4782SOL    HW115245   6.182   5.723   0.230
 4782SOL    HW215246   6.168   5.704   0.069
 4783SOL     OW15247   4.899   4.277   0.142
 4783SOL    HW115248   4.841   4.304   0.065
 4783SOL    HW215249   4.885   4.180   0.161
 4784SOL     OW15250   5.982   3.531   6.577
 4784SOL    HW115251   5.915   3.465   6.610
 4784SOL    HW215252   5.987   3.608   6.640
 4785SOL     OW15253   1.699   6.575   3.070
 4785SOL    HW115254   1.667   6.540   2.982
 4785SOL    HW215255   1.646   6.656   3.095
 4786SOL     OW15256   2.761   0.654   0.249
 4786SOL    HW115257   2.843   0.668   0.193
 4786SOL    HW215258   2.731   0.559   0.240
 4787SOL     OW15259   4.116   1.810   2.769
 4787SOL    HW115260   4.115   1.827   2.670
 4787SOL    HW215261   4.025   1.781   2.798
 4788SOL     OW15262   6.775   6.383   6.512
 4788SOL    HW115263   6.677   6.395   6.528
 4788SOL    HW215264   6.790   6.297   6.464
 4789SOL     OW15265   4.521   2.365   1.468
 4789SOL    HW115266   4.454   2.329   1.403
 4789SOL    HW215267   4.598   2.406   1.418
 4790SOL     OW15268   6.393   2.021   5.273
 4790SOL    HW115269   6.375   1.991   5.367
 4790SOL    HW215270   6.379   1.945   5.210
 4791SOL     OW15271   6.996   2.776   1.245
 4791SOL    HW115272   6.906   2.734   1.244
 4791SOL    HW215273   6.987   2.875   1.259
 4792SOL     OW15274   2.760   4.771   3.088
 4792SOL    HW115275   2.771   4.675   3.061
 4792SOL    HW215276   2.773   4.830   3.008
 4793SOL     OW15277   2.258   2.407   5.146
 4793SOL    HW115278   2.315   2.383   5.067
 4793SOL    HW215279   2.210   2.326   5.178
 4794SOL     OW15280   4.871   0.480   4.452
 4794SOL    HW115281   4.961   0.524   4.452
 4794SOL    HW215282   4.809   0.532   4.511
 4795SOL     OW15283   6.226   2.151   4.422
 4795SOL    HW115284   6.322   2.123   4.423
 4795SOL    HW215285   6.218   2.238   4.372
 4796SOL     OW15286   4.652   1.869   4.539
 4796SOL    HW115287   4.731   1.903   4.488
 4796SOL    HW215288   4.643   1.770   4.524
 4797SOL     OW15289   0.554   6.364   5.265
 4797SOL    HW115290   0.536   6.393   5.171
 4797SOL    HW215291   0.653   6.351   5.277
 4798SOL     OW15292   0.280   3.877   5.650
 4798SOL    HW115293   0.335   3.933   5.712
 4798SOL    HW215294   0.210   3.934   5.608
 4799SOL     OW15295   4.663   1.584   0.528
 4799SOL    HW115296   4.623   1.510   0.581
 4799SOL    HW215297   4.597   1.659   0.520
 4800SOL     OW15298   2.933   2.329   6.566
 4800SOL    HW115299   2.988   2.246   6.577
 4800SOL    HW215300   2.839   2.303   6.541
 4801SOL     OW15301   3.297   2.228   6.454
 4801SOL    HW115302   3.359   2.278   6.394
 4801SOL    HW215303   3.277   2.284   6.535
 4802SOL     OW15304   1.082   6.484   1.830
 4802SOL    HW115305   1.053   6.438   1.913
 4802SOL    HW215306   1.109   6.578   1.851
 4803SOL     OW15307   6.956   4.897   0.499
 4803SOL    HW115308   0.017   4.873   0.556
 4803SOL    HW215309   6.943   4.996   0.501
 4804SOL     OW15310   6.642   6.367   1.453
 4804SOL    HW115311   6.554   6.350   1.498
 4804SOL    HW215312   6.672   6.284   1.407
 4805SOL     OW15313   6.596   2.091   2.431
 4805SOL    HW115314   6.510   2.058   2.392
 4805SOL    HW215315   6.656   2.014   2.452
 4806SOL     OW15316   0.991   4.234   2.812
 4806SOL    HW115317   0.933   4.304   2.853
 4806SOL    HW215318   1.077   4.275   2.780
 4807SOL     OW15319   0.876   5.169   0.217
 4807SOL    HW115320   0.933   5.142   0.294
 4807SOL    HW215321   0.917   5.246   0.169
 4808SOL     OW15322   4.850   5.062   0.587
 4808SOL    HW115323   4.877   4.969   0.563
 4808SOL    HW215324   4.929   5.123   0.580
 4809SOL     OW15325   3.421   4.839   0.015
 4809SOL    HW115326   3.334   4.877   0.046
 4809SOL    HW215327   3.479   4.820   0.094
 4810SOL     OW15328   1.756   4.669   2.544
 4810SOL    HW115329   1.828   4.629   2.486
 4810SOL    HW215330   1.690   4.717   2.486
 4811SOL     OW15331   2.328   4.119   1.626
 4811SOL    HW115332   2.391   4.092   1.699
 4811SOL    HW215333   2.340   4.059   1.547
 4812SOL     OW15334   0.370   5.474   2.204
 4812SOL    HW115335   0.464   5.450   2.229
 4812SOL    HW215336   0.356   5.573   2.216
 4813SOL     OW15337   6.167   2.101   6.559
 4813SOL    HW115338   6.119   2.016   6.538
 4813SOL    HW215339   6.245   2.081   6.618
 4814SOL     OW15340   0.039   3.045   1.280
 4814SOL    HW115341   0.026   3.049   1.379
 4814SOL    HW215342   0.132   3.072   1.257
 4815SOL     OW15343   5.294   3.735   2.398
 4815SOL    HW115344   5.286   3.656   2.458
 4815SOL    HW215345   5.248   3.715   2.311
 4816SOL     OW15346   2.244   4.779   1.271
 4816SOL    HW115347   2.310   4.763   1.344
 4816SOL    HW215348   2.167   4.716   1.281
 4817SOL     OW15349   1.929   1.515   6.732
 4817SOL    HW115350   1.859   1.492   6.664
 4817SOL    HW215351   2.008   1.455   6.719
 4818SOL     OW15352   0.779   6.764   4.381
 4818SOL    HW115353   0.871   6.764   4.342
 4818SOL    HW215354   0.763   6.679   4.431
 4819SOL     OW15355   1.622   1.692   0.421
 4819SOL    HW115356   1.630   1.760   0.494
 4819SOL    HW215357   1.652   1.603   0.454
 4820SOL     OW15358   6.331   2.837   2.717
 4820SOL    HW115359   6.428   2.840   2.693
 4820SOL    HW215360   6.321   2.856   2.815
 4821SOL     OW15361   0.695   6.489   2.219
 4821SOL    HW115362   0.705   6.587   2.235
 4821SOL    HW215363   0.699   6.470   2.121
 4822SOL     OW15364   2.112   3.482   4.698
 4822SOL    HW115365   2.168   3.427   4.760
 4822SOL    HW215366   2.019   3.491   4.735
 4823SOL     OW15367   1.652   0.555   4.255
 4823SOL    HW115368   1.721   0.544   4.183
 4823SOL    HW215369   1.690   0.611   4.329
 4824SOL     OW15370   5.239   1.907   4.326
 4824SOL    HW115371   5.295   1.835   4.369
 4824SOL    HW215372   5.290   1.993   4.327
 4825SOL     OW15373   1.478   2.399   4.028
 4825SOL    HW115374   1.570   2.398   3.990
 4825SOL    HW215375   1.411   2.397   3.953
 4826SOL     OW15376   6.239   1.456   6.445
 4826SOL    HW115377   6.216   1.460   6.348
 4826SOL    HW215378   6.171   1.508   6.497
 4827SOL     OW15379   6.364   1.452   1.119
 4827SOL    HW115380   6.440   1.516   1.129
 4827SOL    HW215381   6.291   1.495   1.065
 4828SOL     OW15382   5.256   2.970   0.468
 4828SOL    HW115383   5.353   2.957   0.486
 4828SOL    HW215384   5.204   2.961   0.553
 4829SOL     OW15385   4.215   6.918   6.650
 4829SOL    HW115386   4.258   6.997   6.693
 4829SOL    HW215387   4.116   6.930   6.648
 4830SOL     OW15388   4.411   6.912   3.619
 4830SOL    HW115389   4.423   6.944   3.525
 4830SOL    HW215390   4.348   6.834   3.620
 4831SOL     OW15391   0.210   4.503   6.331
 4831SOL    HW115392   0.138   4.496   6.400
 4831SOL    HW215393   0.176   4.554   6.253
 4832SOL     OW15394   3.629   3.344   4.614
 4832SOL    HW115395   3.578   3.325   4.531
 4832SOL    HW215396   3.609   3.275   4.683
 4833SOL     OW15397   4.767   2.283   3.115
 4833SOL    HW115398   4.743   2.197   3.071
 4833SOL    HW215399   4.753   2.276   3.213
 4834SOL     OW15400   3.680   6.426   1.126
 4834SOL    HW115401   3.750   6.359   1.100
 4834SOL    HW215402   3.725   6.510   1.155
 4835SOL     OW15403   6.081   1.600   6.603
 4835SOL    HW115404   6.091   1.582   6.701
 4835SOL    HW215405   5.984   1.612   6.581
 4836SOL     OW15406   5.500   3.082   4.674
 4836SOL    HW115407   5.525   3.032   4.757
 4836SOL    HW215408   5.429   3.149   4.695
 4837SOL     OW15409   6.305   3.727   2.789
 4837SOL    HW115410   6.314   3.765   2.697
 4837SOL    HW215411   6.378   3.763   2.847
 4838SOL     OW15412   1.125   5.259   6.991
 4838SOL    HW115413   1.059   5.306   6.932
 4838SOL    HW215414   1.102   5.161   6.995
 4839SOL     OW15415   1.917   3.832   6.908
 4839SOL    HW115416   1.897   3.839   7.006
 4839SOL    HW215417   1.980   3.756   6.892
 4840SOL     OW15418   6.894   4.621   6.240
 4840SOL    HW115419   6.937   4.693   6.295
 4840SOL    HW215420   6.939   4.616   6.151
 4841SOL     OW15421   2.878   5.461   1.943
 4841SOL    HW115422   2.898   5.407   2.025
 4841SOL    HW215423   2.882   5.402   1.863
 4842SOL     OW15424   3.724   5.244   2.818
 4842SOL    HW115425   3.678   5.158   2.837
 4842SOL    HW215426   3.817   5.241   2.854
 4843SOL     OW15427   0.104   3.330   1.207
 4843SOL    HW115428   0.073   3.385   1.284
 4843SOL    HW215429   0.054   3.243   1.206
 4844SOL     OW15430   1.103   2.924   6.143
 4844SOL    HW115431   1.179   2.957   6.087
 4844SOL    HW215432   1.053   2.853   6.093
 4845SOL     OW15433   5.147   5.632   6.126
 4845SOL    HW115434   5.217   5.703   6.136
 4845SOL    HW215435   5.152   5.594   6.033
 4846SOL     OW15436   0.012   2.812   4.165
 4846SOL    HW115437   0.078   2.875   4.205
 4846SOL    HW215438   6.965   2.783   4.235
 4847SOL     OW15439   2.771   0.878   6.485
 4847SOL    HW115440   2.822   0.810   6.432
 4847SOL    HW215441   2.777   0.967   6.440
 4848SOL     OW15442   1.413   0.759   3.980
 4848SOL    HW115443   1.496   0.759   3.925
 4848SOL    HW215444   1.343   0.814   3.935
 4849SOL     OW15445   1.306   5.832   6.904
 4849SOL    HW115446   1.388   5.888   6.911
 4849SOL    HW215447   1.231   5.888   6.869
 4850SOL     OW15448   3.868   1.222   2.145
 4850SOL    HW115449   3.870   1.257   2.051
 4850SOL    HW215450   3.960   1.194   2.172
 4851SOL     OW15451   4.271   0.301   5.853
 4851SOL    HW115452   4.313   0.347   5.774
 4851SOL    HW215453   4.325   0.221   5.877
 4852SOL     OW15454   1.506   6.062   4.817
 4852SOL    HW115455   1.443   6.126   4.860
 4852SOL    HW215456   1.461   6.018   4.739
 4853SOL     OW15457   3.249   1.199   3.149
 4853SOL    HW115458   3.183   1.215   3.076
 4853SOL    HW215459   3.242   1.273   3.217
 4854SOL     OW15460   4.295   6.846   1.240
 4854SOL    HW115461   4.352   6.828   1.160
 4854SOL    HW215462   4.216   6.900   1.214
 4855SOL     OW15463   6.159   2.649   3.609
 4855SOL    HW115464   6.105   2.733   3.604
 4855SOL    HW215465   6.242   2.659   3.554
 4856SOL     OW15466   1.199   3.360   2.900
 4856SOL    HW115467   1.164   3.269   2.877
 4856SOL    HW215468   1.167   3.386   2.991
 4857SOL     OW15469   2.891   1.780   4.864
 4857SOL    HW115470   2.870   1.693   4.820
 4857SOL    HW215471   2.806   1.828   4.886
 4858SOL     OW15472   1.100   0.371   4.419
 4858SOL    HW115473   1.033   0.403   4.486
 4858SOL    HW215474   1.175   0.437   4.414
 4859SOL     OW15475   1.013   6.958   4.397
 4859SOL    HW115476   1.087   7.013   4.358
 4859SOL    HW215477   0.937   7.018   4.423
 4860SOL     OW15478   4.413   4.374   1.643
 4860SOL    HW115479   4.431   4.316   1.722
 4860SOL    HW215480   4.376   4.317   1.568
 4861SOL     OW15481   5.859   5.409   6.941
 4861SOL    HW115482   5.881   5.374   6.850
 4861SOL    HW215483   5.868   5.336   7.008
 4862SOL     OW15484   2.411   4.464   4.975
 4862SOL    HW115485   2.381   4.383   4.925
 4862SOL    HW215486   2.418   4.442   5.073
 4863SOL     OW15487   5.271   3.566   0.962
 4863SOL    HW115488   5.244   3.625   0.886
 4863SOL    HW215489   5.191   3.544   1.017
 4864SOL     OW15490   3.970   1.040   2.624
 4864SOL    HW115491   3.881   1.081   2.644
 4864SOL    HW215492   4.026   1.040   2.707
 4865SOL     OW15493   2.002   6.446   3.931
 4865SOL    HW115494   2.053   6.504   3.868
 4865SOL    HW215495   2.060   6.372   3.964
 4866SOL     OW15496   6.050   3.855   1.850
 4866SOL    HW115497   5.988   3.778   1.867
 4866SOL    HW215498   6.125   3.853   1.917
 4867SOL     OW15499   4.010   5.336   1.955
 4867SOL    HW115500   4.099   5.320   1.914
 4867SOL    HW215501   3.952   5.386   1.890
 4868SOL     OW15502   6.585   4.826   3.022
 4868SOL    HW115503   6.656   4.885   2.984
 4868SOL    HW215504   6.626   4.744   3.060
 4869SOL     OW15505   0.913   0.882   1.458
 4869SOL    HW115506   0.982   0.913   1.393
 4869SOL    HW215507   0.843   0.830   1.409
 4870SOL     OW15508   0.183   6.218   2.000
 4870SOL    HW115509   0.143   6.221   1.909
 4870SOL    HW215510   0.242   6.138   2.008
 4871SOL     OW15511   1.067   0.740   4.746
 4871SOL    HW115512   1.123   0.740   4.663
 4871SOL    HW215513   1.083   0.824   4.797
 4872SOL     OW15514   6.596   6.480   3.878
 4872SOL    HW115515   6.583   6.579   3.884
 4872SOL    HW215516   6.694   6.459   3.879
 4873SOL     OW15517   6.563   4.702   3.786
 4873SOL    HW115518   6.605   4.793   3.774
 4873SOL    HW215519   6.481   4.696   3.728
 4874SOL     OW15520   6.226   3.225   3.090
 4874SOL    HW115521   6.275   3.302   3.049
 4874SOL    HW215522   6.287   3.175   3.151
 4875SOL     OW15523   5.559   2.412   1.315
 4875SOL    HW115524   5.462   2.428   1.297
 4875SOL    HW215525   5.604   2.498   1.335
 4876SOL     OW15526   5.763   1.631   4.196
 4876SOL    HW115527   5.684   1.673   4.151
 4876SOL    HW215528   5.736   1.544   4.237
 4877SOL     OW15529   1.255   2.364   6.698
 4877SOL    HW115530   1.233   2.280   6.749
 4877SOL    HW215531   1.171   2.405   6.663
 4878SOL     OW15532   6.404   0.662   2.928
 4878SOL    HW115533   6.387   0.757   2.903
 4878SOL    HW215534   6.317   0.612   2.930
 4879SOL     OW15535   4.488   5.838   3.044
 4879SOL    HW115536   4.505   5.919   3.101
 4879SOL    HW215537   4.541   5.761   3.080
 4880SOL     OW15538   5.642   3.545   0.275
 4880SOL    HW115539   5.596   3.622   0.319
 4880SOL    HW215540   5.612   3.460   0.318
 4881SOL     OW15541   1.684   0.910   6.226
 4881SOL    HW115542   1.766   0.898   6.282
 4881SOL    HW215543   1.617   0.839   6.248
 4882SOL     OW15544   5.331   1.331   5.011
 4882SOL    HW115545   5.274   1.289   4.940
 4882SOL    HW215546   5.276   1.396   5.063
 4883SOL     OW15547   5.592   4.556   1.810
 4883SOL    HW115548   5.627   4.513   1.727
 4883SOL    HW215549   5.626   4.650   1.815
 4884SOL     OW15550   3.259   0.070   1.451
 4884SOL    HW115551   3.237   0.157   1.406
 4884SOL    HW215552   3.271   7.017   1.381
 4885SOL     OW15553   1.562   5.196   2.577
 4885SOL    HW115554   1.628   5.264   2.546
 4885SOL    HW215555   1.612   5.114   2.608
 4886SOL     OW15556   0.886   5.321   0.894
 4886SOL    HW115557   0.956   5.387   0.923
 4886SOL    HW215558   0.826   5.300   0.971
 4887SOL     OW15559   0.893   0.328   2.567
 4887SOL    HW115560   0.965   0.377   2.518
 4887SOL    HW215561   0.830   0.287   2.502
 4888SOL     OW15562   2.243   6.709   4.443
 4888SOL    HW115563   2.161   6.752   4.405
 4888SOL    HW215564   2.240   6.611   4.424
 4889SOL     OW15565   6.151   1.061   6.143
 4889SOL    HW115566   6.165   1.160   6.138
 4889SOL    HW215567   6.207   1.017   6.073
 4890SOL     OW15568   1.187   2.155   6.868
 4890SOL    HW115569   1.137   2.236   6.899
 4890SOL    HW215570   1.138   2.073   6.896
 4891SOL     OW15571   1.705   5.016   6.755
 4891SOL    HW115572   1.766   4.977   6.824
 4891SOL    HW215573   1.616   5.036   6.797
 4892SOL     OW15574   3.475   6.487   2.109
 4892SOL    HW115575   3.465   6.411   2.045
 4892SOL    HW215576   3.559   6.474   2.163
 4893SOL     OW15577   6.799   3.960   1.491
 4893SOL    HW115578   6.757   4.029   1.432
 4893SOL    HW215579   6.727   3.910   1.540
 4894SOL     OW15580   2.336   1.665   2.986
 4894SOL    HW115581   2.400   1.670   2.910
 4894SOL    HW215582   2.387   1.656   3.072
 4895SOL     OW15583   0.608   5.086   3.376
 4895SOL    HW115584   0.640   5.007   3.324
 4895SOL    HW215585   0.657   5.089   3.464
 4896SOL     OW15586   2.043   5.916   2.339
 4896SOL    HW115587   2.012   6.005   2.372
 4896SOL    HW215588   2.138   5.900   2.368
 4897SOL     OW15589   3.130   4.018   6.463
 4897SOL    HW115590   3.060   4.088   6.478
 4897SOL    HW215591   3.215   4.046   6.507
 4898SOL     OW15592   3.347   0.930   4.164
 4898SOL    HW115593   3.360   0.961   4.259
 4898SOL    HW215594   3.420   0.866   4.140
 4899SOL     OW15595   6.208   5.060   3.077
 4899SOL    HW115596   6.150   5.141   3.080
 4899SOL    HW215597   6.194   5.005   3.160
 4900SOL     OW15598   1.913   5.873   4.517
 4900SOL    HW115599   1.882   5.873   4.612
 4900SOL    HW215600   1.947   5.782   4.493
 4901SOL     OW15601   3.194   6.583   5.806
 4901SOL    HW115602   3.185   6.493   5.848
 4901SOL    HW215603   3.107   6.611   5.766
 4902SOL     OW15604   2.675   1.954   4.382
 4902SOL    HW115605   2.654   2.019   4.309
 4902SOL    HW215606   2.626   1.979   4.465
 4903SOL     OW15607   3.739   6.436   6.498
 4903SOL    HW115608   3.723   6.339   6.515
 4903SOL    HW215609   3.832   6.461   6.526
 4904SOL     OW15610   1.906   0.022   3.978
 4904SOL    HW115611   1.878   0.032   4.074
 4904SOL    HW215612   1.897   6.944   3.951
 4905SOL     OW15613   4.158   0.296   2.421
 4905SOL    HW115614   4.115   0.366   2.364
 4905SOL    HW215615   4.130   0.310   2.516
 4906SOL     OW15616   4.835   2.013   5.743
 4906SOL    HW115617   4.759   2.066   5.707
 4906SOL    HW215618   4.921   2.052   5.711
 4907SOL     OW15619   4.525   6.369   0.899
 4907SOL    HW115620   4.434   6.336   0.924
 4907SOL    HW215621   4.567   6.304   0.836
 4908SOL     OW15622   5.196   4.897   6.781
 4908SOL    HW115623   5.129   4.970   6.772
 4908SOL    HW215624   5.153   4.809   6.757
 4909SOL     OW15625   6.590   0.369   4.284
 4909SOL    HW115626   6.514   0.348   4.222
 4909SOL    HW215627   6.569   0.334   4.376
 4910SOL     OW15628   5.180   6.843   4.629
 4910SOL    HW115629   5.086   6.835   4.598
 4910SOL    HW215630   5.184   6.837   4.729
 4911SOL     OW15631   1.138   3.413   4.193
 4911SOL    HW115632   1.101   3.394   4.284
 4911SOL    HW215633   1.079   3.371   4.124
 4912SOL     OW15634   5.570   1.240   6.613
 4912SOL    HW115635   5.520   1.305   6.555
 4912SOL    HW215636   5.625   1.180   6.556
 4913SOL     OW15637   4.170   3.328   5.272
 4913SOL    HW115638   4.124   3.262   5.213
 4913SOL    HW215639   4.266   3.304   5.281
 4914SOL     OW15640   3.550   0.081   5.049
 4914SOL    HW115641   3.573   0.178   5.036
 4914SOL    HW215642   3.461   0.062   5.007
 4915SOL     OW15643   4.303   0.541   4.516
 4915SOL    HW115644   4.271   0.474   4.584
 4915SOL    HW215645   4.259   0.630   4.534
 4916SOL     OW15646   1.439   0.502   4.082
 4916SOL    HW115647   1.537   0.496   4.101
 4916SOL    HW215648   1.418   0.591   4.041
 4917SOL     OW15649   2.111   4.895   1.590
 4917SOL    HW115650   2.070   4.814   1.633
 4917SOL    HW215651   2.210   4.894   1.604
 4918SOL     OW15652   4.425   5.815   2.219
 4918SOL    HW115653   4.373   5.730   2.217
 4918SOL    HW215654   4.515   5.800   2.178
 4919SOL     OW15655   2.979   2.486   6.786
 4919SOL    HW115656   2.982   2.433   6.702
 4919SOL    HW215657   2.929   2.435   6.856
 4920SOL     OW15658   5.874   0.673   4.746
 4920SOL    HW115659   5.808   0.636   4.811
 4920SOL    HW215660   5.909   0.599   4.688
 4921SOL     OW15661   1.584   4.508   0.653
 4921SOL    HW115662   1.489   4.477   0.646
 4921SOL    HW215663   1.593   4.600   0.616
 4922SOL     OW15664   1.972   2.345   4.675
 4922SOL    HW115665   1.907   2.402   4.625
 4922SOL    HW215666   2.065   2.380   4.661
 4923SOL     OW15667   4.006   1.871   1.491
 4923SOL    HW115668   3.999   1.771   1.499
 4923SOL    HW215669   3.923   1.906   1.447
 4924SOL     OW15670   2.687   1.713   5.496
 4924SOL    HW115671   2.752   1.674   5.430
 4924SOL    HW215672   2.715   1.805   5.520
 4925SOL     OW15673   6.054   6.318   1.942
 4925SOL    HW115674   6.081   6.378   1.867
 4925SOL    HW215675   6.087   6.226   1.925
 4926SOL     OW15676   5.469   1.552   0.251
 4926SOL    HW115677   5.485   1.490   0.328
 4926SOL    HW215678   5.528   1.632   0.260
 4927SOL     OW15679   4.114   3.375   4.506
 4927SOL    HW115680   4.112   3.447   4.436
 4927SOL    HW215681   4.161   3.408   4.587
 4928SOL     OW15682   1.419   0.150   6.705
 4928SOL    HW115683   1.346   0.196   6.756
 4928SOL    HW215684   1.416   0.052   6.722
 4929SOL     OW15685   0.733   5.117   4.876
 4929SOL    HW115686   0.696   5.081   4.790
 4929SOL    HW215687   0.663   5.172   4.922
 4930SOL     OW15688   4.693   0.983   3.435
 4930SOL    HW115689   4.653   0.893   3.454
 4930SOL    HW215690   4.707   1.032   3.521
 4931SOL     OW15691   6.750   0.004   0.525
 4931SOL    HW115692   6.677   6.996   0.461
 4931SOL    HW215693   6.724   0.089   0.571
 4932SOL     OW15694   2.492   3.259   1.720
 4932SOL    HW115695   2.428   3.322   1.764
 4932SOL    HW215696   2.533   3.303   1.640
 4933SOL     OW15697   2.167   6.942   3.116
 4933SOL    HW115698   2.235   6.883   3.072
 4933SOL    HW215699   2.197   0.019   3.108
 4934SOL     OW15700   2.562   5.868   2.911
 4934SOL    HW115701   2.585   5.930   2.836
 4934SOL    HW215702   2.615   5.893   2.992
 4935SOL     OW15703   1.469   1.194   5.965
 4935SOL    HW115704   1.399   1.254   6.004
 4935SOL    HW215705   1.493   1.226   5.873
 4936SOL     OW15706   2.200   4.723   1.928
 4936SOL    HW115707   2.291   4.682   1.930
 4936SOL    HW215708   2.170   4.741   2.022
 4937SOL     OW15709   0.005   2.655   6.609
 4937SOL    HW115710   0.024   2.749   6.635
 4937SOL    HW215711   0.063   2.629   6.532
 4938SOL     OW15712   2.266   6.382   5.973
 4938SOL    HW115713   2.245   6.430   6.058
 4938SOL    HW215714   2.363   6.359   5.970
 4939SOL     OW15715   6.236   2.002   4.172
 4939SOL    HW115716   6.267   2.059   4.248
 4939SOL    HW215717   6.271   2.040   4.086
 4940SOL     OW15718   0.302   0.997   4.890
 4940SOL    HW115719   0.397   1.019   4.871
 4940SOL    HW215720   0.298   0.913   4.946
 4941SOL     OW15721   4.895   2.242   5.054
 4941SOL    HW115722   4.986   2.216   5.022
 4941SOL    HW215723   4.843   2.282   4.978
 4942SOL     OW15724   5.450   3.363   6.397
 4942SOL    HW115725   5.506   3.324   6.325
 4942SOL    HW215726   5.397   3.291   6.441
 4943SOL     OW15727   4.273   3.825   5.934
 4943SOL    HW115728   4.247   3.732   5.960
 4943SOL    HW215729   4.203   3.864   5.875
 4944SOL     OW15730   2.418   4.394   1.582
 4944SOL    HW115731   2.400   4.298   1.603
 4944SOL    HW215732   2.514   4.415   1.602
 4945SOL     OW15733   1.430   0.288   4.709
 4945SOL    HW115734   1.449   0.201   4.662
 4945SOL    HW215735   1.343   0.280   4.758
 4946SOL     OW15736   1.586   5.310   0.218
 4946SOL    HW115737   1.638   5.247   0.276
 4946SOL    HW215738   1.614   5.298   0.122
 4947SOL     OW15739   2.197   0.304   0.509
 4947SOL    HW115740   2.156   0.394   0.493
 4947SOL    HW215741   2.135   0.248   0.563
 4948SOL     OW15742   1.245   2.906   2.409
 4948SOL    HW115743   1.212   2.825   2.362
 4948SOL    HW215744   1.260   2.980   2.342
 4949SOL     OW15745   5.700   5.198   5.930
 4949SOL    HW115746   5.774   5.151   5.882
 4949SOL    HW215747   5.662   5.137   6.000
 4950SOL     OW15748   1.872   5.361   4.498
 4950SOL    HW115749   1.903   5.302   4.572
 4950SOL    HW215750   1.772   5.366   4.498
 4951SOL     OW15751   5.864   0.755   5.105
 4951SOL    HW115752   5.870   0.812   5.187
 4951SOL    HW215753   5.949   0.760   5.054
 4952SOL     OW15754   0.189   0.848   5.939
 4952SOL    HW115755   0.235   0.844   5.850
 4952SOL    HW215756   0.137   0.763   5.953
 4953SOL     OW15757   2.023   6.408   3.030
 4953SOL    HW115758   2.120   6.422   3.014
 4953SOL    HW215759   1.974   6.494   3.013
 4954SOL     OW15760   3.547   3.203   0.297
 4954SOL    HW115761   3.472   3.261   0.327
 4954SOL    HW215762   3.546   3.196   0.197
 4955SOL     OW15763   3.055   6.618   6.848
 4955SOL    HW115764   3.039   6.657   6.757
 4955SOL    HW215765   2.974   6.568   6.877
 4956SOL     OW15766   2.153   0.100   4.981
 4956SOL    HW115767   2.100   0.024   4.946
 4956SOL    HW215768   2.251   0.076   4.979
 4957SOL     OW15769   5.450   2.385   1.726
 4957SOL    HW115770   5.381   2.364   1.795
 4957SOL    HW215771   5.463   2.305   1.667
 4958SOL     OW15772   0.303   4.917   5.665
 4958SOL    HW115773   0.205   4.934   5.668
 4958SOL    HW215774   0.329   4.888   5.573
 4959SOL     OW15775   6.112   1.762   0.039
 4959SOL    HW115776   6.020   1.798   0.025
 4959SOL    HW215777   6.128   1.748   0.136
 4960SOL     OW15778   3.343   4.943   3.293
 4960SOL    HW115779   3.256   4.895   3.280
 4960SOL    HW215780   3.325   5.040   3.308
 4961SOL     OW15781   4.359   1.287   5.803
 4961SOL    HW115782   4.348   1.196   5.843
 4961SOL    HW215783   4.400   1.348   5.870
 4962SOL     OW15784   5.841   2.322   0.479
 4962SOL    HW115785   5.909   2.269   0.531
 4962SOL    HW215786   5.785   2.260   0.424
 4963SOL     OW15787   6.286   5.910   0.572
 4963SOL    HW115788   6.240   5.963   0.642
 4963SOL    HW215789   6.299   5.816   0.604
 4964SOL     OW15790   2.833   0.417   3.786
 4964SOL    HW115791   2.786   0.351   3.728
 4964SOL    HW215792   2.912   0.454   3.737
 4965SOL     OW15793   0.460   1.178   2.405
 4965SOL    HW115794   0.514   1.174   2.321
 4965SOL    HW215795   0.520   1.168   2.484
 4966SOL     OW15796   1.928   6.465   5.271
 4966SOL    HW115797   1.963   6.549   5.313
 4966SOL    HW215798   1.988   6.437   5.197
 4967SOL     OW15799   4.051   5.329   5.258
 4967SOL    HW115800   3.969   5.385   5.265
 4967SOL    HW215801   4.058   5.291   5.166
 4968SOL     OW15802   6.494   1.891   3.829
 4968SOL    HW115803   6.563   1.845   3.884
 4968SOL    HW215804   6.425   1.825   3.798
 4969SOL     OW15805   2.952   6.099   3.078
 4969SOL    HW115806   2.920   6.174   3.021
 4969SOL    HW215807   2.953   6.128   3.174
 4970SOL     OW15808   2.371   2.736   2.728
 4970SOL    HW115809   2.341   2.824   2.690
 4970SOL    HW215810   2.378   2.744   2.828
 4971SOL     OW15811   6.188   5.365   3.439
 4971SOL    HW115812   6.146   5.325   3.358
 4971SOL    HW215813   6.118   5.386   3.507
 4972SOL     OW15814   1.267   3.747   0.602
 4972SOL    HW115815   1.198   3.749   0.674
 4972SOL    HW215816   1.282   3.652   0.573
 4973SOL     OW15817   1.855   6.247   2.439
 4973SOL    HW115818   1.787   6.312   2.406
 4973SOL    HW215819   1.919   6.225   2.365
 4974SOL     OW15820   6.237   4.508   1.142
 4974SOL    HW115821   6.142   4.534   1.126
 4974SOL    HW215822   6.280   4.574   1.203
 4975SOL     OW15823   5.956   3.822   5.570
 4975SOL    HW115824   5.908   3.807   5.483
 4975SOL    HW215825   6.000   3.738   5.599
 4976SOL     OW15826   1.791   1.001   3.711
 4976SOL    HW115827   1.868   1.046   3.667
 4976SOL    HW215828   1.712   1.003   3.649
 4977SOL     OW15829   3.868   4.919   0.242
 4977SOL    HW115830   3.877   4.900   0.340
 4977SOL    HW215831   3.860   5.018   0.228
 4978SOL     OW15832   6.752   3.934   4.937
 4978SOL    HW115833   6.682   4.004   4.921
 4978SOL    HW215834   6.711   3.858   4.989
 4979SOL     OW15835   0.224   0.239   6.643
 4979SOL    HW115836   0.241   0.151   6.688
 4979SOL    HW215837   0.197   0.222   6.548
 4980SOL     OW15838   5.280   6.283   3.266
 4980SOL    HW115839   5.316   6.332   3.187
 4980SOL    HW215840   5.295   6.185   3.255
 4981SOL     OW15841   4.628   5.930   0.080
 4981SOL    HW115842   4.716   5.903   0.042
 4981SOL    HW215843   4.617   6.029   0.071
 4982SOL     OW15844   2.890   1.149   5.885
 4982SOL    HW115845   2.798   1.114   5.903
 4982SOL    HW215846   2.922   1.115   5.797
 4983SOL     OW15847   5.839   3.473   4.675
 4983SOL    HW115848   5.902   3.402   4.644
 4983SOL    HW215849   5.855   3.557   4.623
 4984SOL     OW15850   5.572   3.724   3.266
 4984SOL    HW115851   5.528   3.814   3.270
 4984SOL    HW215852   5.579   3.694   3.171
 4985SOL     OW15853   6.416   6.739   3.315
 4985SOL    HW115854   6.446   6.664   3.257
 4985SOL    HW215855   6.439   6.719   3.410
 4986SOL     OW15856   6.657   4.141   1.847
 4986SOL    HW115857   6.736   4.100   1.892
 4986SOL    HW215858   6.687   4.200   1.772
 4987SOL     OW15859   1.402   0.700   1.998
 4987SOL    HW115860   1.488   0.739   2.031
 4987SOL    HW215861   1.359   0.764   1.934
 4988SOL     OW15862   5.576   0.911   2.571
 4988SOL    HW115863   5.494   0.945   2.525
 4988SOL    HW215864   5.552   0.878   2.662
 4989SOL     OW15865   4.996   0.120   1.270
 4989SOL    HW115866   5.003   0.217   1.290
 4989SOL    HW215867   5.081   0.074   1.296
 4990SOL     OW15868   2.287   1.891   5.932
 4990SOL    HW115869   2.368   1.864   5.984
 4990SOL    HW215870   2.315   1.936   5.847
 4991SOL     OW15871   6.093   5.192   4.199
 4991SOL    HW115872   6.175   5.180   4.142
 4991SOL    HW215873   6.114   5.254   4.275
 4992SOL     OW15874   5.346   1.012   3.468
 4992SOL    HW115875   5.306   1.101   3.445
 4992SOL    HW215876   5.373   1.012   3.564
 4993SOL     OW15877   2.327   5.855   3.906
 4993SOL    HW115878   2.359   5.810   3.989
 4993SOL    HW215879   2.227   5.863   3.908
 4994SOL     OW15880   1.909   0.477   3.505
 4994SOL    HW115881   1.841   0.539   3.546
 4994SOL    HW215882   2.000   0.514   3.519
 4995SOL     OW15883   0.332   1.844   6.025
 4995SOL    HW115884   0.322   1.902   5.944
 4995SOL    HW215885   0.243   1.807   6.051
 4996SOL     OW15886   0.922   1.295   2.837
 4996SOL    HW115887   0.949   1.299   2.934
 4996SOL    HW215888   0.832   1.338   2.826
 4997SOL     OW15889   5.470   2.804   2.642
 4997SOL    HW115890   5.470   2.718   2.692
 4997SOL    HW215891   5.389   2.857   2.666
 4998SOL     OW15892   2.187   4.260   5.046
 4998SOL    HW115893   2.246   4.181   5.028
 4998SOL    HW215894   2.101   4.228   5.086
 4999SOL     OW15895   6.490   3.602   0.411
 4999SOL    HW115896   6.581   3.586   0.372
 4999SOL    HW215897   6.424   3.544   0.364
 5000SOL     OW15898   2.808   6.731   3.311
 5000SOL    HW115899   2.865   6.650   3.302
 5000SOL    HW215900   2.712   6.705   3.315
 5001SOL     OW15901   0.542   4.027   0.928
 5001SOL    HW115902   0.455   4.019   0.978
 5001SOL    HW215903   0.526   4.006   0.831
 5002SOL     OW15904   0.871   3.598   3.570
 5002SOL    HW115905   0.820   3.581   3.485
 5002SOL    HW215906   0.969   3.594   3.552
 5003SOL     OW15907   2.957   6.029   2.728
 5003SOL    HW115908   3.033   6.050   2.790
 5003SOL    HW215909   2.929   6.112   2.681
 5004SOL     OW15910   3.347   5.153   6.303
 5004SOL    HW115911   3.282   5.206   6.248
 5004SOL    HW215912   3.316   5.059   6.309
 5005SOL     OW15913   3.074   2.412   0.865
 5005SOL    HW115914   3.146   2.449   0.807
 5005SOL    HW215915   2.993   2.394   0.810
 5006SOL     OW15916   5.571   0.699   0.563
 5006SOL    HW115917   5.536   0.768   0.627
 5006SOL    HW215918   5.497   0.669   0.503
 5007SOL     OW15919   1.255   6.855   0.473
 5007SOL    HW115920   1.177   6.911   0.503
 5007SOL    HW215921   1.310   6.908   0.408
 5008SOL     OW15922   6.516   6.528   2.584
 5008SOL    HW115923   6.497   6.441   2.630
 5008SOL    HW215924   6.587   6.577   2.635
 5009SOL     OW15925   0.852   6.823   0.923
 5009SOL    HW115926   0.799   6.762   0.983
 5009SOL    HW215927   0.800   6.907   0.908
 5010SOL     OW15928   3.793   3.509   2.575
 5010SOL    HW115929   3.818   3.476   2.484
 5010SOL    HW215930   3.817   3.439   2.643
 5011SOL     OW15931   1.872   3.797   2.418
 5011SOL    HW115932   1.788   3.774   2.369
 5011SOL    HW215933   1.940   3.831   2.354
 5012SOL     OW15934   5.808   4.212   5.919
 5012SOL    HW115935   5.896   4.204   5.965
 5012SOL    HW215936   5.821   4.253   5.829
 5013SOL     OW15937   5.084   1.713   6.665
 5013SOL    HW115938   5.038   1.735   6.752
 5013SOL    HW215939   5.104   1.615   6.662
 5014SOL     OW15940   5.415   4.178   0.438
 5014SOL    HW115941   5.514   4.163   0.434
 5014SOL    HW215942   5.379   4.139   0.523
 5015SOL     OW15943   4.500   1.684   4.153
 5015SOL    HW115944   4.552   1.640   4.080
 5015SOL    HW215945   4.464   1.771   4.120
 5016SOL     OW15946   1.906   2.102   0.727
 5016SOL    HW115947   1.827   2.154   0.694
 5016SOL    HW215948   1.966   2.081   0.649
 5017SOL     OW15949   1.940   2.312   0.034
 5017SOL    HW115950   2.000   2.233   0.047
 5017SOL    HW215951   1.994   2.391   0.005
 5018SOL     OW15952   6.961   4.145   2.075
 5018SOL    HW115953   6.999   4.203   2.148
 5018SOL    HW215954   0.002   4.065   2.062
 5019SOL     OW15955   1.333   4.865   6.566
 5019SOL    HW115956   1.377   4.881   6.478
 5019SOL    HW215957   1.290   4.949   6.598
 5020SOL     OW15958   5.096   0.452   6.678
 5020SOL    HW115959   5.184   0.500   6.674
 5020SOL    HW215960   5.042   0.476   6.597
 5021SOL     OW15961   1.216   1.582   5.961
 5021SOL    HW115962   1.244   1.642   6.036
 5021SOL    HW215963   1.155   1.632   5.900
 5022SOL     OW15964   1.179   1.689   6.945
 5022SOL    HW115965   1.143   1.777   6.975
 5022SOL    HW215966   1.118   1.616   6.975
 5023SOL     OW15967   6.548   2.889   1.631
 5023SOL    HW115968   6.526   2.957   1.700
 5023SOL    HW215969   6.515   2.920   1.542
 5024SOL     OW15970   5.272   5.763   1.881
 5024SOL    HW115971   5.184   5.750   1.927
 5024SOL    HW215972   5.327   5.680   1.890
 5025SOL     OW15973   3.332   1.871   1.700
 5025SOL    HW115974   3.419   1.831   1.727
 5025SOL    HW215975   3.312   1.950   1.757
 5026SOL     OW15976   6.162   5.805   5.864
 5026SOL    HW115977   6.249   5.805   5.816
 5026SOL    HW215978   6.175   5.833   5.959
 5027SOL     OW15979   0.422   6.012   2.289
 5027SOL    HW115980   0.479   6.081   2.245
 5027SOL    HW215981   0.397   5.941   2.223
 5028SOL     OW15982   0.537   1.210   3.022
 5028SOL    HW115983   0.629   1.173   3.033
 5028SOL    HW215984   0.525   1.289   3.083
 5029SOL     OW15985   6.978   2.587   2.901
 5029SOL    HW115986   0.008   2.499   2.897
 5029SOL    HW215987   6.904   2.588   2.835
 5030SOL     OW15988   0.103   6.526   6.868
 5030SOL    HW115989   0.083   6.556   6.961
 5030SOL    HW215990   0.124   6.428   6.868
 5031SOL     OW15991   5.905   0.133   5.127
 5031SOL    HW115992   5.900   0.168   5.220
 5031SOL    HW215993   5.954   0.046   5.127
 5032SOL     OW15994   1.656   3.203   1.163
 5032SOL    HW115995   1.715   3.217   1.242
 5032SOL    HW215996   1.586   3.135   1.185
 5033SOL     OW15997   2.909   6.204   5.571
 5033SOL    HW115998   2.950   6.140   5.636
 5033SOL    HW215999   2.980   6.258   5.527
 5034SOL     OW16000   4.701   1.067   2.996
 5034SOL    HW116001   4.694   1.167   3.003
 5034SOL    HW216002   4.611   1.029   2.976
 5035SOL     OW16003   0.556   4.521   6.996
 5035SOL    HW116004   0.515   4.499   0.067
 5035SOL    HW216005   0.648   4.481   6.991
 5036SOL     OW16006   0.200   4.966   0.331
 5036SOL    HW116007   0.226   5.060   0.311
 5036SOL    HW216008   0.101   4.955   0.322
 5037SOL     OW16009   5.388   2.659   3.398
 5037SOL    HW116010   5.317   2.590   3.385
 5037SOL    HW216011   5.476   2.614   3.414
 5038SOL     OW16012   2.110   3.948   6.332
 5038SOL    HW116013   2.088   3.865   6.281
 5038SOL    HW216014   2.168   4.008   6.276
 5039SOL     OW16015   3.038   4.290   5.272
 5039SOL    HW116016   3.018   4.372   5.219
 5039SOL    HW216017   2.955   4.261   5.320
 5040SOL     OW16018   2.189   5.333   6.123
 5040SOL    HW116019   2.135   5.292   6.197
 5040SOL    HW216020   2.286   5.313   6.139
 5041SOL     OW16021   1.985   1.699   2.012
 5041SOL    HW116022   1.930   1.626   2.053
 5041SOL    HW216023   2.053   1.658   1.951
 5042SOL     OW16024   6.332   3.213   0.969
 5042SOL    HW116025   6.234   3.219   0.949
 5042SOL    HW216026   6.379   3.289   0.925
 5043SOL     OW16027   3.674   0.672   6.096
 5043SOL    HW116028   3.644   0.606   6.164
 5043SOL    HW216029   3.616   0.754   6.100
 5044SOL     OW16030   0.506   6.399   0.972
 5044SOL    HW116031   0.561   6.317   0.990
 5044SOL    HW216032   0.564   6.469   0.931
 5045SOL     OW16033   5.603   1.939   6.579
 5045SOL    HW116034   5.524   1.927   6.518
 5045SOL    HW216035   5.570   1.959   6.672
 5046SOL     OW16036   3.346   4.150   3.535
 5046SOL    HW116037   3.365   4.141   3.632
 5046SOL    HW216038   3.310   4.242   3.516
 5047SOL     OW16039   6.853   3.367   2.813
 5047SOL    HW116040   6.761   3.329   2.824
 5047SOL    HW216041   6.910   3.338   2.890
 5048SOL     OW16042   0.617   0.786   2.160
 5048SOL    HW116043   0.553   0.795   2.084
 5048SOL    HW216044   0.708   0.815   2.131
 5049SOL     OW16045   6.507   1.653   5.431
 5049SOL    HW116046   6.552   1.676   5.518
 5049SOL    HW216047   6.408   1.657   5.443
 5050SOL     OW16048   1.717   0.527   1.629
 5050SOL    HW116049   1.812   0.559   1.623
 5050SOL    HW216050   1.709   0.438   1.584
 5051SOL     OW16051   4.839   4.559   1.104
 5051SOL    HW116052   4.840   4.542   1.202
 5051SOL    HW216053   4.751   4.529   1.066
 5052SOL     OW16054   2.222   6.578   6.187
 5052SOL    HW116055   2.279   6.631   6.250
 5052SOL    HW216056   2.126   6.587   6.212
 5053SOL     OW16057   2.198   3.881   3.056
 5053SOL    HW116058   2.160   3.901   3.146
 5053SOL    HW216059   2.289   3.922   3.049
 5054SOL     OW16060   3.291   6.427   4.761
 5054SOL    HW116061   3.356   6.395   4.693
 5054SOL    HW216062   3.341   6.456   4.843
 5055SOL     OW16063   1.852   0.562   5.651
 5055SOL    HW116064   1.923   0.498   5.680
 5055SOL    HW216065   1.830   0.546   5.554
 5056SOL     OW16066   6.599   4.306   0.825
 5056SOL    HW116067   6.533   4.243   0.783
 5056SOL    HW216068   6.685   4.304   0.773
 5057SOL     OW16069   6.338   5.938   5.469
 5057SOL    HW116070   6.402   6.013   5.450
 5057SOL    HW216071   6.250   5.976   5.495
 5058SOL     OW16072   2.620   3.122   5.407
 5058SOL    HW116073   2.582   3.089   5.321
 5058SOL    HW216074   2.546   3.145   5.470
 5059SOL     OW16075   5.610   2.460   3.398
 5059SOL    HW116076   5.591   2.399   3.474
 5059SOL    HW216077   5.680   2.419   3.340
 5060SOL     OW16078   0.540   1.782   5.521
 5060SOL    HW116079   0.515   1.768   5.426
 5060SOL    HW216080   0.458   1.804   5.575
 5061SOL     OW16081   3.751   3.298   2.992
 5061SOL    HW116082   3.684   3.258   3.055
 5061SOL    HW216083   3.718   3.387   2.960
 5062SOL     OW16084   5.367   0.574   3.171
 5062SOL    HW116085   5.345   0.661   3.215
 5062SOL    HW216086   5.464   0.553   3.186
 5063SOL     OW16087   1.341   0.166   2.253
 5063SOL    HW116088   1.425   0.217   2.271
 5063SOL    HW216089   1.304   0.191   2.164
 5064SOL     OW16090   4.535   3.789   1.663
 5064SOL    HW116091   4.463   3.852   1.634
 5064SOL    HW216092   4.618   3.841   1.682
 5065SOL     OW16093   1.303   1.969   4.109
 5065SOL    HW116094   1.395   1.959   4.071
 5065SOL    HW216095   1.286   2.065   4.132
 5066SOL     OW16096   3.897   4.846   1.112
 5066SOL    HW116097   3.900   4.748   1.093
 5066SOL    HW216098   3.809   4.883   1.082
 5067SOL     OW16099   2.985   0.805   2.669
 5067SOL    HW116100   3.037   0.735   2.619
 5067SOL    HW216101   3.049   0.875   2.702
 5068SOL     OW16102   3.049   4.949   6.710
 5068SOL    HW116103   3.091   5.005   6.639
 5068SOL    HW216104   3.120   4.907   6.766
 5069SOL     OW16105   2.126   2.969   5.603
 5069SOL    HW116106   2.161   2.876   5.600
 5069SOL    HW216107   2.104   2.994   5.698
 5070SOL     OW16108   4.641   4.303   4.126
 5070SOL    HW116109   4.687   4.289   4.214
 5070SOL    HW216110   4.594   4.391   4.126
 5071SOL     OW16111   3.966   0.993   3.182
 5071SOL    HW116112   3.921   1.029   3.264
 5071SOL    HW216113   3.978   1.067   3.116
 5072SOL     OW16114   1.039   0.762   1.682
 5072SOL    HW116115   0.997   0.807   1.603
 5072SOL    HW216116   1.119   0.814   1.711
 5073SOL     OW16117   1.303   4.631   1.482
 5073SOL    HW116118   1.373   4.664   1.419
 5073SOL    HW216119   1.258   4.552   1.443
 5074SOL     OW16120   3.209   2.245   1.297
 5074SOL    HW116121   3.133   2.226   1.359
 5074SOL    HW216122   3.295   2.242   1.348
 5075SOL     OW16123   1.139   2.240   6.376
 5075SOL    HW116124   1.195   2.293   6.439
 5075SOL    HW216125   1.181   2.151   6.360
 5076SOL     OW16126   5.067   0.519   0.622
 5076SOL    HW116127   5.154   0.532   0.670
 5076SOL    HW216128   5.057   0.422   0.599
 5077SOL     OW16129   2.164   4.570   5.821
 5077SOL    HW116130   2.132   4.522   5.740
 5077SOL    HW216131   2.174   4.668   5.800
 5078SOL     OW16132   0.208   0.951   3.795
 5078SOL    HW116133   0.152   1.020   3.840
 5078SOL    HW216134   0.249   0.989   3.712
 5079SOL     OW16135   2.148   3.236   4.834
 5079SOL    HW116136   2.183   3.244   4.928
 5079SOL    HW216137   2.057   3.195   4.836
 5080SOL     OW16138   5.887   6.627   6.019
 5080SOL    HW116139   5.845   6.706   6.064
 5080SOL    HW216140   5.923   6.564   6.087
 5081SOL     OW16141   3.569   3.555   5.390
 5081SOL    HW116142   3.659   3.592   5.413
 5081SOL    HW216143   3.576   3.457   5.375
 5082SOL     OW16144   5.184   5.566   1.646
 5082SOL    HW116145   5.090   5.546   1.674
 5082SOL    HW216146   5.245   5.559   1.726
 5083SOL     OW16147   2.519   0.375   2.692
 5083SOL    HW116148   2.598   0.420   2.734
 5083SOL    HW216149   2.443   0.374   2.757
 5084SOL     OW16150   0.428   4.027   4.237
 5084SOL    HW116151   0.380   4.032   4.325
 5084SOL    HW216152   0.520   3.991   4.251
 5085SOL     OW16153   6.431   2.722   6.244
 5085SOL    HW116154   6.439   2.753   6.149
 5085SOL    HW216155   6.369   2.783   6.294
 5086SOL     OW16156   1.212   5.207   2.927
 5086SOL    HW116157   1.150   5.163   2.993
 5086SOL    HW216158   1.302   5.166   2.933
 5087SOL     OW16159   1.615   5.627   3.123
 5087SOL    HW116160   1.544   5.691   3.152
 5087SOL    HW216161   1.637   5.565   3.199
 5088SOL     OW16162   5.885   0.304   4.143
 5088SOL    HW116163   5.883   0.304   4.043
 5088SOL    HW216164   5.978   0.320   4.175
 5089SOL     OW16165   5.863   3.606   4.014
 5089SOL    HW116166   5.848   3.694   4.059
 5089SOL    HW216167   5.803   3.537   4.055
 5090SOL     OW16168   2.052   3.758   2.626
 5090SOL    HW116169   2.108   3.839   2.606
 5090SOL    HW216170   1.980   3.750   2.557
 5091SOL     OW16171   0.158   1.360   1.033
 5091SOL    HW116172   0.244   1.411   1.042
 5091SOL    HW216173   0.156   1.285   1.100
 5092SOL     OW16174   3.544   3.720   3.213
 5092SOL    HW116175   3.488   3.664   3.275
 5092SOL    HW216176   3.583   3.797   3.263
 5093SOL     OW16177   2.974   0.912   0.530
 5093SOL    HW116178   3.058   0.966   0.534
 5093SOL    HW216179   2.936   0.916   0.437
 5094SOL     OW16180   2.081   5.884   5.918
 5094SOL    HW116181   2.079   5.941   5.837
 5094SOL    HW216182   2.173   5.883   5.957
 5095SOL     OW16183   6.083   2.049   3.824
 5095SOL    HW116184   6.176   2.062   3.858
 5095SOL    HW216185   6.038   2.138   3.816
 5096SOL     OW16186   3.981   5.026   6.819
 5096SOL    HW116187   3.928   4.945   6.844
 5096SOL    HW216188   3.919   5.096   6.783
 5097SOL     OW16189   1.119   0.133   6.409
 5097SOL    HW116190   1.216   0.147   6.426
 5097SOL    HW216191   1.104   0.112   6.313
 5098SOL     OW16192   2.889   0.195   1.913
 5098SOL    HW116193   2.944   0.128   1.962
 5098SOL    HW216194   2.792   0.174   1.925
 5099SOL     OW16195   0.831   0.193   0.783
 5099SOL    HW116196   0.850   0.139   0.865
 5099SOL    HW216197   0.733   0.215   0.779
 5100SOL     OW16198   3.382   5.477   4.707
 5100SOL    HW116199   3.394   5.571   4.676
 5100SOL    HW216200   3.314   5.474   4.779
 5101SOL     OW16201   4.798   0.475   0.065
 5101SOL    HW116202   4.857   0.428   7.017
 5101SOL    HW216203   4.855   0.519   0.135
 5102SOL     OW16204   5.427   0.064   4.282
 5102SOL    HW116205   5.420   7.010   4.213
 5102SOL    HW216206   5.508   0.120   4.264
 5103SOL     OW16207   0.397   0.182   3.909
 5103SOL    HW116208   0.416   0.090   3.942
 5103SOL    HW216209   0.435   0.193   3.817
 5104SOL     OW16210   1.991   6.192   2.220
 5104SOL    HW116211   2.057   6.128   2.180
 5104SOL    HW216212   2.024   6.286   2.206
 5105SOL     OW16213   2.609   2.508   0.821
 5105SOL    HW116214   2.620   2.445   0.898
 5105SOL    HW216215   2.513   2.515   0.797
 5106SOL     OW16216   4.151   2.407   0.276
 5106SOL    HW116217   4.226   2.469   0.253
 5106SOL    HW216218   4.166   2.370   0.368
 5107SOL     OW16219   3.868   1.597   0.824
 5107SOL    HW116220   3.915   1.621   0.909
 5107SOL    HW216221   3.772   1.626   0.830
 5108SOL     OW16222   3.904   4.174   5.139
 5108SOL    HW116223   3.851   4.136   5.215
 5108SOL    HW216224   3.981   4.227   5.176
 5109SOL     OW16225   0.974   1.776   0.231
 5109SOL    HW116226   0.902   1.789   0.299
 5109SOL    HW216227   1.012   1.684   0.238
 5110SOL     OW16228   0.978   0.714   5.629
 5110SOL    HW116229   1.025   0.795   5.667
 5110SOL    HW216230   0.902   0.689   5.688
 5111SOL     OW16231   1.323   0.598   4.956
 5111SOL    HW116232   1.326   0.697   4.960
 5111SOL    HW216233   1.238   0.566   4.998
 5112SOL     OW16234   1.547   1.310   3.513
 5112SOL    HW116235   1.621   1.363   3.555
 5112SOL    HW216236   1.528   1.345   3.422
 5113SOL     OW16237   1.893   0.003   1.026
 5113SOL    HW116238   1.985   6.986   1.045
 5113SOL    HW216239   1.878   0.087   1.077
 5114SOL     OW16240   3.480   1.333   6.503
 5114SOL    HW116241   3.514   1.295   6.589
 5114SOL    HW216242   3.502   1.431   6.499
 5115SOL     OW16243   1.777   5.179   4.114
 5115SOL    HW116244   1.749   5.123   4.036
 5115SOL    HW216245   1.869   5.152   4.143
 5116SOL     OW16246   0.373   0.171   5.973
 5116SOL    HW116247   0.424   0.137   5.895
 5116SOL    HW216248   0.398   0.120   6.055
 5117SOL     OW16249   2.314   4.301   4.719
 5117SOL    HW116250   2.326   4.205   4.743
 5117SOL    HW216251   2.224   4.315   4.679
 5118SOL     OW16252   5.008   0.198   0.124
 5118SOL    HW116253   5.061   0.246   0.054
 5118SOL    HW216254   4.930   0.152   0.082
 5119SOL     OW16255   5.000   0.948   2.055
 5119SOL    HW116256   4.958   1.000   2.130
 5119SOL    HW216257   5.063   1.008   2.005
 5120SOL     OW16258   3.857   0.466   4.141
 5120SOL    HW116259   3.864   0.476   4.042
 5120SOL    HW216260   3.887   0.375   4.168
 5121SOL     OW16261   2.657   2.252   6.521
 5121SOL    HW116262   2.657   2.189   6.444
 5121SOL    HW216263   2.580   2.314   6.515
 5122SOL     OW16264   3.238   6.590   3.472
 5122SOL    HW116265   3.264   6.600   3.376
 5122SOL    HW216266   3.298   6.524   3.516
 5123SOL     OW16267   3.963   2.127   4.625
 5123SOL    HW116268   4.000   2.143   4.534
 5123SOL    HW216269   3.865   2.146   4.627
 5124SOL     OW16270   2.357   5.445   4.637
 5124SOL    HW116271   2.308   5.511   4.693
 5124SOL    HW216272   2.357   5.355   4.681
 5125SOL     OW16273   5.859   3.787   4.321
 5125SOL    HW116274   5.955   3.763   4.306
 5125SOL    HW216275   5.835   3.865   4.263
 5126SOL     OW16276   6.180   4.943   5.304
 5126SOL    HW116277   6.177   5.042   5.318
 5126SOL    HW216278   6.261   4.905   5.349
 5127SOL     OW16279   1.587   4.321   6.736
 5127SOL    HW116280   1.597   4.278   6.646
 5127SOL    HW216281   1.498   4.297   6.775
 5128SOL     OW16282   6.944   0.596   6.586
 5128SOL    HW116283   6.889   0.533   6.531
 5128SOL    HW216284   6.998   0.654   6.526
 5129SOL     OW16285   5.627   6.865   2.755
 5129SOL    HW116286   5.656   6.952   2.794
 5129SOL    HW216287   5.707   6.807   2.738
 5130SOL     OW16288   0.612   6.014   3.516
 5130SOL    HW116289   0.680   6.082   3.489
 5130SOL    HW216290   0.544   6.004   3.443
 5131SOL     OW16291   2.552   4.868   3.761
 5131SOL    HW116292   2.558   4.928   3.841
 5131SOL    HW216293   2.641   4.865   3.715
 5132SOL     OW16294   3.211   2.574   6.189
 5132SOL    HW116295   3.132   2.592   6.130
 5132SOL    HW216296   3.280   2.646   6.176
 5133SOL     OW16297   1.685   5.549   6.965
 5133SOL    HW116298   1.624   5.572   6.889
 5133SOL    HW216299   1.714   5.454   6.956
 5134SOL     OW16300   6.683   2.604   2.171
 5134SOL    HW116301   6.651   2.662   2.246
 5134SOL    HW216302   6.767   2.641   2.133
 5135SOL     OW16303   5.731   3.404   4.164
 5135SOL    HW116304   5.709   3.464   4.242
 5135SOL    HW216305   5.652   3.344   4.145
 5136SOL     OW16306   5.102   0.391   6.944
 5136SOL    HW116307   5.183   0.442   6.974
 5136SOL    HW216308   5.085   0.411   6.847
 5137SOL     OW16309   5.245   3.807   5.751
 5137SOL    HW116310   5.176   3.858   5.699
 5137SOL    HW216311   5.293   3.870   5.813
 5138SOL     OW16312   4.101   2.870   5.535
 5138SOL    HW116313   4.062   2.789   5.580
 5138SOL    HW216314   4.083   2.866   5.437
 5139SOL     OW16315   1.104   1.269   3.492
 5139SOL    HW116316   1.198   1.268   3.528
 5139SOL    HW216317   1.099   1.334   3.416
 5140SOL     OW16318   3.955   2.715   6.092
 5140SOL    HW116319   3.912   2.787   6.037
 5140SOL    HW216320   4.053   2.733   6.101
 5141SOL     OW16321   6.249   3.936   0.746
 5141SOL    HW116322   6.268   3.867   0.675
 5141SOL    HW216323   6.308   4.015   0.733
 5142SOL     OW16324   6.190   6.677   2.472
 5142SOL    HW116325   6.279   6.699   2.432
 5142SOL    HW216326   6.137   6.761   2.486
 5143SOL     OW16327   6.439   4.682   4.315
 5143SOL    HW116328   6.482   4.697   4.226
 5143SOL    HW216329   6.478   4.746   4.382
 5144SOL     OW16330   0.803   4.518   5.805
 5144SOL    HW116331   0.801   4.500   5.706
 5144SOL    HW216332   0.880   4.578   5.826
 5145SOL     OW16333   3.536   5.837   5.421
 5145SOL    HW116334   3.516   5.755   5.367
 5145SOL    HW216335   3.454   5.866   5.470
 5146SOL     OW16336   3.192   4.178   5.690
 5146SOL    HW116337   3.168   4.268   5.727
 5146SOL    HW216338   3.184   4.179   5.591
 5147SOL     OW16339   6.526   5.271   2.857
 5147SOL    HW116340   6.585   5.245   2.934
 5147SOL    HW216341   6.451   5.206   2.850
 5148SOL     OW16342   6.479   0.147   1.787
 5148SOL    HW116343   6.418   0.159   1.708
 5148SOL    HW216344   6.424   0.146   1.870
 5149SOL     OW16345   6.500   5.816   3.153
 5149SOL    HW116346   6.465   5.769   3.072
 5149SOL    HW216347   6.516   5.913   3.131
 5150SOL     OW16348   2.251   5.772   3.308
 5150SOL    HW116349   2.260   5.799   3.404
 5150SOL    HW216350   2.235   5.853   3.252
 5151SOL     OW16351   6.799   3.314   1.943
 5151SOL    HW116352   6.729   3.243   1.942
 5151SOL    HW216353   6.781   3.380   1.870
 5152SOL     OW16354   1.817   4.883   6.961
 5152SOL    HW116355   1.768   4.903   0.028
 5152SOL    HW216356   1.795   4.790   6.931
 5153SOL     OW16357   1.455   1.244   6.968
 5153SOL    HW116358   1.507   1.266   0.032
 5153SOL    HW216359   1.505   1.275   6.887
 5154SOL     OW16360   1.157   2.427   6.175
 5154SOL    HW116361   1.130   2.346   6.228
 5154SOL    HW216362   1.123   2.418   6.081
 5155SOL     OW16363   4.221   0.590   2.394
 5155SOL    HW116364   4.318   0.596   2.420
 5155SOL    HW216365   4.211   0.619   2.299
 5156SOL     OW16366   5.548   4.077   6.311
 5156SOL    HW116367   5.480   4.015   6.272
 5156SOL    HW216368   5.537   4.079   6.411
 5157SOL     OW16369   3.876   2.094   2.996
 5157SOL    HW116370   3.881   1.998   2.969
 5157SOL    HW216371   3.959   2.141   2.966
 5158SOL     OW16372   3.371   1.472   1.482
 5158SOL    HW116373   3.393   1.496   1.388
 5158SOL    HW216374   3.388   1.375   1.497
 5159SOL     OW16375   5.791   3.801   5.374
 5159SOL    HW116376   5.738   3.885   5.375
 5159SOL    HW216377   5.816   3.779   5.279
 5160SOL     OW16378   0.385   4.722   3.368
 5160SOL    HW116379   0.329   4.754   3.445
 5160SOL    HW216380   0.325   4.700   3.291
 5161SOL     OW16381   1.885   3.408   5.847
 5161SOL    HW116382   1.871   3.437   5.752
 5161SOL    HW216383   1.901   3.309   5.849
 5162SOL     OW16384   0.608   4.741   2.541
 5162SOL    HW116385   0.511   4.721   2.556
 5162SOL    HW216386   0.620   4.839   2.529
 5163SOL     OW16387   3.137   6.235   6.968
 5163SOL    HW116388   3.051   6.285   6.981
 5163SOL    HW216389   3.214   6.292   6.997
 5164SOL     OW16390   4.360   2.555   6.609
 5164SOL    HW116391   4.453   2.592   6.610
 5164SOL    HW216392   4.318   2.575   6.520
 5165SOL     OW16393   6.554   3.956   5.793
 5165SOL    HW116394   6.637   4.010   5.808
 5165SOL    HW216395   6.558   3.913   5.704
 5166SOL     OW16396   0.650   5.479   1.963
 5166SOL    HW116397   0.597   5.439   1.888
 5166SOL    HW216398   0.698   5.406   2.012
 5167SOL     OW16399   6.732   5.889   5.651
 5167SOL    HW116400   6.812   5.935   5.690
 5167SOL    HW216401   6.650   5.944   5.668
 5168SOL     OW16402   4.953   3.419   2.086
 5168SOL    HW116403   4.895   3.494   2.053
 5168SOL    HW216404   4.958   3.348   2.017
 5169SOL     OW16405   3.973   2.179   4.150
 5169SOL    HW116406   3.981   2.212   4.244
 5169SOL    HW216407   3.921   2.093   4.150
 5170SOL     OW16408   0.295   4.420   5.068
 5170SOL    HW116409   0.302   4.348   4.998
 5170SOL    HW216410   0.352   4.396   5.146
 5171SOL     OW16411   0.805   5.023   5.284
 5171SOL    HW116412   0.719   5.073   5.291
 5171SOL    HW216413   0.813   4.960   5.362
 5172SOL     OW16414   1.123   2.621   2.343
 5172SOL    HW116415   1.178   2.548   2.301
 5172SOL    HW216416   1.084   2.588   2.428
 5173SOL     OW16417   5.148   5.021   5.144
 5173SOL    HW116418   5.199   5.072   5.214
 5173SOL    HW216419   5.154   5.070   5.057
 5174SOL     OW16420   2.022   4.746   3.365
 5174SOL    HW116421   1.953   4.757   3.436
 5174SOL    HW216422   2.098   4.809   3.383
 5175SOL     OW16423   2.811   3.416   6.734
 5175SOL    HW116424   2.752   3.368   6.799
 5175SOL    HW216425   2.760   3.490   6.690
 5176SOL     OW16426   4.931   3.565   6.826
 5176SOL    HW116427   4.875   3.527   6.753
 5176SOL    HW216428   4.916   3.513   6.910
 5177SOL     OW16429   5.725   0.445   0.458
 5177SOL    HW116430   5.815   0.454   0.498
 5177SOL    HW216431   5.711   0.518   0.390
 5178SOL     OW16432   1.080   3.597   2.101
 5178SOL    HW116433   1.098   3.499   2.091
 5178SOL    HW216434   1.033   3.631   2.020
 5179SOL     OW16435   4.149   5.082   3.807
 5179SOL    HW116436   4.116   4.988   3.819
 5179SOL    HW216437   4.151   5.104   3.710
 5180SOL     OW16438   2.436   2.063   0.869
 5180SOL    HW116439   2.495   2.061   0.950
 5180SOL    HW216440   2.376   1.983   0.870
 5181SOL     OW16441   5.695   1.219   2.566
 5181SOL    HW116442   5.617   1.217   2.503
 5181SOL    HW216443   5.661   1.225   2.660
 5182SOL     OW16444   3.898   4.167   1.556
 5182SOL    HW116445   3.975   4.116   1.594
 5182SOL    HW216446   3.867   4.122   1.471
 5183SOL     OW16447   3.751   1.827   2.364
 5183SOL    HW116448   3.736   1.781   2.452
 5183SOL    HW216449   3.751   1.760   2.290
 5184SOL     OW16450   0.156   1.665   4.864
 5184SOL    HW116451   0.083   1.613   4.820
 5184SOL    HW216452   0.163   1.637   4.960
 5185SOL     OW16453   6.164   0.842   2.685
 5185SOL    HW116454   6.238   0.897   2.724
 5185SOL    HW216455   6.197   0.750   2.667
 5186SOL     OW16456   6.687   2.277   0.894
 5186SOL    HW116457   6.766   2.337   0.888
 5186SOL    HW216458   6.623   2.313   0.962
 5187SOL     OW16459   0.905   6.700   4.075
 5187SOL    HW116460   0.923   6.634   4.148
 5187SOL    HW216461   0.964   6.780   4.086
 5188SOL     OW16462   0.765   5.638   1.203
 5188SOL    HW116463   0.822   5.567   1.161
 5188SOL    HW216464   0.755   5.620   1.301
 5189SOL     OW16465   3.653   4.980   1.036
 5189SOL    HW116466   3.621   5.074   1.046
 5189SOL    HW216467   3.578   4.916   1.054
 5190SOL     OW16468   0.638   1.931   4.380
 5190SOL    HW116469   0.636   2.024   4.416
 5190SOL    HW216470   0.588   1.870   4.441
 5191SOL     OW16471   4.100   0.126   1.829
 5191SOL    HW116472   4.087   0.140   1.731
 5191SOL    HW216473   4.179   0.179   1.860
 5192SOL     OW16474   2.670   5.910   2.152
 5192SOL    HW116475   2.696   6.003   2.126
 5192SOL    HW216476   2.744   5.847   2.130
 5193SOL     OW16477   4.839   4.495   4.461
 5193SOL    HW116478   4.815   4.591   4.475
 5193SOL    HW216479   4.938   4.485   4.460
 5194SOL     OW16480   4.501   1.919   0.029
 5194SOL    HW116481   4.565   1.856   0.073
 5194SOL    HW216482   4.412   1.873   0.017
 5195SOL     OW16483   0.056   6.313   4.147
 5195SOL    HW116484   0.015   6.299   4.237
 5195SOL    HW216485   0.115   6.393   4.150
 5196SOL     OW16486   3.919   5.629   1.225
 5196SOL    HW116487   3.939   5.637   1.127
 5196SOL    HW216488   3.864   5.547   1.241
 5197SOL     OW16489   2.014   5.152   5.540
 5197SOL    HW116490   2.053   5.103   5.462
 5197SOL    HW216491   2.022   5.250   5.525
 5198SOL     OW16492   4.886   6.854   3.455
 5198SOL    HW116493   4.829   6.867   3.536
 5198SOL    HW216494   4.829   6.831   3.376
 5199SOL     OW16495   1.859   6.026   0.676
 5199SOL    HW116496   1.849   6.117   0.715
 5199SOL    HW216497   1.872   5.959   0.749
 5200SOL     OW16498   0.896   2.677   5.421
 5200SOL    HW116499   0.888   2.756   5.360
 5200SOL    HW216500   0.923   2.596   5.368
 5201SOL     OW16501   0.377   6.904   3.206
 5201SOL    HW116502   0.302   6.961   3.241
 5201SOL    HW216503   0.464   6.940   3.239
 5202SOL     OW16504   6.332   3.801   5.830
 5202SOL    HW116505   6.366   3.753   5.911
 5202SOL    HW216506   6.403   3.862   5.796
 5203SOL     OW16507   2.179   1.399   6.673
 5203SOL    HW116508   2.243   1.463   6.715
 5203SOL    HW216509   2.159   1.428   6.579
 5204SOL     OW16510   4.164   5.944   6.877
 5204SOL    HW116511   4.187   5.848   6.893
 5204SOL    HW216512   4.098   5.949   6.801
 5205SOL     OW16513   0.838   5.849   1.043
 5205SOL    HW116514   0.875   5.922   1.101
 5205SOL    HW216515   0.824   5.767   1.098
 5206SOL     OW16516   1.035   4.769   6.293
 5206SOL    HW116517   0.990   4.854   6.319
 5206SOL    HW216518   1.058   4.717   6.375
 5207SOL     OW16519   1.117   6.260   3.960
 5207SOL    HW116520   1.153   6.338   3.909
 5207SOL    HW216521   1.053   6.208   3.903
 5208SOL     OW16522   4.833   2.838   6.205
 5208SOL    HW116523   4.797   2.895   6.132
 5208SOL    HW216524   4.838   2.743   6.174
 5209SOL     OW16525   5.535   6.540   2.245
 5209SOL    HW116526   5.597   6.534   2.167
 5209SOL    HW216527   5.589   6.548   2.329
 5210SOL     OW16528   4.545   3.059   6.846
 5210SOL    HW116529   4.522   3.019   6.757
 5210SOL    HW216530   4.597   2.993   6.900
 5211SOL     OW16531   3.643   2.421   5.413
 5211SOL    HW116532   3.575   2.353   5.384
 5211SOL    HW216533   3.722   2.375   5.453
 5212SOL     OW16534   0.117   2.866   0.821
 5212SOL    HW116535   0.068   2.789   0.779
 5212SOL    HW216536   0.143   2.932   0.750
 5213SOL     OW16537   4.738   3.933   6.362
 5213SOL    HW116538   4.708   3.956   6.270
 5213SOL    HW216539   4.695   3.848   6.391
 5214SOL     OW16540   5.276   1.967   6.077
 5214SOL    HW116541   5.242   1.873   6.078
 5214SOL    HW216542   5.283   1.998   5.983
 5215SOL     OW16543   0.188   4.603   4.026
 5215SOL    HW116544   0.279   4.616   4.065
 5215SOL    HW216545   0.120   4.601   4.099
 5216SOL     OW16546   4.857   4.816   2.326
 5216SOL    HW116547   4.953   4.827   2.352
 5216SOL    HW216548   4.846   4.842   2.230
 5217SOL     OW16549   4.402   5.126   3.901
 5217SOL    HW116550   4.444   5.036   3.915
 5217SOL    HW216551   4.304   5.116   3.886
 5218SOL     OW16552   1.125   0.747   2.372
 5218SOL    HW116553   1.184   0.779   2.445
 5218SOL    HW216554   1.107   0.649   2.384
 5219SOL     OW16555   4.390   1.425   4.826
 5219SOL    HW116556   4.310   1.372   4.854
 5219SOL    HW216557   4.428   1.471   4.907
 5220SOL     OW16558   0.971   6.012   2.562
 5220SOL    HW116559   1.056   5.960   2.562
 5220SOL    HW216560   0.917   5.987   2.643
 5221SOL     OW16561   5.448   2.134   3.765
 5221SOL    HW116562   5.499   2.050   3.743
 5221SOL    HW216563   5.397   2.120   3.850
 5222SOL     OW16564   4.023   6.336   3.419
 5222SOL    HW116565   3.982   6.382   3.497
 5222SOL    HW216566   3.987   6.243   3.413
 5223SOL     OW16567   6.236   2.609   0.766
 5223SOL    HW116568   6.220   2.546   0.689
 5223SOL    HW216569   6.169   2.683   0.763
 5224SOL     OW16570   6.752   2.432   4.532
 5224SOL    HW116571   6.658   2.456   4.556
 5224SOL    HW216572   6.812   2.452   4.610
 5225SOL     OW16573   0.330   0.583   3.502
 5225SOL    HW116574   0.255   0.540   3.452
 5225SOL    HW216575   0.306   0.591   3.598
 5226SOL     OW16576   6.801   6.204   5.172
 5226SOL    HW116577   6.735   6.142   5.215
 5226SOL    HW216578   6.774   6.299   5.190
 5227SOL     OW16579   0.360   3.690   5.206
 5227SOL    HW116580   0.341   3.604   5.159
 5227SOL    HW216581   0.332   3.683   5.301
 5228SOL     OW16582   6.242   2.282   1.168
 5228SOL    HW116583   6.145   2.304   1.156
 5228SOL    HW216584   6.298   2.349   1.120
 5229SOL     OW16585   1.740   6.178   6.949
 5229SOL    HW116586   1.660   6.238   6.940
 5229SOL    HW216587   1.823   6.233   6.953
 5230SOL     OW16588   0.856   5.418   1.780
 5230SOL    HW116589   0.780   5.467   1.824
 5230SOL    HW216590   0.934   5.479   1.771
 5231SOL     OW16591   4.632   2.629   4.689
 5231SOL    HW116592   4.666   2.703   4.630
 5231SOL    HW216593   4.636   2.659   4.785
 5232SOL     OW16594   2.831   3.354   6.176
 5232SOL    HW116595   2.919   3.307   6.168
 5232SOL    HW216596   2.805   3.392   6.087
 5233SOL     OW16597   5.061   1.198   2.355
 5233SOL    HW116598   4.985   1.263   2.348
 5233SOL    HW216599   5.108   1.211   2.442
 5234SOL     OW16600   2.974   1.463   5.944
 5234SOL    HW116601   2.943   1.369   5.954
 5234SOL    HW216602   3.025   1.473   5.858
 5235SOL     OW16603   1.788   2.183   1.056
 5235SOL    HW116604   1.714   2.157   0.994
 5235SOL    HW216605   1.857   2.236   1.005
 5236SOL     OW16606   5.249   4.919   2.239
 5236SOL    HW116607   5.319   4.859   2.200
 5236SOL    HW216608   5.198   4.963   2.165
 5237SOL     OW16609   1.776   1.066   4.794
 5237SOL    HW116610   1.814   1.007   4.724
 5237SOL    HW216611   1.850   1.112   4.843
 5238SOL     OW16612   0.508   4.842   6.795
 5238SOL    HW116613   0.458   4.919   6.754
 5238SOL    HW216614   0.546   4.785   6.722
 5239SOL     OW16615   3.587   3.068   4.499
 5239SOL    HW116616   3.564   2.987   4.554
 5239SOL    HW216617   3.616   3.038   4.408
 5240SOL     OW16618   2.936   1.791   5.700
 5240SOL    HW116619   2.983   1.874   5.731
 5240SOL    HW216620   2.851   1.815   5.653
 5241SOL     OW16621   0.334   5.409   4.770
 5241SOL    HW116622   0.333   5.494   4.823
 5241SOL    HW216623   0.360   5.428   4.676
 5242SOL     OW16624   6.835   6.147   6.355
 5242SOL    HW116625   6.905   6.177   6.290
 5242SOL    HW216626   6.863   6.060   6.395
 5243SOL     OW16627   1.073   5.163   1.122
 5243SOL    HW116628   1.098   5.068   1.107
 5243SOL    HW216629   1.141   5.223   1.080
 5244SOL     OW16630   3.490   5.375   6.834
 5244SOL    HW116631   3.399   5.337   6.823
 5244SOL    HW216632   3.507   5.393   6.931
 5245SOL     OW16633   3.939   4.691   0.046
 5245SOL    HW116634   3.873   4.725   0.112
 5245SOL    HW216635   3.913   4.719   6.972
 5246SOL     OW16636   5.812   4.087   1.949
 5246SOL    HW116637   5.743   4.128   1.890
 5246SOL    HW216638   5.893   4.066   1.895
 5247SOL     OW16639   1.784   0.835   6.902
 5247SOL    HW116640   1.780   0.880   6.813
 5247SOL    HW216641   1.776   0.736   6.890
 5248SOL     OW16642   5.837   1.390   3.257
 5248SOL    HW116643   5.835   1.387   3.157
 5248SOL    HW216644   5.744   1.388   3.292
 5249SOL     OW16645   0.048   4.967   5.686
 5249SOL    HW116646   7.008   5.011   5.755
 5249SOL    HW216647   7.013   4.896   5.639
 5250SOL     OW16648   1.837   6.168   5.851
 5250SOL    HW116649   1.929   6.140   5.823
 5250SOL    HW216650   1.815   6.125   5.939
 5251SOL     OW16651   0.389   3.606   7.010
 5251SOL    HW116652   0.383   3.657   6.924
 5251SOL    HW216653   0.388   3.670   0.069
 5252SOL     OW16654   1.622   6.556   0.507
 5252SOL    HW116655   1.565   6.488   0.552
 5252SOL    HW216656   1.594   6.648   0.536
 5253SOL     OW16657   5.576   4.670   4.672
 5253SOL    HW116658   5.585   4.617   4.587
 5253SOL    HW216659   5.506   4.628   4.730
 5254SOL     OW16660   4.390   1.302   3.083
 5254SOL    HW116661   4.409   1.244   3.004
 5254SOL    HW216662   4.372   1.396   3.051
 5255SOL     OW16663   5.669   0.917   5.775
 5255SOL    HW116664   5.726   0.846   5.817
 5255SOL    HW216665   5.635   0.980   5.845
 5256SOL     OW16666   4.191   1.541   3.713
 5256SOL    HW116667   4.287   1.566   3.697
 5256SOL    HW216668   4.133   1.586   3.645
 5257SOL     OW16669   5.730   6.525   2.031
 5257SOL    HW116670   5.693   6.511   1.939
 5257SOL    HW216671   5.771   6.615   2.037
 5258SOL     OW16672   5.756   3.744   1.810
 5258SOL    HW116673   5.794   3.776   1.896
 5258SOL    HW216674   5.829   3.702   1.755
 5259SOL     OW16675   5.885   6.197   1.744
 5259SOL    HW116676   5.970   6.151   1.771
 5259SOL    HW216677   5.807   6.143   1.776
 5260SOL     OW16678   5.040   3.526   1.092
 5260SOL    HW116679   5.036   3.588   1.171
 5260SOL    HW216680   4.949   3.487   1.076
 5261SOL     OW16681   0.937   4.199   0.010
 5261SOL    HW116682   1.014   4.153   6.985
 5261SOL    HW216683   0.889   4.134   0.070
 5262SOL     OW16684   2.731   1.102   2.577
 5262SOL    HW116685   2.805   1.078   2.515
 5262SOL    HW216686   2.768   1.121   2.668
 5263SOL     OW16687   1.511   1.795   4.456
 5263SOL    HW116688   1.415   1.773   4.473
 5263SOL    HW216689   1.559   1.714   4.422
 5264SOL     OW16690   6.119   2.662   3.024
 5264SOL    HW116691   6.114   2.562   3.028
 5264SOL    HW216692   6.103   2.693   2.931
 5265SOL     OW16693   6.260   4.127   4.149
 5265SOL    HW116694   6.330   4.086   4.208
 5265SOL    HW216695   6.184   4.159   4.205
 5266SOL     OW16696   2.413   5.691   0.489
 5266SOL    HW116697   2.496   5.718   0.538
 5266SOL    HW216698   2.391   5.759   0.419
 5267SOL     OW16699   4.994   3.562   4.827
 5267SOL    HW116700   4.919   3.552   4.893
 5267SOL    HW216701   5.041   3.649   4.842
 5268SOL     OW16702   5.700   0.143   6.807
 5268SOL    HW116703   5.776   0.079   6.807
 5268SOL    HW216704   5.615   0.094   6.825
 5269SOL     OW16705   1.120   6.863   3.672
 5269SOL    HW116706   1.037   6.807   3.673
 5269SOL    HW216707   1.154   6.874   3.765
 5270SOL     OW16708   5.958   1.463   1.118
 5270SOL    HW116709   5.885   1.478   1.184
 5270SOL    HW216710   6.022   1.394   1.153
 5271SOL     OW16711   5.908   5.584   4.683
 5271SOL    HW116712   6.005   5.603   4.669
 5271SOL    HW216713   5.857   5.614   4.602
 5272SOL     OW16714   2.860   5.357   2.226
 5272SOL    HW116715   2.918   5.293   2.276
 5272SOL    HW216716   2.899   5.449   2.232
 5273SOL     OW16717   6.904   2.848   3.844
 5273SOL    HW116718   6.849   2.926   3.872
 5273SOL    HW216719   6.998   2.878   3.827
 5274SOL     OW16720   6.607   6.957   2.630
 5274SOL    HW116721   6.600   6.862   2.659
 5274SOL    HW216722   6.531   6.980   2.570
 5275SOL     OW16723   3.556   2.091   0.795
 5275SOL    HW116724   3.547   2.189   0.809
 5275SOL    HW216725   3.465   2.051   0.781
 5276SOL     OW16726   1.769   0.291   0.585
 5276SOL    HW116727   1.682   0.341   0.586
 5276SOL    HW216728   1.751   0.193   0.591
 5277SOL     OW16729   1.291   1.744   2.762
 5277SOL    HW116730   1.227   1.670   2.740
 5277SOL    HW216731   1.245   1.832   2.750
 5278SOL     OW16732   5.687   0.290   3.307
 5278SOL    HW116733   5.593   0.285   3.341
 5278SOL    HW216734   5.714   0.200   3.272
 5279SOL     OW16735   2.022   5.094   5.986
 5279SOL    HW116736   2.119   5.090   5.965
 5279SOL    HW216737   2.009   5.135   6.077
 5280SOL     OW16738   2.610   6.087   4.764
 5280SOL    HW116739   2.581   6.182   4.765
 5280SOL    HW216740   2.558   6.035   4.831
 5281SOL     OW16741   0.742   1.310   2.256
 5281SOL    HW116742   0.723   1.226   2.205
 5281SOL    HW216743   0.822   1.355   2.217
 5282SOL     OW16744   2.341   2.303   3.162
 5282SOL    HW116745   2.283   2.363   3.108
 5282SOL    HW216746   2.433   2.342   3.168
 5283SOL     OW16747   4.226   6.463   1.572
 5283SOL    HW116748   4.263   6.496   1.659
 5283SOL    HW216749   4.271   6.511   1.496
 5284SOL     OW16750   5.004   3.827   3.439
 5284SOL    HW116751   4.936   3.758   3.416
 5284SOL    HW216752   5.059   3.848   3.359
 5285SOL     OW16753   2.520   4.880   3.461
 5285SOL    HW116754   2.536   4.899   3.558
 5285SOL    HW216755   2.423   4.891   3.441
 5286SOL     OW16756   1.358   4.165   0.555
 5286SOL    HW116757   1.314   4.093   0.502
 5286SOL    HW216758   1.458   4.157   0.544
 5287SOL     OW16759   2.681   6.238   1.251
 5287SOL    HW116760   2.743   6.253   1.173
 5287SOL    HW216761   2.614   6.168   1.228
 5288SOL     OW16762   4.029   0.310   1.403
 5288SOL    HW116763   4.060   0.344   1.492
 5288SOL    HW216764   3.960   0.372   1.366
 5289SOL     OW16765   1.676   4.229   6.128
 5289SOL    HW116766   1.634   4.260   6.043
 5289SOL    HW216767   1.738   4.152   6.109
 5290SOL     OW16768   1.458   5.177   5.396
 5290SOL    HW116769   1.452   5.106   5.466
 5290SOL    HW216770   1.549   5.175   5.354
 5291SOL     OW16771   2.495   5.395   5.792
 5291SOL    HW116772   2.420   5.458   5.816
 5291SOL    HW216773   2.468   5.341   5.712
 5292SOL     OW16774   6.566   3.339   0.006
 5292SOL    HW116775   6.490   3.403   0.009
 5292SOL    HW216776   6.601   3.325   0.099
 5293SOL     OW16777   0.990   0.167   4.659
 5293SOL    HW116778   0.943   0.167   4.570
 5293SOL    HW216779   1.028   0.077   4.677
 5294SOL     OW16780   4.561   3.507   5.620
 5294SOL    HW116781   4.557   3.473   5.714
 5294SOL    HW216782   4.522   3.599   5.616
 5295SOL     OW16783   5.367   0.200   2.453
 5295SOL    HW116784   5.443   0.194   2.518
 5295SOL    HW216785   5.362   0.293   2.417
 5296SOL     OW16786   2.272   5.253   0.480
 5296SOL    HW116787   2.332   5.323   0.520
 5296SOL    HW216788   2.327   5.173   0.455
 5297SOL     OW16789   3.387   2.356   1.087
 5297SOL    HW116790   3.311   2.291   1.093
 5297SOL    HW216791   3.387   2.414   1.169
 5298SOL     OW16792   0.915   5.486   0.026
 5298SOL    HW116793   0.908   5.465   6.946
 5298SOL    HW216794   1.009   5.511   0.049
 5299SOL     OW16795   2.377   2.390   1.539
 5299SOL    HW116796   2.426   2.351   1.618
 5299SOL    HW216797   2.354   2.316   1.476
 5300SOL     OW16798   0.152   6.116   1.732
 5300SOL    HW116799   0.058   6.126   1.697
 5300SOL    HW216800   0.192   6.032   1.695
 5301SOL     OW16801   4.560   2.910   0.772
 5301SOL    HW116802   4.555   2.888   0.869
 5301SOL    HW216803   4.557   3.009   0.760
 5302SOL     OW16804   6.341   4.184   2.679
 5302SOL    HW116805   6.418   4.139   2.725
 5302SOL    HW216806   6.325   4.140   2.591
 5303SOL     OW16807   6.708   5.870   2.974
 5303SOL    HW116808   6.737   5.957   2.933
 5303SOL    HW216809   6.619   5.845   2.938
 5304SOL     OW16810   6.796   1.853   5.963
 5304SOL    HW116811   6.756   1.913   5.894
 5304SOL    HW216812   6.895   1.847   5.948
 5305SOL     OW16813   1.216   6.067   4.306
 5305SOL    HW116814   1.250   5.995   4.245
 5305SOL    HW216815   1.283   6.141   4.311
 5306SOL     OW16816   0.335   5.999   5.310
 5306SOL    HW116817   0.414   6.038   5.262
 5306SOL    HW216818   0.257   6.061   5.300
 5307SOL     OW16819   4.449   0.353   6.631
 5307SOL    HW116820   4.382   0.382   6.699
 5307SOL    HW216821   4.429   0.396   6.543
 5308SOL     OW16822   0.981   6.263   4.236
 5308SOL    HW116823   1.008   6.272   4.141
 5308SOL    HW216824   1.049   6.210   4.286
 5309SOL     OW16825   3.205   4.023   2.365
 5309SOL    HW116826   3.170   4.066   2.282
 5309SOL    HW216827   3.137   3.960   2.401
 5310SOL     OW16828   5.572   2.745   1.896
 5310SOL    HW116829   5.487   2.751   1.844
 5310SOL    HW216830   5.618   2.834   1.896
 5311SOL     OW16831   0.258   5.838   1.035
 5311SOL    HW116832   0.232   5.933   1.017
 5311SOL    HW216833   0.175   5.782   1.039
 5312SOL     OW16834   0.268   4.191   2.133
 5312SOL    HW116835   0.289   4.167   2.227
 5312SOL    HW216836   0.291   4.287   2.117
 5313SOL     OW16837   1.196   4.764   7.001
 5313SOL    HW116838   1.119   4.713   6.964
 5313SOL    HW216839   1.280   4.739   6.953
 5314SOL     OW16840   3.288   5.278   0.105
 5314SOL    HW116841   3.228   5.228   0.042
 5314SOL    HW216842   3.250   5.369   0.122
 5315SOL     OW16843   3.878   3.841   1.601
 5315SOL    HW116844   3.967   3.884   1.619
 5315SOL    HW216845   3.887   3.778   1.525
 5316SOL     OW16846   6.715   4.687   4.696
 5316SOL    HW116847   6.755   4.640   4.775
 5316SOL    HW216848   6.662   4.621   4.642
 5317SOL     OW16849   0.035   0.606   5.030
 5317SOL    HW116850   0.024   0.572   4.937
 5317SOL    HW216851   6.987   0.679   5.047
 5318SOL     OW16852   0.343   1.509   5.754
 5318SOL    HW116853   0.284   1.551   5.823
 5318SOL    HW216854   0.323   1.549   5.664
 5319SOL     OW16855   4.537   6.342   6.648
 5319SOL    HW116856   4.484   6.282   6.708
 5319SOL    HW216857   4.614   6.291   6.609
 5320SOL     OW16858   5.678   5.249   6.713
 5320SOL    HW116859   5.669   5.208   6.803
 5320SOL    HW216860   5.595   5.232   6.660
 5321SOL     OW16861   0.802   4.064   3.026
 5321SOL    HW116862   0.833   4.129   3.095
 5321SOL    HW216863   0.843   4.088   2.938
 5322SOL     OW16864   3.891   5.976   6.171
 5322SOL    HW116865   3.874   6.040   6.097
 5322SOL    HW216866   3.881   5.882   6.138
 5323SOL     OW16867   4.147   3.550   0.712
 5323SOL    HW116868   4.146   3.451   0.720
 5323SOL    HW216869   4.157   3.590   0.803
 5324SOL     OW16870   3.506   2.558   1.729
 5324SOL    HW116871   3.582   2.619   1.706
 5324SOL    HW216872   3.541   2.467   1.750
 5325SOL     OW16873   5.574   6.802   3.646
 5325SOL    HW116874   5.488   6.760   3.615
 5325SOL    HW216875   5.559   6.849   3.732
 5326SOL     OW16876   0.083   5.202   3.342
 5326SOL    HW116877   0.116   5.296   3.334
 5326SOL    HW216878   0.154   5.138   3.313
 5327SOL     OW16879   6.341   5.241   5.356
 5327SOL    HW116880   6.373   5.332   5.381
 5327SOL    HW216881   6.245   5.246   5.327
 5328SOL     OW16882   4.825   2.396   5.281
 5328SOL    HW116883   4.816   2.349   5.193
 5328SOL    HW216884   4.884   2.476   5.269
 5329SOL     OW16885   0.724   3.947   0.069
 5329SOL    HW116886   0.647   3.893   0.106
 5329SOL    HW216887   0.778   3.983   0.145
 5330SOL     OW16888   3.668   4.492   6.729
 5330SOL    HW116889   3.639   4.515   6.822
 5330SOL    HW216890   3.610   4.419   6.693
 5331SOL     OW16891   5.464   1.364   1.746
 5331SOL    HW116892   5.501   1.401   1.661
 5331SOL    HW216893   5.539   1.341   1.808
 5332SOL     OW16894   6.622   4.423   0.542
 5332SOL    HW116895   6.682   4.367   0.599
 5332SOL    HW216896   6.624   4.387   0.448
 5333SOL     OW16897   0.993   0.901   3.955
 5333SOL    HW116898   1.086   0.892   3.920
 5333SOL    HW216899   0.936   0.948   3.888
 5334SOL     OW16900   3.809   5.058   5.486
 5334SOL    HW116901   3.842   5.150   5.506
 5334SOL    HW216902   3.716   5.048   5.522
 5335SOL     OW16903   0.197   4.734   2.328
 5335SOL    HW116904   0.153   4.789   2.257
 5335SOL    HW216905   0.197   4.638   2.301
 5336SOL     OW16906   2.017   2.072   3.660
 5336SOL    HW116907   1.945   2.020   3.706
 5336SOL    HW216908   1.975   2.143   3.603
 5337SOL     OW16909   5.451   4.348   1.965
 5337SOL    HW116910   5.499   4.412   1.904
 5337SOL    HW216911   5.467   4.254   1.935
 5338SOL     OW16912   5.997   1.354   6.136
 5338SOL    HW116913   5.970   1.347   6.233
 5338SOL    HW216914   5.917   1.379   6.081
 5339SOL     OW16915   5.302   1.591   3.015
 5339SOL    HW116916   5.279   1.618   2.921
 5339SOL    HW216917   5.233   1.627   3.078
 5340SOL     OW16918   5.968   4.322   1.166
 5340SOL    HW116919   5.977   4.416   1.200
 5340SOL    HW216920   5.986   4.257   1.240
 5341SOL     OW16921   3.099   4.832   5.067
 5341SOL    HW116922   3.005   4.864   5.068
 5341SOL    HW216923   3.123   4.793   5.156
 5342SOL     OW16924   5.274   6.694   4.854
 5342SOL    HW116925   5.305   6.638   4.931
 5342SOL    HW216926   5.353   6.724   4.801
 5343SOL     OW16927   4.032   3.269   4.864
 5343SOL    HW116928   3.978   3.212   4.926
 5343SOL    HW216929   4.025   3.234   4.771
 5344SOL     OW16930   0.727   1.735   0.695
 5344SOL    HW116931   0.672   1.673   0.640
 5344SOL    HW216932   0.667   1.803   0.738
 5345SOL     OW16933   5.235   6.913   0.092
 5345SOL    HW116934   5.163   6.943   0.153
 5345SOL    HW216935   5.291   6.844   0.137
 5346SOL     OW16936   3.191   5.968   3.786
 5346SOL    HW116937   3.115   5.937   3.843
 5346SOL    HW216938   3.272   5.913   3.805
 5347SOL     OW16939   0.204   3.899   2.833
 5347SOL    HW116940   0.196   3.800   2.827
 5347SOL    HW216941   0.242   3.925   2.922
 5348SOL     OW16942   0.154   1.354   6.681
 5348SOL    HW116943   0.140   1.442   6.636
 5348SOL    HW216944   0.092   1.286   6.643
 5349SOL     OW16945   2.569   3.631   0.606
 5349SOL    HW116946   2.500   3.689   0.564
 5349SOL    HW216947   2.659   3.653   0.569
 5350SOL     OW16948   2.337   0.206   5.177
 5350SOL    HW116949   2.311   0.270   5.104
 5350SOL    HW216950   2.380   0.125   5.137
 5351SOL     OW16951   0.221   5.888   1.895
 5351SOL    HW116952   0.129   5.925   1.903
 5351SOL    HW216953   0.225   5.823   1.819
 5352SOL     OW16954   2.000   4.895   3.091
 5352SOL    HW116955   1.902   4.908   3.108
 5352SOL    HW216956   2.019   4.797   3.082
 5353SOL     OW16957   3.788   6.294   3.969
 5353SOL    HW116958   3.733   6.280   4.051
 5353SOL    HW216959   3.873   6.243   3.976
 5354SOL     OW16960   1.895   4.499   0.772
 5354SOL    HW116961   1.993   4.509   0.786
 5354SOL    HW216962   1.877   4.429   0.703
 5355SOL     OW16963   5.926   4.975   3.995
 5355SOL    HW116964   5.909   4.880   3.968
 5355SOL    HW216965   6.024   4.993   3.996
 5356SOL     OW16966   6.718   3.621   2.737
 5356SOL    HW116967   6.785   3.547   2.748
 5356SOL    HW216968   6.654   3.598   2.665
 5357SOL     OW16969   3.620   4.888   0.755
 5357SOL    HW116970   3.712   4.895   0.716
 5357SOL    HW216971   3.615   4.943   0.838
 5358SOL     OW16972   4.340   2.553   1.097
 5358SOL    HW116973   4.242   2.559   1.117
 5358SOL    HW216974   4.353   2.532   1.000
 5359SOL     OW16975   2.443   1.456   6.479
 5359SOL    HW116976   2.352   1.449   6.439
 5359SOL    HW216977   2.505   1.392   6.433
 5360SOL     OW16978   4.817   6.068   3.622
 5360SOL    HW116979   4.880   6.001   3.660
 5360SOL    HW216980   4.736   6.074   3.679
 5361SOL     OW16981   2.196   6.718   4.115
 5361SOL    HW116982   2.296   6.708   4.116
 5361SOL    HW216983   2.169   6.766   4.032
 5362SOL     OW16984   6.816   5.898   2.547
 5362SOL    HW116985   6.740   5.959   2.567
 5362SOL    HW216986   6.846   5.853   2.632
 5363SOL     OW16987   5.859   5.929   5.797
 5363SOL    HW116988   5.829   5.843   5.757
 5363SOL    HW216989   5.879   5.915   5.894
 5364SOL     OW16990   6.159   6.545   1.732
 5364SOL    HW116991   6.181   6.631   1.778
 5364SOL    HW216992   6.238   6.517   1.677
 5365SOL     OW16993   2.923   3.358   2.195
 5365SOL    HW116994   3.001   3.299   2.213
 5365SOL    HW216995   2.889   3.342   2.102
 5366SOL     OW16996   6.764   6.491   1.673
 5366SOL    HW116997   6.815   6.565   1.631
 5366SOL    HW216998   6.729   6.430   1.602
 5367SOL     OW16999   0.364   0.017   1.605
 5367SOL    HW117000   0.322   7.015   1.693
 5367SOL    HW217001   0.318   0.096   1.563
 5368SOL     OW17002   6.376   6.964   2.501
 5368SOL    HW117003   6.405   6.894   2.436
 5368SOL    HW217004   6.276   6.967   2.504
 5369SOL     OW17005   2.495   6.588   0.804
 5369SOL    HW117006   2.538   6.513   0.854
 5369SOL    HW217007   2.476   6.559   0.710
 5370SOL     OW17008   4.290   3.900   0.936
 5370SOL    HW117009   4.318   3.899   0.840
 5370SOL    HW217010   4.233   3.820   0.956
 5371SOL     OW17011   0.453   4.820   5.178
 5371SOL    HW117012   0.415   4.838   5.088
 5371SOL    HW217013   0.497   4.903   5.213
 5372SOL     OW17014   0.968   6.337   2.888
 5372SOL    HW117015   0.946   6.397   2.811
 5372SOL    HW217016   1.062   6.305   2.879
 5373SOL     OW17017   4.208   6.578   5.449
 5373SOL    HW117018   4.192   6.608   5.543
 5373SOL    HW217019   4.171   6.486   5.437
 5374SOL     OW17020   2.607   5.031   0.754
 5374SOL    HW117021   2.567   4.941   0.772
 5374SOL    HW217022   2.534   5.097   0.739
 5375SOL     OW17023   0.149   5.626   5.758
 5375SOL    HW117024   0.074   5.672   5.806
 5375SOL    HW217025   0.234   5.639   5.809
 5376SOL     OW17026   1.160   2.474   1.788
 5376SOL    HW117027   1.119   2.557   1.828
 5376SOL    HW217028   1.102   2.440   1.715
 5377SOL     OW17029   1.048   0.097   2.608
 5377SOL    HW117030   0.991   0.015   2.620
 5377SOL    HW217031   0.995   0.168   2.561
 5378SOL     OW17032   0.096   6.923   2.589
 5378SOL    HW117033   0.047   6.933   2.675
 5378SOL    HW217034   0.030   6.914   2.514
 5379SOL     OW17035   1.051   3.607   4.866
 5379SOL    HW117036   1.048   3.549   4.947
 5379SOL    HW217037   1.128   3.580   4.808
 5380SOL     OW17038   3.075   6.847   1.446
 5380SOL    HW117039   3.093   6.880   1.538
 5380SOL    HW217040   3.027   6.760   1.450
 5381SOL     OW17041   6.952   5.923   1.873
 5381SOL    HW117042   6.928   5.830   1.845
 5381SOL    HW217043   6.869   5.978   1.879
 5382SOL     OW17044   2.997   2.085   2.034
 5382SOL    HW117045   2.949   2.173   2.031
 5382SOL    HW217046   3.066   2.088   2.106
 5383SOL     OW17047   1.595   3.053   4.733
 5383SOL    HW117048   1.540   3.108   4.670
 5383SOL    HW217049   1.536   3.016   4.805
 5384SOL     OW17050   4.990   6.283   4.688
 5384SOL    HW117051   5.022   6.376   4.670
 5384SOL    HW217052   4.900   6.270   4.646
 5385SOL     OW17053   4.755   3.080   5.276
 5385SOL    HW117054   4.676   3.057   5.333
 5385SOL    HW217055   4.819   3.136   5.329
 5386SOL     OW17056   5.401   1.812   3.895
 5386SOL    HW117057   5.480   1.863   3.862
 5386SOL    HW217058   5.335   1.801   3.821
 5387SOL     OW17059   2.539   6.395   2.917
 5387SOL    HW117060   2.560   6.310   2.965
 5387SOL    HW217061   2.574   6.472   2.970
 5388SOL     OW17062   1.191   0.248   2.465
 5388SOL    HW117063   1.240   0.214   2.385
 5388SOL    HW217064   1.158   0.171   2.520
 5389SOL     OW17065   3.610   1.347   4.108
 5389SOL    HW117066   3.515   1.354   4.078
 5389SOL    HW217067   3.644   1.438   4.132
 5390SOL     OW17068   5.830   4.092   3.501
 5390SOL    HW117069   5.809   4.001   3.467
 5390SOL    HW217070   5.889   4.086   3.581
 5391SOL     OW17071   2.343   1.639   0.705
 5391SOL    HW117072   2.321   1.722   0.756
 5391SOL    HW217073   2.388   1.573   0.765
 5392SOL     OW17074   5.354   3.874   0.790
 5392SOL    HW117075   5.436   3.821   0.811
 5392SOL    HW217076   5.279   3.812   0.770
 5393SOL     OW17077   5.146   0.869   4.914
 5393SOL    HW117078   5.230   0.860   4.967
 5393SOL    HW217079   5.155   0.817   4.829
 5394SOL     OW17080   1.114   5.609   1.235
 5394SOL    HW117081   1.086   5.578   1.145
 5394SOL    HW217082   1.208   5.580   1.253
 5395SOL     OW17083   5.087   0.393   1.262
 5395SOL    HW117084   5.064   0.403   1.165
 5395SOL    HW217085   5.011   0.428   1.317
 5396SOL     OW17086   5.689   4.803   1.827
 5396SOL    HW117087   5.689   4.837   1.733
 5396SOL    HW217088   5.781   4.810   1.865
 5397SOL     OW17089   6.926   2.034   1.821
 5397SOL    HW117090   7.005   2.030   1.759
 5397SOL    HW217091   6.952   2.083   1.905
 5398SOL     OW17092   3.025   1.838   4.222
 5398SOL    HW117093   3.033   1.799   4.313
 5398SOL    HW217094   2.938   1.886   4.214
 5399SOL     OW17095   2.698   6.659   6.132
 5399SOL    HW117096   2.785   6.693   6.097
 5399SOL    HW217097   2.623   6.716   6.097
 5400SOL     OW17098   3.369   3.645   0.448
 5400SOL    HW117099   3.464   3.673   0.459
 5400SOL    HW217100   3.365   3.555   0.405
 5401SOL     OW17101   5.768   4.319   2.136
 5401SOL    HW117102   5.786   4.412   2.105
 5401SOL    HW217103   5.798   4.254   2.066
 5402SOL     OW17104   2.938   6.429   1.091
 5402SOL    HW117105   2.891   6.392   1.012
 5402SOL    HW217106   2.873   6.480   1.148
 5403SOL     OW17107   5.156   3.471   6.021
 5403SOL    HW117108   5.112   3.382   6.010
 5403SOL    HW217109   5.086   3.543   6.015
 5404SOL     OW17110   0.792   0.391   1.490
 5404SOL    HW117111   0.804   0.301   1.531
 5404SOL    HW217112   0.695   0.416   1.492
 5405SOL     OW17113   5.430   4.981   6.613
 5405SOL    HW117114   5.434   4.898   6.556
 5405SOL    HW217115   5.353   4.974   6.677
 5406SOL     OW17116   1.836   0.918   5.167
 5406SOL    HW117117   1.839   1.014   5.195
 5406SOL    HW217118   1.748   0.899   5.124
 5407SOL     OW17119   3.368   1.792   0.885
 5407SOL    HW117120   3.366   1.769   0.983
 5407SOL    HW217121   3.345   1.889   0.873
 5408SOL     OW17122   4.158   0.808   4.840
 5408SOL    HW117123   4.143   0.907   4.833
 5408SOL    HW217124   4.241   0.790   4.892
 5409SOL     OW17125   6.490   1.731   2.870
 5409SOL    HW117126   6.540   1.816   2.853
 5409SOL    HW217127   6.515   1.695   2.959
 5410SOL     OW17128   0.870   2.037   6.552
 5410SOL    HW117129   0.814   1.958   6.574
 5410SOL    HW217130   0.882   2.042   6.452
 5411SOL     OW17131   5.475   5.688   6.353
 5411SOL    HW117132   5.426   5.696   6.440
 5411SOL    HW217133   5.470   5.593   6.321
 5412SOL     OW17134   3.207   1.360   6.469
 5412SOL    HW117135   3.306   1.349   6.474
 5412SOL    HW217136   3.184   1.432   6.404
 5413SOL     OW17137   0.848   6.858   6.891
 5413SOL    HW117138   0.800   6.849   6.978
 5413SOL    HW217139   0.860   6.955   6.869
 5414SOL     OW17140   6.207   5.236   4.694
 5414SOL    HW117141   6.228   5.140   4.678
 5414SOL    HW217142   6.168   5.246   4.786
 5415SOL     OW17143   2.507   6.427   1.351
 5415SOL    HW117144   2.594   6.397   1.312
 5415SOL    HW217145   2.437   6.427   1.280
 5416SOL     OW17146   2.842   4.901   4.984
 5416SOL    HW117147   2.836   4.804   4.961
 5416SOL    HW217148   2.831   4.956   4.901
 5417SOL     OW17149   3.967   6.660   4.701
 5417SOL    HW117150   4.020   6.739   4.670
 5417SOL    HW217151   4.019   6.577   4.685
 5418SOL     OW17152   5.792   5.873   4.822
 5418SOL    HW117153   5.731   5.925   4.883
 5418SOL    HW217154   5.775   5.775   4.834
 5419SOL     OW17155   3.194   5.789   0.709
 5419SOL    HW117156   3.157   5.705   0.669
 5419SOL    HW217157   3.130   5.824   0.776
 5420SOL     OW17158   1.755   1.829   1.168
 5420SOL    HW117159   1.671   1.861   1.212
 5420SOL    HW217160   1.830   1.892   1.189
 5421SOL     OW17161   3.282   5.126   1.747
 5421SOL    HW117162   3.246   5.193   1.812
 5421SOL    HW217163   3.220   5.048   1.742
 5422SOL     OW17164   1.024   4.442   4.253
 5422SOL    HW117165   1.092   4.443   4.180
 5422SOL    HW217166   0.959   4.517   4.240
 5423SOL     OW17167   4.990   5.172   0.022
 5423SOL    HW117168   4.906   5.131   7.001
 5423SOL    HW217169   5.049   5.202   6.965
 5424SOL     OW17170   5.704   4.062   4.587
 5424SOL    HW117171   5.729   4.060   4.490
 5424SOL    HW217172   5.675   3.971   4.616
 5425SOL     OW17173   5.703   1.852   4.885
 5425SOL    HW117174   5.678   1.851   4.788
 5425SOL    HW217175   5.661   1.773   4.931
 5426SOL     OW17176   5.504   5.439   2.998
 5426SOL    HW117177   5.418   5.391   2.982
 5426SOL    HW217178   5.554   5.447   2.912
 5427SOL     OW17179   5.065   3.231   0.119
 5427SOL    HW117180   5.104   3.217   0.210
 5427SOL    HW217181   4.983   3.175   0.109
 5428SOL     OW17182   5.508   6.767   1.468
 5428SOL    HW117183   5.582   6.732   1.525
 5428SOL    HW217184   5.480   6.697   1.403
 5429SOL     OW17185   2.270   0.520   5.355
 5429SOL    HW117186   2.341   0.534   5.424
 5429SOL    HW217187   2.308   0.469   5.278
 5430SOL     OW17188   1.862   2.871   5.241
 5430SOL    HW117189   1.884   2.967   5.221
 5430SOL    HW217190   1.927   2.811   5.194
 5431SOL     OW17191   2.873   3.874   6.342
 5431SOL    HW117192   2.960   3.860   6.389
 5431SOL    HW217193   2.802   3.818   6.385
 5432SOL     OW17194   3.728   5.310   6.482
 5432SOL    HW117195   3.685   5.339   6.396
 5432SOL    HW217196   3.812   5.260   6.462
 5433SOL     OW17197   0.923   0.684   1.929
 5433SOL    HW117198   0.825   0.682   1.909
 5433SOL    HW217199   0.972   0.720   1.850
 5434SOL     OW17200   3.937   1.092   4.499
 5434SOL    HW117201   4.033   1.108   4.476
 5434SOL    HW217202   3.878   1.133   4.429
 5435SOL     OW17203   6.318   3.549   0.799
 5435SOL    HW117204   6.247   3.518   0.862
 5435SOL    HW217205   6.405   3.557   0.848
 5436SOL     OW17206   5.818   4.741   3.905
 5436SOL    HW117207   5.803   4.654   3.952
 5436SOL    HW217208   5.731   4.773   3.866
 5437SOL     OW17209   3.230   4.907   4.837
 5437SOL    HW117210   3.190   4.859   4.916
 5437SOL    HW217211   3.240   4.843   4.761
 5438SOL     OW17212   5.759   4.364   2.420
 5438SOL    HW117213   5.776   4.372   2.322
 5438SOL    HW217214   5.821   4.296   2.460
 5439SOL     OW17215   0.518   3.195   6.927
 5439SOL    HW117216   0.474   3.181   7.015
 5439SOL    HW217217   0.615   3.215   6.941
 5440SOL     OW17218   6.526   6.435   3.372
 5440SOL    HW117219   6.580   6.366   3.324
 5440SOL    HW217220   6.502   6.401   3.463
 5441SOL     OW17221   4.950   3.656   3.757
 5441SOL    HW117222   4.948   3.631   3.854
 5441SOL    HW217223   5.018   3.728   3.742
 5442SOL     OW17224   3.568   0.492   3.566
 5442SOL    HW117225   3.620   0.550   3.630
 5442SOL    HW217226   3.501   0.439   3.618
 5443SOL     OW17227   3.924   5.822   3.909
 5443SOL    HW117228   4.018   5.824   3.875
 5443SOL    HW217229   3.888   5.729   3.904
 5444SOL     OW17230   0.416   0.698   3.956
 5444SOL    HW117231   0.342   0.676   3.893
 5444SOL    HW217232   0.393   0.782   4.006
 5445SOL     OW17233   5.945   4.432   3.717
 5445SOL    HW117234   5.964   4.420   3.815
 5445SOL    HW217235   5.868   4.374   3.690
 5446SOL     OW17236   5.856   5.625   3.950
 5446SOL    HW117237   5.942   5.675   3.959
 5446SOL    HW217238   5.871   5.529   3.971
 5447SOL     OW17239   1.421   1.349   0.709
 5447SOL    HW117240   1.422   1.272   0.645
 5447SOL    HW217241   1.330   1.356   0.750
 5448SOL     OW17242   4.412   4.585   3.659
 5448SOL    HW117243   4.394   4.609   3.563
 5448SOL    HW217244   4.366   4.650   3.719
 5449SOL     OW17245   2.211   1.336   0.613
 5449SOL    HW117246   2.298   1.289   0.600
 5449SOL    HW217247   2.179   1.321   0.707
 5450SOL     OW17248   3.125   0.353   1.305
 5450SOL    HW117249   3.120   0.392   1.397
 5450SOL    HW217250   3.195   0.403   1.252
 5451SOL     OW17251   1.961   6.163   3.577
 5451SOL    HW117252   1.982   6.201   3.487
 5451SOL    HW217253   1.922   6.234   3.635
 5452SOL     OW17254   2.922   4.356   1.051
 5452SOL    HW117255   2.881   4.328   0.964
 5452SOL    HW217256   2.860   4.332   1.126
 5453SOL     OW17257   5.151   3.608   2.197
 5453SOL    HW117258   5.081   3.549   2.157
 5453SOL    HW217259   5.201   3.655   2.124
 5454SOL     OW17260   5.884   5.835   1.126
 5454SOL    HW117261   5.844   5.910   1.178
 5454SOL    HW217262   5.915   5.763   1.189
 5455SOL     OW17263   0.237   2.059   3.933
 5455SOL    HW117264   0.212   1.998   4.009
 5455SOL    HW217265   0.155   2.101   3.896
 5456SOL     OW17266   3.154   2.128   6.748
 5456SOL    HW117267   3.203   2.208   6.712
 5456SOL    HW217268   3.167   2.123   6.847
 5457SOL     OW17269   6.467   1.867   1.202
 5457SOL    HW117270   6.416   1.916   1.131
 5457SOL    HW217271   6.489   1.775   1.170
 5458SOL     OW17272   6.842   5.337   0.411
 5458SOL    HW117273   6.785   5.404   0.460
 5458SOL    HW217274   6.885   5.382   0.333
 5459SOL     OW17275   2.003   4.691   5.490
 5459SOL    HW117276   2.052   4.759   5.545
 5459SOL    HW217277   1.969   4.734   5.407
 5460SOL     OW17278   3.043   6.839   2.599
 5460SOL    HW117279   3.141   6.856   2.606
 5460SOL    HW217280   2.998   6.920   2.561
 5461SOL     OW17281   0.674   6.974   4.250
 5461SOL    HW117282   0.742   6.916   4.296
 5461SOL    HW217283   0.592   6.921   4.230
 5462SOL     OW17284   5.654   6.355   6.941
 5462SOL    HW117285   5.713   6.279   6.915
 5462SOL    HW217286   5.566   6.346   6.893
 5463SOL     OW17287   0.419   1.944   0.025
 5463SOL    HW117288   0.394   1.912   0.116
 5463SOL    HW217289   0.393   2.040   0.015
 5464SOL     OW17290   5.748   6.470   4.993
 5464SOL    HW117291   5.732   6.533   5.069
 5464SOL    HW217292   5.697   6.500   4.913
 5465SOL     OW17293   5.983   0.851   3.352
 5465SOL    HW117294   6.006   0.801   3.269
 5465SOL    HW217295   5.980   0.949   3.333
 5466SOL     OW17296   5.029   2.561   5.638
 5466SOL    HW117297   5.042   2.650   5.594
 5466SOL    HW217298   5.058   2.489   5.576
 5467SOL     OW17299   6.489   3.579   3.389
 5467SOL    HW117300   6.508   3.482   3.372
 5467SOL    HW217301   6.404   3.587   3.441
 5468SOL     OW17302   6.505   1.423   5.276
 5468SOL    HW117303   6.585   1.399   5.221
 5468SOL    HW217304   6.532   1.486   5.349
 5469SOL     OW17305   3.267   6.015   5.207
 5469SOL    HW117306   3.341   5.963   5.164
 5469SOL    HW217307   3.182   6.001   5.156
 5470SOL     OW17308   3.520   5.215   4.160
 5470SOL    HW117309   3.508   5.120   4.189
 5470SOL    HW217310   3.448   5.240   4.096
 5471SOL     OW17311   6.583   0.799   2.690
 5471SOL    HW117312   6.595   0.713   2.740
 5471SOL    HW217313   6.584   0.875   2.755
 5472SOL     OW17314   3.211   3.254   6.575
 5472SOL    HW117315   3.163   3.263   6.488
 5472SOL    HW217316   3.310   3.255   6.559
 5473SOL     OW17317   1.813   3.219   0.749
 5473SOL    HW117318   1.894   3.167   0.727
 5473SOL    HW217319   1.831   3.277   0.829
 5474SOL     OW17320   1.087   4.582   4.946
 5474SOL    HW117321   1.130   4.670   4.927
 5474SOL    HW217322   1.107   4.554   5.040
 5475SOL     OW17323   1.435   2.092   0.510
 5475SOL    HW117324   1.414   1.996   0.530
 5475SOL    HW217325   1.360   2.132   0.458
 5476SOL     OW17326   2.104   4.510   5.032
 5476SOL    HW117327   2.143   4.418   5.034
 5476SOL    HW217328   2.150   4.563   4.960
 5477SOL     OW17329   1.882   4.166   2.844
 5477SOL    HW117330   1.818   4.089   2.847
 5477SOL    HW217331   1.975   4.131   2.835
 5478SOL     OW17332   4.233   0.183   5.432
 5478SOL    HW117333   4.235   0.087   5.404
 5478SOL    HW217334   4.168   0.194   5.507
 5479SOL     OW17335   5.017   1.999   4.777
 5479SOL    HW117336   4.917   2.008   4.767
 5479SOL    HW217337   5.039   1.909   4.814
 5480SOL     OW17338   5.429   5.507   4.304
 5480SOL    HW117339   5.392   5.564   4.377
 5480SOL    HW217340   5.501   5.557   4.256
 5481SOL     OW17341   4.606   1.606   4.385
 5481SOL    HW117342   4.554   1.554   4.453
 5481SOL    HW217343   4.547   1.626   4.306
 5482SOL     OW17344   3.638   3.657   2.304
 5482SOL    HW117345   3.600   3.722   2.238
 5482SOL    HW217346   3.696   3.706   2.370
 5483SOL     OW17347   0.483   2.063   5.056
 5483SOL    HW117348   0.446   2.153   5.079
 5483SOL    HW217349   0.525   2.066   4.965
 5484SOL     OW17350   4.972   0.551   4.080
 5484SOL    HW117351   4.923   0.626   4.124
 5484SOL    HW217352   5.012   0.583   3.994
 5485SOL     OW17353   3.217   0.055   5.366
 5485SOL    HW117354   3.234   0.143   5.321
 5485SOL    HW217355   3.188   7.006   5.298
 5486SOL     OW17356   2.052   5.746   5.575
 5486SOL    HW117357   2.109   5.673   5.613
 5486SOL    HW217358   1.991   5.781   5.646
 5487SOL     OW17359   4.973   3.240   6.075
 5487SOL    HW117360   5.002   3.232   6.170
 5487SOL    HW217361   4.888   3.292   6.070
 5488SOL     OW17362   5.540   0.858   1.322
 5488SOL    HW117363   5.638   0.837   1.319
 5488SOL    HW217364   5.515   0.886   1.415
 5489SOL     OW17365   1.370   4.980   1.387
 5489SOL    HW117366   1.274   4.957   1.405
 5489SOL    HW217367   1.424   4.896   1.380
 5490SOL     OW17368   3.675   0.099   0.132
 5490SOL    HW117369   3.619   0.062   0.058
 5490SOL    HW217370   3.664   0.199   0.135
 5491SOL     OW17371   2.035   4.034   0.842
 5491SOL    HW117372   2.076   4.033   0.934
 5491SOL    HW217373   2.093   3.980   0.780
 5492SOL     OW17374   0.563   2.140   6.507
 5492SOL    HW117375   0.656   2.110   6.486
 5492SOL    HW217376   0.547   2.130   6.605
 5493SOL     OW17377   3.924   4.008   4.187
 5493SOL    HW117378   3.862   4.008   4.266
 5493SOL    HW217379   3.922   4.098   4.143
 5494SOL     OW17380   6.606   2.590   6.438
 5494SOL    HW117381   6.570   2.646   6.363
 5494SOL    HW217382   6.705   2.598   6.441
 5495SOL     OW17383   4.215   2.102   1.223
 5495SOL    HW117384   4.197   2.084   1.320
 5495SOL    HW217385   4.138   2.151   1.184
 5496SOL     OW17386   2.633   6.926   2.940
 5496SOL    HW117387   2.647   6.980   2.856
 5496SOL    HW217388   2.708   6.860   2.949
 5497SOL     OW17389   0.221   1.865   4.115
 5497SOL    HW117390   0.284   1.800   4.072
 5497SOL    HW217391   0.143   1.816   4.154
 5498SOL     OW17392   5.764   6.471   1.150
 5498SOL    HW117393   5.743   6.539   1.079
 5498SOL    HW217394   5.689   6.467   1.216
 5499SOL     OW17395   6.918   0.815   4.696
 5499SOL    HW117396   6.924   0.789   4.599
 5499SOL    HW217397   6.999   0.781   4.744
 5500SOL     OW17398   1.561   0.223   0.332
 5500SOL    HW117399   1.655   0.197   0.310
 5500SOL    HW217400   1.502   0.142   0.328
 5501SOL     OW17401   4.064   6.451   0.431
 5501SOL    HW117402   4.050   6.365   0.381
 5501SOL    HW217403   4.106   6.431   0.519
 5502SOL     OW17404   6.030   3.525   0.090
 5502SOL    HW117405   6.125   3.516   0.059
 5502SOL    HW217406   5.995   3.615   0.063
 5503SOL     OW17407   0.030   5.150   3.004
 5503SOL    HW117408   0.101   5.147   2.934
 5503SOL    HW217409   0.025   5.242   3.043
 5504SOL     OW17410   3.980   0.935   5.045
 5504SOL    HW117411   3.947   0.988   4.967
 5504SOL    HW217412   4.037   0.860   5.013
 5505SOL     OW17413   1.628   5.458   4.433
 5505SOL    HW117414   1.627   5.435   4.336
 5505SOL    HW217415   1.626   5.558   4.443
 5506SOL     OW17416   1.724   1.972   5.942
 5506SOL    HW117417   1.808   2.027   5.945
 5506SOL    HW217418   1.710   1.937   5.850
 5507SOL     OW17419   2.694   0.221   3.632
 5507SOL    HW117420   2.690   0.122   3.617
 5507SOL    HW217421   2.626   0.266   3.575
 5508SOL     OW17422   1.151   0.759   5.905
 5508SOL    HW117423   1.111   0.840   5.862
 5508SOL    HW217424   1.146   0.769   6.005
 5509SOL     OW17425   0.774   6.347   0.220
 5509SOL    HW117426   0.708   6.351   0.145
 5509SOL    HW217427   0.752   6.270   0.280
 5510SOL     OW17428   4.943   5.892   1.235
 5510SOL    HW117429   5.020   5.891   1.171
 5510SOL    HW217430   4.907   5.985   1.242
 5511SOL     OW17431   2.168   1.481   4.236
 5511SOL    HW117432   2.124   1.393   4.250
 5511SOL    HW217433   2.251   1.469   4.181
 5512SOL     OW17434   5.944   2.098   1.727
 5512SOL    HW117435   5.881   2.027   1.695
 5512SOL    HW217436   6.038   2.071   1.703
 5513SOL     OW17437   4.419   5.255   6.578
 5513SOL    HW117438   4.329   5.256   6.535
 5513SOL    HW217439   4.471   5.176   6.546
 5514SOL     OW17440   3.822   6.726   3.375
 5514SOL    HW117441   3.813   6.823   3.398
 5514SOL    HW217442   3.919   6.703   3.367
 5515SOL     OW17443   0.405   4.934   1.074
 5515SOL    HW117444   0.406   5.032   1.095
 5515SOL    HW217445   0.412   4.920   0.976
 5516SOL     OW17446   1.976   4.040   6.711
 5516SOL    HW117447   1.979   3.951   6.756
 5516SOL    HW217448   2.059   4.092   6.732
 5517SOL     OW17449   1.993   3.325   1.941
 5517SOL    HW117450   1.937   3.346   2.021
 5517SOL    HW217451   2.074   3.384   1.942
 5518SOL     OW17452   6.525   6.509   6.599
 5518SOL    HW117453   6.573   6.543   6.680
 5518SOL    HW217454   6.430   6.489   6.622
 5519SOL     OW17455   5.256   3.464   3.161
 5519SOL    HW117456   5.249   3.472   3.261
 5519SOL    HW217457   5.258   3.367   3.136
 5520SOL     OW17458   6.410   5.975   1.876
 5520SOL    HW117459   6.443   5.883   1.858
 5520SOL    HW217460   6.452   6.010   1.959
 5521SOL     OW17461   5.175   7.013   1.653
 5521SOL    HW117462   5.238   7.009   1.730
 5521SOL    HW217463   5.188   0.081   1.604
 5522SOL     OW17464   7.008   5.169   0.537
 5522SOL    HW117465   6.960   5.242   0.490
 5522SOL    HW217466   0.087   5.171   0.513
 5523SOL     OW17467   3.760   0.034   2.230
 5523SOL    HW117468   3.854   0.017   2.201
 5523SOL    HW217469   3.700   0.034   2.150
 5524SOL     OW17470   5.168   5.235   4.980
 5524SOL    HW117471   5.085   5.281   5.008
 5524SOL    HW217472   5.247   5.281   5.020
 5525SOL     OW17473   0.262   2.570   0.611
 5525SOL    HW117474   0.316   2.517   0.676
 5525SOL    HW217475   0.172   2.589   0.650
 5526SOL     OW17476   4.733   4.939   4.281
 5526SOL    HW117477   4.634   4.954   4.277
 5526SOL    HW217478   4.776   4.991   4.207
 5527SOL     OW17479   5.578   3.648   3.878
 5527SOL    HW117480   5.562   3.571   3.816
 5527SOL    HW217481   5.674   3.677   3.871
 5528SOL     OW17482   1.071   1.431   7.016
 5528SOL    HW117483   1.052   1.469   0.088
 5528SOL    HW217484   0.990   1.442   6.958
 5529SOL     OW17485   2.324   0.355   2.881
 5529SOL    HW117486   2.352   0.287   2.948
 5529SOL    HW217487   2.235   0.331   2.844
 5530SOL     OW17488   6.041   2.527   2.290
 5530SOL    HW117489   5.959   2.480   2.256
 5530SOL    HW217490   6.122   2.485   2.249
 5531SOL     OW17491   3.465   2.859   2.484
 5531SOL    HW117492   3.367   2.852   2.502
 5531SOL    HW217493   3.515   2.803   2.550
 5532SOL     OW17494   1.152   2.380   0.429
 5532SOL    HW117495   1.066   2.431   0.429
 5532SOL    HW217496   1.187   2.373   0.523
 5533SOL     OW17497   3.607   1.075   3.242
 5533SOL    HW117498   3.544   1.119   3.305
 5533SOL    HW217499   3.599   0.975   3.251
 5534SOL     OW17500   1.338   2.065   6.158
 5534SOL    HW117501   1.365   2.157   6.129
 5534SOL    HW217502   1.271   2.028   6.094
 5535SOL     OW17503   0.171   2.907   3.814
 5535SOL    HW117504   0.257   2.894   3.765
 5535SOL    HW217505   0.157   3.005   3.831
 5536SOL     OW17506   3.069   1.477   4.285
 5536SOL    HW117507   3.099   1.450   4.194
 5536SOL    HW217508   2.970   1.489   4.286
 5537SOL     OW17509   2.211   1.050   2.679
 5537SOL    HW117510   2.224   0.962   2.726
 5537SOL    HW217511   2.290   1.068   2.621
 5538SOL     OW17512   2.658   6.632   5.380
 5538SOL    HW117513   2.671   6.730   5.393
 5538SOL    HW217514   2.614   6.594   5.461
 5539SOL     OW17515   1.091   3.545   1.048
 5539SOL    HW117516   1.104   3.510   1.141
 5539SOL    HW217517   1.134   3.635   1.040
 5540SOL     OW17518   6.010   3.598   3.785
 5540SOL    HW117519   5.961   3.604   3.872
 5540SOL    HW217520   6.108   3.601   3.802
 5541SOL     OW17521   5.980   0.460   6.461
 5541SOL    HW117522   6.077   0.441   6.451
 5541SOL    HW217523   5.927   0.390   6.412
 5542SOL     OW17524   5.741   4.390   6.140
 5542SOL    HW117525   5.725   4.326   6.064
 5542SOL    HW217526   5.663   4.388   6.202
 5543SOL     OW17527   3.490   5.476   5.628
 5543SOL    HW117528   3.551   5.552   5.645
 5543SOL    HW217529   3.416   5.506   5.566
 5544SOL     OW17530   5.628   6.189   6.149
 5544SOL    HW117531   5.648   6.129   6.226
 5544SOL    HW217532   5.704   6.187   6.084
 5545SOL     OW17533   3.954   1.782   1.909
 5545SOL    HW117534   3.922   1.844   1.837
 5545SOL    HW217535   3.918   1.690   1.893
 5546SOL     OW17536   0.922   6.159   4.726
 5546SOL    HW117537   0.826   6.172   4.754
 5546SOL    HW217538   0.926   6.143   4.628
 5547SOL     OW17539   3.007   0.136   4.557
 5547SOL    HW117540   2.932   0.135   4.491
 5547SOL    HW217541   3.039   0.043   4.573
 5548SOL     OW17542   5.599   3.632   5.915
 5548SOL    HW117543   5.597   3.666   5.820
 5548SOL    HW217544   5.664   3.685   5.968
 5549SOL     OW17545   4.414   3.857   6.745
 5549SOL    HW117546   4.358   3.940   6.740
 5549SOL    HW217547   4.414   3.824   6.840
 5550SOL     OW17548   2.368   4.315   1.939
 5550SOL    HW117549   2.311   4.326   1.858
 5550SOL    HW217550   2.424   4.397   1.952
 5551SOL     OW17551   1.943   0.070   3.027
 5551SOL    HW117552   2.000   0.016   3.089
 5551SOL    HW217553   1.968   0.167   3.035
 5552SOL     OW17554   6.983   0.191   0.073
 5552SOL    HW117555   0.051   0.169   0.119
 5552SOL    HW217556   6.944   0.274   0.112
 5553SOL     OW17557   5.481   6.355   6.738
 5553SOL    HW117558   5.550   6.318   6.676
 5553SOL    HW217559   5.410   6.402   6.686
 5554SOL     OW17560   4.350   1.620   5.273
 5554SOL    HW117561   4.376   1.701   5.220
 5554SOL    HW217562   4.262   1.637   5.319
 5555SOL     OW17563   2.009   4.636   3.712
 5555SOL    HW117564   2.104   4.606   3.703
 5555SOL    HW217565   1.949   4.556   3.717
 5556SOL     OW17566   6.555   1.431   3.344
 5556SOL    HW117567   6.524   1.521   3.375
 5556SOL    HW217568   6.565   1.370   3.423
 5557SOL     OW17569   3.584   6.852   2.591
 5557SOL    HW117570   3.623   6.792   2.660
 5557SOL    HW217571   3.586   6.806   2.502
 5558SOL     OW17572   4.909   3.596   6.006
 5558SOL    HW117573   4.845   3.561   6.074
 5558SOL    HW217574   4.932   3.690   6.027
 5559SOL     OW17575   2.462   0.742   2.418
 5559SOL    HW117576   2.398   0.778   2.351
 5559SOL    HW217577   2.450   0.643   2.425
 5560SOL     OW17578   1.111   0.214   3.180
 5560SOL    HW117579   1.062   0.182   3.099
 5560SOL    HW217580   1.189   0.154   3.198
 5561SOL     OW17581   1.437   2.438   4.300
 5561SOL    HW117582   1.432   2.463   4.204
 5561SOL    HW217583   1.360   2.480   4.350
 5562SOL     OW17584   3.190   2.100   0.002
 5562SOL    HW117585   3.174   2.067   0.095
 5562SOL    HW217586   3.270   2.160   0.002
 5563SOL     OW17587   4.176   5.563   2.270
 5563SOL    HW117588   4.113   5.525   2.203
 5563SOL    HW217589   4.241   5.492   2.299
 5564SOL     OW17590   4.580   1.304   2.000
 5564SOL    HW117591   4.679   1.303   2.012
 5564SOL    HW217592   4.550   1.397   1.979
 5565SOL     OW17593   4.939   1.622   6.307
 5565SOL    HW117594   4.842   1.611   6.329
 5565SOL    HW217595   4.953   1.711   6.264
 5566SOL     OW17596   1.828   5.774   6.992
 5566SOL    HW117597   1.925   5.758   6.970
 5566SOL    HW217598   1.778   5.688   6.987
 5567SOL     OW17599   0.236   3.819   1.642
 5567SOL    HW117600   0.298   3.744   1.620
 5567SOL    HW217601   0.271   3.904   1.603
 5568SOL     OW17602   4.268   2.244   3.340
 5568SOL    HW117603   4.303   2.209   3.253
 5568SOL    HW217604   4.325   2.320   3.370
 5569SOL     OW17605   1.886   1.434   2.612
 5569SOL    HW117606   1.884   1.534   2.621
 5569SOL    HW217607   1.862   1.393   2.700
 5570SOL     OW17608   5.483   4.280   4.935
 5570SOL    HW117609   5.493   4.376   4.906
 5570SOL    HW217610   5.566   4.229   4.910
 5571SOL     OW17611   0.200   5.800   0.536
 5571SOL    HW117612   0.165   5.706   0.531
 5571SOL    HW217613   0.255   5.812   0.618
 5572SOL     OW17614   0.685   2.390   5.137
 5572SOL    HW117615   0.719   2.353   5.051
 5572SOL    HW217616   0.760   2.432   5.188
 5573SOL     OW17617   1.712   3.688   6.782
 5573SOL    HW117618   1.746   3.599   6.809
 5573SOL    HW217619   1.776   3.759   6.811
 5574SOL     OW17620   6.002   1.896   3.419
 5574SOL    HW117621   6.063   1.819   3.441
 5574SOL    HW217622   6.057   1.973   3.386
 5575SOL     OW17623   6.714   1.186   0.740
 5575SOL    HW117624   6.720   1.220   0.834
 5575SOL    HW217625   6.695   1.087   0.741
 5576SOL     OW17626   1.063   5.618   2.852
 5576SOL    HW117627   0.963   5.615   2.851
 5576SOL    HW217628   1.094   5.670   2.932
 5577SOL     OW17629   2.724   2.554   5.356
 5577SOL    HW117630   2.711   2.508   5.445
 5577SOL    HW217631   2.693   2.649   5.363
 5578SOL     OW17632   4.239   4.292   0.147
 5578SOL    HW117633   4.202   4.360   0.211
 5578SOL    HW217634   4.241   4.203   0.192
 5579SOL     OW17635   0.397   3.399   6.132
 5579SOL    HW117636   0.463   3.394   6.207
 5579SOL    HW217637   0.317   3.343   6.153
 5580SOL     OW17638   4.950   2.907   5.783
 5580SOL    HW117639   4.973   2.812   5.806
 5580SOL    HW217640   4.989   2.930   5.694
 5581SOL     OW17641   2.740   6.702   1.757
 5581SOL    HW117642   2.782   6.793   1.761
 5581SOL    HW217643   2.678   6.698   1.678
 5582SOL     OW17644   3.675   3.264   4.140
 5582SOL    HW117645   3.716   3.173   4.142
 5582SOL    HW217646   3.575   3.255   4.143
 5583SOL     OW17647   4.185   0.473   3.143
 5583SOL    HW117648   4.151   0.547   3.201
 5583SOL    HW217649   4.253   0.509   3.080
 5584SOL     OW17650   5.638   4.462   3.914
 5584SOL    HW117651   5.668   4.429   3.824
 5584SOL    HW217652   5.557   4.520   3.902
 5585SOL     OW17653   4.899   6.295   4.070
 5585SOL    HW117654   4.954   6.270   4.149
 5585SOL    HW217655   4.823   6.353   4.098
 5586SOL     OW17656   0.079   2.313   0.032
 5586SOL    HW117657   0.087   2.403   7.009
 5586SOL    HW217658   0.157   2.256   0.005
 5587SOL     OW17659   4.065   6.043   2.478
 5587SOL    HW117660   4.064   6.105   2.400
 5587SOL    HW217661   4.074   5.949   2.445
 5588SOL     OW17662   1.912   6.864   2.707
 5588SOL    HW117663   1.961   6.951   2.710
 5588SOL    HW217664   1.908   6.832   2.612
 5589SOL     OW17665   5.873   2.800   6.254
 5589SOL    HW117666   5.793   2.756   6.294
 5589SOL    HW217667   5.915   2.860   6.322
 5590SOL     OW17668   6.765   5.603   3.084
 5590SOL    HW117669   6.701   5.557   3.023
 5590SOL    HW217670   6.724   5.688   3.117
 5591SOL     OW17671   6.008   1.146   6.833
 5591SOL    HW117672   5.980   1.055   6.802
 5591SOL    HW217673   6.056   1.193   6.759
 5592SOL     OW17674   0.344   4.711   2.579
 5592SOL    HW117675   0.304   4.621   2.596
 5592SOL    HW217676   0.292   4.758   2.508
 5593SOL     OW17677   0.009   2.047   6.026
 5593SOL    HW117678   0.032   2.092   5.940
 5593SOL    HW217679   6.929   2.058   6.043
 5594SOL     OW17680   2.842   1.020   0.007
 5594SOL    HW117681   2.852   1.118   0.022
 5594SOL    HW217682   2.746   0.998   7.009
 5595SOL     OW17683   5.796   0.218   5.365
 5595SOL    HW117684   5.815   0.180   5.456
 5595SOL    HW217685   5.700   0.203   5.342
 5596SOL     OW17686   5.448   0.258   2.999
 5596SOL    HW117687   5.525   0.241   2.937
 5596SOL    HW217688   5.380   0.316   2.953
 5597SOL     OW17689   6.862   1.604   5.596
 5597SOL    HW117690   6.792   1.653   5.648
 5597SOL    HW217691   6.891   1.523   5.648
 5598SOL     OW17692   6.490   2.509   4.583
 5598SOL    HW117693   6.480   2.535   4.679
 5598SOL    HW217694   6.401   2.511   4.539
 5599SOL     OW17695   0.232   2.497   1.871
 5599SOL    HW117696   0.198   2.496   1.964
 5599SOL    HW217697   0.212   2.585   1.828
 5600SOL     OW17698   2.539   0.221   2.312
 5600SOL    HW117699   2.509   0.136   2.357
 5600SOL    HW217700   2.485   0.236   2.230
 5601SOL     OW17701   3.379   1.529   6.214
 5601SOL    HW117702   3.473   1.508   6.241
 5601SOL    HW217703   3.346   1.607   6.267
 5602SOL     OW17704   0.694   0.272   2.365
 5602SOL    HW117705   0.629   0.247   2.437
 5602SOL    HW217706   0.661   0.355   2.318
 5603SOL     OW17707   5.511   2.232   6.349
 5603SOL    HW117708   5.591   2.197   6.398
 5603SOL    HW217709   5.541   2.288   6.272
 5604SOL     OW17710   6.862   2.262   5.241
 5604SOL    HW117711   6.897   2.176   5.277
 5604SOL    HW217712   6.762   2.258   5.235
 5605SOL     OW17713   1.675   0.093   4.473
 5605SOL    HW117714   1.629   0.176   4.441
 5605SOL    HW217715   1.703   0.104   4.568
 5606SOL     OW17716   5.732   0.995   1.091
 5606SOL    HW117717   5.684   0.919   1.135
 5606SOL    HW217718   5.665   1.061   1.055
 5607SOL     OW17719   5.657   1.426   3.860
 5607SOL    HW117720   5.684   1.336   3.826
 5607SOL    HW217721   5.695   1.497   3.801
 5608SOL     OW17722   6.267   1.573   2.894
 5608SOL    HW117723   6.279   1.479   2.925
 5608SOL    HW217724   6.356   1.614   2.874
 5609SOL     OW17725   4.573   6.230   1.287
 5609SOL    HW117726   4.557   6.260   1.381
 5609SOL    HW217727   4.546   6.302   1.224
 5610SOL     OW17728   5.265   4.203   1.224
 5610SOL    HW117729   5.354   4.230   1.188
 5610SOL    HW217730   5.203   4.184   1.148
 5611SOL     OW17731   0.859   5.008   2.629
 5611SOL    HW117732   0.847   5.105   2.607
 5611SOL    HW217733   0.933   4.970   2.574
 5612SOL     OW17734   3.776   3.532   0.757
 5612SOL    HW117735   3.853   3.523   0.819
 5612SOL    HW217736   3.798   3.492   0.668
 5613SOL     OW17737   5.592   5.131   5.023
 5613SOL    HW117738   5.639   5.117   5.110
 5613SOL    HW217739   5.555   5.043   4.991
 5614SOL     OW17740   5.213   3.289   5.150
 5614SOL    HW117741   5.159   3.208   5.128
 5614SOL    HW217742   5.254   3.326   5.067
 5615SOL     OW17743   6.343   1.505   4.019
 5615SOL    HW117744   6.273   1.456   4.070
 5615SOL    HW217745   6.345   1.600   4.049
 5616SOL     OW17746   1.975   2.885   4.264
 5616SOL    HW117747   1.892   2.874   4.210
 5616SOL    HW217748   1.966   2.835   4.350
 5617SOL     OW17749   1.326   4.047   5.076
 5617SOL    HW117750   1.296   4.020   5.167
 5617SOL    HW217751   1.253   4.098   5.030
 5618SOL     OW17752   6.597   4.467   3.523
 5618SOL    HW117753   6.518   4.414   3.493
 5618SOL    HW217754   6.636   4.426   3.605
 5619SOL     OW17755   3.301   3.811   3.711
 5619SOL    HW117756   3.339   3.860   3.789
 5619SOL    HW217757   3.264   3.723   3.741
 5620SOL     OW17758   4.692   3.998   6.803
 5620SOL    HW117759   4.610   3.941   6.808
 5620SOL    HW217760   4.724   4.002   6.708
 5621SOL     OW17761   1.417   2.919   6.553
 5621SOL    HW117762   1.357   2.987   6.597
 5621SOL    HW217763   1.361   2.846   6.515
 5622SOL     OW17764   5.032   0.171   5.596
 5622SOL    HW117765   4.948   0.225   5.598
 5622SOL    HW217766   5.083   0.186   5.680
 5623SOL     OW17767   4.380   6.702   5.019
 5623SOL    HW117768   4.432   6.681   5.102
 5623SOL    HW217769   4.431   6.768   4.964
 5624SOL     OW17770   0.440   4.787   3.927
 5624SOL    HW117771   0.393   4.769   3.841
 5624SOL    HW217772   0.471   4.701   3.967
 5625SOL     OW17773   6.642   6.314   5.493
 5625SOL    HW117774   6.730   6.355   5.518
 5625SOL    HW217775   6.657   6.226   5.449
 5626SOL     OW17776   2.597   4.976   4.000
 5626SOL    HW117777   2.552   5.050   4.051
 5626SOL    HW217778   2.678   4.946   4.050
 5627SOL     OW17779   6.999   4.449   6.495
 5627SOL    HW117780   6.980   4.499   6.580
 5627SOL    HW217781   6.919   4.453   6.435
 5628SOL     OW17782   1.873   2.548   1.376
 5628SOL    HW117783   1.795   2.490   1.400
 5628SOL    HW217784   1.957   2.508   1.414
 5629SOL     OW17785   4.978   3.114   1.889
 5629SOL    HW117786   5.061   3.101   1.943
 5629SOL    HW217787   4.902   3.063   1.931
 5630SOL     OW17788   1.801   4.417   6.540
 5630SOL    HW117789   1.875   4.362   6.500
 5630SOL    HW217790   1.720   4.411   6.482
 5631SOL     OW17791   4.708   1.596   1.458
 5631SOL    HW117792   4.660   1.511   1.439
 5631SOL    HW217793   4.656   1.673   1.421
 5632SOL     OW17794   3.239   2.260   5.429
 5632SOL    HW117795   3.190   2.317   5.495
 5632SOL    HW217796   3.196   2.268   5.339
 5633SOL     OW17797   6.227   4.703   4.650
 5633SOL    HW117798   6.266   4.639   4.583
 5633SOL    HW217799   6.127   4.698   4.646
 5634SOL     OW17800   2.099   4.868   4.837
 5634SOL    HW117801   2.025   4.880   4.771
 5634SOL    HW217802   2.108   4.771   4.860
 5635SOL     OW17803   1.957   6.357   6.969
 5635SOL    HW117804   2.016   6.348   0.031
 5635SOL    HW217805   2.013   6.367   6.887
 5636SOL     OW17806   6.384   0.141   5.159
 5636SOL    HW117807   6.397   0.174   5.065
 5636SOL    HW217808   6.335   0.054   5.157
 5637SOL     OW17809   3.743   6.960   3.466
 5637SOL    HW117810   3.716   0.038   3.453
 5637SOL    HW217811   3.727   6.934   3.561
 5638SOL     OW17812   6.322   4.229   0.774
 5638SOL    HW117813   6.229   4.262   0.788
 5638SOL    HW217814   6.346   4.237   0.677
 5639SOL     OW17815   2.381   0.546   1.977
 5639SOL    HW117816   2.456   0.545   1.911
 5639SOL    HW217817   2.401   0.484   2.052
 5640SOL     OW17818   2.731   0.726   2.547
 5640SOL    HW117819   2.642   0.712   2.505
 5640SOL    HW217820   2.720   0.764   2.638
 5641SOL     OW17821   1.022   4.661   5.833
 5641SOL    HW117822   1.090   4.649   5.905
 5641SOL    HW217823   1.065   4.649   5.744
 5642SOL     OW17824   0.854   5.569   5.168
 5642SOL    HW117825   0.869   5.498   5.236
 5642SOL    HW217826   0.783   5.632   5.200
 5643SOL     OW17827   3.157   0.719   4.232
 5643SOL    HW117828   3.235   0.780   4.245
 5643SOL    HW217829   3.072   0.770   4.248
 5644SOL     OW17830   3.417   0.066   4.553
 5644SOL    HW117831   3.361   7.008   4.585
 5644SOL    HW217832   3.479   0.034   4.481
 5645SOL     OW17833   5.903   5.110   2.835
 5645SOL    HW117834   5.901   5.023   2.884
 5645SOL    HW217835   5.857   5.100   2.746
 5646SOL     OW17836   0.660   5.581   3.475
 5646SOL    HW117837   0.646   5.496   3.425
 5646SOL    HW217838   0.756   5.606   3.472
 5647SOL     OW17839   5.868   0.050   1.117
 5647SOL    HW117840   5.908   0.027   1.028
 5647SOL    HW217841   5.787   0.107   1.103
 5648SOL     OW17842   1.577   0.997   3.512
 5648SOL    HW117843   1.490   0.947   3.512
 5648SOL    HW217844   1.560   1.094   3.494
 5649SOL     OW17845   6.818   6.999   5.120
 5649SOL    HW117846   6.787   6.941   5.044
 5649SOL    HW217847   6.741   0.002   5.180
 5650SOL     OW17848   1.467   5.189   1.214
 5650SOL    HW117849   1.514   5.268   1.255
 5650SOL    HW217850   1.417   5.139   1.285
 5651SOL     OW17851   0.444   1.163   1.491
 5651SOL    HW117852   0.518   1.133   1.552
 5651SOL    HW217853   0.437   1.263   1.495
 5652SOL     OW17854   6.345   0.110   2.035
 5652SOL    HW117855   6.256   0.065   2.039
 5652SOL    HW217856   6.368   0.146   2.126
 5653SOL     OW17857   0.782   6.077   6.493
 5653SOL    HW117858   0.698   6.024   6.479
 5653SOL    HW217859   0.772   6.166   6.448
 5654SOL     OW17860   6.493   6.833   6.072
 5654SOL    HW117861   6.409   6.832   6.125
 5654SOL    HW217862   6.560   6.772   6.115
 5655SOL     OW17863   1.974   3.756   4.970
 5655SOL    HW117864   2.026   3.760   4.885
 5655SOL    HW217865   2.022   3.809   5.041
 5656SOL     OW17866   0.168   3.456   0.409
 5656SOL    HW117867   0.179   3.432   0.505
 5656SOL    HW217868   0.201   3.381   0.352
 5657SOL     OW17869   5.839   1.345   6.892
 5657SOL    HW117870   5.741   1.329   6.877
 5657SOL    HW217871   5.889   1.259   6.883
 5658SOL     OW17872   3.980   4.839   5.854
 5658SOL    HW117873   3.906   4.902   5.879
 5658SOL    HW217874   4.012   4.861   5.762
 5659SOL     OW17875   4.046   3.606   3.903
 5659SOL    HW117876   3.989   3.525   3.890
 5659SOL    HW217877   4.094   3.627   3.818
 5660SOL     OW17878   5.679   0.535   6.797
 5660SOL    HW117879   5.598   0.586   6.824
 5660SOL    HW217880   5.724   0.498   6.879
 5661SOL     OW17881   1.351   5.106   4.971
 5661SOL    HW117882   1.331   5.085   4.876
 5661SOL    HW217883   1.377   5.202   4.980
 5662SOL     OW17884   3.229   5.178   2.978
 5662SOL    HW117885   3.247   5.178   2.880
 5662SOL    HW217886   3.167   5.253   3.000
 5663SOL     OW17887   2.337   3.438   6.837
 5663SOL    HW117888   2.341   3.387   6.923
 5663SOL    HW217889   2.374   3.381   6.764
 5664SOL     OW17890   6.261   4.248   4.544
 5664SOL    HW117891   6.212   4.278   4.625
 5664SOL    HW217892   6.307   4.325   4.501
 5665SOL     OW17893   1.845   1.841   0.293
 5665SOL    HW117894   1.749   1.832   0.319
 5665SOL    HW217895   1.871   1.765   0.234
 5666SOL     OW17896   5.846   5.789   1.668
 5666SOL    HW117897   5.796   5.859   1.719
 5666SOL    HW217898   5.868   5.712   1.728
 5667SOL     OW17899   0.939   5.059   4.283
 5667SOL    HW117900   0.891   5.112   4.353
 5667SOL    HW217901   1.036   5.053   4.307
 5668SOL     OW17902   5.594   1.620   5.032
 5668SOL    HW117903   5.496   1.621   5.013
 5668SOL    HW217904   5.609   1.629   5.130
 5669SOL     OW17905   0.388   3.032   0.108
 5669SOL    HW117906   0.303   2.981   0.094
 5669SOL    HW217907   0.466   2.971   0.098
 5670SOL     OW17908   6.700   2.548   3.637
 5670SOL    HW117909   6.711   2.518   3.732
 5670SOL    HW217910   6.739   2.639   3.626
 5671SOL     OW17911   0.318   5.909   0.018
 5671SOL    HW117912   0.254   5.851   0.068
 5671SOL    HW217913   0.335   5.870   6.946
 5672SOL     OW17914   4.031   5.014   6.201
 5672SOL    HW117915   4.107   5.015   6.136
 5672SOL    HW217916   4.034   4.929   6.254
 5673SOL     OW17917   0.844   6.747   1.890
 5673SOL    HW117918   0.841   6.679   1.816
 5673SOL    HW217919   0.876   6.702   1.974
 5674SOL     OW17920   0.125   4.896   5.120
 5674SOL    HW117921   0.072   4.942   5.191
 5674SOL    HW217922   0.137   4.800   5.144
 5675SOL     OW17923   4.310   1.949   5.653
 5675SOL    HW117924   4.239   2.019   5.644
 5675SOL    HW217925   4.324   1.929   5.750
 5676SOL     OW17926   1.956   2.777   2.264
 5676SOL    HW117927   1.917   2.849   2.322
 5676SOL    HW217928   2.014   2.819   2.194
 5677SOL     OW17929   0.039   1.073   1.484
 5677SOL    HW117930   0.025   0.996   1.547
 5677SOL    HW217931   0.001   1.050   1.395
 5678SOL     OW17932   3.972   6.567   2.735
 5678SOL    HW117933   3.975   6.476   2.693
 5678SOL    HW217934   4.040   6.626   2.692
 5679SOL     OW17935   0.963   1.341   4.150
 5679SOL    HW117936   0.940   1.266   4.212
 5679SOL    HW217937   1.044   1.316   4.096
 5680SOL     OW17938   1.527   5.100   6.930
 5680SOL    HW117939   1.475   5.048   6.998
 5680SOL    HW217940   1.487   5.191   6.919
 5681SOL     OW17941   0.371   4.564   0.164
 5681SOL    HW117942   0.425   4.593   0.243
 5681SOL    HW217943   0.275   4.556   0.190
 5682SOL     OW17944   2.329   4.291   5.552
 5682SOL    HW117945   2.411   4.312   5.499
 5682SOL    HW217946   2.292   4.203   5.523
 5683SOL     OW17947   4.067   0.677   6.621
 5683SOL    HW117948   4.003   0.724   6.682
 5683SOL    HW217949   4.151   0.658   6.670
 5684SOL     OW17950   3.142   3.831   5.381
 5684SOL    HW117951   3.224   3.788   5.343
 5684SOL    HW217952   3.066   3.817   5.317
 5685SOL     OW17953   1.561   2.848   2.351
 5685SOL    HW117954   1.526   2.940   2.331
 5685SOL    HW217955   1.530   2.821   2.442
 5686SOL     OW17956   3.090   0.903   6.295
 5686SOL    HW117957   3.011   0.842   6.298
 5686SOL    HW217958   3.063   0.992   6.257
 5687SOL     OW17959   0.519   4.536   6.386
 5687SOL    HW117960   0.552   4.446   6.415
 5687SOL    HW217961   0.424   4.528   6.354
 5688SOL     OW17962   0.370   2.362   0.831
 5688SOL    HW117963   0.279   2.344   0.868
 5688SOL    HW217964   0.424   2.279   0.834
 5689SOL     OW17965   4.246   1.388   0.977
 5689SOL    HW117966   4.319   1.433   0.926
 5689SOL    HW217967   4.277   1.300   1.010
 5690SOL     OW17968   2.450   5.944   0.388
 5690SOL    HW117969   2.478   5.963   0.482
 5690SOL    HW217970   2.372   6.002   0.364
 5691SOL     OW17971   3.011   0.008   2.047
 5691SOL    HW117972   2.953   6.977   2.113
 5691SOL    HW217973   3.107   7.014   2.072
 5692SOL     OW17974   5.984   3.056   0.566
 5692SOL    HW117975   5.970   3.060   0.665
 5692SOL    HW217976   6.050   2.983   0.545
 5693SOL     OW17977   5.501   2.173   2.264
 5693SOL    HW117978   5.459   2.241   2.325
 5693SOL    HW217979   5.512   2.212   2.173
 5694SOL     OW17980   0.271   1.961   3.485
 5694SOL    HW117981   0.299   1.927   3.575
 5694SOL    HW217982   0.303   1.898   3.414
 5695SOL     OW17983   0.992   2.689   2.958
 5695SOL    HW117984   1.053   2.648   3.026
 5695SOL    HW217985   0.961   2.778   2.990
 5696SOL     OW17986   1.539   1.089   2.884
 5696SOL    HW117987   1.470   1.144   2.838
 5696SOL    HW217988   1.501   1.053   2.969
 5697SOL     OW17989   5.951   2.486   1.801
 5697SOL    HW117990   5.861   2.498   1.842
 5697SOL    HW217991   5.946   2.416   1.730
 5698SOL     OW17992   0.920   3.808   3.356
 5698SOL    HW117993   0.843   3.836   3.299
 5698SOL    HW217994   0.995   3.874   3.345
 5699SOL     OW17995   0.336   2.220   3.517
 5699SOL    HW117996   0.397   2.261   3.449
 5699SOL    HW217997   0.316   2.125   3.491
 5700SOL     OW17998   0.132   6.990   4.195
 5700SOL    HW117999   0.135   6.964   4.099
 5700SOL    HW218000   0.118   0.071   4.203
 5701SOL     OW18001   1.463   0.914   2.361
 5701SOL    HW118002   1.490   1.001   2.402
 5701SOL    HW218003   1.469   0.921   2.261
 5702SOL     OW18004   2.519   5.934   4.982
 5702SOL    HW118005   2.554   5.877   5.056
 5702SOL    HW218006   2.427   5.965   5.004
 5703SOL     OW18007   6.321   4.745   1.265
 5703SOL    HW118008   6.234   4.784   1.295
 5703SOL    HW218009   6.357   4.798   1.189
 5704SOL     OW18010   4.350   4.616   2.423
 5704SOL    HW118011   4.299   4.623   2.337
 5704SOL    HW218012   4.288   4.636   2.500
 5705SOL     OW18013   4.822   0.930   1.003
 5705SOL    HW118014   4.894   0.999   0.997
 5705SOL    HW218015   4.848   0.849   0.952
 5706SOL     OW18016   6.630   3.766   0.677
 5706SOL    HW118017   6.577   3.846   0.707
 5706SOL    HW218018   6.599   3.739   0.586
 5707SOL     OW18019   0.482   6.583   0.408
 5707SOL    HW118020   0.478   6.498   0.461
 5707SOL    HW218021   0.395   6.598   0.362
 5708SOL     OW18022   5.394   6.292   1.206
 5708SOL    HW118023   5.427   6.232   1.133
 5708SOL    HW218024   5.336   6.240   1.269
 5709SOL     OW18025   1.532   6.798   2.372
 5709SOL    HW118026   1.539   6.713   2.320
 5709SOL    HW218027   1.587   6.869   2.328
 5710SOL     OW18028   2.822   2.850   0.086
 5710SOL    HW118029   2.800   2.774   0.026
 5710SOL    HW218030   2.758   2.853   0.162
 5711SOL     OW18031   5.160   1.255   2.611
 5711SOL    HW118032   5.112   1.180   2.657
 5711SOL    HW218033   5.177   1.328   2.677
 5712SOL     OW18034   0.496   6.006   6.437
 5712SOL    HW118035   0.476   6.102   6.417
 5712SOL    HW218036   0.452   5.947   6.369
 5713SOL     OW18037   2.707   2.927   1.670
 5713SOL    HW118038   2.617   2.890   1.692
 5713SOL    HW218039   2.750   2.871   1.599
 5714SOL     OW18040   0.545   5.774   6.862
 5714SOL    HW118041   0.586   5.734   6.780
 5714SOL    HW218042   0.524   5.701   6.927
 5715SOL     OW18043   0.521   6.499   3.719
 5715SOL    HW118044   0.439   6.505   3.776
 5715SOL    HW218045   0.597   6.464   3.774
 5716SOL     OW18046   1.443   4.031   6.808
 5716SOL    HW118047   1.391   4.109   6.773
 5716SOL    HW218048   1.541   4.048   6.797
 5717SOL     OW18049   2.186   5.697   0.640
 5717SOL    HW118050   2.271   5.672   0.594
 5717SOL    HW218051   2.166   5.794   0.623
 5718SOL     OW18052   0.629   2.355   5.838
 5718SOL    HW118053   0.580   2.269   5.846
 5718SOL    HW218054   0.564   2.430   5.829
 5719SOL     OW18055   3.119   1.580   6.642
 5719SOL    HW118056   3.137   1.501   6.584
 5719SOL    HW218057   3.154   1.563   6.734
 5720SOL     OW18058   1.424   5.409   5.032
 5720SOL    HW118059   1.328   5.425   5.010
 5720SOL    HW218060   1.451   5.468   5.109
 5721SOL     OW18061   0.653   4.002   1.185
 5721SOL    HW118062   0.630   4.005   1.087
 5721SOL    HW218063   0.575   4.033   1.238
 5722SOL     OW18064   6.217   1.652   5.466
 5722SOL    HW118065   6.226   1.698   5.555
 5722SOL    HW218066   6.123   1.621   5.454
 5723SOL     OW18067   4.561   3.569   7.007
 5723SOL    HW118068   4.614   3.515   0.054
 5723SOL    HW218069   4.603   3.563   6.916
 5724SOL     OW18070   4.861   2.943   4.870
 5724SOL    HW118071   4.864   2.852   4.828
 5724SOL    HW218072   4.861   3.012   4.798
 5725SOL     OW18073   5.257   4.784   3.576
 5725SOL    HW118074   5.213   4.744   3.657
 5725SOL    HW218075   5.211   4.869   3.553
 5726SOL     OW18076   6.851   4.498   5.309
 5726SOL    HW118077   6.938   4.495   5.359
 5726SOL    HW218078   6.846   4.583   5.256
 5727SOL     OW18079   6.633   1.389   3.900
 5727SOL    HW118080   6.646   1.290   3.907
 5727SOL    HW218081   6.536   1.410   3.901
 5728SOL     OW18082   3.952   1.117   6.076
 5728SOL    HW118083   3.874   1.179   6.085
 5728SOL    HW218084   3.961   1.088   5.981
 5729SOL     OW18085   0.814   0.963   0.537
 5729SOL    HW118086   0.749   1.033   0.507
 5729SOL    HW218087   0.898   0.969   0.483
 5730SOL     OW18088   4.773   5.624   6.057
 5730SOL    HW118089   4.832   5.586   6.128
 5730SOL    HW218090   4.798   5.585   5.968
 5731SOL     OW18091   0.459   6.962   4.005
 5731SOL    HW118092   0.419   6.909   4.080
 5731SOL    HW218093   0.545   6.920   3.976
 5732SOL     OW18094   6.350   5.430   4.574
 5732SOL    HW118095   6.355   5.401   4.479
 5732SOL    HW218096   6.300   5.361   4.627
 5733SOL     OW18097   3.716   6.668   4.796
 5733SOL    HW118098   3.698   6.569   4.796
 5733SOL    HW218099   3.808   6.685   4.762
 5734SOL     OW18100   0.760   6.909   6.197
 5734SOL    HW118101   0.832   6.845   6.227
 5734SOL    HW218102   0.747   6.979   6.267
 5735SOL     OW18103   3.964   2.152   1.948
 5735SOL    HW118104   3.954   2.089   1.870
 5735SOL    HW218105   3.874   2.183   1.977
 5736SOL     OW18106   5.912   4.100   0.480
 5736SOL    HW118107   5.963   4.017   0.459
 5736SOL    HW218108   5.955   4.146   0.558
 5737SOL     OW18109   5.011   6.307   0.632
 5737SOL    HW118110   4.915   6.290   0.610
 5737SOL    HW218111   5.066   6.300   0.548
 5738SOL     OW18112   3.067   3.199   6.364
 5738SOL    HW118113   3.093   3.146   6.284
 5738SOL    HW218114   3.046   3.137   6.440
 5739SOL     OW18115   1.203   0.565   5.701
 5739SOL    HW118116   1.271   0.603   5.638
 5739SOL    HW218117   1.179   0.634   5.770
 5740SOL     OW18118   4.087   3.654   1.515
 5740SOL    HW118119   4.045   3.705   1.439
 5740SOL    HW218120   4.076   3.556   1.499
 5741SOL     OW18121   6.986   4.359   4.166
 5741SOL    HW118122   6.894   4.375   4.131
 5741SOL    HW218123   7.003   4.415   4.247
 5742SOL     OW18124   4.754   6.695   3.022
 5742SOL    HW118125   4.822   6.763   3.047
 5742SOL    HW218126   4.694   6.731   2.952
 5743SOL     OW18127   2.738   5.312   5.375
 5743SOL    HW118128   2.651   5.310   5.325
 5743SOL    HW218129   2.813   5.296   5.311
 5744SOL     OW18130   5.350   1.559   1.970
 5744SOL    HW118131   5.317   1.474   1.930
 5744SOL    HW218132   5.273   1.618   1.992
 5745SOL     OW18133   1.836   0.806   4.221
 5745SOL    HW118134   1.809   0.888   4.170
 5745SOL    HW218135   1.807   0.725   4.170
 5746SOL     OW18136   5.486   6.561   1.281
 5746SOL    HW118137   5.465   6.464   1.275
 5746SOL    HW218138   5.442   6.609   1.205
 5747SOL     OW18139   0.181   4.472   3.001
 5747SOL    HW118140   0.082   4.467   2.992
 5747SOL    HW218141   0.223   4.403   2.942
 5748SOL     OW18142   1.798   6.214   0.847
 5748SOL    HW118143   1.729   6.208   0.919
 5748SOL    HW218144   1.814   6.311   0.825
 5749SOL     OW18145   1.034   6.563   4.323
 5749SOL    HW118146   1.027   6.465   4.300
 5749SOL    HW218147   1.123   6.597   4.295
 5750SOL     OW18148   6.881   5.942   4.360
 5750SOL    HW118149   6.888   5.899   4.450
 5750SOL    HW218150   6.806   6.008   4.360
 5751SOL     OW18151   2.627   2.455   4.453
 5751SOL    HW118152   2.689   2.448   4.531
 5751SOL    HW218153   2.568   2.374   4.451
 5752SOL     OW18154   6.612   0.439   0.393
 5752SOL    HW118155   6.641   0.395   0.308
 5752SOL    HW218156   6.603   0.370   0.464
 5753SOL     OW18157   3.849   2.959   4.510
 5753SOL    HW118158   3.859   2.881   4.570
 5753SOL    HW218159   3.756   2.996   4.517
 5754SOL     OW18160   6.804   4.971   1.246
 5754SOL    HW118161   6.858   5.019   1.314
 5754SOL    HW218162   6.725   4.928   1.290
 5755SOL     OW18163   2.303   3.218   6.234
 5755SOL    HW118164   2.281   3.194   6.328
 5755SOL    HW218165   2.229   3.272   6.195
 5756SOL     OW18166   6.176   6.868   3.243
 5756SOL    HW118167   6.195   6.960   3.209
 5756SOL    HW218168   6.258   6.831   3.286
 5757SOL     OW18169   6.696   6.692   2.760
 5757SOL    HW118170   6.722   6.760   2.829
 5757SOL    HW218171   6.661   6.610   2.806
 5758SOL     OW18172   2.605   0.644   4.629
 5758SOL    HW118173   2.648   0.731   4.607
 5758SOL    HW218174   2.655   0.600   4.703
 5759SOL     OW18175   5.410   1.660   6.788
 5759SOL    HW118176   5.375   1.722   6.718
 5759SOL    HW218177   5.401   1.702   6.878
 5760SOL     OW18178   0.378   4.435   0.590
 5760SOL    HW118179   0.442   4.360   0.605
 5760SOL    HW218180   0.319   4.446   0.671
 5761SOL     OW18181   5.635   6.089   6.419
 5761SOL    HW118182   5.677   6.164   6.470
 5761SOL    HW218183   5.553   6.057   6.467
 5762SOL     OW18184   4.758   5.493   0.592
 5762SOL    HW118185   4.721   5.412   0.546
 5762SOL    HW218186   4.842   5.521   0.546
 5763SOL     OW18187   0.406   6.903   0.327
 5763SOL    HW118188   0.442   6.881   0.236
 5763SOL    HW218189   0.358   6.823   0.363
 5764SOL     OW18190   5.384   5.348   5.113
 5764SOL    HW118191   5.410   5.435   5.155
 5764SOL    HW218192   5.448   5.277   5.142
 5765SOL     OW18193   6.332   3.189   0.485
 5765SOL    HW118194   6.376   3.225   0.403
 5765SOL    HW218195   6.359   3.244   0.564
 5766SOL     OW18196   1.987   2.604   6.687
 5766SOL    HW118197   1.960   2.700   6.679
 5766SOL    HW218198   1.916   2.547   6.646
 5767SOL     OW18199   2.004   0.868   0.033
 5767SOL    HW118200   2.079   0.884   6.986
 5767SOL    HW218201   1.920   0.849   7.000
 5768SOL     OW18202   0.869   6.401   3.127
 5768SOL    HW118203   0.879   6.321   3.186
 5768SOL    HW218204   0.909   6.381   3.037
 5769SOL     OW18205   2.180   5.801   4.242
 5769SOL    HW118206   2.168   5.887   4.293
 5769SOL    HW218207   2.165   5.724   4.304
 5770SOL     OW18208   5.988   6.641   0.655
 5770SOL    HW118209   6.039   6.690   0.726
 5770SOL    HW218210   5.987   6.696   0.572
 5771SOL     OW18211   1.652   0.112   3.371
 5771SOL    HW118212   1.670   0.014   3.360
 5771SOL    HW218213   1.665   0.137   3.466
 5772SOL     OW18214   5.879   1.928   1.081
 5772SOL    HW118215   5.873   1.990   1.158
 5772SOL    HW218216   5.788   1.893   1.059
 5773SOL     OW18217   4.406   0.886   3.800
 5773SOL    HW118218   4.437   0.967   3.751
 5773SOL    HW218219   4.315   0.860   3.769
 5774SOL     OW18220   2.938   5.549   3.742
 5774SOL    HW118221   2.919   5.591   3.653
 5774SOL    HW218222   3.023   5.497   3.737
 5775SOL     OW18223   1.280   1.395   2.114
 5775SOL    HW118224   1.228   1.318   2.076
 5775SOL    HW218225   1.376   1.371   2.122
 5776SOL     OW18226   0.389   0.526   5.565
 5776SOL    HW118227   0.393   0.614   5.517
 5776SOL    HW218228   0.380   0.452   5.498
 5777SOL     OW18229   6.497   0.032   4.838
 5777SOL    HW118230   6.595   0.029   4.860
 5777SOL    HW218231   6.461   0.122   4.860
 5778SOL     OW18232   1.443   0.652   1.612
 5778SOL    HW118233   1.386   0.572   1.631
 5778SOL    HW218234   1.539   0.624   1.606
 5779SOL     OW18235   4.695   2.050   0.497
 5779SOL    HW118236   4.781   2.008   0.471
 5779SOL    HW218237   4.669   2.018   0.589
 5780SOL     OW18238   6.185   4.936   3.323
 5780SOL    HW118239   6.229   4.847   3.313
 5780SOL    HW218240   6.242   4.994   3.382
 5781SOL     OW18241   6.719   4.203   4.483
 5781SOL    HW118242   6.655   4.173   4.412
 5781SOL    HW218243   6.765   4.124   4.522
 5782SOL     OW18244   0.535   0.861   0.658
 5782SOL    HW118245   0.607   0.906   0.605
 5782SOL    HW218246   0.576   0.793   0.718
 5783SOL     OW18247   1.726   0.894   1.594
 5783SOL    HW118248   1.725   0.796   1.613
 5783SOL    HW218249   1.742   0.909   1.496
 5784SOL     OW18250   6.935   6.157   0.064
 5784SOL    HW118251   6.845   6.198   0.054
 5784SOL    HW218252   6.933   6.062   0.032
 5785SOL     OW18253   1.715   1.862   0.630
 5785SOL    HW118254   1.707   1.846   0.728
 5785SOL    HW218255   1.808   1.892   0.608
 5786SOL     OW18256   0.584   4.447   1.039
 5786SOL    HW118257   0.636   4.391   0.974
 5786SOL    HW218258   0.621   4.540   1.038
 5787SOL     OW18259   3.898   2.361   5.537
 5787SOL    HW118260   3.941   2.323   5.455
 5787SOL    HW218261   3.961   2.355   5.614
 5788SOL     OW18262   2.806   1.388   1.332
 5788SOL    HW118263   2.860   1.466   1.363
 5788SOL    HW218264   2.858   1.336   1.265
 5789SOL     OW18265   3.033   4.080   0.079
 5789SOL    HW118266   2.950   4.133   0.098
 5789SOL    HW218267   3.010   4.003   0.019
 5790SOL     OW18268   0.419   4.584   4.591
 5790SOL    HW118269   0.353   4.612   4.660
 5790SOL    HW218270   0.502   4.639   4.599
 5791SOL     OW18271   3.071   1.604   2.256
 5791SOL    HW118272   3.159   1.577   2.296
 5791SOL    HW218273   3.074   1.590   2.157
 5792SOL     OW18274   5.423   2.681   2.122
 5792SOL    HW118275   5.459   2.725   2.039
 5792SOL    HW218276   5.445   2.738   2.201
 5793SOL     OW18277   6.235   0.678   4.343
 5793SOL    HW118278   6.208   0.585   4.318
 5793SOL    HW218279   6.273   0.724   4.263
 5794SOL     OW18280   2.452   0.622   6.272
 5794SOL    HW118281   2.491   0.617   6.180
 5794SOL    HW218282   2.352   0.618   6.266
 5795SOL     OW18283   0.253   6.523   0.650
 5795SOL    HW118284   0.173   6.577   0.676
 5795SOL    HW218285   0.336   6.571   0.680
 5796SOL     OW18286   4.837   1.123   6.665
 5796SOL    HW118287   4.883   1.080   6.743
 5796SOL    HW218288   4.769   1.060   6.628
 5797SOL     OW18289   4.852   2.141   0.178
 5797SOL    HW118290   4.891   2.075   0.243
 5797SOL    HW218291   4.919   2.214   0.160
 5798SOL     OW18292   6.906   5.412   4.409
 5798SOL    HW118293   6.819   5.420   4.458
 5798SOL    HW218294   6.954   5.329   4.438
 5799SOL     OW18295   6.971   0.533   4.756
 5799SOL    HW118296   6.971   0.538   4.656
 5799SOL    HW218297   7.011   0.446   4.786
 5800SOL     OW18298   0.262   6.967   1.842
 5800SOL    HW118299   0.354   6.950   1.877
 5800SOL    HW218300   0.202   6.994   1.917
 5801SOL     OW18301   1.669   1.856   3.518
 5801SOL    HW118302   1.655   1.954   3.500
 5801SOL    HW218303   1.632   1.803   3.443
 5802SOL     OW18304   6.702   3.139   2.942
 5802SOL    HW118305   6.612   3.100   2.920
 5802SOL    HW218306   6.703   3.165   3.038
 5803SOL     OW18307   2.344   6.124   2.909
 5803SOL    HW118308   2.347   6.160   2.815
 5803SOL    HW218309   2.250   6.100   2.933
 5804SOL     OW18310   0.439   5.079   3.128
 5804SOL    HW118311   0.512   5.022   3.166
 5804SOL    HW218312   0.367   5.090   3.195
 5805SOL     OW18313   1.668   2.753   0.880
 5805SOL    HW118314   1.593   2.728   0.941
 5805SOL    HW218315   1.748   2.776   0.935
 5806SOL     OW18316   6.573   5.765   4.470
 5806SOL    HW118317   6.622   5.727   4.392
 5806SOL    HW218318   6.631   5.761   4.551
 5807SOL     OW18319   1.280   5.076   0.362
 5807SOL    HW118320   1.300   5.173   0.347
 5807SOL    HW218321   1.184   5.066   0.389
 5808SOL     OW18322   0.067   5.977   4.205
 5808SOL    HW118323   7.007   5.959   4.266
 5808SOL    HW218324   0.049   6.060   4.152
 5809SOL     OW18325   6.763   1.401   5.465
 5809SOL    HW118326   6.793   1.494   5.487
 5809SOL    HW218327   6.768   1.387   5.366
 5810SOL     OW18328   4.879   0.980   5.785
 5810SOL    HW118329   4.782   0.958   5.773
 5810SOL    HW218330   4.888   1.076   5.813
 5811SOL     OW18331   3.399   1.060   4.978
 5811SOL    HW118332   3.475   1.015   4.931
 5811SOL    HW218333   3.433   1.114   5.054
 5812SOL     OW18334   5.423   3.116   5.844
 5812SOL    HW118335   5.334   3.116   5.889
 5812SOL    HW218336   5.462   3.208   5.847
 5813SOL     OW18337   2.349   1.021   0.676
 5813SOL    HW118338   2.357   1.097   0.740
 5813SOL    HW218339   2.387   1.048   0.587
 5814SOL     OW18340   6.804   3.431   2.316
 5814SOL    HW118341   6.886   3.488   2.318
 5814SOL    HW218342   6.830   3.335   2.320
 5815SOL     OW18343   3.778   1.636   3.528
 5815SOL    HW118344   3.801   1.714   3.471
 5815SOL    HW218345   3.680   1.636   3.548
 5816SOL     OW18346   4.829   4.532   0.472
 5816SOL    HW118347   4.829   4.594   0.393
 5816SOL    HW218348   4.796   4.580   0.553
 5817SOL     OW18349   6.131   4.876   5.798
 5817SOL    HW118350   6.123   4.808   5.726
 5817SOL    HW218351   6.153   4.965   5.758
 5818SOL     OW18352   6.483   5.184   5.704
 5818SOL    HW118353   6.563   5.201   5.646
 5818SOL    HW218354   6.467   5.263   5.763
 5819SOL     OW18355   4.046   0.130   6.789
 5819SOL    HW118356   3.949   0.118   6.770
 5819SOL    HW218357   4.093   0.161   6.706
 5820SOL     OW18358   4.294   4.643   2.912
 5820SOL    HW118359   4.353   4.563   2.904
 5820SOL    HW218360   4.266   4.655   3.007
 5821SOL     OW18361   0.103   0.729   1.808
 5821SOL    HW118362   0.180   0.669   1.785
 5821SOL    HW218363   0.058   0.760   1.724
 5822SOL     OW18364   1.738   2.600   1.674
 5822SOL    HW118365   1.828   2.561   1.654
 5822SOL    HW218366   1.672   2.525   1.689
 5823SOL     OW18367   2.898   0.821   4.340
 5823SOL    HW118368   2.850   0.734   4.328
 5823SOL    HW218369   2.931   0.829   4.434
 5824SOL     OW18370   0.165   5.991   2.852
 5824SOL    HW118371   0.202   5.913   2.801
 5824SOL    HW218372   0.183   5.977   2.949
 5825SOL     OW18373   0.231   6.945   4.684
 5825SOL    HW118374   0.320   6.983   4.708
 5825SOL    HW218375   0.231   6.846   4.699
 5826SOL     OW18376   6.635   5.459   6.561
 5826SOL    HW118377   6.662   5.439   6.655
 5826SOL    HW218378   6.541   5.494   6.560
 5827SOL     OW18379   1.879   3.493   4.886
 5827SOL    HW118380   1.826   3.577   4.879
 5827SOL    HW218381   1.918   3.484   4.977
 5828SOL     OW18382   5.219   1.904   2.382
 5828SOL    HW118383   5.317   1.895   2.365
 5828SOL    HW218384   5.169   1.834   2.331
 5829SOL     OW18385   2.041   0.287   4.289
 5829SOL    HW118386   2.129   0.239   4.285
 5829SOL    HW218387   1.980   0.249   4.219
 5830SOL     OW18388   5.571   6.994   5.791
 5830SOL    HW118389   5.545   0.048   5.726
 5830SOL    HW218390   5.490   6.966   5.843
 5831SOL     OW18391   1.066   0.960   5.736
 5831SOL    HW118392   0.998   1.030   5.760
 5831SOL    HW218393   1.124   0.994   5.662
 5832SOL     OW18394   3.273   4.780   6.802
 5832SOL    HW118395   3.340   4.807   6.870
 5832SOL    HW218396   3.319   4.754   6.717
 5833SOL     OW18397   4.289   3.682   5.493
 5833SOL    HW118398   4.251   3.635   5.413
 5833SOL    HW218399   4.238   3.767   5.509
 5834SOL     OW18400   0.133   3.619   0.190
 5834SOL    HW118401   0.139   3.580   0.282
 5834SOL    HW218402   0.155   3.548   0.123
 5835SOL     OW18403   5.659   2.357   3.109
 5835SOL    HW118404   5.574   2.332   3.155
 5835SOL    HW218405   5.642   2.435   3.048
 5836SOL     OW18406   3.121   0.468   1.552
 5836SOL    HW118407   3.042   0.424   1.596
 5836SOL    HW218408   3.176   0.515   1.621
 5837SOL     OW18409   3.475   3.664   0.098
 5837SOL    HW118410   3.540   3.735   0.069
 5837SOL    HW218411   3.394   3.708   0.138
 5838SOL     OW18412   2.681   1.937   0.799
 5838SOL    HW118413   2.611   2.003   0.827
 5838SOL    HW218414   2.683   1.931   0.700
 5839SOL     OW18415   0.719   2.074   1.762
 5839SOL    HW118416   0.697   1.989   1.715
 5839SOL    HW218417   0.657   2.146   1.731
 5840SOL     OW18418   1.826   4.514   6.147
 5840SOL    HW118419   1.773   4.552   6.071
 5840SOL    HW218420   1.790   4.424   6.171
 5841SOL     OW18421   4.917   1.462   2.423
 5841SOL    HW118422   4.908   1.504   2.513
 5841SOL    HW218423   4.835   1.407   2.404
 5842SOL     OW18424   4.689   2.896   1.638
 5842SOL    HW118425   4.659   2.940   1.722
 5842SOL    HW218426   4.711   2.966   1.570
 5843SOL     OW18427   1.295   4.476   2.373
 5843SOL    HW118428   1.271   4.568   2.343
 5843SOL    HW218429   1.391   4.473   2.400
 5844SOL     OW18430   1.798   6.014   5.330
 5844SOL    HW118431   1.723   5.995   5.267
 5844SOL    HW218432   1.763   6.053   5.415
 5845SOL     OW18433   0.884   0.565   2.175
 5845SOL    HW118434   0.791   0.530   2.179
 5845SOL    HW218435   0.905   0.595   2.082
 5846SOL     OW18436   6.059   3.466   6.346
 5846SOL    HW118437   6.023   3.482   6.439
 5846SOL    HW218438   6.004   3.516   6.280
 5847SOL     OW18439   2.763   2.325   2.312
 5847SOL    HW118440   2.817   2.323   2.228
 5847SOL    HW218441   2.749   2.232   2.345
 5848SOL     OW18442   1.431   5.273   3.464
 5848SOL    HW118443   1.481   5.270   3.550
 5848SOL    HW218444   1.360   5.203   3.464
 5849SOL     OW18445   1.935   0.187   5.149
 5849SOL    HW118446   2.027   0.175   5.110
 5849SOL    HW218447   1.891   0.266   5.107
 5850SOL     OW18448   6.817   3.875   1.861
 5850SOL    HW118449   6.892   3.874   1.794
 5850SOL    HW218450   6.826   3.796   1.922
 5851SOL     OW18451   5.330   2.891   3.282
 5851SOL    HW118452   5.264   2.870   3.210
 5851SOL    HW218453   5.352   2.807   3.332
 5852SOL     OW18454   5.776   6.125   3.098
 5852SOL    HW118455   5.828   6.059   3.045
 5852SOL    HW218456   5.686   6.088   3.120
 5853SOL     OW18457   3.762   5.216   4.927
 5853SOL    HW118458   3.705   5.264   4.860
 5853SOL    HW218459   3.705   5.185   5.003
 5854SOL     OW18460   4.228   4.339   6.021
 5854SOL    HW118461   4.180   4.255   6.048
 5854SOL    HW218462   4.161   4.412   6.007
 5855SOL     OW18463   1.621   0.813   4.401
 5855SOL    HW118464   1.626   0.892   4.463
 5855SOL    HW218465   1.704   0.809   4.345
 5856SOL     OW18466   1.954   5.705   3.389
 5856SOL    HW118467   2.039   5.754   3.371
 5856SOL    HW218468   1.925   5.658   3.306
 5857SOL     OW18469   6.218   2.870   5.839
 5857SOL    HW118470   6.153   2.818   5.895
 5857SOL    HW218471   6.190   2.867   5.743
 5858SOL     OW18472   2.768   2.368   2.600
 5858SOL    HW118473   2.769   2.373   2.500
 5858SOL    HW218474   2.685   2.411   2.634
 5859SOL     OW18475   6.403   6.442   1.856
 5859SOL    HW118476   6.480   6.501   1.881
 5859SOL    HW218477   6.407   6.358   1.909
 5860SOL     OW18478   0.102   4.402   3.507
 5860SOL    HW118479   0.076   4.340   3.581
 5860SOL    HW218480   0.193   4.379   3.474
 5861SOL     OW18481   5.482   1.686   4.113
 5861SOL    HW118482   5.454   1.751   4.043
 5861SOL    HW218483   5.471   1.593   4.079
 5862SOL     OW18484   5.943   5.590   0.929
 5862SOL    HW118485   5.967   5.509   0.875
 5862SOL    HW218486   5.953   5.570   1.027
 5863SOL     OW18487   3.052   2.076   5.196
 5863SOL    HW118488   3.108   2.001   5.160
 5863SOL    HW218489   3.077   2.161   5.150
 5864SOL     OW18490   3.392   4.145   2.864
 5864SOL    HW118491   3.481   4.166   2.822
 5864SOL    HW218492   3.328   4.118   2.792
 5865SOL     OW18493   6.339   0.027   5.856
 5865SOL    HW118494   6.258   6.987   5.846
 5865SOL    HW218495   6.420   6.988   5.869
 5866SOL     OW18496   3.753   4.084   0.689
 5866SOL    HW118497   3.763   4.011   0.757
 5866SOL    HW218498   3.674   4.064   0.630
 5867SOL     OW18499   2.231   3.477   0.891
 5867SOL    HW118500   2.322   3.445   0.863
 5867SOL    HW218501   2.220   3.573   0.865
 5868SOL     OW18502   1.604   1.683   5.134
 5868SOL    HW118503   1.603   1.657   5.037
 5868SOL    HW218504   1.673   1.753   5.149
 5869SOL     OW18505   2.099   6.652   3.367
 5869SOL    HW118506   2.065   6.746   3.363
 5869SOL    HW218507   2.033   6.595   3.414
 5870SOL     OW18508   4.538   6.868   4.859
 5870SOL    HW118509   4.634   6.849   4.879
 5870SOL    HW218510   4.532   6.936   4.786
 5871SOL     OW18511   3.172   3.205   1.535
 5871SOL    HW118512   3.187   3.187   1.632
 5871SOL    HW218513   3.247   3.165   1.481
 5872SOL     OW18514   4.750   6.833   0.911
 5872SOL    HW118515   4.688   6.773   0.861
 5872SOL    HW218516   4.718   6.844   1.005
 5873SOL     OW18517   3.661   1.041   2.134
 5873SOL    HW118518   3.739   1.103   2.128
 5873SOL    HW218519   3.643   1.018   2.230
 5874SOL     OW18520   2.455   4.668   5.688
 5874SOL    HW118521   2.495   4.587   5.731
 5874SOL    HW218522   2.494   4.681   5.597
 5875SOL     OW18523   4.093   1.517   0.188
 5875SOL    HW118524   4.087   1.616   0.169
 5875SOL    HW218525   4.053   1.467   0.111
 5876SOL     OW18526   3.554   3.232   1.278
 5876SOL    HW118527   3.556   3.211   1.180
 5876SOL    HW218528   3.475   3.187   1.320
 5877SOL     OW18529   0.750   0.102   1.647
 5877SOL    HW118530   0.659   0.112   1.689
 5877SOL    HW218531   0.806   0.042   1.704
 5878SOL     OW18532   6.718   5.691   4.212
 5878SOL    HW118533   6.770   5.774   4.188
 5878SOL    HW218534   6.755   5.613   4.162
 5879SOL     OW18535   1.342   4.212   6.620
 5879SOL    HW118536   1.243   4.207   6.625
 5879SOL    HW218537   1.374   4.171   6.534
 5880SOL     OW18538   4.336   4.382   6.296
 5880SOL    HW118539   4.329   4.351   6.202
 5880SOL    HW218540   4.400   4.458   6.303
 5881SOL     OW18541   1.217   6.619   2.641
 5881SOL    HW118542   1.263   6.612   2.730
 5881SOL    HW218543   1.219   6.714   2.611
 5882SOL     OW18544   0.175   5.388   1.169
 5882SOL    HW118545   0.182   5.290   1.182
 5882SOL    HW218546   0.082   5.410   1.137
 5883SOL     OW18547   0.685   1.130   6.772
 5883SOL    HW118548   0.617   1.201   6.752
 5883SOL    HW218549   0.709   1.082   6.687
 5884SOL     OW18550   3.606   1.374   4.634
 5884SOL    HW118551   3.549   1.292   4.639
 5884SOL    HW218552   3.658   1.374   4.549
 5885SOL     OW18553   0.903   6.902   2.651
 5885SOL    HW118554   0.868   6.923   2.742
 5885SOL    HW218555   0.868   6.814   2.621
 5886SOL     OW18556   0.583   2.057   4.789
 5886SOL    HW118557   0.565   2.093   4.697
 5886SOL    HW218558   0.631   1.970   4.782
 5887SOL     OW18559   2.680   2.081   2.355
 5887SOL    HW118560   2.642   2.065   2.264
 5887SOL    HW218561   2.610   2.124   2.413
 5888SOL     OW18562   3.125   0.890   1.589
 5888SOL    HW118563   3.089   0.839   1.511
 5888SOL    HW218564   3.132   0.987   1.565
 5889SOL     OW18565   0.948   6.689   0.655
 5889SOL    HW118566   0.935   6.770   0.712
 5889SOL    HW218567   0.995   6.618   0.708
 5890SOL     OW18568   1.930   1.148   3.429
 5890SOL    HW118569   1.923   1.053   3.397
 5890SOL    HW218570   1.984   1.151   3.514
 5891SOL     OW18571   3.502   2.956   6.594
 5891SOL    HW118572   3.437   2.984   6.664
 5891SOL    HW218573   3.474   2.869   6.555
 5892SOL     OW18574   0.924   5.480   1.393
 5892SOL    HW118575   0.981   5.559   1.374
 5892SOL    HW218576   0.939   5.450   1.488
 5893SOL     OW18577   2.296   4.200   4.288
 5893SOL    HW118578   2.284   4.148   4.204
 5893SOL    HW218579   2.275   4.141   4.366
 5894SOL     OW18580   6.607   5.120   4.040
 5894SOL    HW118581   6.662   5.193   4.000
 5894SOL    HW218582   6.650   5.088   4.124
 5895SOL     OW18583   5.451   3.823   4.023
 5895SOL    HW118584   5.503   3.749   3.979
 5895SOL    HW218585   5.354   3.809   4.007
 5896SOL     OW18586   3.748   0.671   0.311
 5896SOL    HW118587   3.716   0.763   0.288
 5896SOL    HW218588   3.693   0.603   0.263
 5897SOL     OW18589   4.166   0.714   1.529
 5897SOL    HW118590   4.254   0.666   1.536
 5897SOL    HW218591   4.168   0.794   1.589
 5898SOL     OW18592   2.163   6.613   3.782
 5898SOL    HW118593   2.114   6.693   3.816
 5898SOL    HW218594   2.247   6.641   3.737
 5899SOL     OW18595   5.765   5.625   6.757
 5899SOL    HW118596   5.805   5.706   6.713
 5899SOL    HW218597   5.836   5.578   6.809
 5900SOL     OW18598   6.216   5.648   3.754
 5900SOL    HW118599   6.288   5.699   3.706
 5900SOL    HW218600   6.242   5.552   3.762
 5901SOL     OW18601   2.355   0.822   0.064
 5901SOL    HW118602   2.290   0.829   7.006
 5901SOL    HW218603   2.319   0.758   0.132
 5902SOL     OW18604   6.293   2.246   5.569
 5902SOL    HW118605   6.217   2.264   5.631
 5902SOL    HW218606   6.364   2.316   5.581
 5903SOL     OW18607   4.907   5.222   0.289
 5903SOL    HW118608   4.960   5.213   0.205
 5903SOL    HW218609   4.814   5.250   0.267
 5904SOL     OW18610   1.157   4.301   1.621
 5904SOL    HW118611   1.110   4.216   1.599
 5904SOL    HW218612   1.158   4.361   1.541
 5905SOL     OW18613   6.444   6.507   3.126
 5905SOL    HW118614   6.473   6.475   3.216
 5905SOL    HW218615   6.359   6.461   3.101
 5906SOL     OW18616   3.506   2.055   3.898
 5906SOL    HW118617   3.437   2.079   3.831
 5906SOL    HW218618   3.470   2.068   3.990
 5907SOL     OW18619   1.564   4.905   0.772
 5907SOL    HW118620   1.584   4.959   0.853
 5907SOL    HW218621   1.629   4.829   0.765
 5908SOL     OW18622   0.135   2.876   0.107
 5908SOL    HW118623   0.046   2.894   0.066
 5908SOL    HW218624   0.124   2.863   0.206
 5909SOL     OW18625   6.239   5.410   0.734
 5909SOL    HW118626   6.292   5.351   0.672
 5909SOL    HW218627   6.183   5.353   0.794
 5910SOL     OW18628   0.056   3.960   4.013
 5910SOL    HW118629   0.049   4.027   4.086
 5910SOL    HW218630   7.017   3.880   4.035
 5911SOL     OW18631   6.925   5.969   6.549
 5911SOL    HW118632   6.863   5.906   6.596
 5911SOL    HW218633   6.913   6.061   6.587
 5912SOL     OW18634   6.243   1.440   6.127
 5912SOL    HW118635   6.149   1.407   6.119
 5912SOL    HW218636   6.292   1.423   6.041
 5913SOL     OW18637   5.052   2.941   6.312
 5913SOL    HW118638   5.139   2.893   6.326
 5913SOL    HW218639   4.990   2.882   6.260
 5914SOL     OW18640   1.375   4.479   5.704
 5914SOL    HW118641   1.315   4.557   5.685
 5914SOL    HW218642   1.334   4.422   5.775
 5915SOL     OW18643   4.702   5.730   1.200
 5915SOL    HW118644   4.800   5.747   1.213
 5915SOL    HW218645   4.667   5.674   1.275
 5916SOL     OW18646   5.134   6.969   3.952
 5916SOL    HW118647   5.144   0.025   3.886
 5916SOL    HW218648   5.204   6.900   3.936
 5917SOL     OW18649   2.979   3.522   4.228
 5917SOL    HW118650   2.973   3.441   4.287
 5917SOL    HW218651   2.973   3.605   4.283
 5918SOL     OW18652   1.818   3.465   6.237
 5918SOL    HW118653   1.740   3.526   6.226
 5918SOL    HW218654   1.879   3.500   6.307
 5919SOL     OW18655   3.445   3.150   3.025
 5919SOL    HW118656   3.474   3.188   2.937
 5919SOL    HW218657   3.444   3.222   3.094
 5920SOL     OW18658   4.953   1.011   6.934
 5920SOL    HW118659   5.046   0.979   6.955
 5920SOL    HW218660   4.887   0.958   6.987
 5921SOL     OW18661   3.682   5.511   6.653
 5921SOL    HW118662   3.620   5.471   6.720
 5921SOL    HW218663   3.708   5.440   6.586
 5922SOL     OW18664   5.438   4.869   2.697
 5922SOL    HW118665   5.489   4.930   2.757
 5922SOL    HW218666   5.376   4.812   2.752
 5923SOL     OW18667   6.443   1.409   1.377
 5923SOL    HW118668   6.421   1.313   1.395
 5923SOL    HW218669   6.418   1.431   1.283
 5924SOL     OW18670   6.234   0.335   2.799
 5924SOL    HW118671   6.224   0.342   2.699
 5924SOL    HW218672   6.272   0.247   2.823
 5925SOL     OW18673   4.082   0.020   2.336
 5925SOL    HW118674   4.050   7.008   2.426
 5925SOL    HW218675   4.120   0.113   2.344
 5926SOL     OW18676   4.146   5.530   1.427
 5926SOL    HW118677   4.139   5.499   1.332
 5926SOL    HW218678   4.089   5.611   1.440
 5927SOL     OW18679   1.550   3.824   2.276
 5927SOL    HW118680   1.518   3.838   2.369
 5927SOL    HW218681   1.614   3.896   2.251
 5928SOL     OW18682   4.282   0.246   1.003
 5928SOL    HW118683   4.202   0.306   1.008
 5928SOL    HW218684   4.358   0.296   0.959
 5929SOL     OW18685   0.084   6.857   6.576
 5929SOL    HW118686   0.018   6.809   6.634
 5929SOL    HW218687   0.037   6.894   6.496
 5930SOL     OW18688   6.823   3.603   3.122
 5930SOL    HW118689   6.737   3.556   3.143
 5930SOL    HW218690   6.805   3.681   3.062
 5931SOL     OW18691   0.027   5.478   2.630
 5931SOL    HW118692   0.010   5.386   2.668
 5931SOL    HW218693   0.061   5.470   2.537
 5932SOL     OW18694   3.426   0.329   0.362
 5932SOL    HW118695   3.326   0.323   0.357
 5932SOL    HW218696   3.463   0.343   0.270
 5933SOL     OW18697   6.903   5.780   2.769
 5933SOL    HW118698   6.982   5.742   2.819
 5933SOL    HW218699   6.834   5.811   2.835
 5934SOL     OW18700   3.466   2.925   4.961
 5934SOL    HW118701   3.375   2.921   4.921
 5934SOL    HW218702   3.459   2.947   5.058
 5935SOL     OW18703   5.182   5.169   6.484
 5935SOL    HW118704   5.209   5.147   6.391
 5935SOL    HW218705   5.243   5.239   6.521
 5936SOL     OW18706   3.529   2.763   1.471
 5936SOL    HW118707   3.435   2.737   1.452
 5936SOL    HW218708   3.575   2.690   1.522
 5937SOL     OW18709   6.701   4.287   2.338
 5937SOL    HW118710   6.703   4.293   2.239
 5937SOL    HW218711   6.679   4.193   2.366
 5938SOL     OW18712   0.125   5.619   2.861
 5938SOL    HW118713   0.177   5.682   2.802
 5938SOL    HW218714   0.083   5.548   2.804
 5939SOL     OW18715   2.681   6.597   3.089
 5939SOL    HW118716   2.745   6.531   3.128
 5939SOL    HW218717   2.632   6.643   3.163
 5940SOL     OW18718   4.693   5.611   1.486
 5940SOL    HW118719   4.652   5.587   1.574
 5940SOL    HW218720   4.720   5.707   1.488
 5941SOL     OW18721   6.161   3.010   2.298
 5941SOL    HW118722   6.131   3.008   2.203
 5941SOL    HW218723   6.082   2.997   2.358
 5942SOL     OW18724   5.095   3.810   0.329
 5942SOL    HW118725   5.181   3.840   0.287
 5942SOL    HW218726   5.061   3.881   0.391
 5943SOL     OW18727   3.097   4.547   6.048
 5943SOL    HW118728   3.159   4.517   6.121
 5943SOL    HW218729   3.123   4.503   5.962
 5944SOL     OW18730   6.592   2.900   0.960
 5944SOL    HW118731   6.664   2.844   0.999
 5944SOL    HW218732   6.557   2.857   0.877
 5945SOL     OW18733   6.503   5.117   4.591
 5945SOL    HW118734   6.478   5.180   4.517
 5945SOL    HW218735   6.423   5.062   4.615
 5946SOL     OW18736   3.761   3.274   6.205
 5946SOL    HW118737   3.796   3.188   6.240
 5946SOL    HW218738   3.823   3.308   6.134
 5947SOL     OW18739   3.235   3.414   2.582
 5947SOL    HW118740   3.272   3.426   2.490
 5947SOL    HW218741   3.136   3.404   2.577
 5948SOL     OW18742   4.239   4.736   3.184
 5948SOL    HW118743   4.308   4.806   3.161
 5948SOL    HW218744   4.148   4.776   3.178
 5949SOL     OW18745   5.242   3.521   1.866
 5949SOL    HW118746   5.205   3.610   1.892
 5949SOL    HW218747   5.265   3.521   1.769
 5950SOL     OW18748   4.896   1.052   5.464
 5950SOL    HW118749   4.869   1.001   5.546
 5950SOL    HW218750   4.995   1.058   5.459
 5951SOL     OW18751   1.474   5.948   3.971
 5951SOL    HW118752   1.409   5.896   4.026
 5951SOL    HW218753   1.464   5.922   3.875
 5952SOL     OW18754   5.525   4.878   3.543
 5952SOL    HW118755   5.436   4.835   3.558
 5952SOL    HW218756   5.554   4.863   3.449
 5953SOL     OW18757   6.812   3.312   5.716
 5953SOL    HW118758   6.793   3.220   5.751
 5953SOL    HW218759   6.908   3.319   5.691
 5954SOL     OW18760   6.551   4.601   5.377
 5954SOL    HW118761   6.613   4.638   5.308
 5954SOL    HW218762   6.482   4.543   5.333
 5955SOL     OW18763   4.994   5.644   2.418
 5955SOL    HW118764   5.049   5.727   2.425
 5955SOL    HW218765   4.925   5.655   2.347
 5956SOL     OW18766   4.365   2.014   4.673
 5956SOL    HW118767   4.452   1.988   4.631
 5956SOL    HW218768   4.303   1.936   4.674
 5957SOL     OW18769   4.099   0.783   5.496
 5957SOL    HW118770   4.080   0.848   5.422
 5957SOL    HW218771   4.196   0.759   5.495
 5958SOL     OW18772   5.734   6.342   2.732
 5958SOL    HW118773   5.695   6.390   2.811
 5958SOL    HW218774   5.706   6.388   2.648
 5959SOL     OW18775   4.389   2.774   5.260
 5959SOL    HW118776   4.474   2.721   5.268
 5959SOL    HW218777   4.312   2.711   5.243
 5960SOL     OW18778   4.020   5.535   4.953
 5960SOL    HW118779   4.001   5.437   4.968
 5960SOL    HW218780   4.087   5.545   4.880
 5961SOL     OW18781   4.858   1.789   2.614
 5961SOL    HW118782   4.887   1.866   2.671
 5961SOL    HW218783   4.877   1.704   2.661
 5962SOL     OW18784   5.868   6.305   0.354
 5962SOL    HW118785   5.955   6.274   0.392
 5962SOL    HW218786   5.886   6.362   0.273
 5963SOL     OW18787   3.990   3.850   6.154
 5963SOL    HW118788   4.010   3.832   6.250
 5963SOL    HW218789   3.937   3.774   6.116
 5964SOL     OW18790   0.304   5.476   5.541
 5964SOL    HW118791   0.224   5.509   5.591
 5964SOL    HW218792   0.387   5.502   5.591
 5965SOL     OW18793   2.137   1.782   6.619
 5965SOL    HW118794   2.038   1.771   6.608
 5965SOL    HW218795   2.156   1.875   6.652
 5966SOL     OW18796   2.160   5.817   5.034
 5966SOL    HW118797   2.063   5.832   5.018
 5966SOL    HW218798   2.208   5.905   5.038
 5967SOL     OW18799   3.887   0.050   6.334
 5967SOL    HW118800   3.886   0.092   6.425
 5967SOL    HW218801   3.861   0.118   6.265
 5968SOL     OW18802   5.005   2.205   0.694
 5968SOL    HW118803   4.988   2.107   0.685
 5968SOL    HW218804   4.925   2.256   0.664
 5969SOL     OW18805   6.725   0.046   6.723
 5969SOL    HW118806   6.732   0.000   6.634
 5969SOL    HW218807   6.629   0.069   6.740
 5970SOL     OW18808   0.249   4.115   2.396
 5970SOL    HW118809   0.150   4.104   2.386
 5970SOL    HW218810   0.277   4.079   2.486
 5971SOL     OW18811   0.432   0.998   2.733
 5971SOL    HW118812   0.433   0.938   2.813
 5971SOL    HW218813   0.498   0.965   2.666
 5972SOL     OW18814   5.840   5.433   5.894
 5972SOL    HW118815   5.831   5.340   5.927
 5972SOL    HW218816   5.780   5.493   5.947
 5973SOL     OW18817   1.427   3.601   2.563
 5973SOL    HW118818   1.428   3.697   2.534
 5973SOL    HW218819   1.405   3.595   2.660
 5974SOL     OW18820   5.902   5.941   6.689
 5974SOL    HW118821   5.979   5.904   6.741
 5974SOL    HW218822   5.918   5.929   6.591
 5975SOL     OW18823   4.624   6.899   0.553
 5975SOL    HW118824   4.591   6.930   0.464
 5975SOL    HW218825   4.606   6.971   0.621
 5976SOL     OW18826   3.830   2.832   5.806
 5976SOL    HW118827   3.793   2.855   5.896
 5976SOL    HW218828   3.822   2.912   5.746
 5977SOL     OW18829   1.475   5.885   6.633
 5977SOL    HW118830   1.523   5.909   6.717
 5977SOL    HW218831   1.517   5.804   6.592
 5978SOL     OW18832   4.566   5.454   1.681
 5978SOL    HW118833   4.603   5.375   1.631
 5978SOL    HW218834   4.475   5.476   1.646
 5979SOL     OW18835   5.567   0.861   2.853
 5979SOL    HW118836   5.609   0.901   2.934
 5979SOL    HW218837   5.555   0.763   2.866
 5980SOL     OW18838   3.689   3.851   1.270
 5980SOL    HW118839   3.663   3.925   1.331
 5980SOL    HW218840   3.609   3.820   1.218
 5981SOL     OW18841   5.155   2.190   1.363
 5981SOL    HW118842   5.159   2.250   1.442
 5981SOL    HW218843   5.084   2.222   1.300
 5982SOL     OW18844   6.085   3.533   2.051
 5982SOL    HW118845   5.999   3.581   2.065
 5982SOL    HW218846   6.150   3.559   2.123
 5983SOL     OW18847   1.267   1.540   3.931
 5983SOL    HW118848   1.313   1.613   3.982
 5983SOL    HW218849   1.191   1.505   3.985
 5984SOL     OW18850   6.630   5.618   3.492
 5984SOL    HW118851   6.542   5.632   3.446
 5984SOL    HW218852   6.634   5.672   3.576
 5985SOL     OW18853   6.868   2.517   4.289
 5985SOL    HW118854   6.816   2.487   4.370
 5985SOL    HW218855   6.889   2.615   4.298
 5986SOL     OW18856   3.364   3.721   4.626
 5986SOL    HW118857   3.410   3.717   4.537
 5986SOL    HW218858   3.285   3.782   4.620
 5987SOL     OW18859   5.529   0.081   3.875
 5987SOL    HW118860   5.435   0.109   3.857
 5987SOL    HW218861   5.579   0.078   3.788
 5988SOL     OW18862   4.611   0.198   5.810
 5988SOL    HW118863   4.582   0.122   5.867
 5988SOL    HW218864   4.706   0.221   5.831
 5989SOL     OW18865   2.065   5.953   6.720
 5989SOL    HW118866   1.969   5.981   6.722
 5989SOL    HW218867   2.092   5.936   6.625
 5990SOL     OW18868   3.849   3.827   0.725
 5990SOL    HW118869   3.772   3.816   0.663
 5990SOL    HW218870   3.864   3.743   0.777
 5991SOL     OW18871   3.460   5.058   6.614
 5991SOL    HW118872   3.383   4.997   6.597
 5991SOL    HW218873   3.472   5.120   6.536
 5992SOL     OW18874   3.478   0.565   2.045
 5992SOL    HW118875   3.443   0.579   1.953
 5992SOL    HW218876   3.571   0.602   2.052
 5993SOL     OW18877   3.533   5.169   5.923
 5993SOL    HW118878   3.551   5.101   5.994
 5993SOL    HW218879   3.618   5.211   5.894
 5994SOL     OW18880   5.830   2.690   2.153
 5994SOL    HW118881   5.929   2.698   2.166
 5994SOL    HW218882   5.786   2.775   2.182
 5995SOL     OW18883   4.907   3.706   2.369
 5995SOL    HW118884   4.929   3.609   2.377
 5995SOL    HW218885   4.953   3.744   2.288
 5996SOL     OW18886   1.194   6.149   1.573
 5996SOL    HW118887   1.234   6.167   1.483
 5996SOL    HW218888   1.250   6.082   1.621
 5997SOL     OW18889   0.274   5.749   2.698
 5997SOL    HW118890   0.276   5.828   2.637
 5997SOL    HW218891   0.302   5.667   2.648
 5998SOL     OW18892   5.996   1.111   3.223
 5998SOL    HW118893   5.940   1.133   3.144
 5998SOL    HW218894   5.998   1.190   3.285
 5999SOL     OW18895   2.075   1.912   2.213
 5999SOL    HW118896   2.048   1.851   2.138
 5999SOL    HW218897   2.135   1.984   2.178
 6000SOL     OW18898   3.756   6.853   0.720
 6000SOL    HW118899   3.669   6.808   0.702
 6000SOL    HW218900   3.757   6.943   0.676
 6001SOL     OW18901   0.630   4.113   6.873
 6001SOL    HW118902   0.664   4.060   6.950
 6001SOL    HW218903   0.564   4.059   6.821
 6002SOL     OW18904   5.884   1.228   0.723
 6002SOL    HW118905   5.962   1.257   0.777
 6002SOL    HW218906   5.806   1.289   0.742
 6003SOL     OW18907   6.010   1.897   4.962
 6003SOL    HW118908   5.910   1.902   4.961
 6003SOL    HW218909   6.043   1.901   5.056
 6004SOL     OW18910   6.783   3.795   2.920
 6004SOL    HW118911   6.841   3.870   2.887
 6004SOL    HW218912   6.761   3.734   2.844
 6005SOL     OW18913   4.559   5.918   4.336
 6005SOL    HW118914   4.515   6.003   4.363
 6005SOL    HW218915   4.556   5.909   4.236
 6006SOL     OW18916   2.791   1.246   5.523
 6006SOL    HW118917   2.821   1.183   5.595
 6006SOL    HW218918   2.691   1.252   5.524
 6007SOL     OW18919   5.139   4.076   5.438
 6007SOL    HW118920   5.080   3.996   5.437
 6007SOL    HW218921   5.153   4.108   5.344
 6008SOL     OW18922   2.426   4.399   5.242
 6008SOL    HW118923   2.509   4.440   5.279
 6008SOL    HW218924   2.347   4.455   5.268
 6009SOL     OW18925   1.826   0.887   2.944
 6009SOL    HW118926   1.899   0.931   2.892
 6009SOL    HW218927   1.747   0.947   2.949
 6010SOL     OW18928   1.300   4.914   3.997
 6010SOL    HW118929   1.367   4.976   3.955
 6010SOL    HW218930   1.302   4.925   4.096
 6011SOL     OW18931   4.808   2.847   3.482
 6011SOL    HW118932   4.895   2.837   3.434
 6011SOL    HW218933   4.733   2.827   3.420
 6012SOL     OW18934   5.224   0.804   0.349
 6012SOL    HW118935   5.126   0.802   0.370
 6012SOL    HW218936   5.252   0.898   0.328
 6013SOL     OW18937   4.648   2.276   2.548
 6013SOL    HW118938   4.625   2.229   2.634
 6013SOL    HW218939   4.667   2.209   2.477
 6014SOL     OW18940   4.130   3.371   2.829
 6014SOL    HW118941   4.037   3.397   2.804
 6014SOL    HW218942   4.167   3.308   2.761
 6015SOL     OW18943   5.687   3.927   3.836
 6015SOL    HW118944   5.595   3.949   3.803
 6015SOL    HW218945   5.754   3.950   3.767
 6016SOL     OW18946   6.640   1.888   5.292
 6016SOL    HW118947   6.598   1.805   5.330
 6016SOL    HW218948   6.572   1.937   5.238
 6017SOL     OW18949   6.683   4.252   3.341
 6017SOL    HW118950   6.604   4.313   3.351
 6017SOL    HW218951   6.722   4.234   3.432
 6018SOL     OW18952   4.264   0.674   6.791
 6018SOL    HW118953   4.350   0.708   6.754
 6018SOL    HW218954   4.280   0.635   6.882
 6019SOL     OW18955   6.626   1.681   4.288
 6019SOL    HW118956   6.534   1.705   4.319
 6019SOL    HW218957   6.690   1.688   4.365
 6020SOL     OW18958   1.119   4.801   0.474
 6020SOL    HW118959   1.030   4.841   0.450
 6020SOL    HW218960   1.148   4.837   0.562
 6021SOL     OW18961   4.617   0.385   3.326
 6021SOL    HW118962   4.606   0.348   3.419
 6021SOL    HW218963   4.556   0.463   3.315
 6022SOL     OW18964   5.633   2.262   4.104
 6022SOL    HW118965   5.535   2.278   4.098
 6022SOL    HW218966   5.667   2.224   4.018
 6023SOL     OW18967   5.602   0.726   1.841
 6023SOL    HW118968   5.564   0.682   1.922
 6023SOL    HW218969   5.684   0.777   1.866
 6024SOL     OW18970   1.308   4.679   3.011
 6024SOL    HW118971   1.265   4.744   3.075
 6024SOL    HW218972   1.302   4.715   2.918
 6025SOL     OW18973   3.531   1.828   3.203
 6025SOL    HW118974   3.491   1.817   3.112
 6025SOL    HW218975   3.580   1.915   3.207
 6026SOL     OW18976   0.220   4.103   5.326
 6026SOL    HW118977   0.178   4.099   5.235
 6026SOL    HW218978   0.315   4.073   5.321
 6027SOL     OW18979   0.693   3.002   5.942
 6027SOL    HW118980   0.682   2.957   6.031
 6027SOL    HW218981   0.790   3.019   5.925
 6028SOL     OW18982   6.489   5.431   0.405
 6028SOL    HW118983   6.489   5.349   0.347
 6028SOL    HW218984   6.475   5.512   0.348
 6029SOL     OW18985   2.284   6.906   5.186
 6029SOL    HW118986   2.328   6.957   5.261
 6029SOL    HW218987   2.188   6.933   5.181
 6030SOL     OW18988   3.824   5.315   2.364
 6030SOL    HW118989   3.923   5.310   2.350
 6030SOL    HW218990   3.800   5.406   2.399
 6031SOL     OW18991   2.988   5.236   3.844
 6031SOL    HW118992   3.003   5.264   3.939
 6031SOL    HW218993   3.031   5.302   3.782
 6032SOL     OW18994   1.970   4.300   2.605
 6032SOL    HW118995   1.913   4.225   2.571
 6032SOL    HW218996   2.064   4.287   2.575
 6033SOL     OW18997   2.745   2.246   2.842
 6033SOL    HW118998   2.776   2.285   2.755
 6033SOL    HW218999   2.704   2.318   2.898
 6034SOL     OW19000   1.102   6.376   4.790
 6034SOL    HW119001   1.082   6.441   4.717
 6034SOL    HW219002   1.040   6.298   4.784
 6035SOL     OW19003   0.267   0.711   2.491
 6035SOL    HW119004   0.204   0.788   2.484
 6035SOL    HW219005   0.361   0.744   2.490
 6036SOL     OW19006   5.171   4.536   3.541
 6036SOL    HW119007   5.089   4.558   3.488
 6036SOL    HW219008   5.235   4.613   3.536
 6037SOL     OW19009   4.365   5.750   0.054
 6037SOL    HW119010   4.448   5.806   0.050
 6037SOL    HW219011   4.291   5.803   0.096
 6038SOL     OW19012   1.541   2.220   5.612
 6038SOL    HW119013   1.441   2.209   5.616
 6038SOL    HW219014   1.584   2.133   5.637
 6039SOL     OW19015   2.976   3.587   2.388
 6039SOL    HW119016   2.932   3.560   2.303
 6039SOL    HW219017   2.973   3.510   2.452
 6040SOL     OW19018   1.070   1.485   0.267
 6040SOL    HW119019   1.013   1.482   0.349
 6040SOL    HW219020   1.166   1.496   0.294
 6041SOL     OW19021   3.125   0.832   5.110
 6041SOL    HW119022   3.180   0.794   5.183
 6041SOL    HW219023   3.052   0.888   5.149
 6042SOL     OW19024   4.681   6.403   2.360
 6042SOL    HW119025   4.675   6.439   2.453
 6042SOL    HW219026   4.617   6.327   2.350
 6043SOL     OW19027   0.822   4.743   5.414
 6043SOL    HW119028   0.912   4.785   5.406
 6043SOL    HW219029   0.759   4.806   5.458
 6044SOL     OW19030   1.259   2.493   1.337
 6044SOL    HW119031   1.346   2.538   1.314
 6044SOL    HW219032   1.186   2.531   1.280
 6045SOL     OW19033   5.718   3.947   2.630
 6045SOL    HW119034   5.766   4.021   2.678
 6045SOL    HW219035   5.786   3.884   2.590
 6046SOL     OW19036   3.379   2.353   0.476
 6046SOL    HW119037   3.331   2.338   0.389
 6046SOL    HW219038   3.475   2.327   0.465
 6047SOL     OW19039   4.481   2.007   2.147
 6047SOL    HW119040   4.455   1.965   2.060
 6047SOL    HW219041   4.511   2.101   2.130
 6048SOL     OW19042   4.840   5.624   5.189
 6048SOL    HW119043   4.776   5.699   5.201
 6048SOL    HW219044   4.820   5.552   5.255
 6049SOL     OW19045   4.829   3.111   6.824
 6049SOL    HW119046   4.730   3.102   6.828
 6049SOL    HW219047   4.858   3.121   6.729
 6050SOL     OW19048   4.013   5.688   5.204
 6050SOL    HW119049   3.930   5.731   5.241
 6050SOL    HW219050   3.988   5.620   5.135
 6051SOL     OW19051   2.240   0.172   3.747
 6051SOL    HW119052   2.297   0.155   3.828
 6051SOL    HW219053   2.184   0.254   3.763
 6052SOL     OW19054   6.682   0.866   6.861
 6052SOL    HW119055   6.669   0.923   6.779
 6052SOL    HW219056   6.717   0.777   6.835
 6053SOL     OW19057   3.959   2.035   6.625
 6053SOL    HW119058   4.051   2.044   6.585
 6053SOL    HW219059   3.931   1.939   6.622
 6054SOL     OW19060   2.376   3.295   0.067
 6054SOL    HW119061   2.402   3.277   0.162
 6054SOL    HW219062   2.324   3.217   0.031
 6055SOL     OW19063   4.760   0.646   5.283
 6055SOL    HW119064   4.762   0.731   5.229
 6055SOL    HW219065   4.773   0.668   5.380
 6056SOL     OW19066   5.129   2.952   4.475
 6056SOL    HW119067   5.170   2.903   4.398
 6056SOL    HW219068   5.181   2.934   4.558
 6057SOL     OW19069   6.067   2.706   3.892
 6057SOL    HW119070   6.048   2.749   3.804
 6057SOL    HW219071   6.151   2.653   3.885
 6058SOL     OW19072   5.320   3.297   1.982
 6058SOL    HW119073   5.385   3.257   1.917
 6058SOL    HW219074   5.266   3.367   1.935
 6059SOL     OW19075   5.306   4.555   5.104
 6059SOL    HW119076   5.404   4.534   5.104
 6059SOL    HW219077   5.274   4.564   5.010
 6060SOL     OW19078   3.124   3.831   0.426
 6060SOL    HW119079   3.212   3.788   0.448
 6060SOL    HW219080   3.061   3.761   0.391
 6061SOL     OW19081   3.613   2.591   1.172
 6061SOL    HW119082   3.563   2.645   1.104
 6061SOL    HW219083   3.548   2.536   1.225
 6062SOL     OW19084   2.092   0.942   4.918
 6062SOL    HW119085   2.131   0.896   4.839
 6062SOL    HW219086   2.056   1.031   4.890
 6063SOL     OW19087   4.291   2.688   6.043
 6063SOL    HW119088   4.269   2.777   6.083
 6063SOL    HW219089   4.285   2.694   5.944
 6064SOL     OW19090   1.838   6.457   0.717
 6064SOL    HW119091   1.754   6.480   0.667
 6064SOL    HW219092   1.883   6.380   0.673
 6065SOL     OW19093   6.941   6.735   2.098
 6065SOL    HW119094   6.960   6.732   2.000
 6065SOL    HW219095   0.001   6.698   2.149
 6066SOL     OW19096   4.715   1.308   6.244
 6066SOL    HW119097   4.706   1.407   6.255
 6066SOL    HW219098   4.662   1.261   6.315
 6067SOL     OW19099   5.818   0.888   5.359
 6067SOL    HW119100   5.759   0.963   5.328
 6067SOL    HW219101   5.856   0.911   5.449
 6068SOL     OW19102   5.340   3.487   4.518
 6068SOL    HW119103   5.360   3.565   4.460
 6068SOL    HW219104   5.393   3.493   4.603
 6069SOL     OW19105   6.068   3.203   5.868
 6069SOL    HW119106   6.022   3.143   5.802
 6069SOL    HW219107   6.102   3.148   5.945
 6070SOL     OW19108   2.839   2.405   0.698
 6070SOL    HW119109   2.768   2.430   0.764
 6070SOL    HW219110   2.800   2.342   0.630
 6071SOL     OW19111   5.501   5.570   3.749
 6071SOL    HW119112   5.540   5.528   3.831
 6071SOL    HW219113   5.569   5.628   3.705
 6072SOL     OW19114   7.002   0.446   1.614
 6072SOL    HW119115   6.925   0.508   1.627
 6072SOL    HW219116   0.058   0.494   1.567
 6073SOL     OW19117   5.827   3.142   0.071
 6073SOL    HW119118   5.751   3.099   0.121
 6073SOL    HW219119   5.886   3.190   0.135
 6074SOL     OW19120   1.053   6.622   3.201
 6074SOL    HW119121   0.989   6.546   3.192
 6074SOL    HW219122   1.028   6.676   3.281
 6075SOL     OW19123   6.496   1.329   6.016
 6075SOL    HW119124   6.499   1.310   6.114
 6075SOL    HW219125   6.501   1.243   5.965
 6076SOL     OW19126   2.845   5.501   3.999
 6076SOL    HW119127   2.753   5.469   3.977
 6076SOL    HW219128   2.882   5.552   3.921
 6077SOL     OW19129   6.139   5.955   1.017
 6077SOL    HW119130   6.191   6.040   1.021
 6077SOL    HW219131   6.108   5.930   1.109
 6078SOL     OW19132   4.266   5.068   0.553
 6078SOL    HW119133   4.254   5.158   0.595
 6078SOL    HW219134   4.351   5.027   0.587
 6079SOL     OW19135   4.432   3.866   6.155
 6079SOL    HW119136   4.363   3.840   6.087
 6079SOL    HW219137   4.389   3.919   6.227
 6080SOL     OW19138   0.072   0.143   1.233
 6080SOL    HW119139   0.104   0.076   1.167
 6080SOL    HW219140   7.000   0.116   1.267
 6081SOL     OW19141   0.035   3.644   5.374
 6081SOL    HW119142   0.001   3.550   5.381
 6081SOL    HW219143   0.135   3.643   5.377
 6082SOL     OW19144   2.362   1.766   4.221
 6082SOL    HW119145   2.377   1.676   4.262
 6082SOL    HW219146   2.443   1.795   4.172
 6083SOL     OW19147   6.504   5.358   6.829
 6083SOL    HW119148   6.483   5.455   6.835
 6083SOL    HW219149   6.587   5.338   6.881
 6084SOL     OW19150   0.860   0.308   3.873
 6084SOL    HW119151   0.863   0.213   3.845
 6084SOL    HW219152   0.791   0.357   3.819
 6085SOL     OW19153   0.837   5.275   0.589
 6085SOL    HW119154   0.809   5.305   0.498
 6085SOL    HW219155   0.794   5.333   0.658
 6086SOL     OW19156   4.102   0.302   6.155
 6086SOL    HW119157   4.166   0.351   6.214
 6086SOL    HW219158   4.055   0.366   6.094
 6087SOL     OW19159   3.865   5.256   0.870
 6087SOL    HW119160   3.873   5.249   0.969
 6087SOL    HW219161   3.815   5.339   0.846
 6088SOL     OW19162   5.730   5.687   3.654
 6088SOL    HW119163   5.755   5.753   3.726
 6088SOL    HW219164   5.793   5.610   3.656
 6089SOL     OW19165   5.022   3.407   1.483
 6089SOL    HW119166   5.115   3.443   1.493
 6089SOL    HW219167   4.963   3.478   1.445
 6090SOL     OW19168   2.348   5.795   5.290
 6090SOL    HW119169   2.299   5.760   5.210
 6090SOL    HW219170   2.285   5.848   5.346
 6091SOL     OW19171   1.628   1.403   0.528
 6091SOL    HW119172   1.588   1.362   0.446
 6091SOL    HW219173   1.599   1.349   0.608
 6092SOL     OW19174   4.106   6.951   2.987
 6092SOL    HW119175   4.133   6.958   3.084
 6092SOL    HW219176   4.006   6.951   2.980
 6093SOL     OW19177   1.710   3.515   1.899
 6093SOL    HW119178   1.662   3.593   1.939
 6093SOL    HW219179   1.799   3.545   1.863
 6094SOL     OW19180   2.548   6.696   1.542
 6094SOL    HW119181   2.536   6.597   1.540
 6094SOL    HW219182   2.480   6.737   1.602
 6095SOL     OW19183   5.018   4.019   0.492
 6095SOL    HW119184   4.926   3.990   0.520
 6095SOL    HW219185   5.015   4.113   0.458
 6096SOL     OW19186   6.831   6.849   3.283
 6096SOL    HW119187   6.790   6.768   3.326
 6096SOL    HW219188   6.929   6.851   3.304
 6097SOL     OW19189   2.521   6.490   2.421
 6097SOL    HW119190   2.520   6.396   2.454
 6097SOL    HW219191   2.532   6.552   2.498
 6098SOL     OW19192   2.064   1.935   4.979
 6098SOL    HW119193   1.975   1.933   4.933
 6098SOL    HW219194   2.094   1.841   4.997
 6099SOL     OW19195   6.212   6.195   6.880
 6099SOL    HW119196   6.143   6.190   6.952
 6099SOL    HW219197   6.296   6.149   6.911
 6100SOL     OW19198   5.029   5.654   0.130
 6100SOL    HW119199   5.103   5.719   0.148
 6100SOL    HW219200   4.945   5.684   0.176
 6101SOL     OW19201   6.534   2.684   4.325
 6101SOL    HW119202   6.559   2.748   4.398
 6101SOL    HW219203   6.512   2.595   4.364
 6102SOL     OW19204   3.557   6.521   3.604
 6102SOL    HW119205   3.552   6.514   3.703
 6102SOL    HW219206   3.544   6.431   3.562
 6103SOL     OW19207   6.625   2.328   2.553
 6103SOL    HW119208   6.712   2.374   2.533
 6103SOL    HW219209   6.617   2.246   2.497
 6104SOL     OW19210   6.028   0.598   5.321
 6104SOL    HW119211   5.943   0.601   5.269
 6104SOL    HW219212   6.012   0.637   5.412
 6105SOL     OW19213   2.915   6.420   6.046
 6105SOL    HW119214   2.897   6.518   6.044
 6105SOL    HW219215   2.850   6.376   6.108
 6106SOL     OW19216   2.277   4.087   6.132
 6106SOL    HW119217   2.327   4.076   6.046
 6106SOL    HW219218   2.246   4.181   6.140
 6107SOL     OW19219   2.837   5.187   4.254
 6107SOL    HW119220   2.916   5.183   4.192
 6107SOL    HW219221   2.835   5.276   4.300
 6108SOL     OW19222   1.567   2.857   1.896
 6108SOL    HW119223   1.500   2.932   1.895
 6108SOL    HW219224   1.628   2.866   1.818
 6109SOL     OW19225   5.136   2.390   5.190
 6109SOL    HW119226   5.233   2.375   5.172
 6109SOL    HW219227   5.095   2.438   5.113
 6110SOL     OW19228   4.126   4.229   0.652
 6110SOL    HW119229   4.090   4.141   0.620
 6110SOL    HW219230   4.216   4.216   0.692
 6111SOL     OW19231   2.214   4.090   2.288
 6111SOL    HW119232   2.134   4.034   2.269
 6111SOL    HW219233   2.231   4.092   2.386
 6112SOL     OW19234   4.173   0.347   2.683
 6112SOL    HW119235   4.186   0.253   2.716
 6112SOL    HW219236   4.252   0.402   2.710
 6113SOL     OW19237   2.527   1.282   6.008
 6113SOL    HW119238   2.579   1.367   5.998
 6113SOL    HW219239   2.584   1.204   5.982
 6114SOL     OW19240   5.253   6.080   1.318
 6114SOL    HW119241   5.239   6.093   1.416
 6114SOL    HW219242   5.228   5.987   1.292
 6115SOL     OW19243   5.082   0.029   4.268
 6115SOL    HW119244   5.109   0.120   4.300
 6115SOL    HW219245   5.151   7.013   4.203
 6116SOL     OW19246   3.750   0.982   6.327
 6116SOL    HW119247   3.733   1.070   6.370
 6116SOL    HW219248   3.774   0.996   6.231
 6117SOL     OW19249   1.394   1.051   4.344
 6117SOL    HW119250   1.428   0.965   4.306
 6117SOL    HW219251   1.399   1.046   4.444
 6118SOL     OW19252   6.636   0.970   2.204
 6118SOL    HW119253   6.726   0.988   2.244
 6118SOL    HW219254   6.619   0.871   2.205
 6119SOL     OW19255   1.256   3.731   6.460
 6119SOL    HW119256   1.353   3.716   6.482
 6119SOL    HW219257   1.244   3.826   6.430
 6120SOL     OW19258   3.718   6.394   4.679
 6120SOL    HW119259   3.794   6.376   4.741
 6120SOL    HW219260   3.753   6.404   4.586
 6121SOL     OW19261   1.156   3.335   5.361
 6121SOL    HW119262   1.201   3.290   5.439
 6121SOL    HW219263   1.171   3.434   5.366
 6122SOL     OW19264   4.390   5.586   1.238
 6122SOL    HW119265   4.335   5.660   1.199
 6122SOL    HW219266   4.408   5.517   1.168
 6123SOL     OW19267   6.137   0.132   6.650
 6123SOL    HW119268   6.112   0.194   6.724
 6123SOL    HW219269   6.193   0.057   6.687
 6124SOL     OW19270   2.404   0.107   5.855
 6124SOL    HW119271   2.377   0.066   5.942
 6124SOL    HW219272   2.439   0.036   5.793
 6125SOL     OW19273   1.566   5.404   0.700
 6125SOL    HW119274   1.617   5.479   0.742
 6125SOL    HW219275   1.548   5.426   0.604
 6126SOL     OW19276   1.165   0.104   4.264
 6126SOL    HW119277   1.260   0.127   4.246
 6126SOL    HW219278   1.115   0.187   4.289
 6127SOL     OW19279   4.006   6.805   0.753
 6127SOL    HW119280   3.908   6.812   0.733
 6127SOL    HW219281   4.046   6.896   0.757
 6128SOL     OW19282   5.827   3.609   0.581
 6128SOL    HW119283   5.800   3.676   0.512
 6128SOL    HW219284   5.904   3.555   0.547
 6129SOL     OW19285   6.672   3.310   3.586
 6129SOL    HW119286   6.727   3.232   3.557
 6129SOL    HW219287   6.657   3.305   3.685
 6130SOL     OW19288   6.316   2.571   3.898
 6130SOL    HW119289   6.315   2.619   3.986
 6130SOL    HW219290   6.348   2.634   3.827
 6131SOL     OW19291   0.027   1.120   5.248
 6131SOL    HW119292   0.044   1.090   5.154
 6131SOL    HW219293   0.111   1.158   5.287
 6132SOL     OW19294   4.624   2.264   0.061
 6132SOL    HW119295   4.533   2.228   0.079
 6132SOL    HW219296   4.687   2.231   0.131
 6133SOL     OW19297   1.403   2.592   1.731
 6133SOL    HW119298   1.320   2.538   1.740
 6133SOL    HW219299   1.433   2.622   1.822
 6134SOL     OW19300   3.751   4.381   6.376
 6134SOL    HW119301   3.657   4.376   6.409
 6134SOL    HW219302   3.804   4.306   6.414
 6135SOL     OW19303   0.441   0.777   1.945
 6135SOL    HW119304   0.439   0.853   1.881
 6135SOL    HW219305   0.365   0.783   2.009
 6136SOL     OW19306   0.913   2.781   2.261
 6136SOL    HW119307   0.855   2.716   2.211
 6136SOL    HW219308   0.994   2.733   2.294
 6137SOL     OW19309   6.554   2.456   3.233
 6137SOL    HW119310   6.592   2.407   3.155
 6137SOL    HW219311   6.597   2.546   3.241
 6138SOL     OW19312   3.713   6.652   3.123
 6138SOL    HW119313   3.748   6.724   3.184
 6138SOL    HW219314   3.711   6.565   3.171
 6139SOL     OW19315   1.005   0.391   6.458
 6139SOL    HW119316   1.037   0.297   6.471
 6139SOL    HW219317   1.016   0.418   6.362
 6140SOL     OW19318   1.001   6.481   1.519
 6140SOL    HW119319   1.087   6.514   1.556
 6140SOL    HW219320   0.973   6.398   1.569
 6141SOL     OW19321   6.698   6.389   6.172
 6141SOL    HW119322   6.779   6.377   6.229
 6141SOL    HW219323   6.665   6.299   6.142
 6142SOL     OW19324   1.299   6.224   0.200
 6142SOL    HW119325   1.303   6.318   0.234
 6142SOL    HW219326   1.266   6.224   0.106
 6143SOL     OW19327   6.445   3.731   1.128
 6143SOL    HW119328   6.352   3.732   1.091
 6143SOL    HW219329   6.507   3.775   1.064
 6144SOL     OW19330   5.580   4.687   2.966
 6144SOL    HW119331   5.489   4.712   2.935
 6144SOL    HW219332   5.577   4.659   3.062
 6145SOL     OW19333   5.225   5.341   3.149
 6145SOL    HW119334   5.144   5.313   3.201
 6145SOL    HW219335   5.199   5.357   3.054
 6146SOL     OW19336   2.880   5.836   3.359
 6146SOL    HW119337   2.814   5.844   3.284
 6146SOL    HW219338   2.877   5.918   3.415
 6147SOL     OW19339   1.564   2.390   4.652
 6147SOL    HW119340   1.533   2.304   4.612
 6147SOL    HW219341   1.490   2.457   4.647
 6148SOL     OW19342   5.703   6.778   4.024
 6148SOL    HW119343   5.631   6.844   4.046
 6148SOL    HW219344   5.671   6.686   4.043
 6149SOL     OW19345   3.060   5.926   0.905
 6149SOL    HW119346   2.972   5.929   0.953
 6149SOL    HW219347   3.131   5.898   0.969
 6150SOL     OW19348   4.514   5.567   6.907
 6150SOL    HW119349   4.611   5.568   6.930
 6150SOL    HW219350   4.461   5.606   6.982
 6151SOL     OW19351   5.775   4.317   6.692
 6151SOL    HW119352   5.718   4.378   6.637
 6151SOL    HW219353   5.844   4.273   6.634
 6152SOL     OW19354   5.867   5.024   4.617
 6152SOL    HW119355   5.943   4.989   4.562
 6152SOL    HW219356   5.850   5.119   4.593
 6153SOL     OW19357   5.295   4.635   1.043
 6153SOL    HW119358   5.252   4.656   1.131
 6153SOL    HW219359   5.390   4.666   1.045
 6154SOL     OW19360   6.186   2.164   2.396
 6154SOL    HW119361   6.121   2.094   2.426
 6154SOL    HW219362   6.227   2.208   2.476
 6155SOL     OW19363   1.635   1.937   4.244
 6155SOL    HW119364   1.618   2.034   4.261
 6155SOL    HW219365   1.575   1.882   4.302
 6156SOL     OW19366   3.969   4.417   1.500
 6156SOL    HW119367   3.954   4.319   1.505
 6156SOL    HW219368   3.904   4.464   1.561
 6157SOL     OW19369   0.347   0.427   4.927
 6157SOL    HW119370   0.254   0.392   4.935
 6157SOL    HW219371   0.378   0.418   4.833
 6158SOL     OW19372   3.941   1.558   5.759
 6158SOL    HW119373   3.942   1.460   5.780
 6158SOL    HW219374   3.853   1.597   5.788
 6159SOL     OW19375   5.052   2.814   2.317
 6159SOL    HW119376   5.125   2.879   2.296
 6159SOL    HW219377   5.092   2.727   2.347
 6160SOL     OW19378   5.112   1.443   6.609
 6160SOL    HW119379   5.057   1.391   6.544
 6160SOL    HW219380   5.153   1.380   6.675
 6161SOL     OW19381   4.989   1.308   4.919
 6161SOL    HW119382   4.921   1.256   4.867
 6161SOL    HW219383   4.942   1.364   4.988
 6162SOL     OW19384   0.775   6.251   3.548
 6162SOL    HW119385   0.865   6.284   3.578
 6162SOL    HW219386   0.724   6.326   3.506
 6163SOL     OW19387   6.222   6.828   1.029
 6163SOL    HW119388   6.218   6.879   1.115
 6163SOL    HW219389   6.193   6.734   1.045
 6164SOL     OW19390   4.096   3.187   2.094
 6164SOL    HW119391   4.033   3.131   2.149
 6164SOL    HW219392   4.184   3.141   2.088
 6165SOL     OW19393   4.708   1.170   0.347
 6165SOL    HW119394   4.698   1.149   0.250
 6165SOL    HW219395   4.660   1.101   0.401
 6166SOL     OW19396   5.476   1.387   5.978
 6166SOL    HW119397   5.466   1.315   5.910
 6166SOL    HW219398   5.454   1.351   6.069
 6167SOL     OW19399   1.212   5.102   3.485
 6167SOL    HW119400   1.117   5.134   3.483
 6167SOL    HW219401   1.225   5.043   3.565
 6168SOL     OW19402   0.988   4.112   1.553
 6168SOL    HW119403   1.007   4.073   1.463
 6168SOL    HW219404   0.898   4.156   1.552
 6169SOL     OW19405   1.340   2.285   0.927
 6169SOL    HW119406   1.437   2.260   0.925
 6169SOL    HW219407   1.331   2.382   0.946
 6170SOL     OW19408   0.915   4.167   6.173
 6170SOL    HW119409   0.958   4.135   6.089
 6170SOL    HW219410   0.930   4.265   6.183
 6171SOL     OW19411   0.923   3.078   0.722
 6171SOL    HW119412   0.914   3.037   0.632
 6171SOL    HW219413   1.020   3.081   0.748
 6172SOL     OW19414   1.810   2.931   2.418
 6172SOL    HW119415   1.720   2.905   2.384
 6172SOL    HW219416   1.815   3.030   2.427
 6173SOL     OW19417   6.732   5.582   1.477
 6173SOL    HW119418   6.683   5.644   1.538
 6173SOL    HW219419   6.682   5.495   1.470
 6174SOL     OW19420   5.390   5.489   3.299
 6174SOL    HW119421   5.332   5.432   3.240
 6174SOL    HW219422   5.485   5.463   3.288
 6175SOL     OW19423   3.931   0.543   3.843
 6175SOL    HW119424   3.941   0.484   3.763
 6175SOL    HW219425   4.013   0.601   3.852
 6176SOL     OW19426   5.271   3.958   6.161
 6176SOL    HW119427   5.249   4.031   6.227
 6176SOL    HW219428   5.215   3.878   6.181
 6177SOL     OW19429   5.583   1.197   1.024
 6177SOL    HW119430   5.486   1.175   1.029
 6177SOL    HW219431   5.596   1.275   0.962
 6178SOL     OW19432   4.771   4.636   2.505
 6178SOL    HW119433   4.813   4.673   2.423
 6178SOL    HW219434   4.681   4.598   2.482
 6179SOL     OW19435   6.367   4.665   2.983
 6179SOL    HW119436   6.409   4.754   2.965
 6179SOL    HW219437   6.439   4.597   3.001
 6180SOL     OW19438   3.438   4.363   0.771
 6180SOL    HW119439   3.443   4.461   0.753
 6180SOL    HW219440   3.390   4.317   0.696
 6181SOL     OW19441   4.466   6.664   0.531
 6181SOL    HW119442   4.374   6.669   0.568
 6181SOL    HW219443   4.501   6.756   0.515
 6182SOL     OW19444   5.127   3.370   5.639
 6182SOL    HW119445   5.149   3.364   5.542
 6182SOL    HW219446   5.165   3.455   5.677
 6183SOL     OW19447   1.018   2.627   3.605
 6183SOL    HW119448   1.033   2.706   3.546
 6183SOL    HW219449   1.074   2.551   3.573
 6184SOL     OW19450   2.622   6.787   6.388
 6184SOL    HW119451   2.664   6.742   6.309
 6184SOL    HW219452   2.637   6.885   6.382
 6185SOL     OW19453   0.632   3.695   6.071
 6185SOL    HW119454   0.583   3.630   6.012
 6185SOL    HW219455   0.684   3.759   6.014
 6186SOL     OW19456   0.585   0.509   0.488
 6186SOL    HW119457   0.615   0.434   0.429
 6186SOL    HW219458   0.487   0.499   0.507
 6187SOL     OW19459   4.820   4.448   3.906
 6187SOL    HW119460   4.814   4.490   3.996
 6187SOL    HW219461   4.849   4.353   3.916
 6188SOL     OW19462   2.613   1.797   6.840
 6188SOL    HW119463   2.599   1.766   6.746
 6188SOL    HW219464   2.653   1.888   6.840
 6189SOL     OW19465   4.669   4.400   2.669
 6189SOL    HW119466   4.707   4.492   2.675
 6189SOL    HW219467   4.621   4.388   2.582
 6190SOL     OW19468   0.901   4.185   5.536
 6190SOL    HW119469   0.961   4.262   5.518
 6190SOL    HW219470   0.841   4.170   5.457
 6191SOL     OW19471   2.771   2.050   6.837
 6191SOL    HW119472   2.689   2.102   6.811
 6191SOL    HW219473   2.805   2.082   6.925
 6192SOL     OW19474   3.206   2.501   5.847
 6192SOL    HW119475   3.162   2.470   5.763
 6192SOL    HW219476   3.167   2.589   5.874
 6193SOL     OW19477   4.725   0.475   1.769
 6193SOL    HW119478   4.777   0.430   1.697
 6193SOL    HW219479   4.734   0.574   1.761
 6194SOL     OW19480   1.435   0.510   1.154
 6194SOL    HW119481   1.382   0.537   1.234
 6194SOL    HW219482   1.411   0.568   1.076
 6195SOL     OW19483   4.242   5.733   5.336
 6195SOL    HW119484   4.284   5.813   5.294
 6195SOL    HW219485   4.158   5.710   5.287
 6196SOL     OW19486   5.780   3.257   1.766
 6196SOL    HW119487   5.694   3.304   1.788
 6196SOL    HW219488   5.768   3.204   1.682
 6197SOL     OW19489   3.904   5.002   0.757
 6197SOL    HW119490   3.968   4.952   0.815
 6197SOL    HW219491   3.885   5.091   0.799
 6198SOL     OW19492   3.936   6.806   1.595
 6198SOL    HW119493   3.953   6.888   1.541
 6198SOL    HW219494   3.838   6.784   1.592
 6199SOL     OW19495   0.886   1.504   0.477
 6199SOL    HW119496   0.831   1.464   0.550
 6199SOL    HW219497   0.959   1.559   0.516
 6200SOL     OW19498   0.973   1.320   5.551
 6200SOL    HW119499   1.037   1.343   5.623
 6200SOL    HW219500   0.973   1.222   5.535
 6201SOL     OW19501   0.594   3.889   5.565
 6201SOL    HW119502   0.589   3.793   5.537
 6201SOL    HW219503   0.546   3.945   5.498
 6202SOL     OW19504   4.201   1.344   1.953
 6202SOL    HW119505   4.234   1.253   1.979
 6202SOL    HW219506   4.188   1.348   1.854
 6203SOL     OW19507   6.685   5.456   1.920
 6203SOL    HW119508   6.586   5.465   1.923
 6203SOL    HW219509   6.719   5.422   2.007
 6204SOL     OW19510   6.857   5.465   4.111
 6204SOL    HW119511   6.859   5.432   4.205
 6204SOL    HW219512   6.951   5.470   4.076
 6205SOL     OW19513   6.325   5.657   0.671
 6205SOL    HW119514   6.313   5.557   0.665
 6205SOL    HW219515   6.351   5.681   0.764
 6206SOL     OW19516   5.438   1.860   3.256
 6206SOL    HW119517   5.535   1.841   3.247
 6206SOL    HW219518   5.400   1.883   3.166
 6207SOL     OW19519   1.126   5.329   5.474
 6207SOL    HW119520   1.177   5.390   5.414
 6207SOL    HW219521   1.179   5.246   5.491
 6208SOL     OW19522   5.431   2.839   5.781
 6208SOL    HW119523   5.399   2.850   5.687
 6208SOL    HW219524   5.435   2.929   5.826
 6209SOL     OW19525   3.828   6.160   0.019
 6209SOL    HW119526   3.854   6.066   0.041
 6209SOL    HW219527   3.730   6.163   7.014
 6210SOL     OW19528   5.206   3.715   4.325
 6210SOL    HW119529   5.125   3.669   4.361
 6210SOL    HW219530   5.258   3.652   4.268
 6211SOL     OW19531   2.766   6.159   5.956
 6211SOL    HW119532   2.820   6.084   5.918
 6211SOL    HW219533   2.757   6.148   6.055
 6212SOL     OW19534   2.593   4.850   4.455
 6212SOL    HW119535   2.686   4.825   4.426
 6212SOL    HW219536   2.555   4.778   4.513
 6213SOL     OW19537   6.086   0.319   0.313
 6213SOL    HW119538   6.166   0.300   0.370
 6213SOL    HW219539   6.063   0.416   0.318
 6214SOL     OW19540   4.958   5.401   4.014
 6214SOL    HW119541   4.918   5.448   3.935
 6214SOL    HW219542   4.926   5.445   4.098
 6215SOL     OW19543   4.256   2.316   6.663
 6215SOL    HW119544   4.214   2.321   6.754
 6215SOL    HW219545   4.313   2.397   6.649
 6216SOL     OW19546   6.762   1.586   2.607
 6216SOL    HW119547   6.782   1.667   2.551
 6216SOL    HW219548   6.845   1.560   2.658
 6217SOL     OW19549   0.687   3.593   2.307
 6217SOL    HW119550   0.706   3.689   2.282
 6217SOL    HW219551   0.769   3.538   2.289
 6218SOL     OW19552   3.903   6.629   6.189
 6218SOL    HW119553   3.955   6.698   6.139
 6218SOL    HW219554   3.912   6.541   6.144
 6219SOL     OW19555   1.505   1.857   4.835
 6219SOL    HW119556   1.424   1.901   4.872
 6219SOL    HW219557   1.513   1.878   4.737
 6220SOL     OW19558   2.622   0.793   4.893
 6220SOL    HW119559   2.594   0.835   4.807
 6220SOL    HW219560   2.700   0.843   4.932
 6221SOL     OW19561   5.748   6.867   0.403
 6221SOL    HW119562   5.761   6.768   0.399
 6221SOL    HW219563   5.837   6.911   0.418
 6222SOL     OW19564   1.752   6.575   1.921
 6222SOL    HW119565   1.785   6.492   1.965
 6222SOL    HW219566   1.775   6.573   1.823
 6223SOL     OW19567   1.500   4.696   3.755
 6223SOL    HW119568   1.485   4.603   3.720
 6223SOL    HW219569   1.538   4.753   3.683
 6224SOL     OW19570   3.432   1.304   5.926
 6224SOL    HW119571   3.376   1.300   6.009
 6224SOL    HW219572   3.511   1.243   5.936
 6225SOL     OW19573   4.123   3.139   6.400
 6225SOL    HW119574   4.202   3.121   6.341
 6225SOL    HW219575   4.039   3.116   6.352
 6226SOL     OW19576   0.847   1.801   5.283
 6226SOL    HW119577   0.788   1.833   5.210
 6226SOL    HW219578   0.841   1.701   5.290
 6227SOL     OW19579   3.625   5.182   5.217
 6227SOL    HW119580   3.615   5.083   5.205
 6227SOL    HW219581   3.638   5.202   5.314
 6228SOL     OW19582   0.714   3.393   2.072
 6228SOL    HW119583   0.644   3.347   2.127
 6228SOL    HW219584   0.744   3.331   1.999
 6229SOL     OW19585   0.950   1.766   4.173
 6229SOL    HW119586   0.946   1.773   4.073
 6229SOL    HW219587   1.039   1.797   4.205
 6230SOL     OW19588   0.661   1.885   4.059
 6230SOL    HW119589   0.709   1.898   4.146
 6230SOL    HW219590   0.674   1.790   4.029
 6231SOL     OW19591   6.233   6.414   0.300
 6231SOL    HW119592   6.180   6.444   0.221
 6231SOL    HW219593   6.283   6.330   0.277
 6232SOL     OW19594   6.290   1.352   0.652
 6232SOL    HW119595   6.281   1.369   0.750
 6232SOL    HW219596   6.383   1.319   0.633
 6233SOL     OW19597   6.748   2.003   1.630
 6233SOL    HW119598   6.790   2.025   1.718
 6233SOL    HW219599   6.814   1.952   1.574
 6234SOL     OW19600   0.144   0.348   5.619
 6234SOL    HW119601   0.221   0.401   5.581
 6234SOL    HW219602   0.070   0.346   5.552
 6235SOL     OW19603   0.175   6.975   1.052
 6235SOL    HW119604   0.109   7.004   0.983
 6235SOL    HW219605   0.168   6.876   1.065
 6236SOL     OW19606   0.835   4.385   1.321
 6236SOL    HW119607   0.886   4.321   1.264
 6236SOL    HW219608   0.740   4.389   1.290
 6237SOL     OW19609   4.119   0.470   6.427
 6237SOL    HW119610   4.101   0.545   6.491
 6237SOL    HW219611   4.046   0.467   6.359
 6238SOL     OW19612   4.385   5.373   2.339
 6238SOL    HW119613   4.447   5.402   2.266
 6238SOL    HW219614   4.436   5.363   2.424
 6239SOL     OW19615   3.571   0.618   1.263
 6239SOL    HW119616   3.533   0.648   1.350
 6239SOL    HW219617   3.590   0.697   1.205
 6240SOL     OW19618   2.229   4.000   5.628
 6240SOL    HW119619   2.329   3.995   5.634
 6240SOL    HW219620   2.195   3.921   5.576
 6241SOL     OW19621   3.264   0.445   1.813
 6241SOL    HW119622   3.233   0.377   1.879
 6241SOL    HW219623   3.208   0.528   1.822
 6242SOL     OW19624   3.590   0.514   4.141
 6242SOL    HW119625   3.579   0.477   4.048
 6242SOL    HW219626   3.682   0.495   4.173
 6243SOL     OW19627   6.781   6.630   5.534
 6243SOL    HW119628   6.855   6.621   5.466
 6243SOL    HW219629   6.701   6.671   5.491
 6244SOL     OW19630   5.684   2.860   3.020
 6244SOL    HW119631   5.628   2.911   3.085
 6244SOL    HW219632   5.732   2.924   2.960
 6245SOL     OW19633   1.505   3.556   0.928
 6245SOL    HW119634   1.456   3.508   0.856
 6245SOL    HW219635   1.440   3.597   0.992
 6246SOL     OW19636   1.185   2.185   5.618
 6246SOL    HW119637   1.225   2.272   5.649
 6246SOL    HW219638   1.166   2.190   5.521
 6247SOL     OW19639   0.223   5.841   3.744
 6247SOL    HW119640   0.216   5.783   3.662
 6247SOL    HW219641   0.133   5.850   3.786
 6248SOL     OW19642   3.711   3.892   6.814
 6248SOL    HW119643   3.703   3.985   6.848
 6248SOL    HW219644   3.744   3.833   6.888
 6249SOL     OW19645   6.949   3.651   0.476
 6249SOL    HW119646   0.013   3.605   0.440
 6249SOL    HW219647   6.962   3.671   0.573
 6250SOL     OW19648   6.516   0.512   0.767
 6250SOL    HW119649   6.613   0.489   0.757
 6250SOL    HW219650   6.494   0.520   0.864
 6251SOL     OW19651   4.214   5.881   5.585
 6251SOL    HW119652   4.218   5.842   5.493
 6251SOL    HW219653   4.291   5.945   5.597
 6252SOL     OW19654   2.419   6.190   5.694
 6252SOL    HW119655   2.509   6.230   5.712
 6252SOL    HW219656   2.371   6.245   5.626
 6253SOL     OW19657   2.348   4.888   4.117
 6253SOL    HW119658   2.414   4.896   4.042
 6253SOL    HW219659   2.388   4.832   4.190
 6254SOL     OW19660   5.756   1.090   1.500
 6254SOL    HW119661   5.709   1.131   1.422
 6254SOL    HW219662   5.848   1.063   1.472
 6255SOL     OW19663   2.992   0.811   0.799
 6255SOL    HW119664   3.020   0.715   0.794
 6255SOL    HW219665   3.006   0.855   0.710
 6256SOL     OW19666   3.337   5.311   1.982
 6256SOL    HW119667   3.276   5.381   2.017
 6256SOL    HW219668   3.430   5.347   1.973
 6257SOL     OW19669   4.666   2.324   0.733
 6257SOL    HW119670   4.704   2.349   0.644
 6257SOL    HW219671   4.614   2.239   0.724
 6258SOL     OW19672   2.759   0.830   3.132
 6258SOL    HW119673   2.850   0.851   3.168
 6258SOL    HW219674   2.698   0.909   3.146
 6259SOL     OW19675   1.553   2.233   6.739
 6259SOL    HW119676   1.516   2.267   6.653
 6259SOL    HW219677   1.489   2.168   6.779
 6260SOL     OW19678   3.119   5.623   0.480
 6260SOL    HW119679   3.168   5.536   0.480
 6260SOL    HW219680   3.114   5.660   0.387
 6261SOL     OW19681   4.233   1.454   6.936
 6261SOL    HW119682   4.167   1.389   6.975
 6261SOL    HW219683   4.309   1.467   6.999
 6262SOL     OW19684   2.207   6.190   1.556
 6262SOL    HW119685   2.186   6.273   1.505
 6262SOL    HW219686   2.160   6.192   1.644
 6263SOL     OW19687   0.065   6.866   4.448
 6263SOL    HW119688   0.096   6.886   4.355
 6263SOL    HW219689   0.119   6.919   4.514
 6264SOL     OW19690   2.222   0.513   1.556
 6264SOL    HW119691   2.187   0.511   1.649
 6264SOL    HW219692   2.302   0.573   1.552
 6265SOL     OW19693   3.636   3.899   0.139
 6265SOL    HW119694   3.710   3.857   0.190
 6265SOL    HW219695   3.613   3.988   0.179
 6266SOL     OW19696   4.334   0.372   3.886
 6266SOL    HW119697   4.375   0.417   3.965
 6266SOL    HW219698   4.386   0.290   3.863
 6267SOL     OW19699   2.613   7.009   5.235
 6267SOL    HW119700   2.670   7.002   5.153
 6267SOL    HW219701   2.622   0.083   5.273
 6268SOL     OW19702   2.638   0.936   2.342
 6268SOL    HW119703   2.574   0.868   2.377
 6268SOL    HW219704   2.710   0.952   2.409
 6269SOL     OW19705   0.053   6.733   1.841
 6269SOL    HW119706   0.144   6.743   1.882
 6269SOL    HW219707   0.040   6.804   1.772
 6270SOL     OW19708   0.854   0.697   6.268
 6270SOL    HW119709   0.855   0.673   6.365
 6270SOL    HW219710   0.819   0.790   6.256
 6271SOL     OW19711   5.858   2.533   5.947
 6271SOL    HW119712   5.923   2.535   6.022
 6271SOL    HW219713   5.774   2.580   5.975
 6272SOL     OW19714   0.492   2.322   0.224
 6272SOL    HW119715   0.561   2.250   0.236
 6272SOL    HW219716   0.447   2.339   0.312
 6273SOL     OW19717   0.605   6.222   2.271
 6273SOL    HW119718   0.639   6.311   2.241
 6273SOL    HW219719   0.681   6.159   2.283
 6274SOL     OW19720   3.431   6.559   5.638
 6274SOL    HW119721   3.331   6.552   5.640
 6274SOL    HW219722   3.470   6.469   5.621
 6275SOL     OW19723   2.030   6.434   6.721
 6275SOL    HW119724   2.036   6.531   6.700
 6275SOL    HW219725   2.117   6.390   6.699
 6276SOL     OW19726   1.934   4.797   3.924
 6276SOL    HW119727   1.952   4.744   3.841
 6276SOL    HW219728   1.980   4.886   3.917
 6277SOL     OW19729   4.683   3.127   0.933
 6277SOL    HW119730   4.618   3.094   1.001
 6277SOL    HW219731   4.761   3.064   0.929
 6278SOL     OW19732   4.698   0.231   4.685
 6278SOL    HW119733   4.736   0.211   4.595
 6278SOL    HW219734   4.753   0.302   4.730
 6279SOL     OW19735   3.487   6.412   6.832
 6279SOL    HW119736   3.466   6.380   6.924
 6279SOL    HW219737   3.582   6.444   6.829
 6280SOL     OW19738   0.368   1.190   6.725
 6280SOL    HW119739   0.285   1.237   6.696
 6280SOL    HW219740   0.363   1.094   6.699
 6281SOL     OW19741   0.061   5.206   4.084
 6281SOL    HW119742   0.150   5.193   4.039
 6281SOL    HW219743   0.056   5.299   4.121
 6282SOL     OW19744   6.450   5.405   6.286
 6282SOL    HW119745   6.374   5.395   6.221
 6282SOL    HW219746   6.444   5.335   6.356
 6283SOL     OW19747   0.088   3.731   4.557
 6283SOL    HW119748   0.106   3.637   4.585
 6283SOL    HW219749   0.105   3.793   4.634
 6284SOL     OW19750   1.456   4.858   5.104
 6284SOL    HW119751   1.466   4.800   5.023
 6284SOL    HW219752   1.435   4.951   5.076
 6285SOL     OW19753   0.042   3.309   4.205
 6285SOL    HW119754   0.086   3.383   4.155
 6285SOL    HW219755   6.990   3.266   4.148
 6286SOL     OW19756   6.251   2.355   4.229
 6286SOL    HW119757   6.177   2.355   4.162
 6286SOL    HW219758   6.336   2.386   4.184
 6287SOL     OW19759   3.450   5.079   4.871
 6287SOL    HW119760   3.463   5.144   4.796
 6287SOL    HW219761   3.392   5.004   4.840
 6288SOL     OW19762   5.100   4.499   2.231
 6288SOL    HW119763   5.133   4.413   2.270
 6288SOL    HW219764   5.061   4.482   2.141
 6289SOL     OW19765   2.661   4.832   0.051
 6289SOL    HW119766   2.706   4.782   0.125
 6289SOL    HW219767   2.631   4.768   6.999
 6290SOL     OW19768   5.912   4.950   6.180
 6290SOL    HW119769   6.002   4.994   6.179
 6290SOL    HW219770   5.902   4.892   6.100
 6291SOL     OW19771   3.993   3.743   4.139
 6291SOL    HW119772   4.010   3.721   4.043
 6291SOL    HW219773   3.959   3.837   4.145
 6292SOL     OW19774   1.855   2.142   4.814
 6292SOL    HW119775   1.888   2.063   4.763
 6292SOL    HW219776   1.877   2.226   4.765
 6293SOL     OW19777   4.174   1.446   1.345
 6293SOL    HW119778   4.138   1.505   1.418
 6293SOL    HW219779   4.103   1.433   1.275
 6294SOL     OW19780   3.933   6.980   3.995
 6294SOL    HW119781   3.869   0.034   3.967
 6294SOL    HW219782   4.026   7.006   3.969
 6295SOL     OW19783   5.094   4.713   4.431
 6295SOL    HW119784   5.069   4.651   4.357
 6295SOL    HW219785   5.027   4.787   4.438
 6296SOL     OW19786   6.898   5.364   5.957
 6296SOL    HW119787   6.949   5.322   6.032
 6296SOL    HW219788   6.818   5.412   5.993
 6297SOL     OW19789   5.387   0.203   4.918
 6297SOL    HW119790   5.430   0.161   4.838
 6297SOL    HW219791   5.290   0.179   4.921
 6298SOL     OW19792   1.507   3.616   0.143
 6298SOL    HW119793   1.520   3.682   0.217
 6298SOL    HW219794   1.477   3.663   0.061
 6299SOL     OW19795   6.250   2.377   2.210
 6299SOL    HW119796   6.211   2.304   2.266
 6299SOL    HW219797   6.347   2.389   2.232
 6300SOL     OW19798   6.734   1.359   6.625
 6300SOL    HW119799   6.765   1.290   6.690
 6300SOL    HW219800   6.636   1.373   6.634
 6301SOL     OW19801   3.308   0.146   0.045
 6301SOL    HW119802   3.236   0.136   0.114
 6301SOL    HW219803   3.290   0.228   7.008
 6302SOL     OW19804   1.439   1.342   4.256
 6302SOL    HW119805   1.428   1.252   4.296
 6302SOL    HW219806   1.350   1.377   4.228
 6303SOL     OW19807   0.615   0.845   4.533
 6303SOL    HW119808   0.606   0.798   4.445
 6303SOL    HW219809   0.708   0.881   4.543
 6304SOL     OW19810   3.295   0.742   1.255
 6304SOL    HW119811   3.197   0.761   1.251
 6304SOL    HW219812   3.333   0.739   1.162
 6305SOL     OW19813   6.188   6.502   0.832
 6305SOL    HW119814   6.281   6.535   0.817
 6305SOL    HW219815   6.150   6.468   0.746
 6306SOL     OW19816   0.111   4.133   4.481
 6306SOL    HW119817   0.171   4.213   4.491
 6306SOL    HW219818   0.164   4.050   4.494
 6307SOL     OW19819   3.652   4.111   4.725
 6307SOL    HW119820   3.659   4.014   4.745
 6307SOL    HW219821   3.672   4.164   4.807
 6308SOL     OW19822   2.065   2.399   4.243
 6308SOL    HW119823   1.993   2.457   4.281
 6308SOL    HW219824   2.154   2.433   4.273
 6309SOL     OW19825   6.071   5.816   4.299
 6309SOL    HW119826   6.099   5.724   4.272
 6309SOL    HW219827   6.150   5.866   4.335
 6310SOL     OW19828   2.092   5.946   2.732
 6310SOL    HW119829   2.147   5.958   2.650
 6310SOL    HW219830   2.085   5.848   2.754
 6311SOL     OW19831   5.207   1.702   6.042
 6311SOL    HW119832   5.263   1.651   5.977
 6311SOL    HW219833   5.163   1.638   6.105
 6312SOL     OW19834   6.993   6.626   5.352
 6312SOL    HW119835   0.042   6.581   5.412
 6312SOL    HW219836   7.014   6.604   5.257
 6313SOL     OW19837   6.865   5.993   3.679
 6313SOL    HW119838   6.944   6.031   3.632
 6313SOL    HW219839   6.895   5.927   3.749
 6314SOL     OW19840   4.147   6.796   1.847
 6314SOL    HW119841   4.059   6.815   1.803
 6314SOL    HW219842   4.153   6.845   1.933
 6315SOL     OW19843   2.751   1.955   5.585
 6315SOL    HW119844   2.702   1.975   5.670
 6315SOL    HW219845   2.760   2.039   5.531
 6316SOL     OW19846   5.368   2.375   6.519
 6316SOL    HW119847   5.414   2.298   6.475
 6316SOL    HW219848   5.306   2.342   6.590
 6317SOL     OW19849   5.262   4.727   1.617
 6317SOL    HW119850   5.299   4.662   1.683
 6317SOL    HW219851   5.217   4.802   1.666
 6318SOL     OW19852   4.456   0.364   5.657
 6318SOL    HW119853   4.432   0.326   5.568
 6318SOL    HW219854   4.511   0.297   5.708
 6319SOL     OW19855   6.296   1.485   5.111
 6319SOL    HW119856   6.372   1.445   5.164
 6319SOL    HW219857   6.324   1.494   5.015
 6320SOL     OW19858   6.334   6.365   5.159
 6320SOL    HW119859   6.312   6.270   5.180
 6320SOL    HW219860   6.258   6.408   5.111
 6321SOL     OW19861   4.604   3.699   0.995
 6321SOL    HW119862   4.579   3.629   1.062
 6321SOL    HW219863   4.563   3.677   0.907
 6322SOL     OW19864   1.972   2.316   0.864
 6322SOL    HW119865   1.916   2.390   0.825
 6322SOL    HW219866   1.971   2.238   0.802
 6323SOL     OW19867   1.912   2.004   1.708
 6323SOL    HW119868   1.980   1.935   1.686
 6323SOL    HW219869   1.954   2.095   1.707
 6324SOL     OW19870   4.995   1.173   0.952
 6324SOL    HW119871   5.005   1.223   0.866
 6324SOL    HW219872   5.084   1.168   0.998
 6325SOL     OW19873   1.822   3.208   2.466
 6325SOL    HW119874   1.738   3.248   2.503
 6325SOL    HW219875   1.889   3.281   2.449
 6326SOL     OW19876   5.256   5.056   1.321
 6326SOL    HW119877   5.340   5.083   1.275
 6326SOL    HW219878   5.266   4.963   1.357
 6327SOL     OW19879   0.053   1.059   4.992
 6327SOL    HW119880   0.104   0.980   4.959
 6327SOL    HW219881   0.079   1.140   4.939
 6328SOL     OW19882   3.997   4.002   0.096
 6328SOL    HW119883   3.993   4.076   0.029
 6328SOL    HW219884   4.070   4.021   0.161
 6329SOL     OW19885   1.517   2.689   3.612
 6329SOL    HW119886   1.471   2.607   3.579
 6329SOL    HW219887   1.615   2.682   3.594
 6330SOL     OW19888   5.511   0.100   1.818
 6330SOL    HW119889   5.505   0.181   1.876
 6330SOL    HW219890   5.580   0.115   1.746
 6331SOL     OW19891   6.378   3.107   5.330
 6331SOL    HW119892   6.299   3.138   5.384
 6331SOL    HW219893   6.455   3.169   5.345
 6332SOL     OW19894   0.421   2.803   0.664
 6332SOL    HW119895   0.446   2.813   0.760
 6332SOL    HW219896   0.326   2.773   0.657
 6333SOL     OW19897   4.382   6.941   5.685
 6333SOL    HW119898   4.433   7.011   5.735
 6333SOL    HW219899   4.382   6.962   5.587
 6334SOL     OW19900   2.920   1.098   2.400
 6334SOL    HW119901   2.972   1.032   2.346
 6334SOL    HW219902   2.931   1.189   2.361
 6335SOL     OW19903   4.420   1.192   1.014
 6335SOL    HW119904   4.415   1.208   1.113
 6335SOL    HW219905   4.449   1.098   0.997
 6336SOL     OW19906   1.402   2.409   6.957
 6336SOL    HW119907   1.448   2.366   0.016
 6336SOL    HW219908   1.445   2.379   6.871
 6337SOL     OW19909   4.832   5.041   5.430
 6337SOL    HW119910   4.772   4.962   5.425
 6337SOL    HW219911   4.879   5.053   5.343
 6338SOL     OW19912   3.001   2.028   3.859
 6338SOL    HW119913   2.953   1.967   3.797
 6338SOL    HW219914   3.100   2.022   3.843
 6339SOL     OW19915   0.796   3.968   3.660
 6339SOL    HW119916   0.793   3.960   3.759
 6339SOL    HW219917   0.884   3.936   3.626
 6340SOL     OW19918   1.439   5.003   1.661
 6340SOL    HW119919   1.354   4.953   1.679
 6340SOL    HW219920   1.442   5.031   1.565
 6341SOL     OW19921   6.546   4.200   4.259
 6341SOL    HW119922   6.480   4.141   4.305
 6341SOL    HW219923   6.507   4.290   4.245
 6342SOL     OW19924   2.284   0.888   1.087
 6342SOL    HW119925   2.325   0.866   1.176
 6342SOL    HW219926   2.343   0.853   1.014
 6343SOL     OW19927   4.575   1.180   6.439
 6343SOL    HW119928   4.484   1.170   6.397
 6343SOL    HW219929   4.610   1.090   6.463
 6344SOL     OW19930   4.875   1.954   4.429
 6344SOL    HW119931   4.908   1.890   4.499
 6344SOL    HW219932   4.942   2.027   4.417
 6345SOL     OW19933   6.042   2.772   2.786
 6345SOL    HW119934   5.957   2.736   2.748
 6345SOL    HW219935   6.028   2.867   2.815
 6346SOL     OW19936   6.453   5.684   4.048
 6346SOL    HW119937   6.489   5.607   3.996
 6346SOL    HW219938   6.478   5.770   4.004
 6347SOL     OW19939   2.112   0.877   0.683
 6347SOL    HW119940   2.136   0.783   0.656
 6347SOL    HW219941   2.195   0.934   0.682
 6348SOL     OW19942   1.577   2.877   6.093
 6348SOL    HW119943   1.551   2.782   6.072
 6348SOL    HW219944   1.562   2.934   6.013
 6349SOL     OW19945   1.799   0.277   1.063
 6349SOL    HW119946   1.889   0.314   1.041
 6349SOL    HW219947   1.768   0.315   1.150
 6350SOL     OW19948   0.524   5.455   4.035
 6350SOL    HW119949   0.505   5.384   3.967
 6350SOL    HW219950   0.604   5.429   4.089
 6351SOL     OW19951   6.049   3.135   3.731
 6351SOL    HW119952   5.972   3.198   3.728
 6351SOL    HW219953   6.117   3.167   3.796
 6352SOL     OW19954   3.069   0.026   5.037
 6352SOL    HW119955   3.035   0.069   4.954
 6352SOL    HW219956   3.032   0.072   5.117
 6353SOL     OW19957   0.795   6.350   6.146
 6353SOL    HW119958   0.853   6.321   6.222
 6353SOL    HW219959   0.853   6.385   6.072
 6354SOL     OW19960   2.774   4.870   3.612
 6354SOL    HW119961   2.788   4.964   3.582
 6354SOL    HW219962   2.774   4.809   3.533
 6355SOL     OW19963   2.483   5.112   6.697
 6355SOL    HW119964   2.564   5.071   6.740
 6355SOL    HW219965   2.416   5.133   6.768
 6356SOL     OW19966   4.818   6.088   1.619
 6356SOL    HW119967   4.720   6.107   1.606
 6356SOL    HW219968   4.868   6.174   1.622
 6357SOL     OW19969   6.273   3.450   2.791
 6357SOL    HW119970   6.228   3.392   2.724
 6357SOL    HW219971   6.289   3.540   2.752
 6358SOL     OW19972   6.663   2.376   6.873
 6358SOL    HW119973   6.579   2.426   6.850
 6358SOL    HW219974   6.643   2.278   6.879
 6359SOL     OW19975   6.207   0.796   0.595
 6359SOL    HW119976   6.236   0.825   0.504
 6359SOL    HW219977   6.108   0.781   0.595
 6360SOL     OW19978   1.189   3.994   5.313
 6360SOL    HW119979   1.162   3.919   5.373
 6360SOL    HW219980   1.242   4.061   5.366
 6361SOL     OW19981   1.435   6.978   0.801
 6361SOL    HW119982   1.339   6.997   0.821
 6361SOL    HW219983   1.491   0.040   0.824
 6362SOL     OW19984   0.583   5.538   7.014
 6362SOL    HW119985   0.627   5.469   6.956
 6362SOL    HW219986   0.626   5.539   0.086
 6363SOL     OW19987   1.990   5.562   3.658
 6363SOL    HW119988   1.967   5.627   3.586
 6363SOL    HW219989   2.084   5.577   3.689
 6364SOL     OW19990   2.572   1.529   5.648
 6364SOL    HW119991   2.614   1.605   5.598
 6364SOL    HW219992   2.494   1.563   5.700
 6365SOL     OW19993   5.060   0.326   4.272
 6365SOL    HW119994   5.130   0.343   4.203
 6365SOL    HW219995   4.999   0.405   4.279
 6366SOL     OW19996   0.935   5.249   5.292
 6366SOL    HW119997   0.893   5.160   5.311
 6366SOL    HW219998   1.008   5.267   5.359
 6367SOL     OW19999   4.334   1.449   4.009
 6367SOL    HW120000   4.281   1.533   3.998
 6367SOL    HW220001   4.426   1.462   3.971
 6368SOL     OW20002   3.478   4.948   3.520
 6368SOL    HW120003   3.576   4.937   3.502
 6368SOL    HW220004   3.427   4.939   3.435
 6369SOL     OW20005   2.812   0.550   4.834
 6369SOL    HW120006   2.858   0.490   4.769
 6369SOL    HW220007   2.736   0.502   4.878
 6370SOL     OW20008   0.012   3.135   3.703
 6370SOL    HW120009   6.959   3.196   3.665
 6370SOL    HW220010   0.025   3.057   3.641
 6371SOL     OW20011   5.594   5.113   3.121
 6371SOL    HW120012   5.603   5.144   3.027
 6371SOL    HW220013   5.606   5.190   3.183
 6372SOL     OW20014   1.814   1.308   1.318
 6372SOL    HW120015   1.788   1.394   1.274
 6372SOL    HW220016   1.913   1.302   1.324
 6373SOL     OW20017   4.560   4.445   2.427
 6373SOL    HW120018   4.558   4.392   2.342
 6373SOL    HW220019   4.476   4.500   2.434
 6374SOL     OW20020   3.946   3.329   3.213
 6374SOL    HW120021   3.881   3.307   3.140
 6374SOL    HW220022   3.945   3.255   3.281
 6375SOL     OW20023   0.098   1.772   2.940
 6375SOL    HW120024   0.164   1.718   2.992
 6375SOL    HW220025   0.147   1.845   2.891
 6376SOL     OW20026   5.211   1.944   5.564
 6376SOL    HW120027   5.151   2.022   5.548
 6376SOL    HW220028   5.159   1.859   5.554
 6377SOL     OW20029   0.321   1.243   5.289
 6377SOL    HW120030   0.339   1.319   5.227
 6377SOL    HW220031   0.401   1.184   5.294
 6378SOL     OW20032   4.572   4.360   3.569
 6378SOL    HW120033   4.532   4.354   3.478
 6378SOL    HW220034   4.515   4.419   3.626
 6379SOL     OW20035   1.551   4.447   5.328
 6379SOL    HW120036   1.584   4.542   5.323
 6379SOL    HW220037   1.561   4.413   5.422
 6380SOL     OW20038   0.432   1.385   5.044
 6380SOL    HW120039   0.404   1.419   4.954
 6380SOL    HW220040   0.445   1.286   5.039
 6381SOL     OW20041   3.886   3.186   1.249
 6381SOL    HW120042   3.916   3.175   1.154
 6381SOL    HW220043   3.909   3.277   1.281
 6382SOL     OW20044   3.039   1.848   0.690
 6382SOL    HW120045   3.064   1.838   0.787
 6382SOL    HW220046   2.949   1.808   0.675
 6383SOL     OW20047   2.304   2.895   3.242
 6383SOL    HW120048   2.270   2.986   3.217
 6383SOL    HW220049   2.306   2.886   3.341
 6384SOL     OW20050   6.521   3.847   2.965
 6384SOL    HW120051   6.619   3.834   2.977
 6384SOL    HW220052   6.491   3.926   3.019
 6385SOL     OW20053   6.923   3.638   3.626
 6385SOL    HW120054   6.920   3.705   3.700
 6385SOL    HW220055   6.979   3.674   3.551
 6386SOL     OW20056   2.503   3.459   6.297
 6386SOL    HW120057   2.447   3.396   6.243
 6386SOL    HW220058   2.583   3.411   6.332
 6387SOL     OW20059   6.823   2.164   6.142
 6387SOL    HW120060   6.831   2.255   6.182
 6387SOL    HW220061   6.728   2.134   6.146
 6388SOL     OW20062   4.300   6.575   1.811
 6388SOL    HW120063   4.289   6.673   1.827
 6388SOL    HW220064   4.361   6.537   1.880
 6389SOL     OW20065   0.094   6.051   1.338
 6389SOL    HW120066   0.043   5.994   1.273
 6389SOL    HW220067   0.190   6.054   1.311
 6390SOL     OW20068   0.592   0.697   5.864
 6390SOL    HW120069   0.602   0.635   5.942
 6390SOL    HW220070   0.496   0.699   5.835
 6391SOL     OW20071   1.544   6.777   5.995
 6391SOL    HW120072   1.510   6.863   6.033
 6391SOL    HW220073   1.643   6.783   5.982
 6392SOL     OW20074   3.076   5.362   2.617
 6392SOL    HW120075   3.095   5.459   2.635
 6392SOL    HW220076   2.985   5.339   2.650
 6393SOL     OW20077   0.702   5.957   1.932
 6393SOL    HW120078   0.700   5.866   1.974
 6393SOL    HW220079   0.610   5.984   1.905
 6394SOL     OW20080   2.155   5.099   0.728
 6394SOL    HW120081   2.082   5.166   0.714
 6394SOL    HW220082   2.114   5.013   0.760
 6395SOL     OW20083   0.034   2.536   1.475
 6395SOL    HW120084   0.037   2.598   1.396
 6395SOL    HW220085   6.961   2.538   1.516
 6396SOL     OW20086   5.415   3.335   0.006
 6396SOL    HW120087   5.483   3.342   0.079
 6396SOL    HW220088   5.324   3.346   0.045
 6397SOL     OW20089   5.799   1.510   1.330
 6397SOL    HW120090   5.807   1.605   1.360
 6397SOL    HW220091   5.820   1.449   1.407
 6398SOL     OW20092   3.105   6.741   1.815
 6398SOL    HW120093   3.113   6.830   1.770
 6398SOL    HW220094   3.195   6.701   1.827
 6399SOL     OW20095   1.668   0.121   6.864
 6399SOL    HW120096   1.595   0.066   6.823
 6399SOL    HW220097   1.638   0.216   6.871
 6400SOL     OW20098   2.582   4.978   2.707
 6400SOL    HW120099   2.551   4.955   2.799
 6400SOL    HW220100   2.545   5.067   2.680
 6401SOL     OW20101   5.431   6.287   3.517
 6401SOL    HW120102   5.463   6.214   3.577
 6401SOL    HW220103   5.352   6.256   3.465
 6402SOL     OW20104   2.532   2.587   3.218
 6402SOL    HW120105   2.523   2.677   3.177
 6402SOL    HW220106   2.493   2.589   3.310
 6403SOL     OW20107   6.720   5.135   6.425
 6403SOL    HW120108   6.621   5.126   6.436
 6403SOL    HW220109   6.741   5.227   6.391
 6404SOL     OW20110   4.039   0.576   2.608
 6404SOL    HW120111   4.069   0.515   2.681
 6404SOL    HW220112   4.107   0.578   2.536
 6405SOL     OW20113   3.569   0.336   3.858
 6405SOL    HW120114   3.479   0.363   3.824
 6405SOL    HW220115   3.629   0.416   3.861
 6406SOL     OW20116   0.529   2.623   2.748
 6406SOL    HW120117   0.568   2.699   2.696
 6406SOL    HW220118   0.451   2.657   2.802
 6407SOL     OW20119   2.225   6.928   3.878
 6407SOL    HW120120   2.315   6.908   3.840
 6407SOL    HW220121   2.155   6.913   3.808
 6408SOL     OW20122   5.236   1.394   0.905
 6408SOL    HW120123   5.265   1.464   0.970
 6408SOL    HW220124   5.264   1.304   0.938
 6409SOL     OW20125   6.096   4.421   3.944
 6409SOL    HW120126   6.154   4.348   3.908
 6409SOL    HW220127   6.090   4.412   4.043
 6410SOL     OW20128   1.984   1.636   6.302
 6410SOL    HW120129   1.922   1.714   6.292
 6410SOL    HW220130   2.060   1.646   6.238
 6411SOL     OW20131   0.609   2.824   3.076
 6411SOL    HW120132   0.635   2.918   3.054
 6411SOL    HW220133   0.571   2.821   3.168
 6412SOL     OW20134   1.310   2.155   4.654
 6412SOL    HW120135   1.244   2.087   4.688
 6412SOL    HW220136   1.401   2.114   4.652
 6413SOL     OW20137   3.839   4.855   3.493
 6413SOL    HW120138   3.832   4.865   3.592
 6413SOL    HW220139   3.853   4.945   3.451
 6414SOL     OW20140   6.073   0.634   0.023
 6414SOL    HW120141   6.015   0.627   6.960
 6414SOL    HW220142   6.097   0.542   0.055
 6415SOL     OW20143   1.807   3.413   3.151
 6415SOL    HW120144   1.828   3.511   3.156
 6415SOL    HW220145   1.730   3.399   3.088
 6416SOL     OW20146   1.341   0.590   6.549
 6416SOL    HW120147   1.254   0.611   6.593
 6416SOL    HW220148   1.416   0.609   6.613
 6417SOL     OW20149   5.590   4.874   0.762
 6417SOL    HW120150   5.551   4.960   0.731
 6417SOL    HW220151   5.566   4.801   0.697
 6418SOL     OW20152   5.256   3.446   2.434
 6418SOL    HW120153   5.162   3.451   2.399
 6418SOL    HW220154   5.321   3.457   2.360
 6419SOL     OW20155   1.392   4.833   3.315
 6419SOL    HW120156   1.355   4.808   3.405
 6419SOL    HW220157   1.438   4.921   3.322
 6420SOL     OW20158   2.285   6.184   3.941
 6420SOL    HW120159   2.276   6.092   3.903
 6420SOL    HW220160   2.379   6.217   3.927
 6421SOL     OW20161   4.730   0.051   2.647
 6421SOL    HW120162   4.800   7.008   2.685
 6421SOL    HW220163   4.768   0.103   2.571
 6422SOL     OW20164   6.789   0.634   5.228
 6422SOL    HW120165   6.728   0.555   5.226
 6422SOL    HW220166   6.859   0.625   5.156
 6423SOL     OW20167   5.130   5.559   3.402
 6423SOL    HW120168   5.069   5.481   3.419
 6423SOL    HW220169   5.223   5.526   3.387
 6424SOL     OW20170   0.077   4.617   5.086
 6424SOL    HW120171   0.027   4.576   5.162
 6424SOL    HW220172   0.164   4.569   5.074
 6425SOL     OW20173   6.833   6.114   2.934
 6425SOL    HW120174   6.798   6.197   2.979
 6425SOL    HW220175   6.874   6.138   2.847
 6426SOL     OW20176   0.952   5.181   3.102
 6426SOL    HW120177   0.872   5.215   3.152
 6426SOL    HW220178   0.922   5.115   3.032
 6427SOL     OW20179   3.482   4.184   4.245
 6427SOL    HW120180   3.454   4.279   4.235
 6427SOL    HW220181   3.409   4.124   4.213
 6428SOL     OW20182   5.797   3.328   6.670
 6428SOL    HW120183   5.782   3.235   6.701
 6428SOL    HW220184   5.709   3.373   6.654
 6429SOL     OW20185   0.705   1.604   5.636
 6429SOL    HW120186   0.640   1.670   5.597
 6429SOL    HW220187   0.731   1.537   5.566
 6430SOL     OW20188   6.095   0.974   3.606
 6430SOL    HW120189   6.165   1.015   3.547
 6430SOL    HW220190   6.090   0.876   3.588
 6431SOL     OW20191   4.539   6.420   3.812
 6431SOL    HW120192   4.562   6.477   3.733
 6431SOL    HW220193   4.473   6.468   3.870
 6432SOL     OW20194   4.578   4.505   6.170
 6432SOL    HW120195   4.655   4.443   6.186
 6432SOL    HW220196   4.593   4.589   6.223
 6433SOL     OW20197   1.439   5.458   5.682
 6433SOL    HW120198   1.472   5.499   5.768
 6433SOL    HW220199   1.476   5.366   5.673
 6434SOL     OW20200   2.311   5.764   6.091
 6434SOL    HW120201   2.341   5.858   6.073
 6434SOL    HW220202   2.390   5.709   6.118
 6435SOL     OW20203   5.213   6.454   1.023
 6435SOL    HW120204   5.248   6.387   1.089
 6435SOL    HW220205   5.130   6.417   0.980
 6436SOL     OW20206   1.263   2.814   2.658
 6436SOL    HW120207   1.257   2.845   2.563
 6436SOL    HW220208   1.191   2.747   2.676
 6437SOL     OW20209   2.255   1.531   0.332
 6437SOL    HW120210   2.224   1.516   0.426
 6437SOL    HW220211   2.306   1.451   0.300
 6438SOL     OW20212   6.879   3.852   5.259
 6438SOL    HW120213   6.919   3.773   5.307
 6438SOL    HW220214   6.806   3.821   5.199
 6439SOL     OW20215   5.781   1.639   1.709
 6439SOL    HW120216   5.833   1.626   1.793
 6439SOL    HW220217   5.773   1.552   1.661
 6440SOL     OW20218   2.460   1.665   6.297
 6440SOL    HW120219   2.478   1.591   6.361
 6440SOL    HW220220   2.361   1.678   6.288
 6441SOL     OW20221   6.820   0.060   2.010
 6441SOL    HW120222   6.757   7.003   1.988
 6441SOL    HW220223   6.798   0.139   1.952
 6442SOL     OW20224   2.372   1.316   4.525
 6442SOL    HW120225   2.348   1.316   4.622
 6442SOL    HW220226   2.297   1.354   4.471
 6443SOL     OW20227   3.750   2.185   5.179
 6443SOL    HW120228   3.766   2.092   5.214
 6443SOL    HW220229   3.655   2.211   5.195
 6444SOL     OW20230   5.122   3.321   4.541
 6444SOL    HW120231   5.139   3.265   4.622
 6444SOL    HW220232   5.209   3.357   4.506
 6445SOL     OW20233   3.829   2.985   4.805
 6445SOL    HW120234   3.863   2.892   4.818
 6445SOL    HW220235   3.902   3.041   4.766
 6446SOL     OW20236   1.151   1.180   6.961
 6446SOL    HW120237   1.248   1.187   6.939
 6446SOL    HW220238   1.115   1.270   6.986
 6447SOL     OW20239   5.564   5.141   3.610
 6447SOL    HW120240   5.590   5.046   3.598
 6447SOL    HW220241   5.503   5.169   3.536
 6448SOL     OW20242   4.664   5.890   1.788
 6448SOL    HW120243   4.760   5.917   1.791
 6448SOL    HW220244   4.612   5.957   1.736
 6449SOL     OW20245   3.813   6.227   0.980
 6449SOL    HW120246   3.809   6.206   0.882
 6449SOL    HW220247   3.813   6.142   1.032
 6450SOL     OW20248   1.062   3.830   1.095
 6450SOL    HW120249   1.009   3.782   1.165
 6450SOL    HW220250   1.146   3.865   1.136
 6451SOL     OW20251   2.019   0.609   5.315
 6451SOL    HW120252   2.116   0.587   5.323
 6451SOL    HW220253   1.964   0.530   5.342
 6452SOL     OW20254   4.676   5.151   3.096
 6452SOL    HW120255   4.600   5.214   3.115
 6452SOL    HW220256   4.640   5.067   3.055
 6453SOL     OW20257   2.534   6.272   2.114
 6453SOL    HW120258   2.591   6.354   2.113
 6453SOL    HW220259   2.545   6.222   2.029
 6454SOL     OW20260   0.738   2.313   3.183
 6454SOL    HW120261   0.742   2.392   3.122
 6454SOL    HW220262   0.820   2.257   3.169
 6455SOL     OW20263   0.345   3.386   4.077
 6455SOL    HW120264   0.411   3.338   4.021
 6455SOL    HW220265   0.272   3.423   4.019
 6456SOL     OW20266   1.371   1.429   3.317
 6456SOL    HW120267   1.320   1.472   3.391
 6456SOL    HW220268   1.316   1.355   3.278
 6457SOL     OW20269   5.127   1.565   1.567
 6457SOL    HW120270   5.040   1.553   1.616
 6457SOL    HW220271   5.156   1.477   1.529
 6458SOL     OW20272   1.116   5.686   4.535
 6458SOL    HW120273   1.047   5.614   4.549
 6458SOL    HW220274   1.085   5.749   4.465
 6459SOL     OW20275   6.391   3.024   1.426
 6459SOL    HW120276   6.324   3.097   1.440
 6459SOL    HW220277   6.406   3.012   1.328
 6460SOL     OW20278   5.708   6.310   6.579
 6460SOL    HW120279   5.713   6.255   6.662
 6460SOL    HW220280   5.780   6.378   6.579
 6461SOL     OW20281   2.323   4.347   6.524
 6461SOL    HW120282   2.403   4.326   6.468
 6461SOL    HW220283   2.241   4.310   6.481
 6462SOL     OW20284   2.181   3.320   4.233
 6462SOL    HW120285   2.179   3.231   4.277
 6462SOL    HW220286   2.192   3.308   4.134
 6463SOL     OW20287   6.040   2.548   0.222
 6463SOL    HW120288   5.993   2.551   0.311
 6463SOL    HW220289   5.981   2.503   0.155
 6464SOL     OW20290   1.421   4.780   4.511
 6464SOL    HW120291   1.373   4.839   4.575
 6464SOL    HW220292   1.356   4.737   4.448
 6465SOL     OW20293   0.076   3.025   2.700
 6465SOL    HW120294   7.006   3.051   2.740
 6465SOL    HW220295   0.064   3.002   2.603
 6466SOL     OW20296   0.638   0.890   6.088
 6466SOL    HW120297   0.579   0.837   6.149
 6466SOL    HW220298   0.636   0.848   5.997
 6467SOL     OW20299   4.183   1.097   0.466
 6467SOL    HW120300   4.086   1.072   0.459
 6467SOL    HW220301   4.231   1.065   0.384
 6468SOL     OW20302   2.886   6.766   0.842
 6468SOL    HW120303   2.829   6.711   0.781
 6468SOL    HW220304   2.959   6.708   0.880
 6469SOL     OW20305   4.201   2.117   3.556
 6469SOL    HW120306   4.245   2.153   3.474
 6469SOL    HW220307   4.221   2.177   3.634
 6470SOL     OW20308   5.786   2.757   1.004
 6470SOL    HW120309   5.709   2.706   1.042
 6470SOL    HW220310   5.809   2.721   0.914
 6471SOL     OW20311   7.003   6.402   5.926
 6471SOL    HW120312   0.054   6.474   5.932
 6471SOL    HW220313   6.926   6.434   5.870
 6472SOL     OW20314   0.213   5.904   1.583
 6472SOL    HW120315   0.133   5.924   1.526
 6472SOL    HW220316   0.220   5.805   1.597
 6473SOL     OW20317   2.836   1.569   4.707
 6473SOL    HW120318   2.902   1.503   4.742
 6473SOL    HW220319   2.863   1.598   4.615
 6474SOL     OW20320   2.988   4.951   6.263
 6474SOL    HW120321   2.963   5.047   6.277
 6474SOL    HW220322   3.087   4.942   6.258
 6475SOL     OW20323   6.459   5.364   3.577
 6475SOL    HW120324   6.517   5.444   3.560
 6475SOL    HW220325   6.388   5.358   3.507
 6476SOL     OW20326   4.606   3.969   0.915
 6476SOL    HW120327   4.507   3.969   0.901
 6476SOL    HW220328   4.636   3.877   0.942
 6477SOL     OW20329   5.865   4.654   0.412
 6477SOL    HW120330   5.794   4.588   0.436
 6477SOL    HW220331   5.895   4.703   0.494
 6478SOL     OW20332   3.152   0.539   2.222
 6478SOL    HW120333   3.164   0.633   2.189
 6478SOL    HW220334   3.073   0.535   2.283
 6479SOL     OW20335   4.156   5.170   3.528
 6479SOL    HW120336   4.177   5.072   3.521
 6479SOL    HW220337   4.176   5.215   3.441
 6480SOL     OW20338   3.112   1.192   6.885
 6480SOL    HW120339   3.106   1.163   6.790
 6480SOL    HW220340   3.022   1.187   6.928
 6481SOL     OW20341   3.561   2.064   2.181
 6481SOL    HW120342   3.466   2.059   2.149
 6481SOL    HW220343   3.616   2.112   2.113
 6482SOL     OW20344   6.107   0.941   5.774
 6482SOL    HW120345   6.169   0.911   5.846
 6482SOL    HW220346   6.157   0.994   5.706
 6483SOL     OW20347   1.179   0.178   2.825
 6483SOL    HW120348   1.127   0.147   2.746
 6483SOL    HW220349   1.254   0.238   2.794
 6484SOL     OW20350   3.590   0.013   1.458
 6484SOL    HW120351   3.624   7.007   1.367
 6484SOL    HW220352   3.490   0.016   1.456
 6485SOL     OW20353   1.888   5.174   3.811
 6485SOL    HW120354   1.962   5.133   3.864
 6485SOL    HW220355   1.802   5.127   3.831
 6486SOL     OW20356   1.157   4.137   3.009
 6486SOL    HW120357   1.191   4.204   3.074
 6486SOL    HW220358   1.099   4.182   2.941
 6487SOL     OW20359   0.378   6.635   5.057
 6487SOL    HW120360   0.430   6.550   5.048
 6487SOL    HW220361   0.302   6.620   5.121
 6488SOL     OW20362   3.453   5.715   4.581
 6488SOL    HW120363   3.431   5.785   4.513
 6488SOL    HW220364   3.540   5.672   4.559
 6489SOL     OW20365   3.134   3.153   6.095
 6489SOL    HW120366   3.053   3.145   6.037
 6489SOL    HW220367   3.181   3.240   6.075
 6490SOL     OW20368   3.643   1.522   6.392
 6490SOL    HW120369   3.729   1.553   6.352
 6490SOL    HW220370   3.632   1.563   6.482
 6491SOL     OW20371   4.030   0.736   1.083
 6491SOL    HW120372   4.053   0.708   1.176
 6491SOL    HW220373   4.110   0.777   1.039
 6492SOL     OW20374   4.301   4.669   6.612
 6492SOL    HW120375   4.356   4.752   6.623
 6492SOL    HW220376   4.289   4.626   6.702
 6493SOL     OW20377   1.818   4.267   5.722
 6493SOL    HW120378   1.877   4.348   5.721
 6493SOL    HW220379   1.871   4.186   5.697
 6494SOL     OW20380   6.904   0.624   3.490
 6494SOL    HW120381   6.933   0.665   3.577
 6494SOL    HW220382   6.811   0.653   3.469
 6495SOL     OW20383   6.254   0.364   4.496
 6495SOL    HW120384   6.351   0.382   4.512
 6495SOL    HW220385   6.230   0.278   4.541
 6496SOL     OW20386   6.309   1.362   3.335
 6496SOL    HW120387   6.399   1.380   3.374
 6496SOL    HW220388   6.288   1.431   3.266
 6497SOL     OW20389   0.666   1.571   0.896
 6497SOL    HW120390   0.719   1.639   0.846
 6497SOL    HW220391   0.692   1.479   0.865
 6498SOL     OW20392   1.659   3.506   3.527
 6498SOL    HW120393   1.740   3.526   3.583
 6498SOL    HW220394   1.581   3.487   3.587
 6499SOL     OW20395   5.745   3.229   5.729
 6499SOL    HW120396   5.678   3.202   5.660
 6499SOL    HW220397   5.755   3.155   5.796
 6500SOL     OW20398   6.752   3.578   4.731
 6500SOL    HW120399   6.806   3.642   4.675
 6500SOL    HW220400   6.668   3.623   4.761
 6501SOL     OW20401   0.037   1.561   6.529
 6501SOL    HW120402   6.977   1.520   6.481
 6501SOL    HW220403   0.054   1.653   6.493
 6502SOL     OW20404   6.976   2.755   2.608
 6502SOL    HW120405   7.000   2.761   2.511
 6502SOL    HW220406   6.991   2.843   2.652
 6503SOL     OW20407   5.430   1.050   3.131
 6503SOL    HW120408   5.528   1.032   3.128
 6503SOL    HW220409   5.414   1.144   3.159
 6504SOL     OW20410   4.472   6.339   5.456
 6504SOL    HW120411   4.556   6.315   5.406
 6504SOL    HW220412   4.403   6.268   5.440
 6505SOL     OW20413   5.395   5.445   6.886
 6505SOL    HW120414   5.366   5.435   6.791
 6505SOL    HW220415   5.328   5.401   6.946
 6506SOL     OW20416   6.728   2.694   2.721
 6506SOL    HW120417   6.805   2.676   2.660
 6506SOL    HW220418   6.666   2.759   2.678
 6507SOL     OW20419   1.448   5.200   6.194
 6507SOL    HW120420   1.525   5.227   6.136
 6507SOL    HW220421   1.420   5.107   6.170
 6508SOL     OW20422   1.822   1.036   2.421
 6508SOL    HW120423   1.763   1.051   2.500
 6508SOL    HW220424   1.918   1.040   2.450
 6509SOL     OW20425   3.456   1.139   4.647
 6509SOL    HW120426   3.365   1.114   4.614
 6509SOL    HW220427   3.493   1.064   4.701
 6510SOL     OW20428   6.093   5.734   0.388
 6510SOL    HW120429   6.154   5.725   0.467
 6510SOL    HW220430   6.071   5.831   0.374
 6511SOL     OW20431   3.979   1.340   5.161
 6511SOL    HW120432   4.026   1.303   5.241
 6511SOL    HW220433   3.893   1.381   5.190
 6512SOL     OW20434   4.193   6.991   2.092
 6512SOL    HW120435   4.220   0.059   2.048
 6512SOL    HW220436   4.137   7.011   2.172
 6513SOL     OW20437   2.440   4.891   2.963
 6513SOL    HW120438   2.359   4.947   2.975
 6513SOL    HW220439   2.497   4.895   3.045
 6514SOL     OW20440   6.413   1.089   4.103
 6514SOL    HW120441   6.393   1.052   4.012
 6514SOL    HW220442   6.395   1.187   4.104
 6515SOL     OW20443   0.258   5.422   4.169
 6515SOL    HW120444   0.257   5.520   4.186
 6515SOL    HW220445   0.342   5.398   4.120
 6516SOL     OW20446   0.728   3.644   1.974
 6516SOL    HW120447   0.709   3.701   2.054
 6516SOL    HW220448   0.717   3.547   1.998
 6517SOL     OW20449   6.632   1.335   1.566
 6517SOL    HW120450   6.560   1.367   1.505
 6517SOL    HW220451   6.648   1.403   1.638
 6518SOL     OW20452   0.393   0.892   0.105
 6518SOL    HW120453   0.407   0.799   0.072
 6518SOL    HW220454   0.423   0.957   0.035
 6519SOL     OW20455   0.896   2.624   3.267
 6519SOL    HW120456   0.942   2.708   3.239
 6519SOL    HW220457   0.801   2.627   3.237
 6520SOL     OW20458   5.838   5.065   1.226
 6520SOL    HW120459   5.816   5.158   1.195
 6520SOL    HW220460   5.931   5.063   1.262
 6521SOL     OW20461   2.219   2.816   4.151
 6521SOL    HW120462   2.248   2.722   4.133
 6521SOL    HW220463   2.125   2.815   4.185
 6522SOL     OW20464   3.543   5.082   5.515
 6522SOL    HW120465   3.508   5.008   5.458
 6522SOL    HW220466   3.482   5.096   5.593
 6523SOL     OW20467   3.171   1.826   6.979
 6523SOL    HW120468   3.165   1.925   6.992
 6523SOL    HW220469   3.255   1.791   0.003
 6524SOL     OW20470   3.784   3.680   1.803
 6524SOL    HW120471   3.849   3.648   1.873
 6524SOL    HW220472   3.831   3.743   1.741
 6525SOL     OW20473   2.492   5.185   3.325
 6525SOL    HW120474   2.405   5.193   3.277
 6525SOL    HW220475   2.514   5.089   3.338
 6526SOL     OW20476   2.191   0.241   6.797
 6526SOL    HW120477   2.186   0.142   6.809
 6526SOL    HW220478   2.282   0.265   6.764
 6527SOL     OW20479   0.877   1.890   5.534
 6527SOL    HW120480   0.806   1.958   5.549
 6527SOL    HW220481   0.861   1.844   5.447
 6528SOL     OW20482   6.632   0.841   5.600
 6528SOL    HW120483   6.658   0.746   5.615
 6528SOL    HW220484   6.593   0.850   5.508
 6529SOL     OW20485   1.910   0.757   2.685
 6529SOL    HW120486   1.984   0.806   2.638
 6529SOL    HW220487   1.822   0.798   2.659
 6530SOL     OW20488   6.934   2.702   0.691
 6530SOL    HW120489   6.907   2.639   0.764
 6530SOL    HW220490   6.870   2.693   0.614
 6531SOL     OW20491   4.949   2.664   5.207
 6531SOL    HW120492   4.887   2.740   5.186
 6531SOL    HW220493   4.991   2.631   5.123
 6532SOL     OW20494   6.438   0.713   1.371
 6532SOL    HW120495   6.378   0.699   1.293
 6532SOL    HW220496   6.442   0.810   1.394
 6533SOL     OW20497   4.582   0.031   0.777
 6533SOL    HW120498   4.489   0.042   0.811
 6533SOL    HW220499   4.639   7.008   0.849
 6534SOL     OW20500   4.194   4.787   1.544
 6534SOL    HW120501   4.214   4.762   1.450
 6534SOL    HW220502   4.185   4.704   1.599
 6535SOL     OW20503   6.393   4.005   4.372
 6535SOL    HW120504   6.355   4.032   4.461
 6535SOL    HW220505   6.397   3.905   4.367
 6536SOL     OW20506   0.706   0.912   5.753
 6536SOL    HW120507   0.664   0.833   5.798
 6536SOL    HW220508   0.759   0.965   5.820
 6537SOL     OW20509   6.874   5.391   6.763
 6537SOL    HW120510   6.900   5.298   6.736
 6537SOL    HW220511   6.818   5.387   6.845
 6538SOL     OW20512   2.184   3.606   6.217
 6538SOL    HW120513   2.160   3.565   6.304
 6538SOL    HW220514   2.250   3.548   6.169
 6539SOL     OW20515   4.600   0.979   6.821
 6539SOL    HW120516   4.585   0.917   6.743
 6539SOL    HW220517   4.609   0.925   6.905
 6540SOL     OW20518   4.757   1.805   5.509
 6540SOL    HW120519   4.679   1.849   5.465
 6540SOL    HW220520   4.795   1.866   5.578
 6541SOL     OW20521   4.104   1.909   4.722
 6541SOL    HW120522   4.044   1.876   4.649
 6541SOL    HW220523   4.076   2.001   4.749
 6542SOL     OW20524   6.454   2.855   4.515
 6542SOL    HW120525   6.401   2.851   4.599
 6542SOL    HW220526   6.393   2.874   4.438
 6543SOL     OW20527   5.063   2.643   5.899
 6543SOL    HW120528   5.050   2.597   5.811
 6543SOL    HW220529   4.976   2.643   5.949
 6544SOL     OW20530   1.118   5.811   3.070
 6544SOL    HW120531   1.130   5.868   2.988
 6544SOL    HW220532   1.034   5.838   3.117
 6545SOL     OW20533   4.086   1.524   0.475
 6545SOL    HW120534   4.086   1.502   0.377
 6545SOL    HW220535   4.001   1.570   0.499
 6546SOL     OW20536   3.450   4.372   0.144
 6546SOL    HW120537   3.549   4.361   0.146
 6546SOL    HW220538   3.421   4.429   0.221
 6547SOL     OW20539   4.599   1.026   5.996
 6547SOL    HW120540   4.677   1.012   6.057
 6547SOL    HW220541   4.568   1.120   6.004
 6548SOL     OW20542   0.690   4.255   0.878
 6548SOL    HW120543   0.671   4.176   0.937
 6548SOL    HW220544   0.785   4.250   0.846
 6549SOL     OW20545   4.991   0.739   1.878
 6549SOL    HW120546   4.979   0.807   1.950
 6549SOL    HW220547   5.076   0.756   1.829
 6550SOL     OW20548   0.274   6.659   3.323
 6550SOL    HW120549   0.339   6.725   3.285
 6550SOL    HW220550   0.297   6.567   3.292
 6551SOL     OW20551   1.904   4.484   2.379
 6551SOL    HW120552   1.926   4.433   2.462
 6551SOL    HW220553   1.984   4.536   2.349
 6552SOL     OW20554   1.787   0.117   0.207
 6552SOL    HW120555   1.804   0.082   0.114
 6552SOL    HW220556   1.844   0.197   0.223
 6553SOL     OW20557   7.014   1.929   3.633
 6553SOL    HW120558   0.065   1.897   3.568
 6553SOL    HW220559   0.015   2.024   3.658
 6554SOL     OW20560   0.695   0.284   4.594
 6554SOL    HW120561   0.734   0.289   4.685
 6554SOL    HW220562   0.605   0.240   4.599
 6555SOL     OW20563   6.253   1.600   3.198
 6555SOL    HW120564   6.158   1.630   3.207
 6555SOL    HW220565   6.286   1.620   3.105
 6556SOL     OW20566   5.014   4.548   4.211
 6556SOL    HW120567   4.916   4.552   4.195
 6556SOL    HW220568   5.042   4.453   4.224
 6557SOL     OW20569   3.352   6.927   2.735
 6557SOL    HW120570   3.433   6.896   2.686
 6557SOL    HW220571   3.326   0.000   2.702
 6558SOL     OW20572   6.998   5.184   0.007
 6558SOL    HW120573   6.942   5.103   7.011
 6558SOL    HW220574   6.942   5.266   7.016
 6559SOL     OW20575   0.405   3.372   6.521
 6559SOL    HW120576   0.424   3.406   6.613
 6559SOL    HW220577   0.491   3.363   6.471
 6560SOL     OW20578   4.442   4.843   1.624
 6560SOL    HW120579   4.346   4.818   1.611
 6560SOL    HW220580   4.453   4.942   1.611
 6561SOL     OW20581   3.503   4.048   1.334
 6561SOL    HW120582   3.559   4.102   1.270
 6561SOL    HW220583   3.548   4.046   1.423
 6562SOL     OW20584   6.052   3.340   0.866
 6562SOL    HW120585   6.034   3.344   0.768
 6562SOL    HW220586   6.027   3.427   0.909
 6563SOL     OW20587   5.240   6.214   6.904
 6563SOL    HW120588   5.299   6.141   6.936
 6563SOL    HW220589   5.267   6.241   6.811
 6564SOL     OW20590   6.961   4.001   2.863
 6564SOL    HW120591   6.962   4.000   2.963
 6564SOL    HW220592   0.034   3.975   2.829
 6565SOL     OW20593   5.186   1.797   3.379
 6565SOL    HW120594   5.116   1.838   3.320
 6565SOL    HW220595   5.277   1.818   3.343
 6566SOL     OW20596   4.028   6.195   2.247
 6566SOL    HW120597   3.973   6.194   2.163
 6566SOL    HW220598   4.045   6.290   2.274
 6567SOL     OW20599   4.159   1.171   2.827
 6567SOL    HW120600   4.232   1.237   2.807
 6567SOL    HW220601   4.191   1.079   2.806
 6568SOL     OW20602   3.026   0.874   3.197
 6568SOL    HW120603   3.116   0.832   3.210
 6568SOL    HW220604   3.038   0.969   3.167
 6569SOL     OW20605   2.856   3.498   0.009
 6569SOL    HW120606   2.865   3.402   7.001
 6569SOL    HW220607   2.766   3.513   0.051
 6570SOL     OW20608   3.965   0.482   2.204
 6570SOL    HW120609   3.909   0.525   2.274
 6570SOL    HW220610   3.906   0.436   2.137
 6571SOL     OW20611   3.535   5.299   1.621
 6571SOL    HW120612   3.460   5.362   1.604
 6571SOL    HW220613   3.518   5.249   1.706
 6572SOL     OW20614   6.761   5.295   5.642
 6572SOL    HW120615   6.800   5.386   5.633
 6572SOL    HW220616   6.835   5.228   5.648
 6573SOL     OW20617   1.667   1.912   2.165
 6573SOL    HW120618   1.734   1.929   2.093
 6573SOL    HW220619   1.594   1.981   2.159
 6574SOL     OW20620   3.234   5.524   2.426
 6574SOL    HW120621   3.249   5.564   2.517
 6574SOL    HW220622   3.227   5.425   2.434
 6575SOL     OW20623   0.760   0.113   2.886
 6575SOL    HW120624   0.765   0.212   2.872
 6575SOL    HW220625   0.668   0.081   2.864
 6576SOL     OW20626   2.202   6.130   6.880
 6576SOL    HW120627   2.226   6.206   6.820
 6576SOL    HW220628   2.176   6.051   6.826
 6577SOL     OW20629   0.820   1.552   4.277
 6577SOL    HW120630   0.867   1.473   4.239
 6577SOL    HW220631   0.869   1.636   4.252
 6578SOL     OW20632   0.900   5.638   3.680
 6578SOL    HW120633   0.937   5.645   3.588
 6578SOL    HW220634   0.855   5.724   3.705
 6579SOL     OW20635   6.662   3.301   4.454
 6579SOL    HW120636   6.697   3.211   4.482
 6579SOL    HW220637   6.571   3.315   4.492
 6580SOL     OW20638   0.763   2.392   1.108
 6580SOL    HW120639   0.763   2.359   1.013
 6580SOL    HW220640   0.674   2.432   1.130
 6581SOL     OW20641   3.103   0.938   6.716
 6581SOL    HW120642   3.072   1.003   6.647
 6581SOL    HW220643   3.025   0.886   6.750
 6582SOL     OW20644   0.998   1.273   2.515
 6582SOL    HW120645   0.927   1.249   2.449
 6582SOL    HW220646   0.959   1.275   2.607
 6583SOL     OW20647   4.106   1.004   5.266
 6583SOL    HW120648   4.063   1.089   5.297
 6583SOL    HW220649   4.055   0.968   5.188
 6584SOL     OW20650   4.386   2.772   1.251
 6584SOL    HW120651   4.361   2.681   1.217
 6584SOL    HW220652   4.401   2.768   1.349
 6585SOL     OW20653   5.965   6.685   6.944
 6585SOL    HW120654   5.986   6.711   6.849
 6585SOL    HW220655   5.867   6.692   6.960
 6586SOL     OW20656   6.235   0.993   5.222
 6586SOL    HW120657   6.252   1.049   5.141
 6586SOL    HW220658   6.254   0.897   5.200
 6587SOL     OW20659   1.875   5.717   5.382
 6587SOL    HW120660   1.945   5.701   5.451
 6587SOL    HW220661   1.865   5.816   5.367
 6588SOL     OW20662   1.027   3.026   1.377
 6588SOL    HW120663   1.055   3.087   1.450
 6588SOL    HW220664   1.107   2.990   1.330
 6589SOL     OW20665   4.854   0.947   0.657
 6589SOL    HW120666   4.874   1.035   0.615
 6589SOL    HW220667   4.757   0.941   0.680
 6590SOL     OW20668   1.082   1.154   6.047
 6590SOL    HW120669   1.069   1.061   6.081
 6590SOL    HW220670   1.147   1.203   6.104
 6591SOL     OW20671   5.759   5.479   2.718
 6591SOL    HW120672   5.772   5.576   2.700
 6591SOL    HW220673   5.668   5.451   2.688
 6592SOL     OW20674   5.464   0.247   3.465
 6592SOL    HW120675   5.392   0.307   3.499
 6592SOL    HW220676   5.499   0.191   3.541
 6593SOL     OW20677   1.826   2.173   2.406
 6593SOL    HW120678   1.755   2.232   2.446
 6593SOL    HW220679   1.868   2.118   2.479
 6594SOL     OW20680   3.779   1.931   0.194
 6594SOL    HW120681   3.713   1.963   0.262
 6594SOL    HW220682   3.730   1.901   0.112
 6595SOL     OW20683   0.912   3.905   6.650
 6595SOL    HW120684   1.009   3.890   6.672
 6595SOL    HW220685   0.905   3.952   6.562
 6596SOL     OW20686   3.142   5.997   4.613
 6596SOL    HW120687   3.125   6.095   4.599
 6596SOL    HW220688   3.192   5.960   4.534
 6597SOL     OW20689   1.379   5.372   1.718
 6597SOL    HW120690   1.333   5.374   1.807
 6597SOL    HW220691   1.475   5.346   1.730
 6598SOL     OW20692   1.339   5.621   4.361
 6598SOL    HW120693   1.414   5.684   4.383
 6598SOL    HW220694   1.276   5.616   4.438
 6599SOL     OW20695   4.712   6.391   6.364
 6599SOL    HW120696   4.616   6.419   6.366
 6599SOL    HW220697   4.747   6.385   6.458
 6600SOL     OW20698   4.883   5.069   5.146
 6600SOL    HW120699   4.836   5.042   5.062
 6600SOL    HW220700   4.974   5.028   5.148
 6601SOL     OW20701   1.336   2.292   5.065
 6601SOL    HW120702   1.434   2.313   5.069
 6601SOL    HW220703   1.287   2.372   5.031
 6602SOL     OW20704   1.349   1.286   1.759
 6602SOL    HW120705   1.366   1.385   1.763
 6602SOL    HW220706   1.429   1.237   1.794
 6603SOL     OW20707   6.825   2.595   3.901
 6603SOL    HW120708   6.889   2.519   3.893
 6603SOL    HW220709   6.868   2.679   3.868
 6604SOL     OW20710   1.964   0.433   0.418
 6604SOL    HW120711   1.916   0.375   0.483
 6604SOL    HW220712   1.946   0.402   0.325
 6605SOL     OW20713   5.407   4.083   1.926
 6605SOL    HW120714   5.335   4.105   1.992
 6605SOL    HW220715   5.436   3.988   1.938
 6606SOL     OW20716   0.374   6.395   1.924
 6606SOL    HW120717   0.320   6.329   1.976
 6606SOL    HW220718   0.398   6.356   1.835
 6607SOL     OW20719   1.788   3.552   2.264
 6607SOL    HW120720   1.723   3.566   2.189
 6607SOL    HW220721   1.876   3.523   2.227
 6608SOL     OW20722   6.164   6.588   1.230
 6608SOL    HW120723   6.200   6.511   1.177
 6608SOL    HW220724   6.076   6.563   1.269
 6609SOL     OW20725   4.799   0.960   6.174
 6609SOL    HW120726   4.730   0.961   6.246
 6609SOL    HW220727   4.874   0.899   6.202
 6610SOL     OW20728   2.622   6.899   6.683
 6610SOL    HW120729   2.619   6.811   6.635
 6610SOL    HW220730   2.595   6.886   6.778
 6611SOL     OW20731   4.915   2.566   3.846
 6611SOL    HW120732   4.861   2.639   3.804
 6611SOL    HW220733   4.870   2.537   3.931
 6612SOL     OW20734   5.754   2.285   5.804
 6612SOL    HW120735   5.795   2.357   5.860
 6612SOL    HW220736   5.710   2.218   5.864
 6613SOL     OW20737   6.158   6.824   5.336
 6613SOL    HW120738   6.235   6.855   5.392
 6613SOL    HW220739   6.190   6.755   5.271
 6614SOL     OW20740   4.903   5.872   0.282
 6614SOL    HW120741   4.814   5.903   0.314
 6614SOL    HW220742   4.908   5.879   0.182
 6615SOL     OW20743   1.655   5.701   1.969
 6615SOL    HW120744   1.581   5.693   2.035
 6615SOL    HW220745   1.743   5.709   2.017
 6616SOL     OW20746   4.941   1.242   6.123
 6616SOL    HW120747   4.935   1.142   6.123
 6616SOL    HW220748   4.853   1.281   6.149
 6617SOL     OW20749   4.461   4.944   3.222
 6617SOL    HW120750   4.492   4.984   3.308
 6617SOL    HW220751   4.523   4.870   3.195
 6618SOL     OW20752   0.796   2.451   2.590
 6618SOL    HW120753   0.800   2.543   2.552
 6618SOL    HW220754   0.700   2.426   2.607
 6619SOL     OW20755   6.023   0.172   3.846
 6619SOL    HW120756   5.930   0.191   3.877
 6619SOL    HW220757   6.020   0.100   3.777
 6620SOL     OW20758   2.005   2.514   5.354
 6620SOL    HW120759   1.979   2.463   5.271
 6620SOL    HW220760   2.091   2.562   5.337
 6621SOL     OW20761   3.307   3.041   6.300
 6621SOL    HW120762   3.275   3.062   6.208
 6621SOL    HW220763   3.348   3.123   6.340
 6622SOL     OW20764   5.934   6.267   1.204
 6622SOL    HW120765   5.875   6.347   1.188
 6622SOL    HW220766   5.970   6.270   1.297
 6623SOL     OW20767   2.971   3.341   5.480
 6623SOL    HW120768   3.024   3.422   5.505
 6623SOL    HW220769   2.874   3.360   5.492
 6624SOL     OW20770   0.127   4.969   6.041
 6624SOL    HW120771   0.052   4.985   6.106
 6624SOL    HW220772   0.156   5.056   6.002
 6625SOL     OW20773   5.355   1.654   5.368
 6625SOL    HW120774   5.330   1.575   5.424
 6625SOL    HW220775   5.454   1.668   5.370
 6626SOL     OW20776   4.412   4.914   5.012
 6626SOL    HW120777   4.392   4.882   4.919
 6626SOL    HW220778   4.358   4.863   5.078
 6627SOL     OW20779   2.129   6.409   5.077
 6627SOL    HW120780   2.090   6.317   5.068
 6627SOL    HW220781   2.104   6.464   4.998
 6628SOL     OW20782   4.717   4.950   4.916
 6628SOL    HW120783   4.705   4.881   4.844
 6628SOL    HW220784   4.659   5.029   4.897
 6629SOL     OW20785   4.741   5.879   6.715
 6629SOL    HW120786   4.694   5.960   6.750
 6629SOL    HW220787   4.789   5.834   6.791
 6630SOL     OW20788   4.102   1.607   1.545
 6630SOL    HW120789   4.057   1.527   1.585
 6630SOL    HW220790   4.189   1.623   1.593
 6631SOL     OW20791   2.222   4.908   3.441
 6631SOL    HW120792   2.194   4.893   3.536
 6631SOL    HW220793   2.212   5.005   3.419
 6632SOL     OW20794   0.420   0.010   1.123
 6632SOL    HW120795   0.325   7.004   1.102
 6632SOL    HW220796   0.462   6.955   1.178
 6633SOL     OW20797   1.563   4.703   6.337
 6633SOL    HW120798   1.585   4.721   6.433
 6633SOL    HW220799   1.633   4.744   6.279
 6634SOL     OW20800   5.101   2.075   4.546
 6634SOL    HW120801   5.083   2.173   4.539
 6634SOL    HW220802   5.070   2.041   4.635
 6635SOL     OW20803   4.834   4.845   2.936
 6635SOL    HW120804   4.887   4.815   3.015
 6635SOL    HW220805   4.884   4.918   2.889
 6636SOL     OW20806   4.704   1.805   6.098
 6636SOL    HW120807   4.730   1.789   6.003
 6636SOL    HW220808   4.784   1.833   6.150
 6637SOL     OW20809   1.319   7.011   6.964
 6637SOL    HW120810   1.286   6.935   0.003
 6637SOL    HW220811   1.384   6.976   6.896
 6638SOL     OW20812   3.045   3.920   3.753
 6638SOL    HW120813   3.145   3.912   3.758
 6638SOL    HW220814   3.019   3.950   3.661
 6639SOL     OW20815   5.310   5.123   6.248
 6639SOL    HW120816   5.364   5.042   6.268
 6639SOL    HW220817   5.287   5.124   6.150
 6640SOL     OW20818   1.103   1.927   5.002
 6640SOL    HW120819   1.063   2.009   4.961
 6640SOL    HW220820   1.065   1.846   4.957
 6641SOL     OW20821   2.213   2.167   5.930
 6641SOL    HW120822   2.259   2.222   5.999
 6641SOL    HW220823   2.236   2.070   5.943
 6642SOL     OW20824   1.975   5.604   6.716
 6642SOL    HW120825   2.036   5.646   6.784
 6642SOL    HW220826   1.996   5.640   6.625
 6643SOL     OW20827   6.125   5.019   0.086
 6643SOL    HW120828   6.190   5.075   0.035
 6643SOL    HW220829   6.173   4.940   0.124
 6644SOL     OW20830   2.603   5.555   1.613
 6644SOL    HW120831   2.587   5.650   1.585
 6644SOL    HW220832   2.560   5.538   1.701
 6645SOL     OW20833   6.288   4.827   0.167
 6645SOL    HW120834   6.252   4.734   0.181
 6645SOL    HW220835   6.371   4.839   0.221
 6646SOL     OW20836   3.924   0.659   4.703
 6646SOL    HW120837   3.997   0.700   4.757
 6646SOL    HW220838   3.897   0.721   4.629
 6647SOL     OW20839   4.911   1.034   1.324
 6647SOL    HW120840   4.963   1.019   1.408
 6647SOL    HW220841   4.922   1.129   1.295
 6648SOL     OW20842   4.226   6.399   3.592
 6648SOL    HW120843   4.163   6.383   3.516
 6648SOL    HW220844   4.298   6.462   3.563
 6649SOL     OW20845   5.391   1.061   6.826
 6649SOL    HW120846   5.427   1.147   6.789
 6649SOL    HW220847   5.467   0.998   6.844
 6650SOL     OW20848   4.089   1.623   5.329
 6650SOL    HW120849   4.033   1.587   5.404
 6650SOL    HW220850   4.049   1.595   5.241
 6651SOL     OW20851   2.389   1.671   5.775
 6651SOL    HW120852   2.427   1.728   5.847
 6651SOL    HW220853   2.334   1.728   5.713
 6652SOL     OW20854   1.167   4.325   0.822
 6652SOL    HW120855   1.215   4.368   0.746
 6652SOL    HW220856   1.165   4.387   0.900
 6653SOL     OW20857   3.453   3.732   2.577
 6653SOL    HW120858   3.419   3.698   2.490
 6653SOL    HW220859   3.500   3.819   2.564
 6654SOL     OW20860   1.127   5.159   1.633
 6654SOL    HW120861   1.150   5.070   1.671
 6654SOL    HW220862   1.203   5.222   1.650
 6655SOL     OW20863   0.864   0.589   3.864
 6655SOL    HW120864   0.904   0.651   3.932
 6655SOL    HW220865   0.877   0.495   3.894
 6656SOL     OW20866   5.868   2.004   4.371
 6656SOL    HW120867   5.913   1.966   4.289
 6656SOL    HW220868   5.852   2.102   4.358
 6657SOL     OW20869   6.452   4.927   6.256
 6657SOL    HW120870   6.528   4.863   6.245
 6657SOL    HW220871   6.386   4.890   6.322
 6658SOL     OW20872   6.866   1.240   4.795
 6658SOL    HW120873   6.868   1.201   4.887
 6658SOL    HW220874   6.813   1.180   4.735
 6659SOL     OW20875   2.008   3.045   0.766
 6659SOL    HW120876   2.052   3.094   0.841
 6659SOL    HW220877   2.025   2.947   0.777
 6660SOL     OW20878   0.977   5.188   1.416
 6660SOL    HW120879   1.036   5.239   1.353
 6660SOL    HW220880   1.031   5.156   1.494
 6661SOL     OW20881   1.699   6.412   5.138
 6661SOL    HW120882   1.777   6.451   5.186
 6661SOL    HW220883   1.729   6.335   5.082
 6662SOL     OW20884   1.566   0.479   0.195
 6662SOL    HW120885   1.478   0.519   0.220
 6662SOL    HW220886   1.577   0.391   0.242
 6663SOL     OW20887   6.314   5.164   4.052
 6663SOL    HW120888   6.413   5.148   4.052
 6663SOL    HW220889   6.269   5.094   3.997
 6664SOL     OW20890   2.044   6.259   0.631
 6664SOL    HW120891   2.003   6.174   0.664
 6664SOL    HW220892   2.038   6.262   0.532
 6665SOL     OW20893   2.006   5.655   4.704
 6665SOL    HW120894   1.931   5.616   4.758
 6665SOL    HW220895   2.089   5.658   4.759
 6666SOL     OW20896   6.212   0.225   6.031
 6666SOL    HW120897   6.251   0.133   6.018
 6666SOL    HW220898   6.113   0.217   6.040
 6667SOL     OW20899   6.597   6.195   6.768
 6667SOL    HW120900   6.693   6.203   6.742
 6667SOL    HW220901   6.541   6.179   6.687
 6668SOL     OW20902   6.797   5.172   1.004
 6668SOL    HW120903   6.770   5.098   1.065
 6668SOL    HW220904   6.842   5.134   0.923
 6669SOL     OW20905   1.533   2.517   2.723
 6669SOL    HW120906   1.528   2.546   2.819
 6669SOL    HW220907   1.566   2.593   2.667
 6670SOL     OW20908   3.779   1.211   5.518
 6670SOL    HW120909   3.693   1.191   5.471
 6670SOL    HW220910   3.760   1.235   5.613
 6671SOL     OW20911   5.376   6.231   0.687
 6671SOL    HW120912   5.465   6.262   0.653
 6671SOL    HW220913   5.311   6.307   0.687
 6672SOL     OW20914   6.428   2.479   6.863
 6672SOL    HW120915   6.407   2.570   6.827
 6672SOL    HW220916   6.349   2.419   6.850
 6673SOL     OW20917   4.967   5.007   4.128
 6673SOL    HW120918   5.024   4.925   4.138
 6673SOL    HW220919   4.994   5.075   4.197
 6674SOL     OW20920   0.490   4.100   6.143
 6674SOL    HW120921   0.522   4.147   6.061
 6674SOL    HW220922   0.448   4.013   6.118
 6675SOL     OW20923   4.863   3.584   1.356
 6675SOL    HW120924   4.884   3.668   1.306
 6675SOL    HW220925   4.784   3.599   1.415
 6676SOL     OW20926   0.789   3.832   5.845
 6676SOL    HW120927   0.815   3.735   5.838
 6676SOL    HW220928   0.816   3.879   5.761
 6677SOL     OW20929   1.521   1.810   6.118
 6677SOL    HW120930   1.603   1.760   6.094
 6677SOL    HW220931   1.528   1.904   6.085
 6678SOL     OW20932   3.006   3.224   6.758
 6678SOL    HW120933   2.945   3.303   6.755
 6678SOL    HW220934   3.069   3.228   6.680
 6679SOL     OW20935   3.213   1.000   3.618
 6679SOL    HW120936   3.163   0.913   3.618
 6679SOL    HW220937   3.157   1.070   3.574
 6680SOL     OW20938   5.462   6.616   6.992
 6680SOL    HW120939   5.456   6.536   6.932
 6680SOL    HW220940   5.442   6.699   6.940
 6681SOL     OW20941   3.489   6.004   1.282
 6681SOL    HW120942   3.534   6.082   1.324
 6681SOL    HW220943   3.424   6.036   1.213
 6682SOL     OW20944   0.421   4.535   2.314
 6682SOL    HW120945   0.464   4.458   2.266
 6682SOL    HW220946   0.446   4.533   2.411
 6683SOL     OW20947   5.755   3.112   5.103
 6683SOL    HW120948   5.842   3.155   5.079
 6683SOL    HW220949   5.709   3.082   5.019
 6684SOL     OW20950   2.751   6.994   1.519
 6684SOL    HW120951   2.799   6.980   1.606
 6684SOL    HW220952   2.670   0.034   1.534
 6685SOL     OW20953   6.494   3.264   5.913
 6685SOL    HW120954   6.427   3.287   5.984
 6685SOL    HW220955   6.491   3.333   5.841
 6686SOL     OW20956   5.302   5.815   4.780
 6686SOL    HW120957   5.277   5.718   4.784
 6686SOL    HW220958   5.358   5.839   4.860
 6687SOL     OW20959   1.218   3.596   0.304
 6687SOL    HW120960   1.162   3.598   0.221
 6687SOL    HW220961   1.310   3.629   0.283
 6688SOL     OW20962   6.618   4.055   2.398
 6688SOL    HW120963   6.622   4.005   2.311
 6688SOL    HW220964   6.606   3.990   2.473
 6689SOL     OW20965   4.381   2.971   0.146
 6689SOL    HW120966   4.411   3.059   0.107
 6689SOL    HW220967   4.300   2.986   0.202
 6690SOL     OW20968   1.477   1.626   0.719
 6690SOL    HW120969   1.425   1.644   0.802
 6690SOL    HW220970   1.476   1.528   0.699
 6691SOL     OW20971   2.911   6.480   2.137
 6691SOL    HW120972   2.969   6.516   2.210
 6691SOL    HW220973   2.958   6.490   2.049
 6692SOL     OW20974   3.537   3.660   5.661
 6692SOL    HW120975   3.522   3.632   5.566
 6692SOL    HW220976   3.544   3.760   5.666
 6693SOL     OW20977   4.301   3.170   5.533
 6693SOL    HW120978   4.285   3.267   5.516
 6693SOL    HW220979   4.222   3.131   5.580
 6694SOL     OW20980   3.423   5.824   0.879
 6694SOL    HW120981   3.336   5.835   0.833
 6694SOL    HW220982   3.496   5.865   0.825
 6695SOL     OW20983   2.709   2.045   0.498
 6695SOL    HW120984   2.690   2.140   0.475
 6695SOL    HW220985   2.646   1.985   0.448
 6696SOL     OW20986   2.946   3.165   5.865
 6696SOL    HW120987   2.928   3.109   5.784
 6696SOL    HW220988   2.885   3.244   5.866
 6697SOL     OW20989   4.599   2.507   3.100
 6697SOL    HW120990   4.636   2.557   3.021
 6697SOL    HW220991   4.662   2.434   3.125
 6698SOL     OW20992   2.545   2.711   1.742
 6698SOL    HW120993   2.472   2.742   1.804
 6698SOL    HW220994   2.504   2.676   1.658
 6699SOL     OW20995   2.664   5.756   5.599
 6699SOL    HW120996   2.703   5.824   5.537
 6699SOL    HW220997   2.564   5.757   5.590
 6700SOL     OW20998   0.651   6.693   1.508
 6700SOL    HW120999   0.687   6.668   1.598
 6700SOL    HW221000   0.726   6.709   1.445
 6701SOL     OW21001   5.549   3.949   2.164
 6701SOL    HW121002   5.629   4.009   2.162
 6701SOL    HW221003   5.469   4.000   2.195
 6702SOL     OW21004   2.936   1.819   1.455
 6702SOL    HW121005   2.936   1.898   1.395
 6702SOL    HW221006   3.000   1.750   1.420
 6703SOL     OW21007   6.258   2.295   6.786
 6703SOL    HW121008   6.167   2.259   6.802
 6703SOL    HW221009   6.270   2.315   6.688
 6704SOL     OW21010   3.020   1.682   3.292
 6704SOL    HW121011   2.981   1.772   3.273
 6704SOL    HW221012   3.087   1.688   3.365
 6705SOL     OW21013   6.765   2.884   1.859
 6705SOL    HW121014   6.852   2.920   1.826
 6705SOL    HW221015   6.731   2.814   1.796
 6706SOL     OW21016   1.828   4.098   2.486
 6706SOL    HW121017   1.745   4.146   2.459
 6706SOL    HW221018   1.838   4.014   2.431
 6707SOL     OW21019   6.693   6.266   3.248
 6707SOL    HW121020   6.701   6.167   3.234
 6707SOL    HW221021   6.729   6.314   3.168
 6708SOL     OW21022   6.974   5.574   1.624
 6708SOL    HW121023   7.013   5.482   1.632
 6708SOL    HW221024   6.890   5.570   1.569
 6709SOL     OW21025   3.029   6.263   3.377
 6709SOL    HW121026   2.969   6.190   3.410
 6709SOL    HW221027   3.009   6.347   3.426
 6710SOL     OW21028   3.912   0.512   6.264
 6710SOL    HW121029   3.940   0.557   6.179
 6710SOL    HW221030   3.825   0.551   6.295
 6711SOL     OW21031   4.550   5.100   6.019
 6711SOL    HW121032   4.605   5.100   5.936
 6711SOL    HW221033   4.594   5.157   6.088
 6712SOL     OW21034   5.297   3.968   0.217
 6712SOL    HW121035   5.324   4.039   0.282
 6712SOL    HW221036   5.259   4.011   0.135
 6713SOL     OW21037   2.154   0.153   2.535
 6713SOL    HW121038   2.177   0.232   2.478
 6713SOL    HW221039   2.232   0.131   2.594
 6714SOL     OW21040   6.131   0.637   6.104
 6714SOL    HW121041   6.089   0.657   6.193
 6714SOL    HW221042   6.201   0.566   6.116
 6715SOL     OW21043   0.569   0.235   0.301
 6715SOL    HW121044   0.492   0.196   0.351
 6715SOL    HW221045   0.540   0.254   0.207
 6716SOL     OW21046   0.739   5.885   1.485
 6716SOL    HW121047   0.709   5.979   1.498
 6716SOL    HW221048   0.714   5.854   1.393
 6717SOL     OW21049   3.893   3.283   0.066
 6717SOL    HW121050   3.901   3.329   6.995
 6717SOL    HW221051   3.821   3.214   0.061
 6718SOL     OW21052   5.284   0.502   0.793
 6718SOL    HW121053   5.278   0.438   0.870
 6718SOL    HW221054   5.282   0.596   0.827
 6719SOL     OW21055   2.418   0.379   6.442
 6719SOL    HW121056   2.421   0.460   6.384
 6719SOL    HW221057   2.501   0.376   6.498
 6720SOL     OW21058   1.253   6.815   3.929
 6720SOL    HW121059   1.351   6.834   3.937
 6720SOL    HW221060   1.239   6.719   3.904
 6721SOL     OW21061   6.908   0.436   0.143
 6721SOL    HW121062   6.825   0.440   0.087
 6721SOL    HW221063   6.948   0.527   0.151
 6722SOL     OW21064   6.609   3.099   2.020
 6722SOL    HW121065   6.650   3.106   2.111
 6722SOL    HW221066   6.656   3.029   1.967
 6723SOL     OW21067   2.695   5.884   3.152
 6723SOL    HW121068   2.774   5.942   3.132
 6723SOL    HW221069   2.618   5.942   3.179
 6724SOL     OW21070   1.593   3.060   5.547
 6724SOL    HW121071   1.663   3.090   5.612
 6724SOL    HW221072   1.562   3.139   5.494
 6725SOL     OW21073   0.354   3.335   1.665
 6725SOL    HW121074   0.421   3.323   1.737
 6725SOL    HW221075   0.328   3.246   1.628
 6726SOL     OW21076   0.752   2.131   5.531
 6726SOL    HW121077   0.696   2.174   5.461
 6726SOL    HW221078   0.799   2.201   5.585
 6727SOL     OW21079   6.835   4.057   5.431
 6727SOL    HW121080   6.843   3.978   5.371
 6727SOL    HW221081   6.847   4.141   5.377
 6728SOL     OW21082   3.568   1.808   2.866
 6728SOL    HW121083   3.560   1.907   2.865
 6728SOL    HW221084   3.481   1.767   2.839
 6729SOL     OW21085   6.730   1.212   2.783
 6729SOL    HW121086   6.788   1.198   2.702
 6729SOL    HW221087   6.656   1.276   2.761
 6730SOL     OW21088   2.566   6.847   0.559
 6730SOL    HW121089   2.586   6.763   0.611
 6730SOL    HW221090   2.549   6.922   0.623
 6731SOL     OW21091   0.950   5.908   1.652
 6731SOL    HW121092   0.866   5.908   1.598
 6731SOL    HW221093   1.028   5.884   1.594
 6732SOL     OW21094   5.372   4.554   4.808
 6732SOL    HW121095   5.305   4.617   4.768
 6732SOL    HW221096   5.344   4.460   4.790
 6733SOL     OW21097   4.278   5.825   0.459
 6733SOL    HW121098   4.363   5.815   0.407
 6733SOL    HW221099   4.200   5.823   0.398
 6734SOL     OW21100   6.262   2.433   4.974
 6734SOL    HW121101   6.282   2.383   4.890
 6734SOL    HW221102   6.252   2.368   5.050
 6735SOL     OW21103   6.525   4.123   4.799
 6735SOL    HW121104   6.527   4.216   4.763
 6735SOL    HW221105   6.529   4.058   4.722
 6736SOL     OW21106   3.027   3.633   0.201
 6736SOL    HW121107   2.965   3.577   0.146
 6736SOL    HW221108   3.121   3.617   0.171
 6737SOL     OW21109   1.850   2.535   0.723
 6737SOL    HW121110   1.804   2.545   0.635
 6737SOL    HW221111   1.820   2.608   0.785
 6738SOL     OW21112   1.724   5.653   2.713
 6738SOL    HW121113   1.766   5.689   2.630
 6738SOL    HW221114   1.629   5.684   2.718
 6739SOL     OW21115   3.646   6.352   5.311
 6739SOL    HW121116   3.572   6.414   5.339
 6739SOL    HW221117   3.606   6.268   5.275
 6740SOL     OW21118   1.583   0.310   4.281
 6740SOL    HW121119   1.623   0.401   4.286
 6740SOL    HW221120   1.515   0.307   4.208
 6741SOL     OW21121   4.371   1.387   5.406
 6741SOL    HW121122   4.362   1.470   5.352
 6741SOL    HW221123   4.457   1.389   5.457
 6742SOL     OW21124   6.524   6.010   2.241
 6742SOL    HW121125   6.480   5.961   2.317
 6742SOL    HW221126   6.518   6.108   2.257
 6743SOL     OW21127   3.629   5.231   0.522
 6743SOL    HW121128   3.716   5.250   0.475
 6743SOL    HW221129   3.568   5.182   0.460
 6744SOL     OW21130   5.940   4.213   6.520
 6744SOL    HW121131   5.883   4.136   6.491
 6744SOL    HW221132   5.969   4.264   6.439
 6745SOL     OW21133   0.235   0.115   2.684
 6745SOL    HW121134   0.237   0.100   2.783
 6745SOL    HW221135   0.234   0.027   2.637
 6746SOL     OW21136   0.911   1.094   3.492
 6746SOL    HW121137   0.921   1.040   3.408
 6746SOL    HW221138   0.981   1.166   3.494
 6747SOL     OW21139   5.744   0.989   4.896
 6747SOL    HW121140   5.693   1.019   4.815
 6747SOL    HW221141   5.721   0.894   4.916
 6748SOL     OW21142   2.078   1.068   3.641
 6748SOL    HW121143   2.129   0.985   3.616
 6748SOL    HW221144   2.132   1.122   3.705
 6749SOL     OW21145   2.944   6.437   0.392
 6749SOL    HW121146   2.957   6.451   0.490
 6749SOL    HW221147   3.025   6.471   0.343
 6750SOL     OW21148   4.178   2.036   5.190
 6750SOL    HW121149   4.143   1.986   5.269
 6750SOL    HW221150   4.188   1.974   5.113
 6751SOL     OW21151   3.929   0.252   3.613
 6751SOL    HW121152   3.991   0.325   3.583
 6751SOL    HW221153   3.974   0.163   3.602
 6752SOL     OW21154   0.531   2.132   2.466
 6752SOL    HW121155   0.505   2.221   2.504
 6752SOL    HW221156   0.543   2.140   2.367
 6753SOL     OW21157   4.355   0.883   6.567
 6753SOL    HW121158   4.263   0.914   6.542
 6753SOL    HW221159   4.409   0.869   6.485
 6754SOL     OW21160   0.328   1.773   0.218
 6754SOL    HW121161   0.245   1.779   0.275
 6754SOL    HW221162   0.374   1.686   0.237
 6755SOL     OW21163   3.810   0.766   3.121
 6755SOL    HW121164   3.860   0.852   3.133
 6755SOL    HW221165   3.760   0.769   3.035
 6756SOL     OW21166   4.032   5.032   5.242
 6756SOL    HW121167   4.059   5.126   5.259
 6756SOL    HW221168   3.937   5.018   5.271
 6757SOL     OW21169   4.212   1.278   2.458
 6757SOL    HW121170   4.276   1.347   2.491
 6757SOL    HW221171   4.139   1.265   2.525
 6758SOL     OW21172   6.353   2.092   1.922
 6758SOL    HW121173   6.265   2.134   1.946
 6758SOL    HW221174   6.427   2.140   1.970
 6759SOL     OW21175   0.706   4.477   4.579
 6759SOL    HW121176   0.644   4.438   4.648
 6759SOL    HW221177   0.800   4.451   4.600
 6760SOL     OW21178   6.024   3.982   3.277
 6760SOL    HW121179   5.956   3.943   3.340
 6760SOL    HW221180   5.979   4.050   3.219
 6761SOL     OW21181   6.519   2.376   6.030
 6761SOL    HW121182   6.421   2.392   6.038
 6761SOL    HW221183   6.552   2.332   6.113
 6762SOL     OW21184   0.576   5.676   3.714
 6762SOL    HW121185   0.583   5.614   3.636
 6762SOL    HW221186   0.561   5.770   3.681
 6763SOL     OW21187   0.400   4.854   2.837
 6763SOL    HW121188   0.310   4.841   2.878
 6763SOL    HW221189   0.412   4.790   2.762
 6764SOL     OW21190   2.276   4.688   0.041
 6764SOL    HW121191   2.367   4.648   0.032
 6764SOL    HW221192   2.284   4.787   0.049
 6765SOL     OW21193   5.438   3.940   3.755
 6765SOL    HW121194   5.347   3.966   3.787
 6765SOL    HW221195   5.442   3.841   3.744
 6766SOL     OW21196   5.171   6.737   6.161
 6766SOL    HW121197   5.121   6.668   6.213
 6766SOL    HW221198   5.141   6.735   6.066
 6767SOL     OW21199   1.092   1.995   0.827
 6767SOL    HW121200   1.098   1.997   0.727
 6767SOL    HW221201   1.071   1.902   0.857
 6768SOL     OW21202   0.728   6.419   3.883
 6768SOL    HW121203   0.821   6.454   3.874
 6768SOL    HW221204   0.709   6.399   3.979
 6769SOL     OW21205   2.441   0.270   5.621
 6769SOL    HW121206   2.431   0.369   5.622
 6769SOL    HW221207   2.524   0.244   5.672
 6770SOL     OW21208   4.636   2.020   3.945
 6770SOL    HW121209   4.668   1.999   4.037
 6770SOL    HW221210   4.705   2.074   3.897
 6771SOL     OW21211   4.066   0.906   2.391
 6771SOL    HW121212   4.016   0.819   2.393
 6771SOL    HW221213   4.046   0.958   2.473
 6772SOL     OW21214   4.655   2.521   2.714
 6772SOL    HW121215   4.557   2.519   2.733
 6772SOL    HW221216   4.681   2.437   2.666
 6773SOL     OW21217   0.666   6.433   1.945
 6773SOL    HW121218   0.566   6.426   1.941
 6773SOL    HW221219   0.707   6.347   1.916
 6774SOL     OW21220   1.936   3.296   4.566
 6774SOL    HW121221   2.034   3.314   4.566
 6774SOL    HW221222   1.907   3.268   4.475
 6775SOL     OW21223   1.380   2.476   3.492
 6775SOL    HW121224   1.381   2.392   3.546
 6775SOL    HW221225   1.286   2.494   3.461
 6776SOL     OW21226   4.210   4.060   0.290
 6776SOL    HW121227   4.301   4.024   0.308
 6776SOL    HW221228   4.147   4.030   0.362
 6777SOL     OW21229   5.041   4.985   0.967
 6777SOL    HW121230   5.037   4.915   1.038
 6777SOL    HW221231   4.981   5.061   0.991
 6778SOL     OW21232   6.384   4.206   1.804
 6778SOL    HW121233   6.346   4.227   1.895
 6778SOL    HW221234   6.477   4.173   1.814
 6779SOL     OW21235   5.581   4.717   6.004
 6779SOL    HW121236   5.582   4.627   6.048
 6779SOL    HW221237   5.501   4.724   5.945
 6780SOL     OW21238   0.801   2.927   2.781
 6780SOL    HW121239   0.730   2.996   2.796
 6780SOL    HW221240   0.829   2.889   2.870
 6781SOL     OW21241   6.653   1.478   4.955
 6781SOL    HW121242   6.586   1.430   4.897
 6781SOL    HW221243   6.615   1.566   4.983
 6782SOL     OW21244   0.774   1.105   3.033
 6782SOL    HW121245   0.789   1.037   2.961
 6782SOL    HW221246   0.861   1.150   3.054
 6783SOL     OW21247   0.895   2.222   5.942
 6783SOL    HW121248   0.954   2.300   5.922
 6783SOL    HW221249   0.911   2.150   5.875
 6784SOL     OW21250   2.833   3.664   0.467
 6784SOL    HW121251   2.838   3.667   0.367
 6784SOL    HW221252   2.891   3.589   0.500
 6785SOL     OW21253   5.479   4.883   4.921
 6785SOL    HW121254   5.515   4.881   4.828
 6785SOL    HW221255   5.384   4.852   4.922
 6786SOL     OW21256   0.941   2.669   0.252
 6786SOL    HW121257   0.977   2.759   0.227
 6786SOL    HW221258   0.948   2.656   0.350
 6787SOL     OW21259   3.326   2.746   0.867
 6787SOL    HW121260   3.302   2.839   0.840
 6787SOL    HW221261   3.278   2.681   0.807
 6788SOL     OW21262   0.626   4.471   1.971
 6788SOL    HW121263   0.614   4.414   2.053
 6788SOL    HW221264   0.620   4.567   1.997
 6789SOL     OW21265   0.191   4.391   3.829
 6789SOL    HW121266   0.192   4.389   3.929
 6789SOL    HW221267   0.246   4.315   3.793
 6790SOL     OW21268   1.060   4.216   6.665
 6790SOL    HW121269   0.981   4.226   6.725
 6790SOL    HW221270   1.056   4.127   6.619
 6791SOL     OW21271   4.095   2.188   2.425
 6791SOL    HW121272   4.004   2.151   2.445
 6791SOL    HW221273   4.146   2.124   2.368
 6792SOL     OW21274   4.978   0.278   5.290
 6792SOL    HW121275   4.962   0.256   5.386
 6792SOL    HW221276   5.041   0.356   5.284
 6793SOL     OW21277   3.049   1.186   6.616
 6793SOL    HW121278   2.965   1.233   6.591
 6793SOL    HW221279   3.125   1.220   6.559
 6794SOL     OW21280   5.589   1.330   5.097
 6794SOL    HW121281   5.655   1.366   5.030
 6794SOL    HW221282   5.496   1.342   5.063
 6795SOL     OW21283   1.408   6.051   0.980
 6795SOL    HW121284   1.472   6.118   1.019
 6795SOL    HW221285   1.321   6.096   0.960
 6796SOL     OW21286   6.239   0.575   2.574
 6796SOL    HW121287   6.174   0.521   2.520
 6796SOL    HW221288   6.282   0.516   2.642
 6797SOL     OW21289   6.930   2.349   1.729
 6797SOL    HW121290   0.003   2.317   1.701
 6797SOL    HW221291   6.898   2.295   1.807
 6798SOL     OW21292   6.637   6.629   1.388
 6798SOL    HW121293   6.704   6.663   1.454
 6798SOL    HW221294   6.658   6.533   1.366
 6799SOL     OW21295   6.105   0.389   2.431
 6799SOL    HW121296   6.143   0.310   2.383
 6799SOL    HW221297   6.006   0.377   2.443
 6800SOL     OW21298   2.537   2.486   2.343
 6800SOL    HW121299   2.609   2.417   2.332
 6800SOL    HW221300   2.492   2.502   2.255
 6801SOL     OW21301   1.164   0.092   3.902
 6801SOL    HW121302   1.176   0.183   3.941
 6801SOL    HW221303   1.194   0.023   3.968
 6802SOL     OW21304   3.187   6.171   1.772
 6802SOL    HW121305   3.229   6.116   1.700
 6802SOL    HW221306   3.088   6.166   1.763
 6803SOL     OW21307   4.288   4.241   6.510
 6803SOL    HW121308   4.332   4.296   6.439
 6803SOL    HW221309   4.336   4.253   6.596
 6804SOL     OW21310   4.303   5.428   2.793
 6804SOL    HW121311   4.216   5.405   2.748
 6804SOL    HW221312   4.289   5.504   2.856
 6805SOL     OW21313   0.654   5.061   6.411
 6805SOL    HW121314   0.582   5.114   6.365
 6805SOL    HW221315   0.621   4.969   6.430
 6806SOL     OW21316   6.711   1.097   3.959
 6806SOL    HW121317   6.782   1.108   4.029
 6806SOL    HW221318   6.723   1.010   3.913
 6807SOL     OW21319   3.814   3.430   2.260
 6807SOL    HW121320   3.755   3.349   2.254
 6807SOL    HW221321   3.840   3.459   2.168
 6808SOL     OW21322   0.203   1.792   5.388
 6808SOL    HW121323   0.103   1.782   5.389
 6808SOL    HW221324   0.228   1.867   5.326
 6809SOL     OW21325   6.373   3.287   1.237
 6809SOL    HW121326   6.404   3.193   1.224
 6809SOL    HW221327   6.351   3.327   1.149
 6810SOL     OW21328   3.214   1.155   2.243
 6810SOL    HW121329   3.214   1.165   2.343
 6810SOL    HW221330   3.155   1.078   2.218
 6811SOL     OW21331   6.310   3.602   2.170
 6811SOL    HW121332   6.368   3.526   2.140
 6811SOL    HW221333   6.346   3.640   2.256
 6812SOL     OW21334   3.748   4.038   5.310
 6812SOL    HW121335   3.665   4.083   5.344
 6812SOL    HW221336   3.725   3.945   5.281
 6813SOL     OW21337   5.886   2.986   2.381
 6813SOL    HW121338   5.807   2.955   2.327
 6813SOL    HW221339   5.891   3.086   2.379
 6814SOL     OW21340   4.491   2.047   6.280
 6814SOL    HW121341   4.392   2.038   6.283
 6814SOL    HW221342   4.533   1.956   6.275
 6815SOL     OW21343   2.395   6.649   6.428
 6815SOL    HW121344   2.481   6.698   6.414
 6815SOL    HW221345   2.414   6.557   6.462
 6816SOL     OW21346   0.013   0.838   5.621
 6816SOL    HW121347   0.075   0.760   5.622
 6816SOL    HW221348   6.978   0.837   5.536
 6817SOL     OW21349   2.287   2.873   3.529
 6817SOL    HW121350   2.284   2.818   3.613
 6817SOL    HW221351   2.284   2.970   3.554
 6818SOL     OW21352   1.960   6.687   0.707
 6818SOL    HW121353   2.053   6.715   0.681
 6818SOL    HW221354   1.951   6.588   0.698
 6819SOL     OW21355   4.385   1.561   3.004
 6819SOL    HW121356   4.459   1.578   3.069
 6819SOL    HW221357   4.299   1.597   3.040
 6820SOL     OW21358   1.686   6.184   1.522
 6820SOL    HW121359   1.762   6.191   1.587
 6820SOL    HW221360   1.603   6.155   1.570
 6821SOL     OW21361   4.177   2.623   5.333
 6821SOL    HW121362   4.155   2.547   5.272
 6821SOL    HW221363   4.232   2.590   5.409
 6822SOL     OW21364   5.898   2.596   5.676
 6822SOL    HW121365   5.804   2.613   5.645
 6822SOL    HW221366   5.897   2.574   5.773
 6823SOL     OW21367   6.042   4.113   6.026
 6823SOL    HW121368   6.039   4.024   5.982
 6823SOL    HW221369   6.136   4.133   6.056
 6824SOL     OW21370   1.097   1.648   0.589
 6824SOL    HW121371   1.154   1.621   0.666
 6824SOL    HW221372   1.099   1.747   0.578
 6825SOL     OW21373   5.570   0.767   0.221
 6825SOL    HW121374   5.652   0.713   0.201
 6825SOL    HW221375   5.497   0.706   0.251
 6826SOL     OW21376   1.837   3.579   3.737
 6826SOL    HW121377   1.933   3.554   3.724
 6826SOL    HW221378   1.829   3.678   3.749
 6827SOL     OW21379   5.771   5.527   6.362
 6827SOL    HW121380   5.694   5.580   6.399
 6827SOL    HW221381   5.763   5.432   6.393
 6828SOL     OW21382   3.471   1.444   1.863
 6828SOL    HW121383   3.430   1.504   1.931
 6828SOL    HW221384   3.534   1.496   1.806
 6829SOL     OW21385   4.992   6.256   5.496
 6829SOL    HW121386   4.928   6.331   5.478
 6829SOL    HW221387   5.014   6.210   5.410
 6830SOL     OW21388   4.940   0.763   3.399
 6830SOL    HW121389   4.978   0.851   3.372
 6830SOL    HW221390   5.000   0.690   3.367
 6831SOL     OW21391   1.858   1.400   5.974
 6831SOL    HW121392   1.950   1.362   5.984
 6831SOL    HW221393   1.791   1.329   5.990
 6832SOL     OW21394   2.736   4.295   0.835
 6832SOL    HW121395   2.712   4.363   0.766
 6832SOL    HW221396   2.736   4.204   0.794
 6833SOL     OW21397   2.329   4.868   6.680
 6833SOL    HW121398   2.277   4.880   6.596
 6833SOL    HW221399   2.392   4.945   6.692
 6834SOL     OW21400   6.361   0.098   0.756
 6834SOL    HW121401   6.307   0.146   0.824
 6834SOL    HW221402   6.349   0.142   0.667
 6835SOL     OW21403   3.614   0.977   4.805
 6835SOL    HW121404   3.701   1.027   4.813
 6835SOL    HW221405   3.619   0.893   4.859
 6836SOL     OW21406   2.659   4.559   6.528
 6836SOL    HW121407   2.653   4.459   6.532
 6836SOL    HW221408   2.738   4.585   6.473
 6837SOL     OW21409   0.511   2.610   3.413
 6837SOL    HW121410   0.440   2.550   3.377
 6837SOL    HW221411   0.566   2.561   3.481
 6838SOL     OW21412   2.940   5.472   6.192
 6838SOL    HW121413   3.031   5.459   6.232
 6838SOL    HW221414   2.904   5.561   6.219
 6839SOL     OW21415   5.474   0.764   5.023
 6839SOL    HW121416   5.468   0.821   5.105
 6839SOL    HW221417   5.469   0.823   4.942
 6840SOL     OW21418   3.180   6.680   5.236
 6840SOL    HW121419   3.272   6.719   5.226
 6840SOL    HW221420   3.184   6.582   5.217
 6841SOL     OW21421   4.131   4.683   0.736
 6841SOL    HW121422   4.121   4.729   0.648
 6841SOL    HW221423   4.109   4.748   0.809
 6842SOL     OW21424   2.399   2.730   0.187
 6842SOL    HW121425   2.438   2.704   0.099
 6842SOL    HW221426   2.310   2.772   0.173
 6843SOL     OW21427   5.425   6.866   1.806
 6843SOL    HW121428   5.465   6.958   1.808
 6843SOL    HW221429   5.497   6.799   1.786
 6844SOL     OW21430   5.645   0.050   3.619
 6844SOL    HW121431   5.653   6.974   3.585
 6844SOL    HW221432   5.733   0.097   3.606
 6845SOL     OW21433   5.649   4.463   2.813
 6845SOL    HW121434   5.613   4.526   2.882
 6845SOL    HW221435   5.575   4.406   2.778
 6846SOL     OW21436   4.454   3.344   1.353
 6846SOL    HW121437   4.503   3.348   1.440
 6846SOL    HW221438   4.416   3.253   1.339
 6847SOL     OW21439   6.718   4.608   3.150
 6847SOL    HW121440   6.740   4.621   3.246
 6847SOL    HW221441   6.655   4.531   3.140
 6848SOL     OW21442   3.329   6.345   3.550
 6848SOL    HW121443   3.275   6.315   3.629
 6848SOL    HW221444   3.350   6.266   3.493
 6849SOL     OW21445   3.549   5.261   4.673
 6849SOL    HW121446   3.485   5.337   4.680
 6849SOL    HW221447   3.633   5.292   4.628
 6850SOL     OW21448   5.846   3.836   2.048
 6850SOL    HW121449   5.819   3.931   2.037
 6850SOL    HW221450   5.851   3.814   2.145
 6851SOL     OW21451   0.996   3.119   3.805
 6851SOL    HW121452   0.952   3.064   3.876
 6851SOL    HW221453   1.025   3.059   3.730
 6852SOL     OW21454   1.815   4.602   1.039
 6852SOL    HW121455   1.841   4.599   0.942
 6852SOL    HW221456   1.769   4.516   1.063
 6853SOL     OW21457   6.625   3.868   0.090
 6853SOL    HW121458   6.697   3.800   0.081
 6853SOL    HW221459   6.663   3.954   0.125
 6854SOL     OW21460   5.468   2.006   5.528
 6854SOL    HW121461   5.379   1.965   5.507
 6854SOL    HW221462   5.526   2.002   5.447
 6855SOL     OW21463   3.504   5.591   3.280
 6855SOL    HW121464   3.521   5.647   3.199
 6855SOL    HW221465   3.481   5.498   3.251
 6856SOL     OW21466   4.862   4.318   5.289
 6856SOL    HW121467   4.958   4.304   5.262
 6856SOL    HW221468   4.846   4.274   5.378
 6857SOL     OW21469   2.822   1.693   0.056
 6857SOL    HW121470   2.757   1.618   0.045
 6857SOL    HW221471   2.833   1.741   6.986
 6858SOL     OW21472   3.753   3.579   4.324
 6858SOL    HW121473   3.811   3.614   4.250
 6858SOL    HW221474   3.762   3.480   4.329
 6859SOL     OW21475   1.326   0.285   1.038
 6859SOL    HW121476   1.348   0.374   1.078
 6859SOL    HW221477   1.361   0.212   1.097
 6860SOL     OW21478   5.984   5.451   1.178
 6860SOL    HW121479   6.070   5.406   1.202
 6860SOL    HW221480   5.960   5.517   1.250
 6861SOL     OW21481   5.527   4.086   0.723
 6861SOL    HW121482   5.471   4.008   0.752
 6861SOL    HW221483   5.599   4.102   0.789
 6862SOL     OW21484   1.819   4.592   5.093
 6862SOL    HW121485   1.909   4.557   5.069
 6862SOL    HW221486   1.749   4.524   5.071
 6863SOL     OW21487   5.904   1.269   5.815
 6863SOL    HW121488   6.003   1.271   5.830
 6863SOL    HW221489   5.886   1.270   5.716
 6864SOL     OW21490   3.022   5.928   3.998
 6864SOL    HW121491   3.060   5.975   4.077
 6864SOL    HW221492   2.972   5.847   4.029
 6865SOL     OW21493   0.181   5.933   3.119
 6865SOL    HW121494   0.139   6.012   3.164
 6865SOL    HW221495   0.113   5.861   3.107
 6866SOL     OW21496   6.546   4.855   2.646
 6866SOL    HW121497   6.512   4.851   2.552
 6866SOL    HW221498   6.504   4.782   2.700
 6867SOL     OW21499   1.937   5.091   1.652
 6867SOL    HW121500   1.979   5.005   1.621
 6867SOL    HW221501   1.935   5.093   1.752
 6868SOL     OW21502   1.246   5.257   6.571
 6868SOL    HW121503   1.291   5.327   6.626
 6868SOL    HW221504   1.315   5.200   6.527
 6869SOL     OW21505   5.334   0.522   4.611
 6869SOL    HW121506   5.313   0.443   4.553
 6869SOL    HW221507   5.431   0.544   4.604
 6870SOL     OW21508   0.002   4.817   2.113
 6870SOL    HW121509   6.949   4.850   2.051
 6870SOL    HW221510   7.013   4.717   2.120
 6871SOL     OW21511   6.364   4.387   2.845
 6871SOL    HW121512   6.307   4.460   2.808
 6871SOL    HW221513   6.356   4.306   2.788
 6872SOL     OW21514   0.676   2.764   1.372
 6872SOL    HW121515   0.691   2.862   1.364
 6872SOL    HW221516   0.734   2.727   1.445
 6873SOL     OW21517   6.614   3.779   5.129
 6873SOL    HW121518   6.622   3.730   5.216
 6873SOL    HW221519   6.569   3.868   5.145
 6874SOL     OW21520   0.813   5.727   2.367
 6874SOL    HW121521   0.855   5.813   2.340
 6874SOL    HW221522   0.880   5.671   2.417
 6875SOL     OW21523   1.671   2.556   3.083
 6875SOL    HW121524   1.675   2.655   3.072
 6875SOL    HW221525   1.581   2.522   3.053
 6876SOL     OW21526   3.959   6.302   4.252
 6876SOL    HW121527   4.000   6.242   4.321
 6876SOL    HW221528   4.032   6.343   4.198
 6877SOL     OW21529   2.861   3.864   0.220
 6877SOL    HW121530   2.886   3.792   0.156
 6877SOL    HW221531   2.944   3.900   0.264
 6878SOL     OW21532   2.904   2.166   5.450
 6878SOL    HW121533   2.970   2.091   5.462
 6878SOL    HW221534   2.942   2.233   5.387
 6879SOL     OW21535   0.935   2.207   0.184
 6879SOL    HW121536   1.001   2.281   0.179
 6879SOL    HW221537   0.941   2.151   0.101
 6880SOL     OW21538   2.111   3.883   5.175
 6880SOL    HW121539   2.176   3.932   5.117
 6880SOL    HW221540   2.137   3.894   5.271
 6881SOL     OW21541   0.668   3.886   2.263
 6881SOL    HW121542   0.570   3.869   2.272
 6881SOL    HW221543   0.684   3.970   2.211
 6882SOL     OW21544   3.905   0.782   6.833
 6882SOL    HW121545   3.941   0.747   6.920
 6882SOL    HW221546   3.883   0.879   6.843
 6883SOL     OW21547   3.785   2.221   0.525
 6883SOL    HW121548   3.786   2.177   0.615
 6883SOL    HW221549   3.691   2.229   0.493
 6884SOL     OW21550   1.694   3.869   4.373
 6884SOL    HW121551   1.616   3.809   4.392
 6884SOL    HW221552   1.673   3.925   4.292
 6885SOL     OW21553   3.480   6.288   4.626
 6885SOL    HW121554   3.574   6.319   4.644
 6885SOL    HW221555   3.469   6.272   4.528
 6886SOL     OW21556   6.792   0.798   3.976
 6886SOL    HW121557   6.708   0.776   4.026
 6886SOL    HW221558   6.869   0.800   4.038
 6887SOL     OW21559   5.047   6.439   5.179
 6887SOL    HW121560   4.959   6.480   5.157
 6887SOL    HW221561   5.074   6.467   5.271
 6888SOL     OW21562   5.169   6.285   6.297
 6888SOL    HW121563   5.073   6.310   6.310
 6888SOL    HW221564   5.184   6.260   6.201
 6889SOL     OW21565   1.735   2.208   5.048
 6889SOL    HW121566   1.765   2.174   4.958
 6889SOL    HW221567   1.669   2.143   5.087
 6890SOL     OW21568   3.702   6.947   1.203
 6890SOL    HW121569   3.799   6.922   1.201
 6890SOL    HW221570   3.648   6.878   1.155
 6891SOL     OW21571   1.863   4.576   4.056
 6891SOL    HW121572   1.900   4.663   4.023
 6891SOL    HW221573   1.929   4.503   4.037
 6892SOL     OW21574   3.505   1.941   3.548
 6892SOL    HW121575   3.576   1.991   3.498
 6892SOL    HW221576   3.548   1.865   3.597
 6893SOL     OW21577   4.969   5.080   6.754
 6893SOL    HW121578   5.018   5.159   6.790
 6893SOL    HW221579   4.915   5.037   6.827
 6894SOL     OW21580   6.060   4.664   0.201
 6894SOL    HW121581   6.010   4.719   0.133
 6894SOL    HW221582   6.004   4.653   0.282
 6895SOL     OW21583   2.668   5.726   6.545
 6895SOL    HW121584   2.696   5.689   6.633
 6895SOL    HW221585   2.713   5.674   6.472
 6896SOL     OW21586   1.312   0.017   3.179
 6896SOL    HW121587   1.299   6.995   3.088
 6896SOL    HW221588   1.280   6.971   3.249
 6897SOL     OW21589   2.866   3.050   6.916
 6897SOL    HW121590   2.961   3.070   6.891
 6897SOL    HW221591   2.863   2.962   6.962
 6898SOL     OW21592   4.110   1.125   2.236
 6898SOL    HW121593   4.162   1.182   2.300
 6898SOL    HW221594   4.103   1.032   2.273
 6899SOL     OW21595   5.396   6.687   1.057
 6899SOL    HW121596   5.339   6.605   1.052
 6899SOL    HW221597   5.340   6.765   1.085
 6900SOL     OW21598   6.622   6.917   5.787
 6900SOL    HW121599   6.720   6.931   5.770
 6900SOL    HW221600   6.609   6.838   5.847
 6901SOL     OW21601   0.453   6.691   6.263
 6901SOL    HW121602   0.416   6.773   6.219
 6901SOL    HW221603   0.383   6.651   6.322
 6902SOL     OW21604   5.693   6.605   0.359
 6902SOL    HW121605   5.615   6.565   0.310
 6902SOL    HW221606   5.764   6.536   0.370
 6903SOL     OW21607   3.656   5.489   4.486
 6903SOL    HW121608   3.700   5.412   4.440
 6903SOL    HW221609   3.711   5.518   4.564
 6904SOL     OW21610   5.768   1.845   4.563
 6904SOL    HW121611   5.802   1.907   4.493
 6904SOL    HW221612   5.845   1.800   4.608
 6905SOL     OW21613   6.253   6.585   6.800
 6905SOL    HW121614   6.193   6.507   6.779
 6905SOL    HW221615   6.203   6.670   6.784
 6906SOL     OW21616   4.585   1.506   3.944
 6906SOL    HW121617   4.672   1.540   3.909
 6906SOL    HW221618   4.595   1.411   3.974
 6907SOL     OW21619   4.823   2.335   1.415
 6907SOL    HW121620   4.914   2.356   1.381
 6907SOL    HW221621   4.828   2.313   1.513
 6908SOL     OW21622   1.095   6.096   6.413
 6908SOL    HW121623   0.996   6.081   6.416
 6908SOL    HW221624   1.131   6.067   6.325
 6909SOL     OW21625   6.280   4.194   1.384
 6909SOL    HW121626   6.185   4.216   1.407
 6909SOL    HW221627   6.289   4.179   1.286
 6910SOL     OW21628   0.388   2.578   3.835
 6910SOL    HW121629   0.363   2.482   3.844
 6910SOL    HW221630   0.334   2.633   3.897
 6911SOL     OW21631   4.602   6.158   3.790
 6911SOL    HW121632   4.614   6.123   3.883
 6911SOL    HW221633   4.606   6.258   3.792
 6912SOL     OW21634   3.383   4.905   0.595
 6912SOL    HW121635   3.466   4.893   0.651
 6912SOL    HW221636   3.319   4.965   0.643
 6913SOL     OW21637   5.068   4.565   4.899
 6913SOL    HW121638   5.035   4.477   4.865
 6913SOL    HW221639   5.056   4.635   4.827
 6914SOL     OW21640   5.231   4.499   6.444
 6914SOL    HW121641   5.296   4.443   6.495
 6914SOL    HW221642   5.181   4.442   6.379
 6915SOL     OW21643   6.014   4.192   1.437
 6915SOL    HW121644   5.950   4.258   1.475
 6915SOL    HW221645   6.003   4.104   1.484
 6916SOL     OW21646   6.329   3.468   0.226
 6916SOL    HW121647   6.391   3.393   0.249
 6916SOL    HW221648   6.306   3.464   0.129
 6917SOL     OW21649   3.205   5.866   1.104
 6917SOL    HW121650   3.263   5.945   1.083
 6917SOL    HW221651   3.198   5.855   1.203
 6918SOL     OW21652   0.171   3.033   4.267
 6918SOL    HW121653   0.225   3.044   4.351
 6918SOL    HW221654   0.108   3.110   4.258
 6919SOL     OW21655   0.159   6.273   2.509
 6919SOL    HW121656   0.128   6.286   2.415
 6919SOL    HW221657   0.257   6.256   2.510
 6920SOL     OW21658   4.798   5.419   5.459
 6920SOL    HW121659   4.750   5.364   5.390
 6920SOL    HW221660   4.883   5.374   5.484
 6921SOL     OW21661   5.534   5.999   3.139
 6921SOL    HW121662   5.459   5.996   3.205
 6921SOL    HW221663   5.535   5.915   3.085
 6922SOL     OW21664   1.984   5.706   6.447
 6922SOL    HW121665   2.028   5.675   6.363
 6922SOL    HW221666   1.884   5.700   6.437
 6923SOL     OW21667   5.028   5.323   3.466
 6923SOL    HW121668   5.037   5.300   3.563
 6923SOL    HW221669   4.951   5.272   3.427
 6924SOL     OW21670   1.703   4.071   6.818
 6924SOL    HW121671   1.687   4.168   6.803
 6924SOL    HW221672   1.792   4.045   6.780
 6925SOL     OW21673   3.935   6.017   4.673
 6925SOL    HW121674   3.870   6.090   4.697
 6925SOL    HW221675   3.920   5.939   4.733
 6926SOL     OW21676   3.123   3.452   1.801
 6926SOL    HW121677   3.214   3.410   1.806
 6926SOL    HW221678   3.107   3.488   1.709
 6927SOL     OW21679   5.363   3.134   6.558
 6927SOL    HW121680   5.394   3.041   6.538
 6927SOL    HW221681   5.406   3.166   6.643
 6928SOL     OW21682   6.029   6.058   0.768
 6928SOL    HW121683   6.127   6.077   0.768
 6928SOL    HW221684   5.979   6.139   0.797
 6929SOL     OW21685   5.324   5.271   0.935
 6929SOL    HW121686   5.315   5.295   1.031
 6929SOL    HW221687   5.268   5.333   0.880
 6930SOL     OW21688   0.156   6.604   2.188
 6930SOL    HW121689   0.202   6.638   2.270
 6930SOL    HW221690   0.212   6.625   2.107
 6931SOL     OW21691   1.891   0.729   2.348
 6931SOL    HW121692   1.975   0.766   2.389
 6931SOL    HW221693   1.839   0.679   2.418
 6932SOL     OW21694   3.622   6.995   0.380
 6932SOL    HW121695   3.685   0.006   0.452
 6932SOL    HW221696   3.664   7.011   0.291
 6933SOL     OW21697   2.956   6.233   5.164
 6933SOL    HW121698   2.884   6.180   5.119
 6933SOL    HW221699   2.916   6.290   5.236
 6934SOL     OW21700   5.138   3.721   6.171
 6934SOL    HW121701   5.101   3.720   6.264
 6934SOL    HW221702   5.226   3.674   6.170
 6935SOL     OW21703   4.577   5.577   3.051
 6935SOL    HW121704   4.644   5.576   3.126
 6935SOL    HW221705   4.518   5.497   3.059
 6936SOL     OW21706   6.455   2.406   3.684
 6936SOL    HW121707   6.522   2.479   3.670
 6936SOL    HW221708   6.366   2.446   3.704
 6937SOL     OW21709   0.114   6.398   0.393
 6937SOL    HW121710   0.168   6.411   0.477
 6937SOL    HW221711   0.176   6.383   0.316
 6938SOL     OW21712   5.259   3.561   5.788
 6938SOL    HW121713   5.255   3.660   5.775
 6938SOL    HW221714   5.222   3.538   5.878
 6939SOL     OW21715   0.487   4.246   1.872
 6939SOL    HW121716   0.542   4.167   1.844
 6939SOL    HW221717   0.547   4.324   1.891
 6940SOL     OW21718   4.589   0.956   0.468
 6940SOL    HW121719   4.601   0.880   0.405
 6940SOL    HW221720   4.523   0.931   0.539
 6941SOL     OW21721   2.986   3.338   2.492
 6941SOL    HW121722   3.032   3.308   2.409
 6941SOL    HW221723   2.978   3.260   2.555
 6942SOL     OW21724   5.954   2.304   1.154
 6942SOL    HW121725   5.864   2.309   1.111
 6942SOL    HW221726   5.985   2.396   1.179
 6943SOL     OW21727   4.664   6.164   6.845
 6943SOL    HW121728   4.698   6.230   6.778
 6943SOL    HW221729   4.565   6.171   6.852
 6944SOL     OW21730   1.145   3.475   6.453
 6944SOL    HW121731   1.052   3.462   6.488
 6944SOL    HW221732   1.164   3.573   6.446
 6945SOL     OW21733   6.855   2.958   6.462
 6945SOL    HW121734   6.936   2.934   6.516
 6945SOL    HW221735   6.784   2.994   6.523
 6946SOL     OW21736   6.360   6.236   1.365
 6946SOL    HW121737   6.393   6.280   1.281
 6946SOL    HW221738   6.325   6.306   1.428
 6947SOL     OW21739   3.590   6.152   5.875
 6947SOL    HW121740   3.556   6.185   5.786
 6947SOL    HW221741   3.626   6.229   5.927
 6948SOL     OW21742   6.790   0.324   6.686
 6948SOL    HW121743   6.870   0.364   6.729
 6948SOL    HW221744   6.790   0.225   6.702
 6949SOL     OW21745   5.368   6.707   3.515
 6949SOL    HW121746   5.350   6.757   3.430
 6949SOL    HW221747   5.325   6.617   3.510
 6950SOL     OW21748   2.522   0.825   4.221
 6950SOL    HW121749   2.447   0.833   4.287
 6950SOL    HW221750   2.592   0.894   4.243
 6951SOL     OW21751   6.533   6.122   5.686
 6951SOL    HW121752   6.439   6.112   5.718
 6951SOL    HW221753   6.537   6.193   5.615
 6952SOL     OW21754   0.210   5.678   3.520
 6952SOL    HW121755   0.144   5.648   3.451
 6952SOL    HW221756   0.242   5.599   3.572
 6953SOL     OW21757   5.141   6.649   6.916
 6953SOL    HW121758   5.170   6.743   6.934
 6953SOL    HW221759   5.055   6.650   6.866
 6954SOL     OW21760   0.500   3.637   3.760
 6954SOL    HW121761   0.500   3.546   3.718
 6954SOL    HW221762   0.572   3.692   3.718
 6955SOL     OW21763   6.276   0.841   1.929
 6955SOL    HW121764   6.310   0.876   2.016
 6955SOL    HW221765   6.177   0.856   1.923
 6956SOL     OW21766   4.825   6.586   3.728
 6956SOL    HW121767   4.870   6.505   3.690
 6956SOL    HW221768   4.738   6.600   3.682
 6957SOL     OW21769   6.010   5.512   0.628
 6957SOL    HW121770   6.093   5.485   0.677
 6957SOL    HW221771   5.945   5.436   0.629
 6958SOL     OW21772   3.161   4.072   4.828
 6958SOL    HW121773   3.134   4.085   4.924
 6958SOL    HW221774   3.235   4.135   4.806
 6959SOL     OW21775   1.790   1.549   4.566
 6959SOL    HW121776   1.822   1.602   4.488
 6959SOL    HW221777   1.711   1.494   4.540
 6960SOL     OW21778   2.118   5.286   1.610
 6960SOL    HW121779   2.066   5.370   1.599
 6960SOL    HW221780   2.056   5.208   1.613
 6961SOL     OW21781   6.042   2.024   4.568
 6961SOL    HW121782   5.971   2.034   4.498
 6961SOL    HW221783   6.129   2.058   4.533
 6962SOL     OW21784   5.491   6.214   1.977
 6962SOL    HW121785   5.438   6.276   2.036
 6962SOL    HW221786   5.465   6.119   1.997
 6963SOL     OW21787   6.200   5.891   1.644
 6963SOL    HW121788   6.270   5.928   1.584
 6963SOL    HW221789   6.113   5.938   1.627
 6964SOL     OW21790   3.479   6.765   4.893
 6964SOL    HW121791   3.444   6.853   4.861
 6964SOL    HW221792   3.575   6.756   4.866
 6965SOL     OW21793   0.552   3.405   0.614
 6965SOL    HW121794   0.544   3.366   0.523
 6965SOL    HW221795   0.648   3.409   0.641
 6966SOL     OW21796   0.222   2.318   3.746
 6966SOL    HW121797   0.171   2.388   3.697
 6966SOL    HW221798   0.289   2.276   3.685
 6967SOL     OW21799   1.472   6.885   5.505
 6967SOL    HW121800   1.459   6.790   5.535
 6967SOL    HW221801   1.513   6.938   5.580
 6968SOL     OW21802   4.364   6.453   2.590
 6968SOL    HW121803   4.430   6.526   2.607
 6968SOL    HW221804   4.275   6.493   2.568
 6969SOL     OW21805   2.628   2.062   1.428
 6969SOL    HW121806   2.601   1.968   1.407
 6969SOL    HW221807   2.725   2.064   1.450
 6970SOL     OW21808   3.040   4.116   6.171
 6970SOL    HW121809   3.125   4.148   6.129
 6970SOL    HW221810   3.060   4.048   6.241
 6971SOL     OW21811   6.354   4.431   1.562
 6971SOL    HW121812   6.355   4.358   1.494
 6971SOL    HW221813   6.419   4.409   1.635
 6972SOL     OW21814   5.629   4.626   3.251
 6972SOL    HW121815   5.623   4.725   3.268
 6972SOL    HW221816   5.638   4.577   3.338
 6973SOL     OW21817   0.453   3.170   5.379
 6973SOL    HW121818   0.530   3.234   5.375
 6973SOL    HW221819   0.377   3.212   5.427
 6974SOL     OW21820   3.034   3.155   2.696
 6974SOL    HW121821   2.978   3.075   2.720
 6974SOL    HW221822   3.073   3.194   2.780
 6975SOL     OW21823   1.844   5.718   6.102
 6975SOL    HW121824   1.787   5.703   6.183
 6975SOL    HW221825   1.940   5.698   6.125
 6976SOL     OW21826   4.664   6.252   4.938
 6976SOL    HW121827   4.763   6.243   4.944
 6976SOL    HW221828   4.639   6.281   4.846
 6977SOL     OW21829   4.345   2.474   1.695
 6977SOL    HW121830   4.404   2.446   1.619
 6977SOL    HW221831   4.398   2.474   1.780
 6978SOL     OW21832   4.076   1.724   2.443
 6978SOL    HW121833   4.022   1.792   2.393
 6978SOL    HW221834   4.021   1.643   2.459
 6979SOL     OW21835   1.476   4.261   1.243
 6979SOL    HW121836   1.567   4.222   1.252
 6979SOL    HW221837   1.469   4.344   1.300
 6980SOL     OW21838   1.072   1.217   3.909
 6980SOL    HW121839   1.167   1.188   3.924
 6980SOL    HW221840   1.013   1.136   3.904
 6981SOL     OW21841   3.996   2.665   5.667
 6981SOL    HW121842   3.950   2.579   5.646
 6981SOL    HW221843   3.933   2.726   5.715
 6982SOL     OW21844   1.537   0.414   4.949
 6982SOL    HW121845   1.469   0.486   4.933
 6982SOL    HW221846   1.516   0.336   4.891
 6983SOL     OW21847   4.239   2.350   3.724
 6983SOL    HW121848   4.183   2.287   3.777
 6983SOL    HW221849   4.315   2.383   3.780
 6984SOL     OW21850   2.410   1.449   4.087
 6984SOL    HW121851   2.450   1.468   3.998
 6984SOL    HW221852   2.425   1.354   4.111
 6985SOL     OW21853   4.454   5.129   1.582
 6985SOL    HW121854   4.411   5.189   1.515
 6985SOL    HW221855   4.424   5.156   1.674
 6986SOL     OW21856   1.813   6.730   6.405
 6986SOL    HW121857   1.721   6.769   6.402
 6986SOL    HW221858   1.879   6.803   6.424
 6987SOL     OW21859   0.034   1.348   6.058
 6987SOL    HW121860   0.087   1.272   6.022
 6987SOL    HW221861   0.043   1.351   6.158
 6988SOL     OW21862   0.342   0.620   5.832
 6988SOL    HW121863   0.245   0.611   5.855
 6988SOL    HW221864   0.358   0.579   5.742
 6989SOL     OW21865   0.355   4.266   2.938
 6989SOL    HW121866   0.388   4.209   3.014
 6989SOL    HW221867   0.320   4.207   2.865
 6990SOL     OW21868   4.735   2.425   0.990
 6990SOL    HW121869   4.726   2.419   0.891
 6990SOL    HW221870   4.700   2.340   1.031
 6991SOL     OW21871   3.486   4.973   3.802
 6991SOL    HW121872   3.410   4.958   3.866
 6991SOL    HW221873   3.477   4.911   3.724
 6992SOL     OW21874   5.132   5.983   5.892
 6992SOL    HW121875   5.076   5.952   5.969
 6992SOL    HW221876   5.084   5.966   5.806
 6993SOL     OW21877   6.382   0.544   3.181
 6993SOL    HW121878   6.418   0.590   3.099
 6993SOL    HW221879   6.373   0.610   3.255
 6994SOL     OW21880   6.990   1.924   4.769
 6994SOL    HW121881   6.956   1.842   4.815
 6994SOL    HW221882   0.018   1.983   4.836
 6995SOL     OW21883   6.771   4.650   5.929
 6995SOL    HW121884   6.725   4.701   5.857
 6995SOL    HW221885   6.814   4.568   5.890
 6996SOL     OW21886   1.498   0.340   6.537
 6996SOL    HW121887   1.444   0.422   6.551
 6996SOL    HW221888   1.477   0.273   6.608
 6997SOL     OW21889   5.957   6.076   5.322
 6997SOL    HW121890   6.026   6.045   5.256
 6997SOL    HW221891   5.872   6.027   5.307
 6998SOL     OW21892   1.650   1.390   1.550
 6998SOL    HW121893   1.696   1.420   1.466
 6998SOL    HW221894   1.692   1.305   1.582
 6999SOL     OW21895   2.512   3.104   6.056
 6999SOL    HW121896   2.558   3.072   6.139
 6999SOL    HW221897   2.451   3.180   6.080
 7000SOL     OW21898   6.392   6.012   1.516
 7000SOL    HW121899   6.482   6.009   1.560
 7000SOL    HW221900   6.384   6.096   1.463
 7001SOL     OW21901   2.160   2.713   5.276
 7001SOL    HW121902   2.184   2.792   5.333
 7001SOL    HW221903   2.092   2.740   5.209
 7002SOL     OW21904   2.071   5.260   3.599
 7002SOL    HW121905   2.082   5.359   3.592
 7002SOL    HW221906   2.008   5.240   3.674
 7003SOL     OW21907   3.612   5.678   0.261
 7003SOL    HW121908   3.534   5.690   0.199
 7003SOL    HW221909   3.692   5.650   0.208
 7004SOL     OW21910   1.104   4.425   2.544
 7004SOL    HW121911   1.187   4.428   2.488
 7004SOL    HW221912   1.045   4.351   2.512
 7005SOL     OW21913   1.437   6.999   0.311
 7005SOL    HW121914   1.367   0.013   0.247
 7005SOL    HW221915   1.457   6.903   0.294
 7006SOL     OW21916   4.769   4.856   3.974
 7006SOL    HW121917   4.833   4.917   4.021
 7006SOL    HW221918   4.805   4.832   3.884
 7007SOL     OW21919   4.956   0.389   3.809
 7007SOL    HW121920   4.890   0.386   3.884
 7007SOL    HW221921   4.935   0.318   3.743
 7008SOL     OW21922   1.019   4.210   4.673
 7008SOL    HW121923   1.027   4.124   4.724
 7008SOL    HW221924   0.967   4.276   4.727
 7009SOL     OW21925   6.114   6.052   1.890
 7009SOL    HW121926   6.112   6.017   1.984
 7009SOL    HW221927   6.186   6.006   1.839
 7010SOL     OW21928   5.190   4.741   4.682
 7010SOL    HW121929   5.171   4.713   4.588
 7010SOL    HW221930   5.117   4.800   4.715
 7011SOL     OW21931   3.858   6.801   6.429
 7011SOL    HW121932   3.858   6.734   6.355
 7011SOL    HW221933   3.879   6.891   6.391
 7012SOL     OW21934   1.833   1.912   1.955
 7012SOL    HW121935   1.861   1.949   1.866
 7012SOL    HW221936   1.888   1.831   1.975
 7013SOL     OW21937   0.737   0.478   0.713
 7013SOL    HW121938   0.784   0.390   0.720
 7013SOL    HW221939   0.670   0.474   0.639
 7014SOL     OW21940   4.240   3.505   1.230
 7014SOL    HW121941   4.324   3.507   1.284
 7014SOL    HW221942   4.172   3.448   1.277
 7015SOL     OW21943   6.040   4.212   2.135
 7015SOL    HW121944   5.963   4.264   2.172
 7015SOL    HW221945   6.033   4.117   2.165
 7016SOL     OW21946   3.646   4.971   1.406
 7016SOL    HW121947   3.741   4.979   1.378
 7016SOL    HW221948   3.641   4.953   1.505
 7017SOL     OW21949   2.813   5.522   2.918
 7017SOL    HW121950   2.718   5.545   2.899
 7017SOL    HW221951   2.859   5.599   2.962
 7018SOL     OW21952   5.701   4.066   4.302
 7018SOL    HW121953   5.707   4.064   4.202
 7018SOL    HW221954   5.612   4.032   4.331
 7019SOL     OW21955   2.819   4.375   6.897
 7019SOL    HW121956   2.846   4.471   6.890
 7019SOL    HW221957   2.836   4.342   6.990
 7020SOL     OW21958   6.076   6.155   6.225
 7020SOL    HW121959   6.041   6.078   6.278
 7020SOL    HW221960   6.127   6.217   6.284
 7021SOL     OW21961   1.707   1.181   6.089
 7021SOL    HW121962   1.625   1.162   6.035
 7021SOL    HW221963   1.729   1.100   6.144
 7022SOL     OW21964   4.381   6.688   6.908
 7022SOL    HW121965   4.283   6.697   6.924
 7022SOL    HW221966   4.431   6.744   6.975
 7023SOL     OW21967   0.212   1.553   3.774
 7023SOL    HW121968   0.129   1.526   3.822
 7023SOL    HW221969   0.200   1.539   3.676
 7024SOL     OW21970   2.394   3.752   5.361
 7024SOL    HW121971   2.411   3.815   5.285
 7024SOL    HW221972   2.481   3.718   5.396
 7025SOL     OW21973   2.576   0.957   6.971
 7025SOL    HW121974   2.599   0.928   6.878
 7025SOL    HW221975   2.510   0.894   7.011
 7026SOL     OW21976   3.371   2.257   1.762
 7026SOL    HW121977   3.451   2.294   1.807
 7026SOL    HW221978   3.336   2.179   1.814
 7027SOL     OW21979   2.468   5.098   4.453
 7027SOL    HW121980   2.375   5.089   4.489
 7027SOL    HW221981   2.509   5.007   4.445
 7028SOL     OW21982   4.138   1.083   4.138
 7028SOL    HW121983   4.074   1.153   4.106
 7028SOL    HW221984   4.117   0.996   4.094
 7029SOL     OW21985   5.116   4.459   5.548
 7029SOL    HW121986   5.186   4.523   5.580
 7029SOL    HW221987   5.158   4.394   5.484
 7030SOL     OW21988   1.243   1.543   5.435
 7030SOL    HW121989   1.190   1.622   5.467
 7030SOL    HW221990   1.183   1.478   5.390
 7031SOL     OW21991   2.349   6.267   5.241
 7031SOL    HW121992   2.436   6.242   5.285
 7031SOL    HW221993   2.352   6.363   5.215
 7032SOL     OW21994   3.306   0.727   2.773
 7032SOL    HW121995   3.235   0.710   2.842
 7032SOL    HW221996   3.389   0.678   2.797
 7033SOL     OW21997   1.552   2.331   3.271
 7033SOL    HW121998   1.531   2.419   3.314
 7033SOL    HW221999   1.597   2.347   3.183
 7034SOL     OW22000   5.757   0.445   3.079
 7034SOL    HW122001   5.728   0.383   3.152
 7034SOL    HW222002   5.825   0.399   3.021
 7035SOL     OW22003   2.043   6.749   1.662
 7035SOL    HW122004   2.117   6.701   1.615
 7035SOL    HW222005   1.959   6.695   1.656
 7036SOL     OW22006   0.522   0.802   2.429
 7036SOL    HW122007   0.581   0.876   2.460
 7036SOL    HW222008   0.538   0.786   2.331
 7037SOL     OW22009   2.105   1.224   6.291
 7037SOL    HW122010   2.033   1.182   6.347
 7037SOL    HW222011   2.130   1.161   6.217
 7038SOL     OW22012   2.016   3.404   5.103
 7038SOL    HW122013   2.052   3.312   5.119
 7038SOL    HW222014   2.079   3.472   5.138
 7039SOL     OW22015   2.673   4.605   1.495
 7039SOL    HW122016   2.758   4.656   1.485
 7039SOL    HW222017   2.676   4.550   1.578
 7040SOL     OW22018   6.324   1.926   4.888
 7040SOL    HW122019   6.239   1.909   4.839
 7040SOL    HW222020   6.326   1.872   4.972
 7041SOL     OW22021   7.007   1.654   1.988
 7041SOL    HW122022   0.060   1.702   2.040
 7041SOL    HW222023   0.030   1.575   1.943
 7042SOL     OW22024   5.080   4.375   5.134
 7042SOL    HW122025   5.098   4.424   5.048
 7042SOL    HW222026   5.156   4.390   5.197
 7043SOL     OW22027   2.059   3.494   2.590
 7043SOL    HW122028   2.094   3.466   2.500
 7043SOL    HW222029   2.084   3.589   2.608
 7044SOL     OW22030   4.365   4.617   3.399
 7044SOL    HW122031   4.410   4.541   3.353
 7044SOL    HW222032   4.301   4.661   3.336
 7045SOL     OW22033   5.343   5.199   3.368
 7045SOL    HW122034   5.312   5.206   3.273
 7045SOL    HW222035   5.371   5.289   3.400
 7046SOL     OW22036   3.232   1.448   2.904
 7046SOL    HW122037   3.173   1.460   2.984
 7046SOL    HW222038   3.186   1.391   2.836
 7047SOL     OW22039   0.100   2.417   2.097
 7047SOL    HW122040   0.117   2.436   2.194
 7047SOL    HW222041   0.089   2.319   2.084
 7048SOL     OW22042   5.782   6.010   2.502
 7048SOL    HW122043   5.876   6.023   2.471
 7048SOL    HW222044   5.773   6.043   2.595
 7049SOL     OW22045   3.697   1.328   1.037
 7049SOL    HW122046   3.598   1.335   1.020
 7049SOL    HW222047   3.746   1.368   0.960
 7050SOL     OW22048   3.998   3.976   1.963
 7050SOL    HW122049   4.096   3.977   1.983
 7050SOL    HW222050   3.958   3.893   2.002
 7051SOL     OW22051   0.086   7.012   2.054
 7051SOL    HW122052   0.095   6.999   2.153
 7051SOL    HW222053   7.007   0.009   2.031
 7052SOL     OW22054   5.565   2.559   3.678
 7052SOL    HW122055   5.516   2.646   3.682
 7052SOL    HW222056   5.660   2.572   3.704
 7053SOL     OW22057   0.764   3.360   5.166
 7053SOL    HW122058   0.747   3.268   5.130
 7053SOL    HW222059   0.684   3.390   5.219
 7054SOL     OW22060   0.574   6.989   0.520
 7054SOL    HW122061   0.667   6.963   0.494
 7054SOL    HW222062   0.510   6.953   0.452
 7055SOL     OW22063   2.948   6.857   5.362
 7055SOL    HW122064   2.942   6.952   5.330
 7055SOL    HW222065   3.000   6.803   5.296
 7056SOL     OW22066   6.906   5.646   1.886
 7056SOL    HW122067   6.962   5.618   1.808
 7056SOL    HW222068   6.825   5.588   1.893
 7057SOL     OW22069   1.100   5.881   3.653
 7057SOL    HW122070   1.006   5.885   3.618
 7057SOL    HW222071   1.099   5.893   3.752
 7058SOL     OW22072   6.174   5.038   6.199
 7058SOL    HW122073   6.254   4.978   6.202
 7058SOL    HW222074   6.186   5.112   6.265
 7059SOL     OW22075   6.947   0.820   4.226
 7059SOL    HW122076   6.917   0.896   4.283
 7059SOL    HW222077   0.026   0.802   4.241
 7060SOL     OW22078   4.320   0.207   1.999
 7060SOL    HW122079   4.408   0.227   1.956
 7060SOL    HW222080   4.291   0.286   2.053
 7061SOL     OW22081   0.742   2.950   3.453
 7061SOL    HW122082   0.777   3.043   3.464
 7061SOL    HW222083   0.785   2.890   3.521
 7062SOL     OW22084   4.500   1.534   5.053
 7062SOL    HW122085   4.531   1.440   5.066
 7062SOL    HW222086   4.427   1.554   5.119
 7063SOL     OW22087   1.275   0.230   1.721
 7063SOL    HW122088   1.358   0.231   1.776
 7063SOL    HW222089   1.210   0.165   1.761
 7064SOL     OW22090   3.814   2.190   1.450
 7064SOL    HW122091   3.792   2.222   1.358
 7064SOL    HW222092   3.852   2.266   1.503
 7065SOL     OW22093   3.706   3.866   5.992
 7065SOL    HW122094   3.758   3.948   6.016
 7065SOL    HW222095   3.612   3.875   6.025
 7066SOL     OW22096   4.714   0.444   0.568
 7066SOL    HW122097   4.741   0.452   0.472
 7066SOL    HW222098   4.758   0.365   0.609
 7067SOL     OW22099   2.123   2.237   4.923
 7067SOL    HW122100   2.078   2.293   4.854
 7067SOL    HW222101   2.084   2.145   4.922
 7068SOL     OW22102   0.222   4.249   4.111
 7068SOL    HW122103   0.139   4.299   4.134
 7068SOL    HW222104   0.252   4.195   4.190
 7069SOL     OW22105   5.637   1.008   4.647
 7069SOL    HW122106   5.655   1.105   4.630
 7069SOL    HW222107   5.608   0.965   4.562
 7070SOL     OW22108   6.787   6.184   4.859
 7070SOL    HW122109   6.756   6.263   4.807
 7070SOL    HW222110   6.777   6.203   4.957
 7071SOL     OW22111   2.390   5.685   6.550
 7071SOL    HW122112   2.473   5.671   6.496
 7071SOL    HW222113   2.415   5.711   6.644
 7072SOL     OW22114   1.239   6.206   6.905
 7072SOL    HW122115   1.154   6.230   6.952
 7072SOL    HW222116   1.219   6.146   6.828
 7073SOL     OW22117   4.545   0.007   4.637
 7073SOL    HW122118   4.449   0.032   4.621
 7073SOL    HW222119   4.598   0.089   4.660
 7074SOL     OW22120   4.823   2.591   2.505
 7074SOL    HW122121   4.725   2.573   2.512
 7074SOL    HW222122   4.846   2.611   2.410
 7075SOL     OW22123   1.557   4.190   4.971
 7075SOL    HW122124   1.616   4.128   5.022
 7075SOL    HW222125   1.462   4.163   4.983
 7076SOL     OW22126   5.842   1.969   6.292
 7076SOL    HW122127   5.781   1.890   6.300
 7076SOL    HW222128   5.840   2.004   6.199
 7077SOL     OW22129   2.224   4.458   3.783
 7077SOL    HW122130   2.282   4.396   3.729
 7077SOL    HW222131   2.279   4.501   3.854
 7078SOL     OW22132   0.408   6.785   1.525
 7078SOL    HW122133   0.400   6.881   1.552
 7078SOL    HW222134   0.501   6.753   1.541
 7079SOL     OW22135   6.860   6.174   4.033
 7079SOL    HW122136   6.783   6.235   4.053
 7079SOL    HW222137   6.945   6.225   4.037
 7080SOL     OW22138   3.225   1.411   4.730
 7080SOL    HW122139   3.289   1.483   4.704
 7080SOL    HW222140   3.155   1.449   4.791
 7081SOL     OW22141   3.388   6.697   6.536
 7081SOL    HW122142   3.416   6.759   6.463
 7081SOL    HW222143   3.468   6.666   6.587
 7082SOL     OW22144   6.675   3.996   6.748
 7082SOL    HW122145   6.603   3.952   6.801
 7082SOL    HW222146   6.636   4.074   6.698
 7083SOL     OW22147   2.946   0.115   0.721
 7083SOL    HW122148   2.896   0.139   0.805
 7083SOL    HW222149   2.945   0.192   0.658
 7084SOL     OW22150   0.247   6.147   5.925
 7084SOL    HW122151   0.205   6.235   5.947
 7084SOL    HW222152   0.344   6.162   5.903
 7085SOL     OW22153   0.733   1.516   1.743
 7085SOL    HW122154   0.738   1.440   1.809
 7085SOL    HW222155   0.813   1.513   1.683
 7086SOL     OW22156   5.189   0.452   5.306
 7086SOL    HW122157   5.254   0.453   5.230
 7086SOL    HW222158   5.238   0.469   5.392
 7087SOL     OW22159   6.138   3.475   4.432
 7087SOL    HW122160   6.097   3.387   4.454
 7087SOL    HW222161   6.146   3.485   4.333
 7088SOL     OW22162   5.770   2.916   3.466
 7088SOL    HW122163   5.723   2.867   3.392
 7088SOL    HW222164   5.703   2.944   3.534
 7089SOL     OW22165   2.779   2.200   4.683
 7089SOL    HW122166   2.704   2.260   4.709
 7089SOL    HW222167   2.853   2.207   4.750
 7090SOL     OW22168   2.022   0.686   6.716
 7090SOL    HW122169   2.095   0.651   6.658
 7090SOL    HW222170   1.935   0.646   6.687
 7091SOL     OW22171   0.847   1.509   6.865
 7091SOL    HW122172   0.838   1.506   6.765
 7091SOL    HW222173   0.756   1.500   6.907
 7092SOL     OW22174   4.212   3.172   5.903
 7092SOL    HW122175   4.270   3.095   5.926
 7092SOL    HW222176   4.134   3.141   5.849
 7093SOL     OW22177   3.031   3.830   3.191
 7093SOL    HW122178   3.013   3.906   3.128
 7093SOL    HW222179   3.099   3.769   3.150
 7094SOL     OW22180   6.769   6.223   5.789
 7094SOL    HW122181   6.841   6.226   5.720
 7094SOL    HW222182   6.683   6.192   5.748
 7095SOL     OW22183   3.674   4.146   5.869
 7095SOL    HW122184   3.619   4.184   5.795
 7095SOL    HW222185   3.768   4.181   5.863
 7096SOL     OW22186   6.271   0.200   3.532
 7096SOL    HW122187   6.240   0.269   3.597
 7096SOL    HW222188   6.334   0.137   3.577
 7097SOL     OW22189   5.939   2.089   1.318
 7097SOL    HW122190   5.965   2.154   1.247
 7097SOL    HW222191   6.016   2.028   1.337
 7098SOL     OW22192   1.226   5.947   5.356
 7098SOL    HW122193   1.234   5.848   5.339
 7098SOL    HW222194   1.163   5.987   5.290
 7099SOL     OW22195   3.545   1.150   5.382
 7099SOL    HW122196   3.529   1.204   5.299
 7099SOL    HW222197   3.480   1.178   5.453
 7100SOL     OW22198   5.427   3.179   0.782
 7100SOL    HW122199   5.446   3.116   0.707
 7100SOL    HW222200   5.357   3.139   0.842
 7101SOL     OW22201   1.787   0.605   4.696
 7101SOL    HW122202   1.818   0.537   4.630
 7101SOL    HW222203   1.688   0.593   4.711
 7102SOL     OW22204   5.621   6.306   0.561
 7102SOL    HW122205   5.666   6.232   0.512
 7102SOL    HW222206   5.686   6.349   0.624
 7103SOL     OW22207   4.908   4.681   1.872
 7103SOL    HW122208   4.817   4.712   1.844
 7103SOL    HW222209   4.977   4.723   1.813
 7104SOL     OW22210   0.206   2.754   4.006
 7104SOL    HW122211   0.122   2.758   4.059
 7104SOL    HW222212   0.191   2.795   3.916
 7105SOL     OW22213   2.897   2.969   5.665
 7105SOL    HW122214   2.915   3.016   5.578
 7105SOL    HW222215   2.854   2.881   5.648
 7106SOL     OW22216   4.142   3.492   3.090
 7106SOL    HW122217   4.176   3.445   3.009
 7106SOL    HW222218   4.062   3.444   3.125
 7107SOL     OW22219   4.413   0.876   0.700
 7107SOL    HW122220   4.435   0.917   0.788
 7107SOL    HW222221   4.392   0.779   0.713
 7108SOL     OW22222   4.340   6.000   2.832
 7108SOL    HW122223   4.323   5.933   2.759
 7108SOL    HW222224   4.420   5.972   2.885
 7109SOL     OW22225   2.848   0.416   6.061
 7109SOL    HW122226   2.750   0.399   6.056
 7109SOL    HW222227   2.864   0.514   6.074
 7110SOL     OW22228   2.756   5.719   4.352
 7110SOL    HW122229   2.806   5.797   4.390
 7110SOL    HW222230   2.747   5.731   4.253
 7111SOL     OW22231   1.253   2.823   5.037
 7111SOL    HW122232   1.177   2.881   5.068
 7111SOL    HW222233   1.298   2.782   5.116
 7112SOL     OW22234   1.648   4.774   4.652
 7112SOL    HW122235   1.569   4.756   4.594
 7112SOL    HW222236   1.648   4.871   4.679
 7113SOL     OW22237   4.177   3.500   4.771
 7113SOL    HW122238   4.230   3.550   4.839
 7113SOL    HW222239   4.141   3.416   4.811
 7114SOL     OW22240   4.817   6.440   1.548
 7114SOL    HW122241   4.867   6.482   1.624
 7114SOL    HW222242   4.728   6.408   1.580
 7115SOL     OW22243   5.300   3.276   1.282
 7115SOL    HW122244   5.271   3.299   1.375
 7115SOL    HW222245   5.235   3.211   1.242
 7116SOL     OW22246   6.263   3.927   3.438
 7116SOL    HW122247   6.355   3.938   3.400
 7116SOL    HW222248   6.198   3.981   3.385
 7117SOL     OW22249   0.200   6.443   5.184
 7117SOL    HW122250   0.149   6.368   5.142
 7117SOL    HW222251   0.265   6.406   5.251
 7118SOL     OW22252   2.964   4.668   0.513
 7118SOL    HW122253   2.998   4.577   0.489
 7118SOL    HW222254   3.020   4.737   0.467
 7119SOL     OW22255   5.053   2.365   3.697
 7119SOL    HW122256   4.998   2.433   3.746
 7119SOL    HW222257   5.080   2.293   3.761
 7120SOL     OW22258   3.736   1.587   2.200
 7120SOL    HW122259   3.685   1.654   2.146
 7120SOL    HW222260   3.694   1.497   2.190
 7121SOL     OW22261   0.942   0.229   3.440
 7121SOL    HW122262   0.883   0.149   3.450
 7121SOL    HW222263   1.019   0.207   3.381
 7122SOL     OW22264   1.077   0.249   5.469
 7122SOL    HW122265   1.157   0.207   5.512
 7122SOL    HW222266   1.044   0.325   5.526
 7123SOL     OW22267   1.874   4.077   3.142
 7123SOL    HW122268   1.909   4.168   3.117
 7123SOL    HW222269   1.881   4.016   3.063
 7124SOL     OW22270   6.664   1.993   1.335
 7124SOL    HW122271   6.578   1.961   1.295
 7124SOL    HW222272   6.720   1.914   1.360
 7125SOL     OW22273   0.176   6.708   1.018
 7125SOL    HW122274   0.225   6.647   1.080
 7125SOL    HW222275   0.235   6.729   0.940
 7126SOL     OW22276   3.469   5.123   0.334
 7126SOL    HW122277   3.475   5.028   0.305
 7126SOL    HW222278   3.414   5.175   0.269
 7127SOL     OW22279   1.499   4.975   5.582
 7127SOL    HW122280   1.598   4.988   5.577
 7127SOL    HW222281   1.479   4.889   5.629
 7128SOL     OW22282   2.535   5.065   0.147
 7128SOL    HW122283   2.571   4.974   0.126
 7128SOL    HW222284   2.556   5.088   0.242
 7129SOL     OW22285   2.094   1.845   6.998
 7129SOL    HW122286   2.104   1.750   6.970
 7129SOL    HW222287   2.180   1.894   6.984
 7130SOL     OW22288   4.347   5.552   5.056
 7130SOL    HW122289   4.341   5.488   4.979
 7130SOL    HW222290   4.255   5.575   5.087
 7131SOL     OW22291   2.815   0.214   0.954
 7131SOL    HW122292   2.805   0.132   1.010
 7131SOL    HW222293   2.878   0.278   1.000
 7132SOL     OW22294   4.362   4.457   6.962
 7132SOL    HW122295   4.282   4.510   6.933
 7132SOL    HW222296   4.335   4.393   0.016
 7133SOL     OW22297   4.969   5.918   6.121
 7133SOL    HW122298   5.029   5.907   6.200
 7133SOL    HW222299   4.924   5.831   6.101
 7134SOL     OW22300   5.071   7.004   2.050
 7134SOL    HW122301   5.170   6.992   2.044
 7134SOL    HW222302   5.050   0.083   2.050
 7135SOL     OW22303   1.635   2.854   3.045
 7135SOL    HW122304   1.721   2.826   3.003
 7135SOL    HW222305   1.591   2.922   2.987
 7136SOL     OW22306   2.566   2.914   1.120
 7136SOL    HW122307   2.625   2.834   1.122
 7136SOL    HW222308   2.502   2.910   1.197
 7137SOL     OW22309   4.126   0.181   6.523
 7137SOL    HW122310   4.169   0.266   6.493
 7137SOL    HW222311   4.028   0.195   6.536
 7138SOL     OW22312   2.103   2.447   0.439
 7138SOL    HW122313   2.029   2.511   0.422
 7138SOL    HW222314   2.159   2.480   0.515
 7139SOL     OW22315   5.831   4.354   1.559
 7139SOL    HW122316   5.752   4.402   1.521
 7139SOL    HW222317   5.882   4.416   1.619
 7140SOL     OW22318   6.208   3.857   3.103
 7140SOL    HW122319   6.141   3.883   3.172
 7140SOL    HW222320   6.289   3.915   3.111
 7141SOL     OW22321   3.824   5.985   1.146
 7141SOL    HW122322   3.822   6.020   1.240
 7141SOL    HW222323   3.817   5.885   1.148
 7142SOL     OW22324   4.303   0.298   3.500
 7142SOL    HW122325   4.227   0.363   3.501
 7142SOL    HW222326   4.319   0.267   3.406
 7143SOL     OW22327   1.129   2.352   5.902
 7143SOL    HW122328   1.215   2.342   5.952
 7143SOL    HW222329   1.143   2.411   5.822
 7144SOL     OW22330   1.879   2.503   2.080
 7144SOL    HW122331   1.851   2.558   2.158
 7144SOL    HW222332   1.858   2.407   2.097
 7145SOL     OW22333   4.624   0.198   0.235
 7145SOL    HW122334   4.599   0.292   0.215
 7145SOL    HW222335   4.714   0.197   0.281
 7146SOL     OW22336   2.040   0.125   0.640
 7146SOL    HW122337   1.941   0.130   0.637
 7146SOL    HW222338   2.072   0.156   0.729
 7147SOL     OW22339   0.047   6.747   2.929
 7147SOL    HW122340   6.983   6.760   2.985
 7147SOL    HW222341   0.042   6.807   2.849
 7148SOL     OW22342   0.499   5.841   1.164
 7148SOL    HW122343   0.413   5.854   1.116
 7148SOL    HW222344   0.544   5.758   1.130
 7149SOL     OW22345   6.268   6.204   3.245
 7149SOL    HW122346   6.230   6.294   3.225
 7149SOL    HW222347   6.205   6.133   3.211
 7150SOL     OW22348   3.112   2.400   1.691
 7150SOL    HW122349   3.060   2.425   1.773
 7150SOL    HW222350   3.177   2.327   1.713
 7151SOL     OW22351   2.603   6.062   0.596
 7151SOL    HW122352   2.686   6.110   0.568
 7151SOL    HW222353   2.618   6.023   0.687
 7152SOL     OW22354   0.747   0.570   5.331
 7152SOL    HW122355   0.784   0.562   5.424
 7152SOL    HW222356   0.710   0.661   5.318
 7153SOL     OW22357   3.957   5.470   1.708
 7153SOL    HW122358   3.859   5.457   1.696
 7153SOL    HW222359   4.004   5.448   1.622
 7154SOL     OW22360   4.422   0.135   3.783
 7154SOL    HW122361   4.508   0.116   3.831
 7154SOL    HW222362   4.404   0.063   3.716
 7155SOL     OW22363   1.873   3.539   1.315
 7155SOL    HW122364   1.930   3.533   1.233
 7155SOL    HW222365   1.862   3.448   1.354
 7156SOL     OW22366   6.813   3.226   4.080
 7156SOL    HW122367   6.796   3.143   4.134
 7156SOL    HW222368   6.810   3.204   3.983
 7157SOL     OW22369   0.470   3.583   1.325
 7157SOL    HW122370   0.426   3.590   1.414
 7157SOL    HW222371   0.401   3.572   1.254
 7158SOL     OW22372   1.551   0.107   3.926
 7158SOL    HW122373   1.557   0.154   3.838
 7158SOL    HW222374   1.580   0.011   3.915
 7159SOL     OW22375   0.280   5.116   2.345
 7159SOL    HW122376   0.287   5.132   2.247
 7159SOL    HW222377   0.360   5.065   2.376
 7160SOL     OW22378   5.581   0.188   2.620
 7160SOL    HW122379   5.678   0.199   2.597
 7160SOL    HW222380   5.561   0.237   2.704
 7161SOL     OW22381   3.243   4.037   4.156
 7161SOL    HW122382   3.160   4.024   4.102
 7161SOL    HW222383   3.223   4.018   4.252
 7162SOL     OW22384   1.001   5.275   6.450
 7162SOL    HW122385   1.095   5.265   6.484
 7162SOL    HW222386   1.004   5.299   6.353
 7163SOL     OW22387   3.130   6.537   2.305
 7163SOL    HW122388   3.203   6.604   2.293
 7163SOL    HW222389   3.107   6.530   2.403
 7164SOL     OW22390   2.398   0.402   4.007
 7164SOL    HW122391   2.300   0.403   4.024
 7164SOL    HW222392   2.433   0.496   4.003
 7165SOL     OW22393   6.408   1.140   2.713
 7165SOL    HW122394   6.471   1.104   2.644
 7165SOL    HW222395   6.386   1.235   2.692
 7166SOL     OW22396   5.576   2.021   1.084
 7166SOL    HW122397   5.478   2.039   1.088
 7166SOL    HW222398   5.626   2.104   1.109
 7167SOL     OW22399   5.392   3.534   4.204
 7167SOL    HW122400   5.405   3.440   4.236
 7167SOL    HW222401   5.447   3.549   4.122
 7168SOL     OW22402   1.378   2.900   2.898
 7168SOL    HW122403   1.340   2.857   2.816
 7168SOL    HW222404   1.360   2.841   2.977
 7169SOL     OW22405   0.521   2.680   5.252
 7169SOL    HW122406   0.477   2.766   5.276
 7169SOL    HW222407   0.546   2.681   5.155
 7170SOL     OW22408   4.785   0.312   4.101
 7170SOL    HW122409   4.840   0.395   4.099
 7170SOL    HW222410   4.823   0.248   4.167
 7171SOL     OW22411   5.829   3.764   0.300
 7171SOL    HW122412   5.781   3.677   0.289
 7171SOL    HW222413   5.816   3.819   0.218
 7172SOL     OW22414   1.191   6.806   4.559
 7172SOL    HW122415   1.280   6.843   4.529
 7172SOL    HW222416   1.120   6.837   4.495
 7173SOL     OW22417   6.747   4.332   6.389
 7173SOL    HW122418   6.680   4.401   6.360
 7173SOL    HW222419   6.809   4.312   6.314
 7174SOL     OW22420   1.401   4.179   0.157
 7174SOL    HW122421   1.435   4.259   0.107
 7174SOL    HW222422   1.474   4.111   0.165
 7175SOL     OW22423   5.709   2.779   6.657
 7175SOL    HW122424   5.700   2.690   6.611
 7175SOL    HW222425   5.628   2.835   6.637
 7176SOL     OW22426   0.080   0.180   3.092
 7176SOL    HW122427   7.014   0.152   3.138
 7176SOL    HW222428   0.078   0.278   3.075
 7177SOL     OW22429   1.612   5.054   4.722
 7177SOL    HW122430   1.523   5.076   4.683
 7177SOL    HW222431   1.621   5.096   4.812
 7178SOL     OW22432   1.400   1.821   5.832
 7178SOL    HW122433   1.436   1.736   5.871
 7178SOL    HW222434   1.303   1.828   5.853
 7179SOL     OW22435   2.155   3.736   4.592
 7179SOL    HW122436   2.135   3.649   4.637
 7179SOL    HW222437   2.171   3.807   4.661
 7180SOL     OW22438   1.965   5.295   0.691
 7180SOL    HW122439   1.997   5.325   0.601
 7180SOL    HW222440   1.888   5.233   0.680
 7181SOL     OW22441   2.255   6.719   0.192
 7181SOL    HW122442   2.177   6.770   0.155
 7181SOL    HW222443   2.276   6.752   0.284
 7182SOL     OW22444   0.601   2.627   4.656
 7182SOL    HW122445   0.698   2.638   4.679
 7182SOL    HW222446   0.558   2.566   4.723
 7183SOL     OW22447   2.182   5.996   0.300
 7183SOL    HW122448   2.206   5.951   0.214
 7183SOL    HW222449   2.091   5.968   0.328
 7184SOL     OW22450   6.913   1.075   3.685
 7184SOL    HW122451   6.951   1.121   3.766
 7184SOL    HW222452   6.967   1.100   3.605
 7185SOL     OW22453   5.664   6.958   5.060
 7185SOL    HW122454   5.752   7.002   5.081
 7185SOL    HW222455   5.592   7.001   5.113
 7186SOL     OW22456   6.715   1.743   0.510
 7186SOL    HW122457   6.681   1.776   0.599
 7186SOL    HW222458   6.660   1.664   0.482
 7187SOL     OW22459   4.284   4.771   6.328
 7187SOL    HW122460   4.283   4.704   6.402
 7187SOL    HW222461   4.232   4.736   6.250
 7188SOL     OW22462   6.036   0.611   0.328
 7188SOL    HW122463   6.078   0.694   0.291
 7188SOL    HW222464   5.955   0.637   0.381
 7189SOL     OW22465   0.103   1.127   5.880
 7189SOL    HW122466   0.152   1.049   5.919
 7189SOL    HW222467   0.023   1.095   5.829
 7190SOL     OW22468   0.446   3.333   2.563
 7190SOL    HW122469   0.360   3.316   2.611
 7190SOL    HW222470   0.431   3.398   2.489
 7191SOL     OW22471   0.863   4.464   2.903
 7191SOL    HW122472   0.770   4.434   2.926
 7191SOL    HW222473   0.859   4.528   2.826
 7192SOL     OW22474   2.714   4.203   6.022
 7192SOL    HW122475   2.624   4.241   6.002
 7192SOL    HW222476   2.777   4.277   6.043
 7193SOL     OW22477   0.632   2.578   2.357
 7193SOL    HW122478   0.589   2.624   2.279
 7193SOL    HW222479   0.728   2.558   2.336
 7194SOL     OW22480   2.707   2.118   0.131
 7194SOL    HW122481   2.687   2.026   0.166
 7194SOL    HW222482   2.641   2.183   0.169
 7195SOL     OW22483   0.349   4.033   6.512
 7195SOL    HW122484   0.340   4.109   6.447
 7195SOL    HW222485   0.293   4.052   6.593
 7196SOL     OW22486   3.167   4.333   1.180
 7196SOL    HW122487   3.074   4.325   1.144
 7196SOL    HW222488   3.233   4.311   1.109
 7197SOL     OW22489   0.343   2.319   6.333
 7197SOL    HW122490   0.293   2.339   6.249
 7197SOL    HW222491   0.367   2.405   6.378
 7198SOL     OW22492   6.810   0.481   0.687
 7198SOL    HW122493   6.857   0.500   0.601
 7198SOL    HW222494   6.811   0.563   0.744
 7199SOL     OW22495   2.020   0.877   2.158
 7199SOL    HW122496   2.115   0.866   2.188
 7199SOL    HW222497   1.960   0.821   2.216
 7200SOL     OW22498   2.441   2.601   6.646
 7200SOL    HW122499   2.354   2.553   6.658
 7200SOL    HW222500   2.482   2.574   6.559
 7201SOL     OW22501   0.767   5.565   4.915
 7201SOL    HW122502   0.817   5.576   5.001
 7201SOL    HW222503   0.815   5.499   4.857
 7202SOL     OW22504   5.144   6.992   6.837
 7202SOL    HW122505   5.055   6.950   6.823
 7202SOL    HW222506   5.188   6.953   6.918
 7203SOL     OW22507   0.589   1.888   0.870
 7203SOL    HW122508   0.618   1.848   0.958
 7203SOL    HW222509   0.521   1.959   0.887
 7204SOL     OW22510   0.659   6.972   5.463
 7204SOL    HW122511   0.581   7.013   5.416
 7204SOL    HW222512   0.743   0.001   5.437
 7205SOL     OW22513   0.785   4.889   4.161
 7205SOL    HW122514   0.699   4.940   4.168
 7205SOL    HW222515   0.860   4.944   4.196
 7206SOL     OW22516   1.201   0.484   1.696
 7206SOL    HW122517   1.119   0.517   1.742
 7206SOL    HW222518   1.223   0.392   1.729
 7207SOL     OW22519   3.704   0.146   2.758
 7207SOL    HW122520   3.774   0.209   2.792
 7207SOL    HW222521   3.700   0.151   2.658
 7208SOL     OW22522   4.192   7.005   3.250
 7208SOL    HW122523   4.243   0.073   3.256
 7208SOL    HW222524   4.102   7.016   3.293
 7209SOL     OW22525   3.162   3.498   1.498
 7209SOL    HW122526   3.253   3.534   1.518
 7209SOL    HW222527   3.168   3.400   1.480
 7210SOL     OW22528   4.607   1.225   3.950
 7210SOL    HW122529   4.551   1.237   3.868
 7210SOL    HW222530   4.547   1.204   4.028
 7211SOL     OW22531   3.049   6.337   4.382
 7211SOL    HW122532   3.050   6.327   4.481
 7211SOL    HW222533   3.080   6.429   4.358
 7212SOL     OW22534   0.379   6.069   4.844
 7212SOL    HW122535   0.342   5.979   4.820
 7212SOL    HW222536   0.353   6.135   4.772
 7213SOL     OW22537   5.313   6.109   0.200
 7213SOL    HW122538   5.395   6.162   0.179
 7213SOL    HW222539   5.232   6.162   0.175
 7214SOL     OW22540   6.371   5.814   5.707
 7214SOL    HW122541   6.450   5.754   5.694
 7214SOL    HW222542   6.348   5.857   5.620
 7215SOL     OW22543   0.102   3.848   5.096
 7215SOL    HW122544   0.021   3.840   5.153
 7215SOL    HW222545   0.171   3.783   5.127
 7216SOL     OW22546   3.292   6.535   7.008
 7216SOL    HW122547   3.219   6.548   6.940
 7216SOL    HW222548   3.377   6.575   6.974
 7217SOL     OW22549   2.280   4.190   3.105
 7217SOL    HW122550   2.356   4.254   3.093
 7217SOL    HW222551   2.194   4.236   3.083
 7218SOL     OW22552   5.226   2.628   5.308
 7218SOL    HW122553   5.171   2.557   5.266
 7218SOL    HW222554   5.189   2.718   5.284
 7219SOL     OW22555   4.571   0.346   3.594
 7219SOL    HW122556   4.588   0.419   3.660
 7219SOL    HW222557   4.473   0.325   3.591
 7220SOL     OW22558   1.227   5.060   5.282
 7220SOL    HW122559   1.180   5.096   5.202
 7220SOL    HW222560   1.306   5.117   5.304
 7221SOL     OW22561   3.467   6.187   4.909
 7221SOL    HW122562   3.419   6.104   4.882
 7221SOL    HW222563   3.464   6.253   4.834
 7222SOL     OW22564   5.919   0.083   2.977
 7222SOL    HW122565   6.019   0.087   2.985
 7222SOL    HW222566   5.879   0.072   3.068
 7223SOL     OW22567   2.786   1.044   1.085
 7223SOL    HW122568   2.846   1.065   1.162
 7223SOL    HW222569   2.730   1.124   1.063
 7224SOL     OW22570   5.697   1.659   3.740
 7224SOL    HW122571   5.722   1.658   3.643
 7224SOL    HW222572   5.776   1.687   3.794
 7225SOL     OW22573   1.172   5.440   0.441
 7225SOL    HW122574   1.189   5.384   0.360
 7225SOL    HW222575   1.231   5.521   0.439
 7226SOL     OW22576   6.693   1.316   0.981
 7226SOL    HW122577   6.602   1.357   0.982
 7226SOL    HW222578   6.733   1.321   1.073
 7227SOL     OW22579   1.445   1.520   1.004
 7227SOL    HW122580   1.450   1.423   0.980
 7227SOL    HW222581   1.461   1.531   1.102
 7228SOL     OW22582   1.103   1.945   2.791
 7228SOL    HW122583   1.155   1.997   2.859
 7228SOL    HW222584   1.027   2.000   2.757
 7229SOL     OW22585   1.312   6.151   5.918
 7229SOL    HW122586   1.297   6.072   5.858
 7229SOL    HW222587   1.379   6.127   5.988
 7230SOL     OW22588   3.879   5.217   4.566
 7230SOL    HW122589   3.822   5.138   4.588
 7230SOL    HW222590   3.872   5.237   4.468
 7231SOL     OW22591   4.377   0.888   0.021
 7231SOL    HW122592   4.335   0.938   6.963
 7231SOL    HW222593   4.450   0.829   7.005
 7232SOL     OW22594   5.252   6.010   3.243
 7232SOL    HW122595   5.295   5.927   3.279
 7232SOL    HW222596   5.153   6.007   3.260
 7233SOL     OW22597   0.232   1.522   4.120
 7233SOL    HW122598   0.291   1.576   4.061
 7233SOL    HW222599   0.217   1.571   4.206
 7234SOL     OW22600   5.779   3.236   3.425
 7234SOL    HW122601   5.840   3.169   3.384
 7234SOL    HW222602   5.795   3.241   3.523
 7235SOL     OW22603   6.676   4.328   2.058
 7235SOL    HW122604   6.695   4.285   1.969
 7235SOL    HW222605   6.619   4.408   2.045
 7236SOL     OW22606   2.141   1.832   1.221
 7236SOL    HW122607   2.098   1.747   1.252
 7236SOL    HW222608   2.074   1.905   1.218
 7237SOL     OW22609   4.158   1.047   4.728
 7237SOL    HW122610   4.253   1.025   4.751
 7237SOL    HW222611   4.156   1.103   4.645
 7238SOL     OW22612   3.698   1.789   1.056
 7238SOL    HW122613   3.672   1.729   0.981
 7238SOL    HW222614   3.780   1.753   1.102
 7239SOL     OW22615   1.265   2.437   2.702
 7239SOL    HW122616   1.251   2.362   2.638
 7239SOL    HW222617   1.364   2.452   2.715
 7240SOL     OW22618   1.610   5.832   6.024
 7240SOL    HW122619   1.707   5.810   6.036
 7240SOL    HW222620   1.590   5.919   6.068
 7241SOL     OW22621   1.724   1.030   0.416
 7241SOL    HW122622   1.705   0.936   0.389
 7241SOL    HW222623   1.796   1.031   0.485
 7242SOL     OW22624   6.581   6.012   0.463
 7242SOL    HW122625   6.503   5.959   0.498
 7242SOL    HW222626   6.596   5.989   0.367
 7243SOL     OW22627   6.420   4.607   6.123
 7243SOL    HW122628   6.360   4.660   6.064
 7243SOL    HW222629   6.369   4.532   6.165
 7244SOL     OW22630   6.082   1.784   1.997
 7244SOL    HW122631   6.069   1.817   1.904
 7244SOL    HW222632   6.089   1.863   2.059
 7245SOL     OW22633   1.211   1.774   4.545
 7245SOL    HW122634   1.209   1.693   4.604
 7245SOL    HW222635   1.122   1.820   4.548
 7246SOL     OW22636   6.529   0.328   4.574
 7246SOL    HW122637   6.605   0.268   4.599
 7246SOL    HW222638   6.522   0.402   4.641
 7247SOL     OW22639   2.740   0.140   4.427
 7247SOL    HW122640   2.647   0.148   4.463
 7247SOL    HW222641   2.740   0.158   4.329
 7248SOL     OW22642   2.203   1.430   3.577
 7248SOL    HW122643   2.282   1.488   3.557
 7248SOL    HW222644   2.135   1.440   3.505
 7249SOL     OW22645   6.738   4.358   2.596
 7249SOL    HW122646   6.800   4.437   2.600
 7249SOL    HW222647   6.709   4.344   2.502
 7250SOL     OW22648   4.548   0.060   6.346
 7250SOL    HW122649   4.546   0.141   6.287
 7250SOL    HW222650   4.642   0.044   6.377
 7251SOL     OW22651   0.391   6.588   5.696
 7251SOL    HW122652   0.387   6.686   5.674
 7251SOL    HW222653   0.461   6.544   5.640
 7252SOL     OW22654   3.571   3.440   2.793
 7252SOL    HW122655   3.585   3.472   2.887
 7252SOL    HW222656   3.495   3.375   2.792
 7253SOL     OW22657   2.581   6.925   5.995
 7253SOL    HW122658   2.497   6.928   6.050
 7253SOL    HW222659   2.556   6.926   5.898
 7254SOL     OW22660   4.462   5.030   3.620
 7254SOL    HW122661   4.375   5.004   3.580
 7254SOL    HW222662   4.484   4.968   3.696
 7255SOL     OW22663   3.435   3.212   0.685
 7255SOL    HW122664   3.450   3.290   0.745
 7255SOL    HW222665   3.368   3.235   0.615
 7256SOL     OW22666   4.193   4.923   4.054
 7256SOL    HW122667   4.156   5.016   4.059
 7256SOL    HW222668   4.250   4.905   4.135
 7257SOL     OW22669   5.552   3.156   3.878
 7257SOL    HW122670   5.614   3.083   3.905
 7257SOL    HW222671   5.459   3.120   3.871
 7258SOL     OW22672   4.068   1.695   3.487
 7258SOL    HW122673   3.976   1.656   3.497
 7258SOL    HW222674   4.073   1.745   3.400
 7259SOL     OW22675   2.704   3.413   0.877
 7259SOL    HW122676   2.609   3.411   0.844
 7259SOL    HW222677   2.745   3.323   0.865
 7260SOL     OW22678   3.578   1.880   1.799
 7260SOL    HW122679   3.602   1.878   1.896
 7260SOL    HW222680   3.606   1.967   1.760
 7261SOL     OW22681   1.418   2.742   1.518
 7261SOL    HW122682   1.402   2.676   1.591
 7261SOL    HW222683   1.479   2.814   1.550
 7262SOL     OW22684   5.336   1.421   5.564
 7262SOL    HW122685   5.368   1.480   5.638
 7262SOL    HW222686   5.404   1.350   5.547
 7263SOL     OW22687   1.102   6.794   1.010
 7263SOL    HW122688   1.006   6.821   1.020
 7263SOL    HW222689   1.106   6.702   0.970
 7264SOL     OW22690   5.294   1.101   6.206
 7264SOL    HW122691   5.392   1.113   6.192
 7264SOL    HW222692   5.269   1.006   6.186
 7265SOL     OW22693   5.462   5.283   5.847
 7265SOL    HW122694   5.544   5.258   5.898
 7265SOL    HW222695   5.471   5.377   5.814
 7266SOL     OW22696   5.792   0.176   1.354
 7266SOL    HW122697   5.813   0.141   1.263
 7266SOL    HW222698   5.759   0.270   1.347
 7267SOL     OW22699   6.312   5.850   5.208
 7267SOL    HW122700   6.251   5.770   5.208
 7267SOL    HW222701   6.325   5.881   5.302
 7268SOL     OW22702   5.343   4.966   3.103
 7268SOL    HW122703   5.318   4.927   3.192
 7268SOL    HW222704   5.431   5.013   3.112
 7269SOL     OW22705   0.297   6.254   0.794
 7269SOL    HW122706   0.397   6.263   0.786
 7269SOL    HW222707   0.253   6.327   0.742
 7270SOL     OW22708   0.999   3.487   5.099
 7270SOL    HW122709   1.061   3.452   5.169
 7270SOL    HW222710   0.913   3.435   5.102
 7271SOL     OW22711   0.083   6.092   3.514
 7271SOL    HW122712   0.099   6.076   3.417
 7271SOL    HW222713   0.171   6.094   3.562
 7272SOL     OW22714   5.439   5.232   2.186
 7272SOL    HW122715   5.348   5.233   2.227
 7272SOL    HW222716   5.492   5.156   2.224
 7273SOL     OW22717   5.526   3.974   1.548
 7273SOL    HW122718   5.593   4.005   1.616
 7273SOL    HW222719   5.439   4.020   1.564
 7274SOL     OW22720   0.835   5.704   6.878
 7274SOL    HW122721   0.846   5.628   6.942
 7274SOL    HW222722   0.774   5.676   6.804
 7275SOL     OW22723   6.857   0.216   2.914
 7275SOL    HW122724   6.872   0.303   2.961
 7275SOL    HW222725   6.830   0.146   2.981
 7276SOL     OW22726   3.686   1.707   2.616
 7276SOL    HW122727   3.605   1.651   2.600
 7276SOL    HW222728   3.667   1.774   2.687
 7277SOL     OW22729   4.430   1.157   4.135
 7277SOL    HW122730   4.343   1.117   4.105
 7277SOL    HW222731   4.416   1.206   4.221
 7278SOL     OW22732   3.410   2.137   1.499
 7278SOL    HW122733   3.383   2.171   1.589
 7278SOL    HW222734   3.510   2.135   1.494
 7279SOL     OW22735   4.439   3.410   6.259
 7279SOL    HW122736   4.476   3.342   6.322
 7279SOL    HW222737   4.368   3.463   6.305
 7280SOL     OW22738   0.037   1.419   3.935
 7280SOL    HW122739   6.969   1.447   3.978
 7280SOL    HW222740   0.114   1.459   3.985
 7281SOL     OW22741   1.706   0.765   0.333
 7281SOL    HW122742   1.621   0.726   0.370
 7281SOL    HW222743   1.699   0.772   0.234
 7282SOL     OW22744   5.804   6.707   1.523
 7282SOL    HW122745   5.827   6.714   1.426
 7282SOL    HW222746   5.823   6.614   1.554
 7283SOL     OW22747   3.475   0.436   1.580
 7283SOL    HW122748   3.491   0.530   1.550
 7283SOL    HW222749   3.397   0.433   1.642
 7284SOL     OW22750   6.883   2.007   5.305
 7284SOL    HW122751   6.937   1.937   5.353
 7284SOL    HW222752   6.786   1.986   5.315
 7285SOL     OW22753   5.651   3.514   1.511
 7285SOL    HW122754   5.634   3.417   1.525
 7285SOL    HW222755   5.697   3.529   1.424
 7286SOL     OW22756   1.178   0.811   1.040
 7286SOL    HW122757   1.109   0.783   0.972
 7286SOL    HW222758   1.265   0.768   1.018
 7287SOL     OW22759   6.642   2.748   4.889
 7287SOL    HW122760   6.559   2.803   4.875
 7287SOL    HW222761   6.625   2.654   4.859
 7288SOL     OW22762   1.304   2.065   1.284
 7288SOL    HW122763   1.309   2.141   1.349
 7288SOL    HW222764   1.229   2.079   1.221
 7289SOL     OW22765   5.847   2.011   3.617
 7289SOL    HW122766   5.867   1.979   3.524
 7289SOL    HW222767   5.927   1.998   3.675
 7290SOL     OW22768   2.428   1.114   5.047
 7290SOL    HW122769   2.520   1.079   5.027
 7290SOL    HW222770   2.435   1.195   5.105
 7291SOL     OW22771   1.971   6.756   0.396
 7291SOL    HW122772   1.984   6.745   0.495
 7291SOL    HW222773   1.988   6.852   0.371
 7292SOL     OW22774   3.084   0.088   2.913
 7292SOL    HW122775   3.149   0.107   2.839
 7292SOL    HW222776   2.991   0.106   2.882
 7293SOL     OW22777   1.111   1.752   5.772
 7293SOL    HW122778   1.011   1.753   5.769
 7293SOL    HW222779   1.146   1.738   5.679
 7294SOL     OW22780   3.096   4.684   0.760
 7294SOL    HW122781   3.111   4.782   0.766
 7294SOL    HW222782   3.040   4.663   0.680
 7295SOL     OW22783   6.824   4.274   0.667
 7295SOL    HW122784   6.900   4.335   0.687
 7295SOL    HW222785   6.854   4.179   0.675
 7296SOL     OW22786   4.321   5.534   1.622
 7296SOL    HW122787   4.257   5.541   1.546
 7296SOL    HW222788   4.315   5.616   1.679
 7297SOL     OW22789   2.748   6.615   1.147
 7297SOL    HW122790   2.709   6.667   1.223
 7297SOL    HW222791   2.723   6.659   1.060
 7298SOL     OW22792   4.791   5.009   6.257
 7298SOL    HW122793   4.848   5.021   6.176
 7298SOL    HW222794   4.846   5.023   6.340
 7299SOL     OW22795   1.107   2.162   1.114
 7299SOL    HW122796   1.168   2.192   1.041
 7299SOL    HW222797   1.025   2.119   1.075
 7300SOL     OW22798   0.758   6.768   2.265
 7300SOL    HW122799   0.701   6.850   2.261
 7300SOL    HW222800   0.852   6.795   2.288
 7301SOL     OW22801   5.743   2.517   5.195
 7301SOL    HW122802   5.659   2.546   5.241
 7301SOL    HW222803   5.822   2.551   5.247
 7302SOL     OW22804   0.114   2.091   6.299
 7302SOL    HW122805   0.079   2.180   6.327
 7302SOL    HW222806   0.082   2.070   6.207
 7303SOL     OW22807   3.779   1.251   6.447
 7303SOL    HW122808   3.748   1.321   6.383
 7303SOL    HW222809   3.762   1.282   6.541
 7304SOL     OW22810   3.067   5.366   1.462
 7304SOL    HW122811   3.014   5.318   1.531
 7304SOL    HW222812   3.156   5.392   1.500
 7305SOL     OW22813   5.023   2.373   1.157
 7305SOL    HW122814   4.929   2.391   1.130
 7305SOL    HW222815   5.083   2.443   1.118
 7306SOL     OW22816   3.799   1.477   1.577
 7306SOL    HW122817   3.759   1.412   1.513
 7306SOL    HW222818   3.745   1.561   1.579
 7307SOL     OW22819   3.933   6.653   2.391
 7307SOL    HW122820   3.838   6.657   2.422
 7307SOL    HW222821   3.935   6.662   2.291
 7308SOL     OW22822   6.378   1.639   4.410
 7308SOL    HW122823   6.290   1.668   4.372
 7308SOL    HW222824   6.385   1.539   4.405
 7309SOL     OW22825   4.161   6.064   1.344
 7309SOL    HW122826   4.140   6.111   1.258
 7309SOL    HW222827   4.081   6.067   1.404
 7310SOL     OW22828   2.153   3.423   0.462
 7310SOL    HW122829   2.245   3.412   0.501
 7310SOL    HW222830   2.096   3.474   0.526
 7311SOL     OW22831   1.912   1.053   0.611
 7311SOL    HW122832   1.915   1.131   0.673
 7311SOL    HW222833   1.976   0.983   0.642
 7312SOL     OW22834   0.953   2.676   5.013
 7312SOL    HW122835   0.993   2.751   4.961
 7312SOL    HW222836   0.856   2.694   5.029
 7313SOL     OW22837   2.073   1.241   0.396
 7313SOL    HW122838   2.043   1.145   0.396
 7313SOL    HW222839   2.123   1.260   0.480
 7314SOL     OW22840   6.820   4.057   5.734
 7314SOL    HW122841   6.845   4.061   5.637
 7314SOL    HW222842   6.879   3.991   5.781
 7315SOL     OW22843   5.022   6.049   1.831
 7315SOL    HW122844   4.925   6.062   1.810
 7315SOL    HW222845   5.065   5.992   1.760
 7316SOL     OW22846   3.014   2.827   6.775
 7316SOL    HW122847   3.026   2.729   6.756
 7316SOL    HW222848   2.927   2.857   6.736
 7317SOL     OW22849   3.736   1.271   1.858
 7317SOL    HW122850   3.640   1.300   1.857
 7317SOL    HW222851   3.748   1.192   1.798
 7318SOL     OW22852   3.170   0.296   2.077
 7318SOL    HW122853   3.162   0.385   2.120
 7318SOL    HW222854   3.081   0.250   2.080
 7319SOL     OW22855   5.625   2.970   0.209
 7319SOL    HW122856   5.535   3.012   0.194
 7319SOL    HW222857   5.645   2.907   0.135
 7320SOL     OW22858   0.286   3.960   1.100
 7320SOL    HW122859   0.340   4.004   1.172
 7320SOL    HW222860   0.196   3.936   1.137
 7321SOL     OW22861   2.334   6.625   5.459
 7321SOL    HW122862   2.398   6.693   5.424
 7321SOL    HW222863   2.242   6.643   5.424
 7322SOL     OW22864   0.144   2.380   3.375
 7322SOL    HW122865   0.216   2.366   3.443
 7322SOL    HW222866   0.056   2.387   3.421
 7323SOL     OW22867   2.066   3.025   1.648
 7323SOL    HW122868   2.037   2.997   1.557
 7323SOL    HW222869   1.985   3.030   1.708
 7324SOL     OW22870   5.829   4.565   2.032
 7324SOL    HW122871   5.867   4.547   1.941
 7324SOL    HW222872   5.901   4.602   2.091
 7325SOL     OW22873   2.892   0.666   5.783
 7325SOL    HW122874   2.904   0.569   5.764
 7325SOL    HW222875   2.857   0.712   5.701
 7326SOL     OW22876   3.850   6.040   5.608
 7326SOL    HW122877   3.934   6.054   5.660
 7326SOL    HW222878   3.801   6.126   5.599
 7327SOL     OW22879   6.239   3.130   5.056
 7327SOL    HW122880   6.225   3.108   4.960
 7327SOL    HW222881   6.229   3.046   5.111
 7328SOL     OW22882   4.409   0.033   5.955
 7328SOL    HW122883   4.333   0.041   6.020
 7328SOL    HW222884   4.465   6.971   5.979
 7329SOL     OW22885   0.929   3.932   0.544
 7329SOL    HW122886   0.852   3.989   0.572
 7329SOL    HW222887   0.994   3.924   0.620
 7330SOL     OW22888   2.434   3.242   0.339
 7330SOL    HW122889   2.421   3.317   0.404
 7330SOL    HW222890   2.496   3.175   0.379
 7331SOL     OW22891   5.664   6.083   1.500
 7331SOL    HW122892   5.624   6.047   1.585
 7331SOL    HW222893   5.629   6.175   1.483
 7332SOL     OW22894   3.012   4.282   6.723
 7332SOL    HW122895   2.943   4.280   6.795
 7332SOL    HW222896   2.968   4.272   6.634
 7333SOL     OW22897   6.353   3.008   3.233
 7333SOL    HW122898   6.318   2.963   3.151
 7333SOL    HW222899   6.428   2.954   3.272
 7334SOL     OW22900   2.105   6.183   6.398
 7334SOL    HW122901   2.105   6.202   6.300
 7334SOL    HW222902   2.139   6.090   6.414
 7335SOL     OW22903   0.205   2.918   2.946
 7335SOL    HW122904   0.120   2.871   2.968
 7335SOL    HW222905   0.193   2.974   2.864
 7336SOL     OW22906   2.381   6.476   1.990
 7336SOL    HW122907   2.419   6.541   2.055
 7336SOL    HW222908   2.402   6.383   2.019
 7337SOL     OW22909   2.073   2.793   1.848
 7337SOL    HW122910   2.117   2.825   1.764
 7337SOL    HW222911   2.030   2.871   1.894
 7338SOL     OW22912   5.458   2.017   1.827
 7338SOL    HW122913   5.514   1.934   1.834
 7338SOL    HW222914   5.466   2.054   1.735
 7339SOL     OW22915   6.166   0.371   5.281
 7339SOL    HW122916   6.111   0.453   5.295
 7339SOL    HW222917   6.150   0.308   5.357
 7340SOL     OW22918   4.012   1.329   0.006
 7340SOL    HW122919   4.061   1.243   7.013
 7340SOL    HW222920   3.929   1.315   0.060
 7341SOL     OW22921   0.690   4.757   4.557
 7341SOL    HW122922   0.696   4.659   4.537
 7341SOL    HW222923   0.712   4.773   4.653
 7342SOL     OW22924   0.058   6.611   0.105
 7342SOL    HW122925   0.001   6.689   0.130
 7342SOL    HW222926   0.047   6.539   0.174
 7343SOL     OW22927   5.204   4.430   1.360
 7343SOL    HW122928   5.257   4.354   1.324
 7343SOL    HW222929   5.151   4.400   1.439
 7344SOL     OW22930   1.630   0.743   5.672
 7344SOL    HW122931   1.678   0.656   5.678
 7344SOL    HW222932   1.617   0.768   5.576
 7345SOL     OW22933   4.773   6.475   5.462
 7345SOL    HW122934   4.844   6.545   5.466
 7345SOL    HW222935   4.772   6.434   5.371
 7346SOL     OW22936   3.907   4.117   1.285
 7346SOL    HW122937   3.950   4.203   1.257
 7346SOL    HW222938   3.819   4.107   1.238
 7347SOL     OW22939   0.562   2.971   0.937
 7347SOL    HW122940   0.659   2.993   0.950
 7347SOL    HW222941   0.520   2.953   1.026
 7348SOL     OW22942   1.401   3.295   3.500
 7348SOL    HW122943   1.469   3.224   3.518
 7348SOL    HW222944   1.404   3.364   3.572
 7349SOL     OW22945   4.340   2.119   0.676
 7349SOL    HW122946   4.273   2.139   0.604
 7349SOL    HW222947   4.397   2.042   0.648
 7350SOL     OW22948   1.514   3.291   5.188
 7350SOL    HW122949   1.529   3.375   5.135
 7350SOL    HW222950   1.584   3.224   5.164
 7351SOL     OW22951   4.704   6.287   5.254
 7351SOL    HW122952   4.683   6.278   5.157
 7351SOL    HW222953   4.734   6.198   5.289
 7352SOL     OW22954   1.742   3.156   2.871
 7352SOL    HW122955   1.652   3.143   2.828
 7352SOL    HW222956   1.793   3.226   2.821
 7353SOL     OW22957   0.476   6.983   6.189
 7353SOL    HW122958   0.465   0.024   6.270
 7353SOL    HW222959   0.573   6.975   6.166
 7354SOL     OW22960   1.059   1.954   0.007
 7354SOL    HW122961   0.987   1.909   0.060
 7354SOL    HW222962   1.147   1.938   0.051
 7355SOL     OW22963   1.270   1.434   0.425
 7355SOL    HW122964   1.278   1.525   0.467
 7355SOL    HW222965   1.359   1.406   0.390
 7356SOL     OW22966   4.328   3.401   5.821
 7356SOL    HW122967   4.355   3.450   5.904
 7356SOL    HW222968   4.292   3.311   5.845
 7357SOL     OW22969   4.535   0.581   2.071
 7357SOL    HW122970   4.505   0.491   2.039
 7357SOL    HW222971   4.575   0.631   1.994
 7358SOL     OW22972   0.458   2.833   2.450
 7358SOL    HW122973   0.487   2.862   2.359
 7358SOL    HW222974   0.536   2.836   2.513
 7359SOL     OW22975   2.661   2.983   6.238
 7359SOL    HW122976   2.599   2.941   6.305
 7359SOL    HW222977   2.743   3.016   6.285
 7360SOL     OW22978   3.481   3.969   6.106
 7360SOL    HW122979   3.408   3.964   6.175
 7360SOL    HW222980   3.441   3.983   6.016
 7361SOL     OW22981   4.482   0.619   2.353
 7361SOL    HW122982   4.506   0.612   2.256
 7361SOL    HW222983   4.547   0.680   2.399
 7362SOL     OW22984   1.169   5.724   4.819
 7362SOL    HW122985   1.156   5.702   4.722
 7362SOL    HW222986   1.104   5.795   4.846
 7363SOL     OW22987   3.905   1.429   1.216
 7363SOL    HW122988   3.944   1.348   1.172
 7363SOL    HW222989   3.806   1.415   1.229
 7364SOL     OW22990   4.724   0.518   1.136
 7364SOL    HW122991   4.625   0.511   1.139
 7364SOL    HW222992   4.753   0.608   1.169
 7365SOL     OW22993   1.626   6.907   1.613
 7365SOL    HW122994   1.714   6.915   1.566
 7365SOL    HW222995   1.552   6.933   1.550
 7366SOL     OW22996   2.086   5.663   6.982
 7366SOL    HW122997   2.107   5.575   0.007
 7366SOL    HW222998   2.164   5.725   6.994
 7367SOL     OW22999   4.653   3.549   1.525
 7367SOL    HW123000   4.641   3.454   1.555
 7367SOL    HW223001   4.621   3.611   1.596
 7368SOL     OW23002   3.864   2.980   3.750
 7368SOL    HW123003   3.790   2.978   3.817
 7368SOL    HW223004   3.919   3.063   3.763
 7369SOL     OW23005   4.288   2.859   6.945
 7369SOL    HW123006   4.322   2.892   0.015
 7369SOL    HW223007   4.343   2.781   6.915
 7370SOL     OW23008   2.873   0.640   5.074
 7370SOL    HW123009   2.913   0.729   5.093
 7370SOL    HW223010   2.848   0.635   4.977
 7371SOL     OW23011   1.860   5.946   3.721
 7371SOL    HW123012   1.905   6.024   3.679
 7371SOL    HW223013   1.823   5.886   3.649
 7372SOL     OW23014   3.540   1.527   5.475
 7372SOL    HW123015   3.525   1.624   5.497
 7372SOL    HW223016   3.627   1.517   5.428
 7373SOL     OW23017   5.471   1.278   4.271
 7373SOL    HW123018   5.558   1.312   4.306
 7373SOL    HW223019   5.450   1.323   4.184
 7374SOL     OW23020   2.799   1.751   5.962
 7374SOL    HW123021   2.831   1.845   5.972
 7374SOL    HW223022   2.823   1.716   5.872
 7375SOL     OW23023   2.131   3.000   2.764
 7375SOL    HW123024   2.186   3.054   2.829
 7375SOL    HW223025   2.125   2.906   2.797
 7376SOL     OW23026   3.542   1.544   0.214
 7376SOL    HW123027   3.489   1.463   0.190
 7376SOL    HW223028   3.612   1.519   0.281
 7377SOL     OW23029   5.353   5.362   1.198
 7377SOL    HW123030   5.380   5.310   1.279
 7377SOL    HW223031   5.398   5.452   1.200
 7378SOL     OW23032   0.662   0.982   5.487
 7378SOL    HW123033   0.672   0.950   5.581
 7378SOL    HW223034   0.641   1.079   5.486
 7379SOL     OW23035   3.022   2.188   2.613
 7379SOL    HW123036   3.020   2.161   2.709
 7379SOL    HW223037   2.958   2.263   2.597
 7380SOL     OW23038   0.309   3.083   5.643
 7380SOL    HW123039   0.269   2.997   5.610
 7380SOL    HW223040   0.409   3.072   5.650
 7381SOL     OW23041   4.757   3.942   1.718
 7381SOL    HW123042   4.761   4.017   1.784
 7381SOL    HW223043   4.849   3.924   1.683
 7382SOL     OW23044   6.914   5.492   6.484
 7382SOL    HW123045   6.856   5.458   6.410
 7382SOL    HW223046   6.862   5.498   6.569
 7383SOL     OW23047   1.104   6.744   1.267
 7383SOL    HW123048   1.102   6.839   1.299
 7383SOL    HW223049   1.105   6.743   1.167
 7384SOL     OW23050   5.610   0.557   2.869
 7384SOL    HW123051   5.632   0.505   2.787
 7384SOL    HW223052   5.669   0.527   2.944
 7385SOL     OW23053   4.399   5.970   1.878
 7385SOL    HW123054   4.362   5.901   1.940
 7385SOL    HW223055   4.489   5.999   1.910
 7386SOL     OW23056   0.976   2.045   5.764
 7386SOL    HW123057   1.057   2.089   5.726
 7386SOL    HW223058   0.954   1.964   5.710
 7387SOL     OW23059   4.618   6.162   4.095
 7387SOL    HW123060   4.635   6.258   4.118
 7387SOL    HW223061   4.532   6.133   4.137
 7388SOL     OW23062   0.223   4.703   3.148
 7388SOL    HW123063   0.170   4.771   3.097
 7388SOL    HW223064   0.226   4.618   3.096
 7389SOL     OW23065   0.610   3.315   6.355
 7389SOL    HW123066   0.667   3.313   6.273
 7389SOL    HW223067   0.667   3.328   6.435
 7390SOL     OW23068   2.053   1.588   6.957
 7390SOL    HW123069   1.988   1.563   6.886
 7390SOL    HW223070   2.122   1.516   6.966
 7391SOL     OW23071   4.517   4.212   5.344
 7391SOL    HW123072   4.500   4.240   5.250
 7391SOL    HW223073   4.602   4.159   5.348
 7392SOL     OW23074   2.564   6.237   6.792
 7392SOL    HW123075   2.537   6.150   6.833
 7392SOL    HW223076   2.603   6.221   6.702
 7393SOL     OW23077   5.343   4.749   1.335
 7393SOL    HW123078   5.340   4.674   1.401
 7393SOL    HW223079   5.437   4.784   1.329
 7394SOL     OW23080   3.078   2.766   5.851
 7394SOL    HW123081   3.006   2.826   5.885
 7394SOL    HW223082   3.090   2.780   5.753
 7395SOL     OW23083   2.307   1.765   0.165
 7395SOL    HW123084   2.276   1.679   0.207
 7395SOL    HW223085   2.279   1.842   0.223
 7396SOL     OW23086   1.036   6.415   0.409
 7396SOL    HW123087   1.014   6.322   0.440
 7396SOL    HW223088   0.970   6.443   0.340
 7397SOL     OW23089   4.213   5.096   4.786
 7397SOL    HW123090   4.155   5.015   4.791
 7397SOL    HW223091   4.238   5.114   4.691
 7398SOL     OW23092   2.189   5.072   4.545
 7398SOL    HW123093   2.133   5.092   4.626
 7398SOL    HW223094   2.216   4.976   4.547
 7399SOL     OW23095   1.077   2.460   5.573
 7399SOL    HW123096   1.035   2.542   5.613
 7399SOL    HW223097   1.016   2.422   5.504
 7400SOL     OW23098   3.676   3.380   5.793
 7400SOL    HW123099   3.751   3.361   5.856
 7400SOL    HW223100   3.593   3.401   5.846
 7401SOL     OW23101   1.541   0.513   4.598
 7401SOL    HW123102   1.489   0.501   4.514
 7401SOL    HW223103   1.520   0.439   4.662
 7402SOL     OW23104   3.168   5.719   6.336
 7402SOL    HW123105   3.264   5.747   6.338
 7402SOL    HW223106   3.118   5.776   6.271
 7403SOL     OW23107   2.205   3.976   2.582
 7403SOL    HW123108   2.193   4.027   2.667
 7403SOL    HW223109   2.288   3.921   2.588
 7404SOL     OW23110   2.480   5.070   1.160
 7404SOL    HW123111   2.425   5.114   1.231
 7404SOL    HW223112   2.422   5.010   1.105
 7405SOL     OW23113   3.742   4.926   4.108
 7405SOL    HW123114   3.765   5.010   4.059
 7405SOL    HW223115   3.653   4.938   4.154
 7406SOL     OW23116   0.729   3.053   3.193
 7406SOL    HW123117   0.735   3.019   3.287
 7406SOL    HW223118   0.747   3.152   3.192
 7407SOL     OW23119   0.160   6.199   4.972
 7407SOL    HW123120   0.233   6.142   4.934
 7407SOL    HW223121   0.097   6.142   5.025
 7408SOL     OW23122   1.974   4.207   6.474
 7408SOL    HW123123   1.968   4.170   6.567
 7408SOL    HW223124   2.035   4.149   6.419
 7409SOL     OW23125   0.575   1.420   6.287
 7409SOL    HW123126   0.649   1.404   6.222
 7409SOL    HW223127   0.561   1.518   6.299
 7410SOL     OW23128   0.065   5.644   0.943
 7410SOL    HW123129   0.033   5.639   0.849
 7410SOL    HW223130   0.030   5.565   0.995
 7411SOL     OW23131   2.709   0.175   4.156
 7411SOL    HW123132   2.634   0.139   4.100
 7411SOL    HW223133   2.708   0.275   4.151
 7412SOL     OW23134   4.783   0.784   2.335
 7412SOL    HW123135   4.866   0.838   2.348
 7412SOL    HW223136   4.736   0.773   2.423
 7413SOL     OW23137   5.057   5.947   4.691
 7413SOL    HW123138   5.134   5.900   4.734
 7413SOL    HW223139   5.030   6.026   4.747
 7414SOL     OW23140   0.642   0.390   3.729
 7414SOL    HW123141   0.591   0.308   3.702
 7414SOL    HW223142   0.644   0.454   3.653
 7415SOL     OW23143   1.564   3.802   4.063
 7415SOL    HW123144   1.485   3.748   4.093
 7415SOL    HW223145   1.637   3.740   4.033
 7416SOL     OW23146   2.668   1.243   3.986
 7416SOL    HW123147   2.687   1.172   3.919
 7416SOL    HW223148   2.732   1.319   3.974
 7417SOL     OW23149   2.163   0.852   6.411
 7417SOL    HW123150   2.064   0.871   6.413
 7417SOL    HW223151   2.178   0.755   6.393
 7418SOL     OW23152   3.260   5.597   0.993
 7418SOL    HW123153   3.214   5.681   1.023
 7418SOL    HW223154   3.347   5.620   0.950
 7419SOL     OW23155   5.560   2.970   4.955
 7419SOL    HW123156   5.499   2.976   5.035
 7419SOL    HW223157   5.550   2.881   4.912
 7420SOL     OW23158   0.813   6.998   2.022
 7420SOL    HW123159   0.819   6.904   1.989
 7420SOL    HW223160   0.779   6.999   2.116
 7421SOL     OW23161   3.483   3.393   0.878
 7421SOL    HW123162   3.514   3.484   0.850
 7421SOL    HW223163   3.396   3.402   0.927
 7422SOL     OW23164   0.230   2.649   2.763
 7422SOL    HW123165   0.276   2.670   2.849
 7422SOL    HW223166   0.136   2.685   2.765
 7423SOL     OW23167   6.410   4.855   5.464
 7423SOL    HW123168   6.461   4.771   5.446
 7423SOL    HW223169   6.461   4.934   5.429
 7424SOL     OW23170   6.900   0.243   5.188
 7424SOL    HW123171   6.832   0.300   5.142
 7424SOL    HW223172   6.890   0.149   5.158
 7425SOL     OW23173   4.633   5.353   6.146
 7425SOL    HW123174   4.548   5.399   6.171
 7425SOL    HW223175   4.703   5.422   6.126
 7426SOL     OW23176   2.121   0.857   5.811
 7426SOL    HW123177   2.064   0.936   5.786
 7426SOL    HW223178   2.068   0.773   5.800
 7427SOL     OW23179   3.338   6.928   4.017
 7427SOL    HW123180   3.353   7.011   4.072
 7427SOL    HW223181   3.426   6.895   3.983
 7428SOL     OW23182   4.365   1.177   6.263
 7428SOL    HW123183   4.390   1.215   6.174
 7428SOL    HW223184   4.265   1.174   6.270
 7429SOL     OW23185   6.553   6.480   2.870
 7429SOL    HW123186   6.485   6.411   2.846
 7429SOL    HW223187   6.527   6.526   2.955
 7430SOL     OW23188   0.891   3.810   6.926
 7430SOL    HW123189   0.830   3.873   6.974
 7430SOL    HW223190   0.907   3.843   6.833
 7431SOL     OW23191   0.425   3.083   2.933
 7431SOL    HW123192   0.356   3.041   2.991
 7431SOL    HW223193   0.380   3.133   2.858
 7432SOL     OW23194   0.338   0.118   2.977
 7432SOL    HW123195   0.246   0.137   3.011
 7432SOL    HW223196   0.395   0.200   2.989
 7433SOL     OW23197   4.937   5.027   6.480
 7433SOL    HW123198   4.922   5.029   6.579
 7433SOL    HW223199   5.006   5.095   6.455
 7434SOL     OW23200   5.562   0.452   5.690
 7434SOL    HW123201   5.575   0.433   5.787
 7434SOL    HW223202   5.641   0.504   5.656
 7435SOL     OW23203   3.661   5.911   0.391
 7435SOL    HW123204   3.628   5.825   0.353
 7435SOL    HW223205   3.632   5.987   0.332
 7436SOL     OW23206   5.681   3.573   7.010
 7436SOL    HW123207   5.669   3.532   0.083
 7436SOL    HW223208   5.632   3.517   6.943
 7437SOL     OW23209   0.979   5.940   0.620
 7437SOL    HW123210   0.935   5.864   0.574
 7437SOL    HW223211   1.025   5.998   0.552
 7438SOL     OW23212   0.459   5.241   0.197
 7438SOL    HW123213   0.513   5.314   0.236
 7438SOL    HW223214   0.510   5.155   0.200
 7439SOL     OW23215   1.736   5.895   4.782
 7439SOL    HW123216   1.665   5.943   4.833
 7439SOL    HW223217   1.706   5.801   4.763
 7440SOL     OW23218   0.147   3.467   4.625
 7440SOL    HW123219   0.077   3.408   4.585
 7440SOL    HW223220   0.161   3.443   4.721
 7441SOL     OW23221   5.247   6.183   4.232
 7441SOL    HW123222   5.264   6.165   4.329
 7441SOL    HW223223   5.222   6.098   4.186
 7442SOL     OW23224   0.266   0.856   6.212
 7442SOL    HW123225   0.256   0.850   6.112
 7442SOL    HW223226   0.337   0.793   6.242
 7443SOL     OW23227   0.096   0.326   2.267
 7443SOL    HW123228   0.147   0.398   2.220
 7443SOL    HW223229   0.112   0.332   2.365
 7444SOL     OW23230   6.227   3.228   5.530
 7444SOL    HW123231   6.166   3.269   5.463
 7444SOL    HW223232   6.174   3.176   5.597
 7445SOL     OW23233   3.337   1.226   1.319
 7445SOL    HW123234   3.348   1.139   1.271
 7445SOL    HW223235   3.326   1.300   1.253
 7446SOL     OW23236   5.557   4.364   0.731
 7446SOL    HW123237   5.507   4.401   0.810
 7446SOL    HW223238   5.512   4.281   0.699
 7447SOL     OW23239   0.861   3.566   5.819
 7447SOL    HW123240   0.913   3.579   5.734
 7447SOL    HW223241   0.915   3.509   5.881
 7448SOL     OW23242   6.322   6.882   5.535
 7448SOL    HW123243   6.369   6.968   5.552
 7448SOL    HW223244   6.332   6.822   5.614
 7449SOL     OW23245   6.395   3.393   1.775
 7449SOL    HW123246   6.302   3.429   1.766
 7449SOL    HW223247   6.461   3.466   1.763
 7450SOL     OW23248   5.325   1.909   4.618
 7450SOL    HW123249   5.263   1.965   4.564
 7450SOL    HW223250   5.306   1.923   4.716
 7451SOL     OW23251   0.566   6.674   3.524
 7451SOL    HW123252   0.545   6.602   3.590
 7451SOL    HW223253   0.574   6.633   3.433
 7452SOL     OW23254   0.691   6.260   4.964
 7452SOL    HW123255   0.773   6.317   4.979
 7452SOL    HW223256   0.717   6.176   4.918
 7453SOL     OW23257   4.439   6.699   5.479
 7453SOL    HW123258   4.358   6.644   5.461
 7453SOL    HW223259   4.483   6.667   5.563
 7454SOL     OW23260   0.539   2.707   2.145
 7454SOL    HW123261   0.453   2.749   2.115
 7454SOL    HW223262   0.582   2.661   2.067
 7455SOL     OW23263   6.806   1.633   2.295
 7455SOL    HW123264   6.903   1.620   2.316
 7455SOL    HW223265   6.767   1.546   2.266
 7456SOL     OW23266   0.120   1.793   4.559
 7456SOL    HW123267   0.068   1.850   4.622
 7456SOL    HW223268   0.153   1.850   4.483
 7457SOL     OW23269   4.044   0.165   5.674
 7457SOL    HW123270   4.118   0.194   5.735
 7457SOL    HW223271   4.000   0.083   5.710
 7458SOL     OW23272   2.149   0.208   5.908
 7458SOL    HW123273   2.085   0.132   5.895
 7458SOL    HW223274   2.236   0.187   5.863
 7459SOL     OW23275   5.273   0.821   1.816
 7459SOL    HW123276   5.274   0.733   1.863
 7459SOL    HW223277   5.358   0.833   1.766
 7460SOL     OW23278   1.965   5.547   1.051
 7460SOL    HW123279   2.046   5.561   1.108
 7460SOL    HW223280   1.965   5.612   0.975
 7461SOL     OW23281   6.244   1.767   5.710
 7461SOL    HW123282   6.284   1.784   5.800
 7461SOL    HW223283   6.152   1.807   5.707
 7462SOL     OW23284   1.067   3.951   2.384
 7462SOL    HW123285   1.026   3.867   2.420
 7462SOL    HW223286   1.090   3.938   2.288
 7463SOL     OW23287   3.048   5.006   1.060
 7463SOL    HW123288   3.043   5.072   1.135
 7463SOL    HW223289   2.956   4.994   1.020
 7464SOL     OW23290   4.961   0.755   6.285
 7464SOL    HW123291   4.951   0.733   6.382
 7464SOL    HW223292   5.058   0.755   6.261
 7465SOL     OW23293   0.796   5.500   0.257
 7465SOL    HW123294   0.849   5.552   0.324
 7465SOL    HW223295   0.846   5.497   0.170
 7466SOL     OW23296   0.711   0.566   6.062
 7466SOL    HW123297   0.700   0.476   6.104
 7466SOL    HW223298   0.776   0.620   6.116
 7467SOL     OW23299   6.947   2.081   0.721
 7467SOL    HW123300   6.990   2.103   0.809
 7467SOL    HW223301   7.011   2.030   0.664
 7468SOL     OW23302   6.188   2.334   3.822
 7468SOL    HW123303   6.150   2.345   3.730
 7468SOL    HW223304   6.259   2.404   3.837
 7469SOL     OW23305   0.217   0.807   0.836
 7469SOL    HW123306   0.141   0.871   0.822
 7469SOL    HW223307   0.294   0.835   0.779
 7470SOL     OW23308   0.220   3.241   3.861
 7470SOL    HW123309   0.161   3.206   3.789
 7470SOL    HW223310   0.252   3.333   3.836
 7471SOL     OW23311   6.889   5.960   5.897
 7471SOL    HW123312   6.859   6.009   5.979
 7471SOL    HW223313   6.954   6.017   5.847
 7472SOL     OW23314   6.166   0.406   4.228
 7472SOL    HW123315   6.191   0.380   4.321
 7472SOL    HW223316   6.222   0.354   4.162
 7473SOL     OW23317   6.442   4.433   3.172
 7473SOL    HW123318   6.343   4.425   3.170
 7473SOL    HW223319   6.483   4.365   3.112
 7474SOL     OW23320   2.026   1.180   5.218
 7474SOL    HW123321   2.078   1.216   5.296
 7474SOL    HW223322   2.083   1.113   5.169
 7475SOL     OW23323   4.310   1.624   2.344
 7475SOL    HW123324   4.230   1.669   2.383
 7475SOL    HW223325   4.287   1.590   2.253
 7476SOL     OW23326   3.223   5.434   3.349
 7476SOL    HW123327   3.284   5.493   3.403
 7476SOL    HW223328   3.135   5.478   3.339
 7477SOL     OW23329   6.907   0.895   5.386
 7477SOL    HW123330   6.807   0.894   5.393
 7477SOL    HW223331   6.938   0.984   5.352
 7478SOL     OW23332   4.917   5.539   6.260
 7478SOL    HW123333   4.996   5.591   6.228
 7478SOL    HW223334   4.942   5.487   6.342
 7479SOL     OW23335   4.110   2.298   1.718
 7479SOL    HW123336   4.162   2.240   1.782
 7479SOL    HW223337   4.155   2.386   1.708
 7480SOL     OW23338   0.011   4.227   1.818
 7480SOL    HW123339   7.013   4.151   1.754
 7480SOL    HW223340   7.003   4.198   1.910
 7481SOL     OW23341   6.091   5.014   1.409
 7481SOL    HW123342   6.190   5.008   1.412
 7481SOL    HW223343   6.052   4.969   1.490
 7482SOL     OW23344   4.124   2.242   2.967
 7482SOL    HW123345   4.209   2.290   2.988
 7482SOL    HW223346   4.117   2.230   2.868
 7483SOL     OW23347   4.875   3.102   4.638
 7483SOL    HW123348   4.870   3.192   4.682
 7483SOL    HW223349   4.902   3.114   4.542
 7484SOL     OW23350   0.763   1.411   3.911
 7484SOL    HW123351   0.842   1.399   3.970
 7484SOL    HW223352   0.734   1.322   3.874
 7485SOL     OW23353   3.498   0.549   5.051
 7485SOL    HW123354   3.429   0.541   4.979
 7485SOL    HW223355   3.563   0.621   5.026
 7486SOL     OW23356   2.176   0.483   6.521
 7486SOL    HW123357   2.145   0.525   6.436
 7486SOL    HW223358   2.267   0.443   6.507
 7487SOL     OW23359   2.539   6.303   2.654
 7487SOL    HW123360   2.449   6.273   2.623
 7487SOL    HW223361   2.529   6.357   2.738
 7488SOL     OW23362   1.900   6.548   4.182
 7488SOL    HW123363   1.878   6.483   4.255
 7488SOL    HW223364   1.935   6.498   4.103
 7489SOL     OW23365   5.272   2.288   4.278
 7489SOL    HW123366   5.315   2.370   4.240
 7489SOL    HW223367   5.325   2.258   4.358
 7490SOL     OW23368   1.291   0.827   1.765
 7490SOL    HW123369   1.342   0.768   1.702
 7490SOL    HW223370   1.348   0.905   1.792
 7491SOL     OW23371   6.137   3.061   6.116
 7491SOL    HW123372   6.090   2.990   6.065
 7491SOL    HW223373   6.168   3.025   6.204
 7492SOL     OW23374   1.857   0.865   3.380
 7492SOL    HW123375   1.924   0.815   3.434
 7492SOL    HW223376   1.765   0.849   3.417
 7493SOL     OW23377   6.904   3.442   6.919
 7493SOL    HW123378   6.838   3.397   6.979
 7493SOL    HW223379   6.996   3.416   6.946
 7494SOL     OW23380   4.980   1.025   2.708
 7494SOL    HW123381   4.959   1.060   2.799
 7494SOL    HW223382   4.902   1.043   2.647
 7495SOL     OW23383   1.504   1.369   0.279
 7495SOL    HW123384   1.508   1.456   0.230
 7495SOL    HW223385   1.569   1.305   0.238
 7496SOL     OW23386   6.713   3.286   6.221
 7496SOL    HW123387   6.765   3.205   6.192
 7496SOL    HW223388   6.748   3.317   6.310
 7497SOL     OW23389   2.322   4.469   0.281
 7497SOL    HW123390   2.252   4.536   0.309
 7497SOL    HW223391   2.413   4.509   0.293
 7498SOL     OW23392   2.532   1.296   5.493
 7498SOL    HW123393   2.565   1.389   5.513
 7498SOL    HW223394   2.446   1.280   5.541
 7499SOL     OW23395   3.581   2.100   2.853
 7499SOL    HW123396   3.488   2.112   2.887
 7499SOL    HW223397   3.643   2.159   2.905
 7500SOL     OW23398   3.145   5.385   3.679
 7500SOL    HW123399   3.182   5.463   3.629
 7500SOL    HW223400   3.208   5.308   3.674
 7501SOL     OW23401   5.827   4.418   4.684
 7501SOL    HW123402   5.814   4.352   4.759
 7501SOL    HW223403   5.791   4.380   4.599
 7502SOL     OW23404   1.656   6.709   4.086
 7502SOL    HW123405   1.600   6.718   4.169
 7502SOL    HW223406   1.750   6.688   4.111
 7503SOL     OW23407   3.314   1.531   0.823
 7503SOL    HW123408   3.363   1.501   0.741
 7503SOL    HW223409   3.321   1.631   0.830
 7504SOL     OW23410   1.648   0.347   2.944
 7504SOL    HW123411   1.644   0.336   3.043
 7504SOL    HW223412   1.558   0.327   2.905
 7505SOL     OW23413   1.750   1.699   5.642
 7505SOL    HW123414   1.817   1.771   5.661
 7505SOL    HW223415   1.798   1.614   5.623
 7506SOL     OW23416   5.331   0.544   2.898
 7506SOL    HW123417   5.420   0.507   2.873
 7506SOL    HW223418   5.329   0.563   2.997
 7507SOL     OW23419   1.168   0.519   2.107
 7507SOL    HW123420   1.072   0.542   2.122
 7507SOL    HW223421   1.218   0.601   2.080
 7508SOL     OW23422   0.979   6.354   2.047
 7508SOL    HW123423   0.904   6.291   2.028
 7508SOL    HW223424   1.050   6.307   2.099
 7509SOL     OW23425   5.114   4.747   0.246
 7509SOL    HW123426   5.093   4.653   0.218
 7509SOL    HW223427   5.202   4.750   0.291
 7510SOL     OW23428   3.886   4.063   5.576
 7510SOL    HW123429   3.859   4.038   5.483
 7510SOL    HW223430   3.848   3.996   5.640
 7511SOL     OW23431   2.919   6.901   3.515
 7511SOL    HW123432   2.878   6.829   3.458
 7511SOL    HW223433   3.014   6.877   3.535
 7512SOL     OW23434   2.889   6.125   6.453
 7512SOL    HW123435   2.947   6.151   6.530
 7512SOL    HW223436   2.801   6.092   6.488
 7513SOL     OW23437   2.429   0.700   1.607
 7513SOL    HW123438   2.390   0.734   1.692
 7513SOL    HW223439   2.524   0.730   1.599
 7514SOL     OW23440   2.552   5.692   1.303
 7514SOL    HW123441   2.572   5.603   1.262
 7514SOL    HW223442   2.486   5.740   1.245
 7515SOL     OW23443   6.758   4.936   2.844
 7515SOL    HW123444   6.675   4.907   2.796
 7515SOL    HW223445   6.740   5.020   2.894
 7516SOL     OW23446   6.296   6.193   5.822
 7516SOL    HW123447   6.223   6.219   5.885
 7516SOL    HW223448   6.259   6.184   5.730
 7517SOL     OW23449   6.972   3.212   0.564
 7517SOL    HW123450   6.934   3.128   0.601
 7517SOL    HW223451   6.902   3.260   0.511
 7518SOL     OW23452   4.280   5.080   3.081
 7518SOL    HW123453   4.250   5.024   3.004
 7518SOL    HW223454   4.336   5.025   3.142
 7519SOL     OW23455   6.867   6.937   3.867
 7519SOL    HW123456   6.946   6.916   3.810
 7519SOL    HW223457   6.843   6.857   3.923
 7520SOL     OW23458   3.077   0.932   2.243
 7520SOL    HW123459   3.143   0.869   2.201
 7520SOL    HW223460   2.987   0.918   2.203
 7521SOL     OW23461   5.137   4.190   6.320
 7521SOL    HW123462   5.133   4.172   6.418
 7521SOL    HW223463   5.045   4.181   6.280
 7522SOL     OW23464   2.338   1.032   6.368
 7522SOL    HW123465   2.271   0.958   6.373
 7522SOL    HW223466   2.369   1.055   6.460
 7523SOL     OW23467   5.809   0.102   5.603
 7523SOL    HW123468   5.852   0.149   5.680
 7523SOL    HW223469   5.718   0.139   5.589
 7524SOL     OW23470   2.181   2.069   5.482
 7524SOL    HW123471   2.204   2.141   5.548
 7524SOL    HW223472   2.165   1.983   5.531
 7525SOL     OW23473   4.084   0.896   6.446
 7525SOL    HW123474   4.088   0.808   6.495
 7525SOL    HW223475   3.991   0.931   6.449
 7526SOL     OW23476   2.768   3.201   1.715
 7526SOL    HW123477   2.668   3.208   1.718
 7526SOL    HW223478   2.793   3.106   1.696
 7527SOL     OW23479   3.800   5.942   3.130
 7527SOL    HW123480   3.897   5.957   3.110
 7527SOL    HW223481   3.769   6.007   3.199
 7528SOL     OW23482   5.212   1.292   6.800
 7528SOL    HW123483   5.233   1.198   6.826
 7528SOL    HW223484   5.218   1.351   6.881
 7529SOL     OW23485   5.008   0.893   4.487
 7529SOL    HW123486   4.939   0.855   4.548
 7529SOL    HW223487   5.007   0.993   4.493
 7530SOL     OW23488   0.668   3.640   3.051
 7530SOL    HW123489   0.698   3.716   3.108
 7530SOL    HW223490   0.683   3.662   2.954
 7531SOL     OW23491   4.882   2.781   4.298
 7531SOL    HW123492   4.954   2.729   4.252
 7531SOL    HW223493   4.874   2.750   4.393
 7532SOL     OW23494   5.640   5.042   0.347
 7532SOL    HW123495   5.700   4.989   0.286
 7532SOL    HW223496   5.545   5.028   0.321
 7533SOL     OW23497   2.394   2.097   2.485
 7533SOL    HW123498   2.348   2.170   2.433
 7533SOL    HW223499   2.354   2.091   2.576
 7534SOL     OW23500   4.319   5.955   5.203
 7534SOL    HW123501   4.332   5.986   5.109
 7534SOL    HW223502   4.346   6.028   5.266
 7535SOL     OW23503   1.714   6.883   5.183
 7535SOL    HW123504   1.709   6.958   5.116
 7535SOL    HW223505   1.711   6.795   5.135
 7536SOL     OW23506   4.744   4.341   4.681
 7536SOL    HW123507   4.680   4.397   4.734
 7536SOL    HW223508   4.750   4.378   4.588
 7537SOL     OW23509   3.408   5.860   2.604
 7537SOL    HW123510   3.479   5.791   2.619
 7537SOL    HW223511   3.372   5.851   2.511
 7538SOL     OW23512   2.306   3.009   1.782
 7538SOL    HW123513   2.382   3.063   1.746
 7538SOL    HW223514   2.219   3.049   1.750
 7539SOL     OW23515   0.647   3.440   4.318
 7539SOL    HW123516   0.561   3.490   4.315
 7539SOL    HW223517   0.701   3.461   4.236
 7540SOL     OW23518   4.190   0.422   5.006
 7540SOL    HW123519   4.262   0.434   5.074
 7540SOL    HW223520   4.155   0.328   5.010
 7541SOL     OW23521   0.006   4.398   4.730
 7541SOL    HW123522   6.988   4.309   4.760
 7541SOL    HW223523   6.969   4.471   4.771
 7542SOL     OW23524   0.916   5.365   6.796
 7542SOL    HW123525   0.933   5.273   6.761
 7542SOL    HW223526   0.922   5.431   6.721
 7543SOL     OW23527   3.656   2.195   0.097
 7543SOL    HW123528   3.716   2.184   0.018
 7543SOL    HW223529   3.611   2.107   0.117
 7544SOL     OW23530   0.376   2.196   2.820
 7544SOL    HW123531   0.388   2.107   2.776
 7544SOL    HW223532   0.413   2.267   2.760
 7545SOL     OW23533   6.386   5.808   0.891
 7545SOL    HW123534   6.362   5.896   0.932
 7545SOL    HW223535   6.455   5.762   0.947
 7546SOL     OW23536   3.352   1.611   2.052
 7546SOL    HW123537   3.351   1.576   2.146
 7546SOL    HW223538   3.258   1.627   2.022
 7547SOL     OW23539   5.124   0.948   0.760
 7547SOL    HW123540   5.029   0.958   0.730
 7547SOL    HW223541   5.181   1.017   0.717
 7548SOL     OW23542   3.951   2.080   0.349
 7548SOL    HW123543   3.886   2.121   0.413
 7548SOL    HW223544   3.907   2.004   0.301
 7549SOL     OW23545   5.119   2.072   0.924
 7549SOL    HW123546   5.107   2.116   0.835
 7549SOL    HW223547   5.029   2.050   0.963
 7550SOL     OW23548   2.552   5.193   2.436
 7550SOL    HW123549   2.537   5.280   2.389
 7550SOL    HW223550   2.481   5.128   2.411
 7551SOL     OW23551   5.289   3.978   6.832
 7551SOL    HW123552   5.366   3.941   6.779
 7551SOL    HW223553   5.212   3.915   6.827
 7552SOL     OW23554   1.463   5.679   2.779
 7552SOL    HW123555   1.423   5.599   2.824
 7552SOL    HW223556   1.390   5.739   2.746
 7553SOL     OW23557   4.486   6.508   5.670
 7553SOL    HW123558   4.544   6.458   5.733
 7553SOL    HW223559   4.473   6.455   5.586
 7554SOL     OW23560   4.604   1.345   0.623
 7554SOL    HW123561   4.538   1.275   0.595
 7554SOL    HW223562   4.588   1.369   0.719
 7555SOL     OW23563   2.141   4.653   6.082
 7555SOL    HW123564   2.237   4.669   6.104
 7555SOL    HW223565   2.134   4.607   5.994
 7556SOL     OW23566   1.668   2.766   0.322
 7556SOL    HW123567   1.578   2.729   0.302
 7556SOL    HW223568   1.674   2.791   0.419
 7557SOL     OW23569   4.833   1.772   5.873
 7557SOL    HW123570   4.930   1.758   5.855
 7557SOL    HW223571   4.806   1.862   5.840
 7558SOL     OW23572   1.481   2.795   4.448
 7558SOL    HW123573   1.458   2.791   4.350
 7558SOL    HW223574   1.574   2.832   4.458
 7559SOL     OW23575   5.395   4.725   6.458
 7559SOL    HW123576   5.309   4.674   6.459
 7559SOL    HW223577   5.465   4.674   6.509
 7560SOL     OW23578   4.948   6.446   0.916
 7560SOL    HW123579   5.005   6.498   0.853
 7560SOL    HW223580   4.928   6.356   0.877
 7561SOL     OW23581   1.316   3.564   6.850
 7561SOL    HW123582   1.229   3.586   6.806
 7561SOL    HW223583   1.369   3.648   6.862
 7562SOL     OW23584   6.887   6.529   3.885
 7562SOL    HW123585   6.854   6.470   3.811
 7562SOL    HW223586   6.986   6.543   3.875
 7563SOL     OW23587   2.831   6.972   1.034
 7563SOL    HW123588   2.868   6.903   0.971
 7563SOL    HW223589   2.770   6.927   1.100
 7564SOL     OW23590   4.897   0.891   3.132
 7564SOL    HW123591   4.839   0.962   3.092
 7564SOL    HW223592   4.847   0.843   3.203
 7565SOL     OW23593   5.162   3.130   0.929
 7565SOL    HW123594   5.082   3.153   0.873
 7565SOL    HW223595   5.133   3.108   1.022
 7566SOL     OW23596   5.837   4.845   2.958
 7566SOL    HW123597   5.745   4.806   2.955
 7566SOL    HW223598   5.881   4.819   3.044
 7567SOL     OW23599   1.566   2.064   4.630
 7567SOL    HW123600   1.621   2.062   4.713
 7567SOL    HW223601   1.623   2.040   4.552
 7568SOL     OW23602   5.620   6.174   2.361
 7568SOL    HW123603   5.687   6.237   2.323
 7568SOL    HW223604   5.667   6.103   2.415
 7569SOL     OW23605   3.857   5.730   6.069
 7569SOL    HW123606   3.940   5.712   6.017
 7569SOL    HW223607   3.826   5.646   6.113
 7570SOL     OW23608   5.825   3.410   5.205
 7570SOL    HW123609   5.776   3.437   5.287
 7570SOL    HW223610   5.915   3.454   5.203
 7571SOL     OW23611   4.695   5.594   3.517
 7571SOL    HW123612   4.662   5.515   3.465
 7571SOL    HW223613   4.756   5.562   3.590
 7572SOL     OW23614   4.847   1.143   1.679
 7572SOL    HW123615   4.817   1.140   1.774
 7572SOL    HW223616   4.773   1.178   1.622
 7573SOL     OW23617   0.450   0.138   4.953
 7573SOL    HW123618   0.489   0.122   4.862
 7573SOL    HW223619   0.494   0.218   4.995
 7574SOL     OW23620   5.884   0.972   5.604
 7574SOL    HW123621   5.959   0.999   5.663
 7574SOL    HW223622   5.802   0.956   5.659
 7575SOL     OW23623   4.887   0.015   6.693
 7575SOL    HW123624   4.967   0.052   6.647
 7575SOL    HW223625   4.855   0.080   6.762
 7576SOL     OW23626   5.097   4.741   6.172
 7576SOL    HW123627   5.066   4.650   6.144
 7576SOL    HW223628   5.104   4.745   6.271
 7577SOL     OW23629   0.488   6.887   0.024
 7577SOL    HW123630   0.446   6.824   6.978
 7577SOL    HW223631   0.509   6.973   6.995
 7578SOL     OW23632   2.122   5.344   1.905
 7578SOL    HW123633   2.152   5.437   1.926
 7578SOL    HW223634   2.132   5.327   1.807
 7579SOL     OW23635   6.199   0.796   1.596
 7579SOL    HW123636   6.295   0.775   1.614
 7579SOL    HW223637   6.175   0.883   1.638
 7580SOL     OW23638   1.081   3.890   4.280
 7580SOL    HW123639   1.063   3.900   4.378
 7580SOL    HW223640   1.129   3.971   4.247
 7581SOL     OW23641   6.836   0.613   1.113
 7581SOL    HW123642   6.772   0.568   1.175
 7581SOL    HW223643   6.926   0.617   1.155
 7582SOL     OW23644   3.724   1.063   1.681
 7582SOL    HW123645   3.734   0.965   1.664
 7582SOL    HW223646   3.635   1.094   1.648
 7583SOL     OW23647   6.201   3.239   1.474
 7583SOL    HW123648   6.225   3.304   1.402
 7583SOL    HW223649   6.117   3.270   1.519
 7584SOL     OW23650   2.909   6.589   1.445
 7584SOL    HW123651   2.873   6.512   1.498
 7584SOL    HW223652   2.833   6.642   1.408
 7585SOL     OW23653   1.210   2.987   6.865
 7585SOL    HW123654   1.228   2.939   6.951
 7585SOL    HW223655   1.281   3.056   6.849
 7586SOL     OW23656   2.479   1.191   3.352
 7586SOL    HW123657   2.380   1.193   3.337
 7586SOL    HW223658   2.517   1.110   3.306
 7587SOL     OW23659   2.304   1.960   0.384
 7587SOL    HW123660   2.219   1.963   0.438
 7587SOL    HW223661   2.332   2.054   0.362
 7588SOL     OW23662   1.610   2.797   3.313
 7588SOL    HW123663   1.618   2.821   3.216
 7588SOL    HW223664   1.626   2.879   3.369
 7589SOL     OW23665   1.016   6.895   2.387
 7589SOL    HW123666   1.017   6.988   2.351
 7589SOL    HW223667   0.990   6.896   2.484
 7590SOL     OW23668   4.172   1.948   6.193
 7590SOL    HW123669   4.167   1.863   6.140
 7590SOL    HW223670   4.082   1.993   6.190
 7591SOL     OW23671   0.295   3.663   0.640
 7591SOL    HW123672   0.313   3.571   0.675
 7591SOL    HW223673   0.280   3.725   0.718
 7592SOL     OW23674   6.700   4.705   5.190
 7592SOL    HW123675   6.734   4.772   5.256
 7592SOL    HW223676   6.649   4.752   5.118
 7593SOL     OW23677   5.869   3.285   1.104
 7593SOL    HW123678   5.773   3.256   1.094
 7593SOL    HW223679   5.889   3.356   1.036
 7594SOL     OW23680   1.077   4.912   2.508
 7594SOL    HW123681   1.172   4.942   2.508
 7594SOL    HW223682   1.072   4.819   2.544
 7595SOL     OW23683   6.879   2.475   6.199
 7595SOL    HW123684   6.809   2.496   6.131
 7595SOL    HW223685   6.920   2.560   6.232
 7596SOL     OW23686   4.417   5.601   4.047
 7596SOL    HW123687   4.377   5.568   3.962
 7596SOL    HW223688   4.363   5.678   4.081
 7597SOL     OW23689   3.379   6.286   3.007
 7597SOL    HW123690   3.405   6.375   2.971
 7597SOL    HW223691   3.455   6.247   3.059
 7598SOL     OW23692   6.597   1.523   3.073
 7598SOL    HW123693   6.650   1.604   3.098
 7598SOL    HW223694   6.544   1.491   3.152
 7599SOL     OW23695   5.151   2.139   2.490
 7599SOL    HW123696   5.160   2.205   2.416
 7599SOL    HW223697   5.164   2.046   2.454
 7600SOL     OW23698   1.826   1.719   2.625
 7600SOL    HW123699   1.731   1.728   2.656
 7600SOL    HW223700   1.834   1.756   2.532
 7601SOL     OW23701   1.623   5.417   2.927
 7601SOL    HW123702   1.709   5.432   2.878
 7601SOL    HW223703   1.613   5.485   2.999
 7602SOL     OW23704   1.932   4.091   6.125
 7602SOL    HW123705   1.957   4.016   6.186
 7602SOL    HW223706   1.934   4.058   6.030
 7603SOL     OW23707   1.333   5.699   6.329
 7603SOL    HW123708   1.271   5.764   6.284
 7603SOL    HW223709   1.425   5.709   6.291
 7604SOL     OW23710   1.847   4.309   4.405
 7604SOL    HW123711   1.829   4.407   4.412
 7604SOL    HW223712   1.766   4.259   4.435
 7605SOL     OW23713   1.073   0.024   1.285
 7605SOL    HW123714   0.988   0.060   1.324
 7605SOL    HW223715   1.098   0.079   1.206
 7606SOL     OW23716   5.589   3.513   5.041
 7606SOL    HW123717   5.664   3.497   5.105
 7606SOL    HW223718   5.624   3.557   4.959
 7607SOL     OW23719   3.401   4.747   6.548
 7607SOL    HW123720   3.452   4.793   6.476
 7607SOL    HW223721   3.434   4.653   6.558
 7608SOL     OW23722   4.113   3.693   2.788
 7608SOL    HW123723   4.167   3.609   2.794
 7608SOL    HW223724   4.070   3.699   2.698
 7609SOL     OW23725   1.345   3.601   4.129
 7609SOL    HW123726   1.278   3.533   4.159
 7609SOL    HW223727   1.436   3.559   4.126
 7610SOL     OW23728   4.319   5.147   6.175
 7610SOL    HW123729   4.342   5.104   6.263
 7610SOL    HW223730   4.356   5.092   6.101
 7611SOL     OW23731   6.471   2.573   1.276
 7611SOL    HW123732   6.386   2.618   1.249
 7611SOL    HW223733   6.488   2.588   1.373
 7612SOL     OW23734   4.761   2.773   3.755
 7612SOL    HW123735   4.794   2.778   3.661
 7612SOL    HW223736   4.755   2.865   3.794
 7613SOL     OW23737   6.618   3.473   1.176
 7613SOL    HW123738   6.560   3.403   1.216
 7613SOL    HW223739   6.576   3.562   1.187
 7614SOL     OW23740   4.998   2.825   1.263
 7614SOL    HW123741   4.942   2.773   1.197
 7614SOL    HW223742   4.940   2.854   1.339
 7615SOL     OW23743   3.752   5.404   6.950
 7615SOL    HW123744   3.848   5.397   6.977
 7615SOL    HW223745   3.694   5.367   0.005
 7616SOL     OW23746   5.810   5.865   4.257
 7616SOL    HW123747   5.804   5.965   4.260
 7616SOL    HW223748   5.906   5.838   4.258
 7617SOL     OW23749   4.106   5.011   2.662
 7617SOL    HW123750   4.139   5.002   2.755
 7617SOL    HW223751   4.042   4.937   2.641
 7618SOL     OW23752   0.284   1.214   5.698
 7618SOL    HW123753   0.211   1.187   5.760
 7618SOL    HW223754   0.281   1.313   5.683
 7619SOL     OW23755   5.749   2.885   5.270
 7619SOL    HW123756   5.697   2.810   5.231
 7619SOL    HW223757   5.743   2.965   5.211
 7620SOL     OW23758   3.642   5.997   0.743
 7620SOL    HW123759   3.594   6.032   0.663
 7620SOL    HW223760   3.708   5.927   0.715
 7621SOL     OW23761   6.840   1.440   0.695
 7621SOL    HW123762   6.895   1.465   0.615
 7621SOL    HW223763   6.808   1.346   0.686
 7622SOL     OW23764   4.711   5.957   1.047
 7622SOL    HW123765   4.738   6.024   1.116
 7622SOL    HW223766   4.686   5.871   1.092
 7623SOL     OW23767   4.666   4.792   6.791
 7623SOL    HW123768   4.588   4.780   6.853
 7623SOL    HW223769   4.719   4.708   6.787
 7624SOL     OW23770   6.731   3.342   5.130
 7624SOL    HW123771   6.793   3.274   5.091
 7624SOL    HW223772   6.661   3.365   5.062
 7625SOL     OW23773   4.867   0.515   1.428
 7625SOL    HW123774   4.835   0.553   1.342
 7625SOL    HW223775   4.870   0.586   1.498
 7626SOL     OW23776   5.722   6.856   4.438
 7626SOL    HW123777   5.692   6.937   4.488
 7626SOL    HW223778   5.646   6.820   4.383
 7627SOL     OW23779   4.802   3.085   0.099
 7627SOL    HW123780   4.826   3.103   0.003
 7627SOL    HW223781   4.796   2.987   0.114
 7628SOL     OW23782   3.710   1.824   2.035
 7628SOL    HW123783   3.697   1.870   2.124
 7628SOL    HW223784   3.807   1.824   2.011
 7629SOL     OW23785   0.040   6.114   3.237
 7629SOL    HW123786   6.973   6.063   3.224
 7629SOL    HW223787   0.025   6.210   3.213
 7630SOL     OW23788   6.941   6.676   1.130
 7630SOL    HW123789   6.888   6.597   1.097
 7630SOL    HW223790   7.005   6.704   1.059
 7631SOL     OW23791   0.942   1.612   6.482
 7631SOL    HW123792   1.035   1.604   6.519
 7631SOL    HW223793   0.943   1.586   6.385
 7632SOL     OW23794   3.355   3.031   1.819
 7632SOL    HW123795   3.384   2.937   1.838
 7632SOL    HW223796   3.429   3.094   1.841
 7633SOL     OW23797   5.291   0.585   1.252
 7633SOL    HW123798   5.266   0.677   1.222
 7633SOL    HW223799   5.212   0.524   1.243
 7634SOL     OW23800   0.837   2.326   2.326
 7634SOL    HW123801   0.832   2.351   2.422
 7634SOL    HW223802   0.910   2.259   2.313
 7635SOL     OW23803   3.757   4.939   4.844
 7635SOL    HW123804   3.781   5.034   4.863
 7635SOL    HW223805   3.696   4.905   4.917
 7636SOL     OW23806   1.658   2.678   4.106
 7636SOL    HW123807   1.711   2.755   4.072
 7636SOL    HW223808   1.573   2.671   4.054
 7637SOL     OW23809   1.993   5.267   2.649
 7637SOL    HW123810   1.986   5.244   2.746
 7637SOL    HW223811   2.090   5.273   2.623
 7638SOL     OW23812   2.758   6.118   0.852
 7638SOL    HW123813   2.773   6.090   0.757
 7638SOL    HW223814   2.777   6.042   0.913
 7639SOL     OW23815   1.273   2.372   0.675
 7639SOL    HW123816   1.308   2.466   0.677
 7639SOL    HW223817   1.317   2.318   0.747
 7640SOL     OW23818   3.381   1.236   5.582
 7640SOL    HW123819   3.330   1.317   5.553
 7640SOL    HW223820   3.435   1.259   5.664
 7641SOL     OW23821   0.958   4.197   2.419
 7641SOL    HW123822   0.982   4.100   2.427
 7641SOL    HW223823   1.003   4.235   2.338
 7642SOL     OW23824   3.330   0.917   3.177
 7642SOL    HW123825   3.325   1.015   3.161
 7642SOL    HW223826   3.392   0.875   3.111
 7643SOL     OW23827   5.061   2.575   4.211
 7643SOL    HW123828   5.010   2.492   4.190
 7643SOL    HW223829   5.159   2.553   4.218
 7644SOL     OW23830   5.666   2.029   2.573
 7644SOL    HW123831   5.625   1.981   2.495
 7644SOL    HW223832   5.599   2.034   2.647
 7645SOL     OW23833   4.254   3.431   5.572
 7645SOL    HW123834   4.278   3.521   5.535
 7645SOL    HW223835   4.298   3.419   5.661
 7646SOL     OW23836   1.196   3.782   3.061
 7646SOL    HW123837   1.152   3.813   3.145
 7646SOL    HW223838   1.260   3.708   3.083
 7647SOL     OW23839   6.886   3.182   3.374
 7647SOL    HW123840   6.912   3.252   3.441
 7647SOL    HW223841   6.968   3.139   3.338
 7648SOL     OW23842   2.721   1.605   2.902
 7648SOL    HW123843   2.643   1.625   2.842
 7648SOL    HW223844   2.803   1.590   2.847
 7649SOL     OW23845   1.196   1.092   2.457
 7649SOL    HW123846   1.203   0.994   2.476
 7649SOL    HW223847   1.106   1.125   2.484
 7650SOL     OW23848   4.499   1.781   0.403
 7650SOL    HW123849   4.425   1.837   0.366
 7650SOL    HW223850   4.464   1.689   0.423
 7651SOL     OW23851   1.919   0.710   3.871
 7651SOL    HW123852   2.010   0.748   3.888
 7651SOL    HW223853   1.914   0.676   3.777
 7652SOL     OW23854   6.051   3.605   5.695
 7652SOL    HW123855   5.958   3.569   5.700
 7652SOL    HW223856   6.113   3.543   5.743
 7653SOL     OW23857   1.062   1.852   6.667
 7653SOL    HW123858   1.052   1.932   6.608
 7653SOL    HW223859   1.009   1.865   6.750
 7654SOL     OW23860   4.744   2.638   4.081
 7654SOL    HW123861   4.696   2.666   3.998
 7654SOL    HW223862   4.802   2.713   4.113
 7655SOL     OW23863   4.633   6.987   3.001
 7655SOL    HW123864   4.587   6.925   2.937
 7655SOL    HW223865   4.718   0.002   2.960
 7656SOL     OW23866   2.916   3.800   6.072
 7656SOL    HW123867   2.909   3.879   6.012
 7656SOL    HW223868   2.906   3.828   6.167
 7657SOL     OW23869   1.171   2.771   3.973
 7657SOL    HW123870   1.251   2.718   3.945
 7657SOL    HW223871   1.091   2.740   3.922
 7658SOL     OW23872   4.158   0.045   6.082
 7658SOL    HW123873   4.178   0.025   6.178
 7658SOL    HW223874   4.140   0.143   6.072
 7659SOL     OW23875   6.164   5.253   6.373
 7659SOL    HW123876   6.253   5.256   6.419
 7659SOL    HW223877   6.098   5.207   6.432
 7660SOL     OW23878   0.675   6.069   4.122
 7660SOL    HW123879   0.673   6.024   4.212
 7660SOL    HW223880   0.592   6.046   4.072
 7661SOL     OW23881   5.879   2.743   4.801
 7661SOL    HW123882   5.887   2.655   4.848
 7661SOL    HW223883   5.968   2.790   4.801
 7662SOL     OW23884   1.377   2.902   3.554
 7662SOL    HW123885   1.446   2.974   3.542
 7662SOL    HW223886   1.423   2.816   3.578
 7663SOL     OW23887   0.414   5.236   5.507
 7663SOL    HW123888   0.396   5.334   5.493
 7663SOL    HW223889   0.331   5.192   5.542
 7664SOL     OW23890   3.651   6.752   1.550
 7664SOL    HW123891   3.605   6.719   1.632
 7664SOL    HW223892   3.632   6.850   1.538
 7665SOL     OW23893   6.100   6.807   4.874
 7665SOL    HW123894   6.060   6.866   4.805
 7665SOL    HW223895   6.116   6.716   4.836
 7666SOL     OW23896   0.480   5.564   1.681
 7666SOL    HW123897   0.475   5.477   1.732
 7666SOL    HW223898   0.563   5.613   1.708
 7667SOL     OW23899   4.906   6.631   2.060
 7667SOL    HW123900   4.970   6.688   2.112
 7667SOL    HW223901   4.819   6.626   2.109
 7668SOL     OW23902   3.535   4.547   6.962
 7668SOL    HW123903   3.446   4.585   6.937
 7668SOL    HW223904   3.529   4.505   0.035
 7669SOL     OW23905   4.883   1.778   5.092
 7669SOL    HW123906   4.824   1.745   5.167
 7669SOL    HW223907   4.827   1.792   5.010
 7670SOL     OW23908   0.930   5.134   6.667
 7670SOL    HW123909   0.947   5.171   6.576
 7670SOL    HW223910   0.916   5.035   6.661
 7671SOL     OW23911   4.708   1.134   2.572
 7671SOL    HW123912   4.712   1.198   2.648
 7671SOL    HW223913   4.613   1.117   2.547
 7672SOL     OW23914   0.479   6.524   2.412
 7672SOL    HW123915   0.426   6.608   2.401
 7672SOL    HW223916   0.530   6.505   2.328
 7673SOL     OW23917   1.561   6.299   0.565
 7673SOL    HW123918   1.569   6.274   0.469
 7673SOL    HW223919   1.502   6.234   0.612
 7674SOL     OW23920   5.630   1.350   2.807
 7674SOL    HW123921   5.686   1.398   2.874
 7674SOL    HW223922   5.533   1.360   2.831
 7675SOL     OW23923   6.454   6.718   2.391
 7675SOL    HW123924   6.458   6.674   2.302
 7675SOL    HW223925   6.478   6.652   2.463
 7676SOL     OW23926   2.341   2.221   0.671
 7676SOL    HW123927   2.368   2.148   0.733
 7676SOL    HW223928   2.268   2.188   0.611
 7677SOL     OW23929   0.163   4.885   1.399
 7677SOL    HW123930   0.257   4.901   1.430
 7677SOL    HW223931   0.106   4.857   1.476
 7678SOL     OW23932   2.048   2.748   4.508
 7678SOL    HW123933   2.095   2.684   4.568
 7678SOL    HW223934   2.073   2.842   4.533
 7679SOL     OW23935   3.037   5.637   5.894
 7679SOL    HW123936   2.997   5.548   5.913
 7679SOL    HW223937   3.136   5.628   5.883
 7680SOL     OW23938   1.475   1.121   0.547
 7680SOL    HW123939   1.408   1.095   0.478
 7680SOL    HW223940   1.565   1.085   0.521
 7681SOL     OW23941   2.654   0.590   0.520
 7681SOL    HW123942   2.655   0.627   0.613
 7681SOL    HW223943   2.610   0.655   0.458
 7682SOL     OW23944   3.437   0.196   2.460
 7682SOL    HW123945   3.525   0.180   2.506
 7682SOL    HW223946   3.437   0.288   2.421
 7683SOL     OW23947   5.022   1.340   4.256
 7683SOL    HW123948   5.073   1.393   4.188
 7683SOL    HW223949   4.946   1.396   4.291
 7684SOL     OW23950   3.328   1.787   1.412
 7684SOL    HW123951   3.390   1.784   1.490
 7684SOL    HW223952   3.235   1.805   1.444
 7685SOL     OW23953   3.096   1.690   6.044
 7685SOL    HW123954   3.074   1.607   5.993
 7685SOL    HW223955   3.044   1.766   6.007
 7686SOL     OW23956   6.718   6.199   2.539
 7686SOL    HW123957   6.789   6.221   2.606
 7686SOL    HW223958   6.754   6.210   2.446
 7687SOL     OW23959   5.999   5.501   3.653
 7687SOL    HW123960   6.073   5.561   3.682
 7687SOL    HW223961   5.970   5.443   3.730
 7688SOL     OW23962   0.930   5.595   5.860
 7688SOL    HW123963   0.890   5.523   5.916
 7688SOL    HW223964   0.867   5.621   5.787
 7689SOL     OW23965   6.034   6.088   2.441
 7689SOL    HW123966   6.102   6.097   2.367
 7689SOL    HW223967   6.034   6.170   2.497
 7690SOL     OW23968   5.386   5.262   0.270
 7690SOL    HW123969   5.473   5.301   0.240
 7690SOL    HW223970   5.311   5.322   0.242
 7691SOL     OW23971   5.057   4.202   4.222
 7691SOL    HW123972   5.138   4.231   4.170
 7691SOL    HW223973   5.000   4.142   4.165
 7692SOL     OW23974   0.806   6.216   1.884
 7692SOL    HW123975   0.874   6.235   1.813
 7692SOL    HW223976   0.785   6.118   1.886
 7693SOL     OW23977   3.722   6.481   1.462
 7693SOL    HW123978   3.694   6.576   1.454
 7693SOL    HW223979   3.810   6.476   1.509
 7694SOL     OW23980   6.525   4.387   4.758
 7694SOL    HW123981   6.544   4.448   4.681
 7694SOL    HW223982   6.446   4.422   4.809
 7695SOL     OW23983   4.771   0.774   1.228
 7695SOL    HW123984   4.792   0.832   1.149
 7695SOL    HW223985   4.754   0.830   1.308
 7696SOL     OW23986   0.359   0.308   5.403
 7696SOL    HW123987   0.446   0.269   5.375
 7696SOL    HW223988   0.284   0.256   5.362
 7697SOL     OW23989   2.653   6.535   2.156
 7697SOL    HW123990   2.625   6.535   2.252
 7697SOL    HW223991   2.753   6.525   2.150
 7698SOL     OW23992   6.149   1.279   4.055
 7698SOL    HW123993   6.150   1.292   4.154
 7698SOL    HW223994   6.078   1.213   4.031
 7699SOL     OW23995   3.424   5.796   6.436
 7699SOL    HW123996   3.399   5.746   6.519
 7699SOL    HW223997   3.510   5.845   6.452
 7700SOL     OW23998   4.399   6.082   3.443
 7700SOL    HW123999   4.387   6.074   3.542
 7700SOL    HW224000   4.416   6.178   3.419
 7701SOL     OW24001   6.693   2.110   0.299
 7701SOL    HW124002   6.687   2.197   0.249
 7701SOL    HW224003   6.650   2.119   0.388
 7702SOL     OW24004   3.382   6.784   5.494
 7702SOL    HW124005   3.425   6.768   5.405
 7702SOL    HW224006   3.399   6.706   5.554
 7703SOL     OW24007   6.856   6.667   6.497
 7703SOL    HW124008   6.822   6.573   6.503
 7703SOL    HW224009   6.881   6.699   6.588
 7704SOL     OW24010   5.464   5.923   4.967
 7704SOL    HW124011   5.462   5.900   5.064
 7704SOL    HW224012   5.538   5.988   4.950
 7705SOL     OW24013   3.286   5.701   6.957
 7705SOL    HW124014   3.234   5.673   6.877
 7705SOL    HW224015   3.272   5.634   0.013
 7706SOL     OW24016   4.832   3.242   5.504
 7706SOL    HW124017   4.819   3.329   5.456
 7706SOL    HW224018   4.750   3.219   5.554
 7707SOL     OW24019   6.370   5.538   5.390
 7707SOL    HW124020   6.469   5.548   5.381
 7707SOL    HW224021   6.325   5.609   5.335
 7708SOL     OW24022   0.644   6.578   6.064
 7708SOL    HW124023   0.620   6.602   6.158
 7708SOL    HW224024   0.714   6.506   6.065
 7709SOL     OW24025   6.124   4.599   1.998
 7709SOL    HW124026   6.120   4.632   2.093
 7709SOL    HW224027   6.184   4.659   1.945
 7710SOL     OW24028   2.928   1.611   0.386
 7710SOL    HW124029   2.993   1.673   0.343
 7710SOL    HW224030   2.971   1.566   0.464
 7711SOL     OW24031   6.129   6.840   5.880
 7711SOL    HW124032   6.079   6.872   5.800
 7711SOL    HW224033   6.151   6.743   5.869
 7712SOL     OW24034   6.178   5.398   1.981
 7712SOL    HW124035   6.143   5.306   1.992
 7712SOL    HW224036   6.121   5.462   2.032
 7713SOL     OW24037   1.744   4.194   1.260
 7713SOL    HW124038   1.768   4.097   1.265
 7713SOL    HW224039   1.819   4.246   1.219
 7714SOL     OW24040   6.595   3.832   5.542
 7714SOL    HW124041   6.568   3.743   5.579
 7714SOL    HW224042   6.688   3.827   5.506
 7715SOL     OW24043   3.301   1.907   0.416
 7715SOL    HW124044   3.248   1.961   0.481
 7715SOL    HW224045   3.365   1.849   0.466
 7716SOL     OW24046   6.591   3.927   2.672
 7716SOL    HW124047   6.513   3.885   2.626
 7716SOL    HW224048   6.628   3.864   2.740
 7717SOL     OW24049   1.730   1.174   5.229
 7717SOL    HW124050   1.822   1.211   5.220
 7717SOL    HW224051   1.703   1.175   5.325
 7718SOL     OW24052   0.756   3.375   4.050
 7718SOL    HW124053   0.764   3.437   3.972
 7718SOL    HW224054   0.673   3.321   4.041
 7719SOL     OW24055   6.400   4.037   5.012
 7719SOL    HW124056   6.454   4.078   4.938
 7719SOL    HW224057   6.453   4.040   5.097
 7720SOL     OW24058   0.259   1.332   0.166
 7720SOL    HW124059   0.226   1.377   0.083
 7720SOL    HW224060   0.181   1.307   0.223
 7721SOL     OW24061   0.322   5.276   2.574
 7721SOL    HW124062   0.305   5.208   2.503
 7721SOL    HW224063   0.300   5.237   2.663
 7722SOL     OW24064   0.949   4.662   3.936
 7722SOL    HW124065   0.942   4.588   3.869
 7722SOL    HW224066   0.912   4.631   4.024
 7723SOL     OW24067   4.812   3.562   6.465
 7723SOL    HW124068   4.898   3.598   6.430
 7723SOL    HW224069   4.736   3.602   6.414
 7724SOL     OW24070   3.241   3.916   1.305
 7724SOL    HW124071   3.245   3.900   1.206
 7724SOL    HW224072   3.302   3.992   1.329
 7725SOL     OW24073   6.555   1.093   2.458
 7725SOL    HW124074   6.545   1.053   2.367
 7725SOL    HW224075   6.543   1.193   2.452
 7726SOL     OW24076   1.761   5.573   5.212
 7726SOL    HW124077   1.663   5.592   5.216
 7726SOL    HW224078   1.808   5.621   5.286
 7727SOL     OW24079   0.298   1.375   2.609
 7727SOL    HW124080   0.212   1.327   2.629
 7727SOL    HW224081   0.372   1.336   2.664
 7728SOL     OW24082   1.255   4.412   4.811
 7728SOL    HW124083   1.220   4.454   4.895
 7728SOL    HW224084   1.178   4.390   4.750
 7729SOL     OW24085   5.846   2.658   0.754
 7729SOL    HW124086   5.866   2.563   0.776
 7729SOL    HW224087   5.925   2.699   0.709
 7730SOL     OW24088   5.810   5.799   0.147
 7730SOL    HW124089   5.723   5.811   0.098
 7730SOL    HW224090   5.835   5.884   0.191
 7731SOL     OW24091   6.544   1.286   0.572
 7731SOL    HW124092   6.562   1.229   0.492
 7731SOL    HW224093   6.615   1.271   0.641
 7732SOL     OW24094   5.045   6.659   0.688
 7732SOL    HW124095   4.979   6.667   0.614
 7732SOL    HW224096   5.075   6.751   0.715
 7733SOL     OW24097   4.824   6.476   3.183
 7733SOL    HW124098   4.894   6.546   3.192
 7733SOL    HW224099   4.757   6.504   3.115
 7734SOL     OW24100   1.934   4.762   2.732
 7734SOL    HW124101   1.877   4.793   2.808
 7734SOL    HW224102   1.875   4.722   2.661
 7735SOL     OW24103   4.604   6.526   6.879
 7735SOL    HW124104   4.583   6.460   6.807
 7735SOL    HW224105   4.531   6.594   6.885
 7736SOL     OW24106   3.834   3.623   6.991
 7736SOL    HW124107   3.843   3.567   0.055
 7736SOL    HW224108   3.909   3.604   6.928
 7737SOL     OW24109   3.316   6.725   2.378
 7737SOL    HW124110   3.310   6.676   2.465
 7737SOL    HW224111   3.321   6.824   2.396
 7738SOL     OW24112   3.140   5.696   6.722
 7738SOL    HW124113   3.145   5.793   6.745
 7738SOL    HW224114   3.093   5.685   6.634
 7739SOL     OW24115   0.253   2.696   1.202
 7739SOL    HW124116   0.255   2.596   1.210
 7739SOL    HW224117   0.159   2.726   1.184
 7740SOL     OW24118   2.250   1.645   2.609
 7740SOL    HW124119   2.210   1.568   2.559
 7740SOL    HW224120   2.184   1.719   2.615
 7741SOL     OW24121   1.052   5.031   5.968
 7741SOL    HW124122   0.987   4.996   5.901
 7741SOL    HW224123   1.029   4.996   6.059
 7742SOL     OW24124   4.078   1.909   3.286
 7742SOL    HW124125   4.105   1.941   3.195
 7742SOL    HW224126   4.056   1.988   3.344
 7743SOL     OW24127   5.874   1.418   6.389
 7743SOL    HW124128   5.788   1.414   6.338
 7743SOL    HW224129   5.853   1.419   6.487
 7744SOL     OW24130   0.707   6.878   3.890
 7744SOL    HW124131   0.759   6.837   3.965
 7744SOL    HW224132   0.764   6.946   3.843
 7745SOL     OW24133   3.619   1.606   6.649
 7745SOL    HW124134   3.570   1.563   6.724
 7745SOL    HW224135   3.699   1.654   6.685
 7746SOL     OW24136   1.867   0.376   0.154
 7746SOL    HW124137   1.780   0.425   0.156
 7746SOL    HW224138   1.933   0.427   0.098
 7747SOL     OW24139   5.401   5.974   1.725
 7747SOL    HW124140   5.351   5.913   1.786
 7747SOL    HW224141   5.339   6.011   1.656
 7748SOL     OW24142   3.131   3.890   4.646
 7748SOL    HW124143   3.147   3.963   4.712
 7748SOL    HW224144   3.054   3.833   4.677
 7749SOL     OW24145   3.166   3.729   5.912
 7749SOL    HW124146   3.087   3.741   5.972
 7749SOL    HW224147   3.155   3.786   5.831
 7750SOL     OW24148   0.362   6.071   1.335
 7750SOL    HW124149   0.441   6.018   1.307
 7750SOL    HW224150   0.352   6.066   1.435
 7751SOL     OW24151   1.628   2.669   2.127
 7751SOL    HW124152   1.608   2.743   2.063
 7751SOL    HW224153   1.633   2.705   2.220
 7752SOL     OW24154   5.495   6.646   5.842
 7752SOL    HW124155   5.590   6.632   5.815
 7752SOL    HW224156   5.470   6.575   5.908
 7753SOL     OW24157   2.322   0.893   3.599
 7753SOL    HW124158   2.382   0.964   3.635
 7753SOL    HW224159   2.373   0.833   3.537
 7754SOL     OW24160   3.483   6.783   2.019
 7754SOL    HW124161   3.491   6.697   2.070
 7754SOL    HW224162   3.405   6.835   2.053
 7755SOL     OW24163   1.893   2.041   5.219
 7755SOL    HW124164   1.948   2.005   5.144
 7755SOL    HW224165   1.832   2.113   5.185
 7756SOL     OW24166   2.840   6.299   2.910
 7756SOL    HW124167   2.887   6.284   2.823
 7756SOL    HW224168   2.857   6.392   2.942
 7757SOL     OW24169   5.732   4.929   6.829
 7757SOL    HW124170   5.766   5.023   6.824
 7757SOL    HW224171   5.632   4.929   6.818
 7758SOL     OW24172   1.970   0.949   5.480
 7758SOL    HW124173   1.886   0.915   5.438
 7758SOL    HW224174   1.953   0.970   5.576
 7759SOL     OW24175   1.531   1.876   5.599
 7759SOL    HW124176   1.481   1.852   5.682
 7759SOL    HW224177   1.615   1.821   5.595
 7760SOL     OW24178   5.869   3.024   2.834
 7760SOL    HW124179   5.826   2.975   2.758
 7760SOL    HW224180   5.867   3.122   2.816
 7761SOL     OW24181   0.476   0.464   4.458
 7761SOL    HW124182   0.564   0.428   4.426
 7761SOL    HW224183   0.426   0.504   4.382
 7762SOL     OW24184   2.967   6.671   4.028
 7762SOL    HW124185   3.043   6.608   4.038
 7762SOL    HW224186   3.000   6.758   3.993
 7763SOL     OW24187   1.929   0.689   6.166
 7763SOL    HW124188   1.898   0.756   6.234
 7763SOL    HW224189   1.901   0.718   6.075
 7764SOL     OW24190   3.400   3.210   4.166
 7764SOL    HW124191   3.350   3.266   4.100
 7764SOL    HW224192   3.415   3.263   4.250
 7765SOL     OW24193   6.122   3.832   5.070
 7765SOL    HW124194   6.196   3.795   5.126
 7765SOL    HW224195   6.151   3.837   4.974
 7766SOL     OW24196   0.007   3.857   0.132
 7766SOL    HW124197   0.061   3.774   0.115
 7766SOL    HW224198   6.968   3.877   0.053
 7767SOL     OW24199   5.113   6.271   2.479
 7767SOL    HW124200   5.174   6.347   2.502
 7767SOL    HW224201   5.154   6.185   2.510
 7768SOL     OW24202   4.207   4.684   2.635
 7768SOL    HW124203   4.221   4.645   2.726
 7768SOL    HW224204   4.119   4.730   2.631
 7769SOL     OW24205   3.861   1.701   3.096
 7769SOL    HW124206   3.818   1.719   3.184
 7769SOL    HW224207   3.828   1.767   3.029
 7770SOL     OW24208   1.753   4.149   3.896
 7770SOL    HW124209   1.831   4.087   3.890
 7770SOL    HW224210   1.767   4.228   3.837
 7771SOL     OW24211   3.743   1.923   5.263
 7771SOL    HW124212   3.749   1.919   5.363
 7771SOL    HW224213   3.681   1.851   5.231
 7772SOL     OW24214   4.537   0.257   2.953
 7772SOL    HW124215   4.542   0.233   2.856
 7772SOL    HW224216   4.546   0.175   3.009
 7773SOL     OW24217   2.618   5.788   5.198
 7773SOL    HW124218   2.705   5.791   5.247
 7773SOL    HW224219   2.545   5.767   5.263
 7774SOL     OW24220   5.062   2.121   4.248
 7774SOL    HW124221   5.099   2.058   4.316
 7774SOL    HW224222   5.107   2.210   4.257
 7775SOL     OW24223   4.590   6.162   0.719
 7775SOL    HW124224   4.653   6.087   0.740
 7775SOL    HW224225   4.501   6.124   0.691
 7776SOL     OW24226   0.479   5.467   6.029
 7776SOL    HW124227   0.461   5.485   6.126
 7776SOL    HW224228   0.459   5.371   6.009
 7777SOL     OW24229   5.967   6.196   4.059
 7777SOL    HW124230   6.028   6.127   4.019
 7777SOL    HW224231   5.962   6.275   3.998
 7778SOL     OW24232   5.471   4.466   0.145
 7778SOL    HW124233   5.438   4.440   0.235
 7778SOL    HW224234   5.553   4.523   0.154
 7779SOL     OW24235   2.447   1.823   1.422
 7779SOL    HW124236   2.404   1.853   1.508
 7779SOL    HW224237   2.519   1.757   1.443
 7780SOL     OW24238   1.072   4.848   5.355
 7780SOL    HW124239   1.091   4.943   5.329
 7780SOL    HW224240   1.157   4.800   5.371
 7781SOL     OW24241   2.744   4.750   1.061
 7781SOL    HW124242   2.824   4.696   1.088
 7781SOL    HW224243   2.670   4.735   1.127
 7782SOL     OW24244   5.119   5.134   4.352
 7782SOL    HW124245   5.207   5.182   4.354
 7782SOL    HW224246   5.132   5.040   4.381
 7783SOL     OW24247   0.901   6.423   5.029
 7783SOL    HW124248   0.994   6.426   4.994
 7783SOL    HW224249   0.903   6.417   5.129
 7784SOL     OW24250   3.293   2.711   1.887
 7784SOL    HW124251   3.370   2.650   1.867
 7784SOL    HW224252   3.291   2.730   1.985
 7785SOL     OW24253   1.657   6.456   4.722
 7785SOL    HW124254   1.669   6.390   4.796
 7785SOL    HW224255   1.670   6.549   4.757
 7786SOL     OW24256   3.693   6.487   0.701
 7786SOL    HW124257   3.643   6.574   0.704
 7786SOL    HW224258   3.703   6.459   0.606
 7787SOL     OW24259   1.759   3.053   6.278
 7787SOL    HW124260   1.744   2.989   6.353
 7787SOL    HW224261   1.715   3.018   6.195
 7788SOL     OW24262   2.027   4.974   1.275
 7788SOL    HW124263   2.093   4.935   1.338
 7788SOL    HW224264   2.075   5.025   1.204
 7789SOL     OW24265   2.321   6.987   6.082
 7789SOL    HW124266   2.271   0.040   6.132
 7789SOL    HW224267   2.259   6.913   6.058
 7790SOL     OW24268   5.416   5.757   3.347
 7790SOL    HW124269   5.404   5.658   3.339
 7790SOL    HW224270   5.510   5.778   3.373
 7791SOL     OW24271   2.809   5.328   2.711
 7791SOL    HW124272   2.807   5.406   2.774
 7791SOL    HW224273   2.716   5.310   2.678
 7792SOL     OW24274   1.626   5.744   4.421
 7792SOL    HW124275   1.599   5.828   4.468
 7792SOL    HW224276   1.724   5.747   4.402
 7793SOL     OW24277   4.207   1.007   1.196
 7793SOL    HW124278   4.217   0.988   1.294
 7793SOL    HW224279   4.149   1.087   1.183
 7794SOL     OW24280   6.371   3.825   2.531
 7794SOL    HW124281   6.320   3.906   2.502
 7794SOL    HW224282   6.409   3.779   2.451
 7795SOL     OW24283   1.712   4.005   5.160
 7795SOL    HW124284   1.705   3.912   5.126
 7795SOL    HW224285   1.679   4.009   5.254
 7796SOL     OW24286   3.564   2.865   4.686
 7796SOL    HW124287   3.495   2.812   4.737
 7796SOL    HW224288   3.596   2.941   4.743
 7797SOL     OW24289   1.608   7.002   1.864
 7797SOL    HW124290   1.540   6.953   1.919
 7797SOL    HW224291   1.608   6.965   1.770
 7798SOL     OW24292   1.458   3.466   3.744
 7798SOL    HW124293   1.427   3.558   3.770
 7798SOL    HW224294   1.399   3.398   3.788
 7799SOL     OW24295   1.964   5.947   2.964
 7799SOL    HW124296   2.017   5.953   2.880
 7799SOL    HW224297   1.867   5.943   2.942
 7800SOL     OW24298   0.969   5.563   2.511
 7800SOL    HW124299   0.970   5.463   2.518
 7800SOL    HW224300   0.976   5.603   2.603
 7801SOL     OW24301   1.810   1.654   1.547
 7801SOL    HW124302   1.777   1.627   1.457
 7801SOL    HW224303   1.783   1.749   1.565
 7802SOL     OW24304   5.704   2.909   1.243
 7802SOL    HW124305   5.729   2.855   1.162
 7802SOL    HW224306   5.614   2.951   1.230
 7803SOL     OW24307   4.042   2.341   5.774
 7803SOL    HW124308   4.021   2.374   5.866
 7803SOL    HW224309   4.141   2.344   5.759
 7804SOL     OW24310   4.641   2.086   5.141
 7804SOL    HW124311   4.607   2.174   5.175
 7804SOL    HW224312   4.734   2.097   5.106
 7805SOL     OW24313   5.525   3.235   1.602
 7805SOL    HW124314   5.425   3.238   1.598
 7805SOL    HW224315   5.562   3.245   1.510
 7806SOL     OW24316   6.605   2.154   6.512
 7806SOL    HW124317   6.552   2.072   6.535
 7806SOL    HW224318   6.697   2.146   6.550
 7807SOL     OW24319   1.431   4.687   6.094
 7807SOL    HW124320   1.521   4.682   6.049
 7807SOL    HW224321   1.439   4.654   6.188
 7808SOL     OW24322   6.373   3.380   4.519
 7808SOL    HW124323   6.342   3.288   4.494
 7808SOL    HW224324   6.298   3.445   4.508
 7809SOL     OW24325   4.264   5.106   4.509
 7809SOL    HW124326   4.327   5.090   4.432
 7809SOL    HW224327   4.199   5.030   4.515
 7810SOL     OW24328   3.347   6.801   4.565
 7810SOL    HW124329   3.282   6.814   4.490
 7810SOL    HW224330   3.308   6.740   4.634
 7811SOL     OW24331   1.270   5.382   2.040
 7811SOL    HW124332   1.192   5.395   2.101
 7811SOL    HW224333   1.334   5.317   2.082
 7812SOL     OW24334   7.018   2.166   4.597
 7812SOL    HW124335   0.035   2.176   4.504
 7812SOL    HW224336   0.034   2.081   4.637
 7813SOL     OW24337   3.992   2.238   0.116
 7813SOL    HW124338   3.964   2.166   0.179
 7813SOL    HW224339   4.046   2.307   0.165
 7814SOL     OW24340   0.516   3.366   3.483
 7814SOL    HW124341   0.554   3.326   3.566
 7814SOL    HW224342   0.417   3.378   3.494
 7815SOL     OW24343   6.067   1.517   4.505
 7815SOL    HW124344   6.097   1.592   4.446
 7815SOL    HW224345   6.141   1.493   4.568
 7816SOL     OW24346   1.464   2.358   6.493
 7816SOL    HW124347   1.492   2.446   6.454
 7816SOL    HW224348   1.386   2.371   6.553
 7817SOL     OW24349   4.828   3.982   4.154
 7817SOL    HW124350   4.761   4.043   4.195
 7817SOL    HW224351   4.907   3.974   4.215
 7818SOL     OW24352   4.981   0.218   2.569
 7818SOL    HW124353   5.001   0.195   2.664
 7818SOL    HW224354   5.012   0.145   2.509
 7819SOL     OW24355   6.773   4.165   3.895
 7819SOL    HW124356   6.771   4.233   3.968
 7819SOL    HW224357   6.855   4.177   3.840
 7820SOL     OW24358   1.484   1.322   5.034
 7820SOL    HW124359   1.504   1.297   5.129
 7820SOL    HW224360   1.409   1.388   5.032
 7821SOL     OW24361   5.229   5.419   6.626
 7821SOL    HW124362   5.158   5.449   6.563
 7821SOL    HW224363   5.306   5.381   6.574
 7822SOL     OW24364   0.778   1.240   0.254
 7822SOL    HW124365   0.724   1.321   0.277
 7822SOL    HW224366   0.875   1.263   0.253
 7823SOL     OW24367   3.185   3.554   6.191
 7823SOL    HW124368   3.231   3.480   6.143
 7823SOL    HW224369   3.176   3.633   6.130
 7824SOL     OW24370   5.428   1.429   4.014
 7824SOL    HW124371   5.373   1.349   3.992
 7824SOL    HW224372   5.508   1.433   3.954
 7825SOL     OW24373   1.025   3.376   0.839
 7825SOL    HW124374   1.079   3.294   0.822
 7825SOL    HW224375   1.066   3.429   0.913
 7826SOL     OW24376   5.842   1.866   0.010
 7826SOL    HW124377   5.843   1.876   6.929
 7826SOL    HW224378   5.813   1.773   0.034
 7827SOL     OW24379   3.302   4.980   1.528
 7827SOL    HW124380   3.369   4.998   1.456
 7827SOL    HW224381   3.293   5.060   1.586
 7828SOL     OW24382   0.675   5.082   0.030
 7828SOL    HW124383   0.740   5.125   0.094
 7828SOL    HW224384   0.721   5.009   6.998
 7829SOL     OW24385   1.899   3.051   6.880
 7829SOL    HW124386   1.835   3.091   6.945
 7829SOL    HW224387   1.991   3.053   6.918
 7830SOL     OW24388   3.893   3.362   5.992
 7830SOL    HW124389   3.981   3.386   5.952
 7830SOL    HW224390   3.835   3.443   5.997
 7831SOL     OW24391   1.413   5.518   1.093
 7831SOL    HW124392   1.501   5.507   1.047
 7831SOL    HW224393   1.347   5.454   1.052
 7832SOL     OW24394   4.059   1.359   4.139
 7832SOL    HW124395   4.056   1.451   4.178
 7832SOL    HW224396   4.150   1.341   4.101
 7833SOL     OW24397   0.420   1.419   6.880
 7833SOL    HW124398   0.426   1.350   6.808
 7833SOL    HW224399   0.333   1.469   6.871
 7834SOL     OW24400   6.943   0.742   3.722
 7834SOL    HW124401   6.971   0.838   3.722
 7834SOL    HW224402   6.874   0.728   3.793
 7835SOL     OW24403   2.341   2.051   5.132
 7835SOL    HW124404   2.262   2.106   5.161
 7835SOL    HW224405   2.370   2.079   5.041
 7836SOL     OW24406   2.948   2.744   5.321
 7836SOL    HW124407   2.983   2.657   5.286
 7836SOL    HW224408   2.983   2.819   5.264
 7837SOL     OW24409   6.717   5.608   1.100
 7837SOL    HW124410   6.753   5.664   1.175
 7837SOL    HW224411   6.679   5.523   1.137
 7838SOL     OW24412   4.273   6.426   6.747
 7838SOL    HW124413   4.308   6.448   6.656
 7838SOL    HW224414   4.317   6.485   6.815
 7839SOL     OW24415   5.963   4.328   5.206
 7839SOL    HW124416   6.012   4.411   5.178
 7839SOL    HW224417   5.990   4.252   5.147
 7840SOL     OW24418   5.634   3.213   4.469
 7840SOL    HW124419   5.612   3.177   4.378
 7840SOL    HW224420   5.593   3.154   4.538
 7841SOL     OW24421   4.433   1.890   6.693
 7841SOL    HW124422   4.444   1.978   6.739
 7841SOL    HW224423   4.462   1.816   6.755
 7842SOL     OW24424   1.933   2.259   2.929
 7842SOL    HW124425   1.979   2.196   2.990
 7842SOL    HW224426   1.834   2.250   2.941
 7843SOL     OW24427   5.553   4.572   2.114
 7843SOL    HW124428   5.647   4.578   2.081
 7843SOL    HW224429   5.517   4.481   2.095
 7844SOL     OW24430   4.436   6.911   3.354
 7844SOL    HW124431   4.501   6.975   3.313
 7844SOL    HW224432   4.343   6.932   3.324
 7845SOL     OW24433   5.852   1.724   3.959
 7845SOL    HW124434   5.911   1.786   4.010
 7845SOL    HW224435   5.794   1.672   4.023
 7846SOL     OW24436   0.717   0.976   2.574
 7846SOL    HW124437   0.771   0.916   2.515
 7846SOL    HW224438   0.756   0.975   2.666
 7847SOL     OW24439   6.675   1.966   2.692
 7847SOL    HW124440   6.735   2.046   2.696
 7847SOL    HW224441   6.711   1.901   2.625
 7848SOL     OW24442   2.750   2.736   0.735
 7848SOL    HW124443   2.824   2.726   0.669
 7848SOL    HW224444   2.692   2.654   0.731
 7849SOL     OW24445   5.248   3.747   2.757
 7849SOL    HW124446   5.333   3.749   2.705
 7849SOL    HW224447   5.228   3.839   2.792
 7850SOL     OW24448   0.960   1.928   4.527
 7850SOL    HW124449   1.007   1.996   4.470
 7850SOL    HW224450   0.869   1.909   4.488
 7851SOL     OW24451   5.969   0.887   1.927
 7851SOL    HW124452   5.877   0.906   1.892
 7851SOL    HW224453   5.962   0.846   2.018
 7852SOL     OW24454   2.649   1.049   5.965
 7852SOL    HW124455   2.633   1.005   5.878
 7852SOL    HW224456   2.593   1.006   6.036
 7853SOL     OW24457   4.609   1.845   1.864
 7853SOL    HW124458   4.660   1.931   1.868
 7853SOL    HW224459   4.511   1.863   1.872
 7854SOL     OW24460   3.193   3.196   0.511
 7854SOL    HW124461   3.109   3.162   0.551
 7854SOL    HW224462   3.228   3.129   0.445
 7855SOL     OW24463   3.376   5.577   5.054
 7855SOL    HW124464   3.277   5.577   5.039
 7855SOL    HW224465   3.409   5.483   5.055
 7856SOL     OW24466   5.965   4.599   5.147
 7856SOL    HW124467   5.955   4.630   5.241
 7856SOL    HW224468   5.891   4.636   5.091
 7857SOL     OW24469   6.117   2.747   5.625
 7857SOL    HW124470   6.192   2.683   5.641
 7857SOL    HW224471   6.030   2.699   5.635
 7858SOL     OW24472   5.301   4.778   3.283
 7858SOL    HW124473   5.359   4.710   3.237
 7858SOL    HW224474   5.236   4.732   3.343
 7859SOL     OW24475   5.494   3.158   6.807
 7859SOL    HW124476   5.450   3.068   6.818
 7859SOL    HW224477   5.480   3.212   6.889
 7860SOL     OW24478   4.739   0.709   2.966
 7860SOL    HW124479   4.821   0.754   3.002
 7860SOL    HW224480   4.659   0.738   3.018
 7861SOL     OW24481   3.789   5.197   2.107
 7861SOL    HW124482   3.782   5.240   2.197
 7861SOL    HW224483   3.869   5.234   2.059
 7862SOL     OW24484   3.028   4.370   1.663
 7862SOL    HW124485   3.039   4.279   1.702
 7862SOL    HW224486   2.966   4.424   1.720
 7863SOL     OW24487   0.091   5.565   3.917
 7863SOL    HW124488   0.118   5.613   4.000
 7863SOL    HW224489   0.171   5.552   3.859
 7864SOL     OW24490   0.398   5.725   5.230
 7864SOL    HW124491   0.367   5.809   5.274
 7864SOL    HW224492   0.497   5.720   5.233
 7865SOL     OW24493   5.634   0.243   4.252
 7865SOL    HW124494   5.726   0.259   4.218
 7865SOL    HW224495   5.567   0.283   4.189
 7866SOL     OW24496   2.210   2.346   6.390
 7866SOL    HW124497   2.184   2.250   6.397
 7866SOL    HW224498   2.214   2.386   6.481
 7867SOL     OW24499   5.164   6.882   2.852
 7867SOL    HW124500   5.165   6.822   2.772
 7867SOL    HW224501   5.247   6.866   2.907
 7868SOL     OW24502   5.827   0.294   2.283
 7868SOL    HW124503   5.808   0.212   2.228
 7868SOL    HW224504   5.879   0.359   2.228
 7869SOL     OW24505   5.581   3.825   0.030
 7869SOL    HW124506   5.645   3.755   0.000
 7869SOL    HW224507   5.632   3.906   0.059
 7870SOL     OW24508   4.058   5.148   4.153
 7870SOL    HW124509   4.012   5.220   4.101
 7870SOL    HW224510   3.991   5.079   4.180
 7871SOL     OW24511   5.255   2.952   2.704
 7871SOL    HW124512   5.192   2.916   2.772
 7871SOL    HW224513   5.219   3.038   2.667
 7872SOL     OW24514   2.135   4.127   2.804
 7872SOL    HW124515   2.152   4.124   2.902
 7872SOL    HW224516   2.163   4.217   2.768
 7873SOL     OW24517   5.983   0.471   5.901
 7873SOL    HW124518   6.073   0.489   5.862
 7873SOL    HW224519   5.977   0.514   5.992
 7874SOL     OW24520   5.211   1.612   0.268
 7874SOL    HW124521   5.302   1.571   0.276
 7874SOL    HW224522   5.166   1.578   0.185
 7875SOL     OW24523   5.034   2.261   6.445
 7875SOL    HW124524   5.101   2.262   6.520
 7875SOL    HW224525   5.080   2.241   6.359
 7876SOL     OW24526   0.139   6.770   4.979
 7876SOL    HW124527   0.185   6.689   4.944
 7876SOL    HW224528   0.207   6.842   4.996
 7877SOL     OW24529   0.479   2.385   2.608
 7877SOL    HW124530   0.480   2.472   2.657
 7877SOL    HW224531   0.435   2.397   2.519
 7878SOL     OW24532   5.497   4.993   3.901
 7878SOL    HW124533   5.554   5.068   3.866
 7878SOL    HW224534   5.411   5.031   3.936
 7879SOL     OW24535   4.323   5.433   3.331
 7879SOL    HW124536   4.272   5.491   3.267
 7879SOL    HW224537   4.293   5.453   3.424
 7880SOL     OW24538   1.990   5.101   1.936
 7880SOL    HW124539   2.038   5.187   1.920
 7880SOL    HW224540   2.031   5.054   2.014
 7881SOL     OW24541   5.580   3.986   5.283
 7881SOL    HW124542   5.533   4.055   5.228
 7881SOL    HW224543   5.514   3.940   5.342
 7882SOL     OW24544   1.048   3.374   3.153
 7882SOL    HW124545   1.071   3.433   3.231
 7882SOL    HW224546   0.964   3.324   3.173
 7883SOL     OW24547   1.503   0.385   0.581
 7883SOL    HW124548   1.522   0.297   0.537
 7883SOL    HW224549   1.414   0.381   0.627
 7884SOL     OW24550   2.188   3.976   3.790
 7884SOL    HW124551   2.163   4.062   3.746
 7884SOL    HW224552   2.235   3.917   3.724
 7885SOL     OW24553   6.353   5.533   1.441
 7885SOL    HW124554   6.276   5.534   1.504
 7885SOL    HW224555   6.376   5.627   1.414
 7886SOL     OW24556   3.851   5.857   0.570
 7886SOL    HW124557   3.772   5.865   0.509
 7886SOL    HW224558   3.903   5.943   0.568
 7887SOL     OW24559   3.200   2.572   5.383
 7887SOL    HW124560   3.202   2.497   5.317
 7887SOL    HW224561   3.290   2.581   5.426
 7888SOL     OW24562   6.652   6.663   5.103
 7888SOL    HW124563   6.560   6.688   5.072
 7888SOL    HW224564   6.646   6.583   5.162
 7889SOL     OW24565   1.058   5.001   7.004
 7889SOL    HW124566   0.966   4.963   7.000
 7889SOL    HW224567   1.125   4.927   6.995
 7890SOL     OW24568   0.279   3.196   3.558
 7890SOL    HW124569   0.370   3.196   3.601
 7890SOL    HW224570   0.257   3.104   3.527
 7891SOL     OW24571   2.077   4.257   4.550
 7891SOL    HW124572   2.139   4.199   4.497
 7891SOL    HW224573   2.002   4.288   4.491
 7892SOL     OW24574   1.905   1.864   4.161
 7892SOL    HW124575   1.811   1.893   4.173
 7892SOL    HW224576   1.926   1.859   4.063
 7893SOL     OW24577   6.391   6.475   1.579
 7893SOL    HW124578   6.413   6.489   1.675
 7893SOL    HW224579   6.406   6.560   1.528
 7894SOL     OW24580   3.632   0.124   0.952
 7894SOL    HW124581   3.653   0.050   1.015
 7894SOL    HW224582   3.714   0.147   0.898
 7895SOL     OW24583   5.138   0.558   4.827
 7895SOL    HW124584   5.202   0.526   4.756
 7895SOL    HW224585   5.162   0.516   4.914
 7896SOL     OW24586   4.006   3.180   0.980
 7896SOL    HW124587   4.096   3.148   1.010
 7896SOL    HW224588   3.999   3.172   0.880
 7897SOL     OW24589   3.297   2.740   1.157
 7897SOL    HW124590   3.271   2.710   1.065
 7897SOL    HW224591   3.235   2.812   1.187
 7898SOL     OW24592   3.568   0.837   3.853
 7898SOL    HW124593   3.549   0.828   3.755
 7898SOL    HW224594   3.587   0.932   3.875
 7899SOL     OW24595   6.080   0.527   1.054
 7899SOL    HW124596   6.110   0.440   1.015
 7899SOL    HW224597   5.988   0.548   1.019
 7900SOL     OW24598   1.571   5.249   2.040
 7900SOL    HW124599   1.647   5.310   2.018
 7900SOL    HW224600   1.557   5.185   1.964
 7901SOL     OW24601   4.008   1.262   6.304
 7901SOL    HW124602   3.925   1.249   6.358
 7901SOL    HW224603   4.003   1.209   6.220
 7902SOL     OW24604   6.371   6.784   1.728
 7902SOL    HW124605   6.416   6.852   1.669
 7902SOL    HW224606   6.439   6.727   1.772
 7903SOL     OW24607   4.371   1.722   2.782
 7903SOL    HW124608   4.397   1.673   2.865
 7903SOL    HW224609   4.275   1.751   2.790
 7904SOL     OW24610   5.712   6.083   2.765
 7904SOL    HW124611   5.727   6.182   2.757
 7904SOL    HW224612   5.777   6.045   2.830
 7905SOL     OW24613   5.785   1.971   0.605
 7905SOL    HW124614   5.847   1.894   0.592
 7905SOL    HW224615   5.777   1.993   0.702
 7906SOL     OW24616   0.581   5.396   0.361
 7906SOL    HW124617   0.547   5.452   0.436
 7906SOL    HW224618   0.664   5.436   0.323
 7907SOL     OW24619   5.339   2.213   3.381
 7907SOL    HW124620   5.396   2.150   3.329
 7907SOL    HW224621   5.393   2.256   3.453
 7908SOL     OW24622   1.538   1.011   5.687
 7908SOL    HW124623   1.533   0.917   5.653
 7908SOL    HW224624   1.545   1.009   5.787
 7909SOL     OW24625   4.760   4.194   4.343
 7909SOL    HW124626   4.768   4.110   4.398
 7909SOL    HW224627   4.812   4.267   4.387
 7910SOL     OW24628   2.756   3.097   6.581
 7910SOL    HW124629   2.765   2.998   6.577
 7910SOL    HW224630   2.836   3.136   6.627
 7911SOL     OW24631   0.916   4.043   0.256
 7911SOL    HW124632   0.920   4.006   0.349
 7911SOL    HW224633   0.967   4.129   0.253
 7912SOL     OW24634   6.397   4.863   0.598
 7912SOL    HW124635   6.460   4.797   0.638
 7912SOL    HW224636   6.436   4.900   0.514
 7913SOL     OW24637   1.151   4.244   1.936
 7913SOL    HW124638   1.137   4.242   1.837
 7913SOL    HW224639   1.249   4.244   1.956
 7914SOL     OW24640   0.557   4.824   0.156
 7914SOL    HW124641   0.633   4.883   0.130
 7914SOL    HW224642   0.519   4.855   0.243
 7915SOL     OW24643   4.828   2.644   1.632
 7915SOL    HW124644   4.771   2.725   1.643
 7915SOL    HW224645   4.870   2.621   1.720
 7916SOL     OW24646   0.219   5.523   5.224
 7916SOL    HW124647   0.222   5.464   5.305
 7916SOL    HW224648   0.295   5.588   5.227
 7917SOL     OW24649   3.050   2.965   5.212
 7917SOL    HW124650   2.995   2.979   5.295
 7917SOL    HW224651   3.145   2.951   5.237
 7918SOL     OW24652   0.597   0.600   4.810
 7918SOL    HW124653   0.575   0.675   4.747
 7918SOL    HW224654   0.604   0.515   4.758
 7919SOL     OW24655   1.309   4.235   3.379
 7919SOL    HW124656   1.258   4.296   3.318
 7919SOL    HW224657   1.251   4.209   3.456
 7920SOL     OW24658   0.282   0.276   0.420
 7920SOL    HW124659   0.301   0.305   0.513
 7920SOL    HW224660   0.299   0.352   0.357
 7921SOL     OW24661   5.178   6.170   2.204
 7921SOL    HW124662   5.193   6.262   2.169
 7921SOL    HW224663   5.104   6.172   2.271
 7922SOL     OW24664   7.010   6.289   1.012
 7922SOL    HW124665   0.000   6.189   1.021
 7922SOL    HW224666   0.065   6.323   0.954
 7923SOL     OW24667   3.857   0.229   6.571
 7923SOL    HW124668   3.799   0.172   6.629
 7923SOL    HW224669   3.818   0.321   6.566
 7924SOL     OW24670   5.178   6.984   2.478
 7924SOL    HW124671   5.207   6.921   2.550
 7924SOL    HW224672   5.251   0.032   2.460
 7925SOL     OW24673   0.971   0.817   6.784
 7925SOL    HW124674   0.957   0.904   6.832
 7925SOL    HW224675   0.888   0.793   6.734
 7926SOL     OW24676   4.601   1.401   5.536
 7926SOL    HW124677   4.698   1.399   5.561
 7926SOL    HW224678   4.546   1.405   5.619
 7927SOL     OW24679   4.121   6.037   3.387
 7927SOL    HW124680   4.210   6.074   3.412
 7927SOL    HW224681   4.134   5.955   3.332
 7928SOL     OW24682   1.511   1.600   4.877
 7928SOL    HW124683   1.531   1.548   4.794
 7928SOL    HW224684   1.535   1.696   4.863
 7929SOL     OW24685   4.663   4.416   5.652
 7929SOL    HW124686   4.713   4.453   5.730
 7929SOL    HW224687   4.696   4.324   5.631
 7930SOL     OW24688   4.406   5.539   4.334
 7930SOL    HW124689   4.428   5.611   4.400
 7930SOL    HW224690   4.414   5.574   4.241
 7931SOL     OW24691   3.386   2.654   0.267
 7931SOL    HW124692   3.416   2.651   0.363
 7931SOL    HW224693   3.422   2.736   0.223
 7932SOL     OW24694   1.453   6.664   6.866
 7932SOL    HW124695   1.457   6.613   6.780
 7932SOL    HW224696   1.508   6.617   6.936
 7933SOL     OW24697   0.142   6.161   6.529
 7933SOL    HW124698   0.048   6.133   6.508
 7933SOL    HW224699   0.175   6.111   6.608
 7934SOL     OW24700   1.984   4.862   6.606
 7934SOL    HW124701   1.895   4.902   6.629
 7934SOL    HW224702   2.034   4.842   6.691
 7935SOL     OW24703   6.006   6.288   1.456
 7935SOL    HW124704   5.930   6.340   1.494
 7935SOL    HW224705   6.076   6.276   1.526
 7936SOL     OW24706   3.968   5.639   1.975
 7936SOL    HW124707   3.869   5.647   1.974
 7936SOL    HW224708   3.998   5.579   1.900
 7937SOL     OW24709   6.490   6.335   3.647
 7937SOL    HW124710   6.509   6.408   3.713
 7937SOL    HW224711   6.541   6.253   3.674
 7938SOL     OW24712   6.773   5.918   4.029
 7938SOL    HW124713   6.674   5.911   4.018
 7938SOL    HW224714   6.800   6.014   4.031
 7939SOL     OW24715   1.318   2.560   4.548
 7939SOL    HW124716   1.388   2.602   4.491
 7939SOL    HW224717   1.298   2.619   4.626
 7940SOL     OW24718   1.823   3.325   1.692
 7940SOL    HW124719   1.763   3.321   1.771
 7940SOL    HW224720   1.907   3.375   1.716
 7941SOL     OW24721   6.156   0.420   1.542
 7941SOL    HW124722   6.211   0.500   1.519
 7941SOL    HW224723   6.061   0.437   1.515
 7942SOL     OW24724   6.704   5.260   2.661
 7942SOL    HW124725   6.709   5.356   2.632
 7942SOL    HW224726   6.638   5.251   2.735
 7943SOL     OW24727   6.895   3.352   6.440
 7943SOL    HW124728   6.991   3.331   6.459
 7943SOL    HW224729   6.853   3.393   6.520
 7944SOL     OW24730   0.753   2.323   0.845
 7944SOL    HW124731   0.704   2.355   0.764
 7944SOL    HW224732   0.848   2.303   0.820
 7945SOL     OW24733   6.276   4.986   1.723
 7945SOL    HW124734   6.330   5.050   1.777
 7945SOL    HW224735   6.194   4.959   1.774
 7946SOL     OW24736   3.645   0.504   6.322
 7946SOL    HW124737   3.589   0.432   6.364
 7946SOL    HW224738   3.646   0.584   6.382
 7947SOL     OW24739   3.756   2.152   6.466
 7947SOL    HW124740   3.724   2.233   6.516
 7947SOL    HW224741   3.830   2.109   6.518
 7948SOL     OW24742   1.391   6.811   1.193
 7948SOL    HW124743   1.324   6.825   1.120
 7948SOL    HW224744   1.481   6.839   1.161
 7949SOL     OW24745   4.621   4.535   4.855
 7949SOL    HW124746   4.533   4.505   4.891
 7949SOL    HW224747   4.693   4.519   4.922
 7950SOL     OW24748   4.775   5.038   3.682
 7950SOL    HW124749   4.786   5.096   3.763
 7950SOL    HW224750   4.681   5.044   3.649
 7951SOL     OW24751   2.151   4.111   1.928
 7951SOL    HW124752   2.148   4.025   1.876
 7951SOL    HW224753   2.058   4.137   1.954
 7952SOL     OW24754   6.821   3.474   6.657
 7952SOL    HW124755   6.836   3.462   6.755
 7952SOL    HW224756   6.730   3.513   6.642
 7953SOL     OW24757   3.009   2.093   3.519
 7953SOL    HW124758   3.107   2.088   3.498
 7953SOL    HW224759   2.963   2.010   3.487
 7954SOL     OW24760   2.930   4.534   6.368
 7954SOL    HW124761   2.925   4.631   6.393
 7954SOL    HW224762   2.953   4.526   6.271
 7955SOL     OW24763   1.902   0.837   6.406
 7955SOL    HW124764   1.859   0.768   6.464
 7955SOL    HW224765   1.887   0.928   6.445
 7956SOL     OW24766   4.309   6.955   2.587
 7956SOL    HW124767   4.322   7.002   2.500
 7956SOL    HW224768   4.232   6.892   2.581
 7957SOL     OW24769   0.912   0.638   1.192
 7957SOL    HW124770   0.983   0.703   1.163
 7957SOL    HW224771   0.931   0.609   1.286
 7958SOL     OW24772   3.815   4.784   5.410
 7958SOL    HW124773   3.825   4.875   5.449
 7958SOL    HW224774   3.904   4.738   5.412
 7959SOL     OW24775   4.526   5.848   0.323
 7959SOL    HW124776   4.561   5.892   0.241
 7959SOL    HW224777   4.579   5.878   0.403
 7960SOL     OW24778   2.527   1.801   6.057
 7960SOL    HW124779   2.608   1.783   6.001
 7960SOL    HW224780   2.523   1.734   6.131
 7961SOL     OW24781   6.540   0.963   1.082
 7961SOL    HW124782   6.466   0.912   1.037
 7961SOL    HW224783   6.512   1.059   1.093
 7962SOL     OW24784   1.011   0.443   6.165
 7962SOL    HW124785   1.108   0.460   6.184
 7962SOL    HW224786   0.959   0.528   6.178
 7963SOL     OW24787   6.541   6.757   3.855
 7963SOL    HW124788   6.448   6.785   3.876
 7963SOL    HW224789   6.574   6.807   3.774
 7964SOL     OW24790   0.205   4.418   2.556
 7964SOL    HW124791   0.224   4.353   2.630
 7964SOL    HW224792   0.146   4.375   2.488
 7965SOL     OW24793   4.581   2.569   5.343
 7965SOL    HW124794   4.529   2.563   5.428
 7965SOL    HW224795   4.651   2.497   5.341
 7966SOL     OW24796   1.836   3.083   5.703
 7966SOL    HW124797   1.858   3.037   5.789
 7966SOL    HW224798   1.893   3.045   5.629
 7967SOL     OW24799   3.316   6.569   2.598
 7967SOL    HW124800   3.345   6.473   2.605
 7967SOL    HW224801   3.216   6.575   2.609
 7968SOL     OW24802   1.783   2.706   3.727
 7968SOL    HW124803   1.838   2.628   3.756
 7968SOL    HW224804   1.751   2.756   3.808
 7969SOL     OW24805   4.229   6.313   0.063
 7969SOL    HW124806   4.251   6.410   0.066
 7969SOL    HW224807   4.312   6.260   0.047
 7970SOL     OW24808   6.826   3.026   2.743
 7970SOL    HW124809   6.765   2.953   2.711
 7970SOL    HW224810   6.796   3.059   2.832
 7971SOL     OW24811   2.978   1.997   0.469
 7971SOL    HW124812   2.879   2.010   0.462
 7971SOL    HW224813   3.000   1.956   0.558
 7972SOL     OW24814   2.239   3.176   6.768
 7972SOL    HW124815   2.215   3.092   6.717
 7972SOL    HW224816   2.325   3.212   6.733
 7973SOL     OW24817   4.280   4.848   4.290
 7973SOL    HW124818   4.375   4.837   4.318
 7973SOL    HW224819   4.220   4.831   4.368
 7974SOL     OW24820   6.053   0.690   5.568
 7974SOL    HW124821   6.109   0.643   5.637
 7974SOL    HW224822   6.055   0.788   5.585
 7975SOL     OW24823   6.426   1.465   2.185
 7975SOL    HW124824   6.480   1.549   2.191
 7975SOL    HW224825   6.332   1.488   2.159
 7976SOL     OW24826   0.359   0.409   6.086
 7976SOL    HW124827   0.288   0.461   6.039
 7976SOL    HW224828   0.355   0.313   6.056
 7977SOL     OW24829   5.056   6.028   2.613
 7977SOL    HW124830   4.965   6.068   2.598
 7977SOL    HW224831   5.081   5.973   2.534
 7978SOL     OW24832   5.517   3.856   6.753
 7978SOL    HW124833   5.541   3.895   6.841
 7978SOL    HW224834   5.525   3.756   6.756
 7979SOL     OW24835   4.496   6.032   4.987
 7979SOL    HW124836   4.521   6.121   4.949
 7979SOL    HW224837   4.546   5.960   4.938
 7980SOL     OW24838   3.186   5.554   0.165
 7980SOL    HW124839   3.198   5.642   0.211
 7980SOL    HW224840   3.101   5.512   0.195
 7981SOL     OW24841   0.522   5.209   1.168
 7981SOL    HW124842   0.542   5.253   1.256
 7981SOL    HW224843   0.476   5.275   1.108
 7982SOL     OW24844   1.529   1.365   6.740
 7982SOL    HW124845   1.490   1.441   6.792
 7982SOL    HW224846   1.492   1.365   6.647
 7983SOL     OW24847   5.832   2.337   1.605
 7983SOL    HW124848   5.732   2.349   1.600
 7983SOL    HW224849   5.853   2.246   1.640
 7984SOL     OW24850   0.844   1.358   0.739
 7984SOL    HW124851   0.914   1.348   0.668
 7984SOL    HW224852   0.839   1.275   0.793
 7985SOL     OW24853   2.740   1.014   4.237
 7985SOL    HW124854   2.802   0.938   4.253
 7985SOL    HW224855   2.789   1.090   4.194
 7986SOL     OW24856   3.246   1.296   6.133
 7986SOL    HW124857   3.289   1.245   6.208
 7986SOL    HW224858   3.256   1.394   6.149
 7987SOL     OW24859   1.203   2.787   6.419
 7987SOL    HW124860   1.119   2.734   6.419
 7987SOL    HW224861   1.239   2.794   6.326
 7988SOL     OW24862   0.620   2.041   3.555
 7988SOL    HW124863   0.543   2.096   3.522
 7988SOL    HW224864   0.619   2.039   3.655
 7989SOL     OW24865   2.922   2.765   6.235
 7989SOL    HW124866   2.978   2.830   6.286
 7989SOL    HW224867   2.942   2.772   6.137
 7990SOL     OW24868   0.747   3.917   4.787
 7990SOL    HW124869   0.838   3.946   4.816
 7990SOL    HW224870   0.748   3.819   4.769
 7991SOL     OW24871   5.818   6.601   3.358
 7991SOL    HW124872   5.733   6.555   3.329
 7991SOL    HW224873   5.816   6.616   3.457
 7992SOL     OW24874   1.083   0.132   1.006
 7992SOL    HW124875   1.111   0.065   0.937
 7992SOL    HW224876   1.151   0.205   1.011
 7993SOL     OW24877   0.791   6.829   0.478
 7993SOL    HW124878   0.839   6.769   0.542
 7993SOL    HW224879   0.746   6.774   0.408
 7994SOL     OW24880   4.137   0.045   3.633
 7994SOL    HW124881   4.216   0.103   3.651
 7994SOL    HW224882   4.105   0.004   3.718
 7995SOL     OW24883   5.181   5.972   3.999
 7995SOL    HW124884   5.261   5.918   4.027
 7995SOL    HW224885   5.099   5.936   4.043
 7996SOL     OW24886   2.413   6.739   4.980
 7996SOL    HW124887   2.383   6.759   4.887
 7996SOL    HW224888   2.393   6.818   5.039
 7997SOL     OW24889   6.952   1.479   0.964
 7997SOL    HW124890   6.911   1.436   0.884
 7997SOL    HW224891   0.019   1.432   0.987
 7998SOL     OW24892   3.153   6.950   0.658
 7998SOL    HW124893   3.231   6.987   0.708
 7998SOL    HW224894   3.069   6.991   0.692
 7999SOL     OW24895   0.984   0.228   5.971
 7999SOL    HW124896   0.975   0.292   6.047
 7999SOL    HW224897   1.045   0.266   5.902
 8000SOL     OW24898   4.792   0.509   6.703
 8000SOL    HW124899   4.851   0.579   6.744
 8000SOL    HW224900   4.755   0.450   6.775
 8001SOL     OW24901   4.512   6.473   1.170
 8001SOL    HW124902   4.599   6.509   1.205
 8001SOL    HW224903   4.527   6.435   1.079
 8002SOL     OW24904   1.443   1.358   5.725
 8002SOL    HW124905   1.499   1.381   5.645
 8002SOL    HW224906   1.454   1.429   5.795
 8003SOL     OW24907   3.328   5.254   2.415
 8003SOL    HW124908   3.295   5.227   2.325
 8003SOL    HW224909   3.423   5.224   2.426
 8004SOL     OW24910   2.133   3.302   2.883
 8004SOL    HW124911   2.050   3.247   2.887
 8004SOL    HW224912   2.117   3.383   2.827
 8005SOL     OW24913   3.045   0.847   1.272
 8005SOL    HW124914   2.998   0.915   1.328
 8005SOL    HW224915   2.988   0.823   1.193
 8006SOL     OW24916   2.215   6.744   5.980
 8006SOL    HW124917   2.259   6.686   6.049
 8006SOL    HW224918   2.229   6.703   5.889
 8007SOL     OW24919   6.711   0.579   4.368
 8007SOL    HW124920   6.656   0.499   4.344
 8007SOL    HW224921   6.696   0.603   4.464
 8008SOL     OW24922   3.976   5.215   6.377
 8008SOL    HW124923   3.987   5.126   6.333
 8008SOL    HW224924   3.991   5.288   6.311
 8009SOL     OW24925   5.857   1.052   2.324
 8009SOL    HW124926   5.831   1.120   2.392
 8009SOL    HW224927   5.948   1.016   2.345
 8010SOL     OW24928   1.580   1.617   5.835
 8010SOL    HW124929   1.629   1.669   5.766
 8010SOL    HW224930   1.641   1.596   5.911
 8011SOL     OW24931   2.788   2.527   1.214
 8011SOL    HW124932   2.817   2.519   1.309
 8011SOL    HW224933   2.868   2.523   1.154
 8012SOL     OW24934   1.886   3.818   1.458
 8012SOL    HW124935   1.864   3.722   1.478
 8012SOL    HW224936   1.815   3.857   1.399
 8013SOL     OW24937   1.531   5.354   3.223
 8013SOL    HW124938   1.480   5.331   3.307
 8013SOL    HW224939   1.478   5.324   3.143
 8014SOL     OW24940   1.118   6.025   5.606
 8014SOL    HW124941   1.021   6.016   5.585
 8014SOL    HW224942   1.172   5.984   5.532
 8015SOL     OW24943   3.258   0.575   6.406
 8015SOL    HW124944   3.189   0.594   6.476
 8015SOL    HW224945   3.244   0.634   6.327
 8016SOL     OW24946   4.797   0.514   5.793
 8016SOL    HW124947   4.814   0.467   5.706
 8016SOL    HW224948   4.708   0.558   5.790
 8017SOL     OW24949   5.769   0.187   0.487
 8017SOL    HW124950   5.747   0.284   0.493
 8017SOL    HW224951   5.698   0.140   0.434
 8018SOL     OW24952   3.430   2.037   6.290
 8018SOL    HW124953   3.402   2.105   6.358
 8018SOL    HW224954   3.357   1.969   6.280
 8019SOL     OW24955   2.463   4.206   0.036
 8019SOL    HW124956   2.388   4.260   0.076
 8019SOL    HW224957   2.434   4.171   6.965
 8020SOL     OW24958   5.737   0.693   1.113
 8020SOL    HW124959   5.761   0.707   1.209
 8020SOL    HW224960   5.657   0.632   1.108
 8021SOL     OW24961   1.064   2.642   1.202
 8021SOL    HW124962   0.971   2.620   1.232
 8021SOL    HW224963   1.066   2.732   1.160
 8022SOL     OW24964   5.503   6.880   3.166
 8022SOL    HW124965   5.480   6.865   3.070
 8022SOL    HW224966   5.423   6.912   3.215
 8023SOL     OW24967   5.790   5.054   2.581
 8023SOL    HW124968   5.761   4.958   2.584
 8023SOL    HW224969   5.723   5.108   2.531
 8024SOL     OW24970   1.795   4.831   6.223
 8024SOL    HW124971   1.866   4.778   6.271
 8024SOL    HW224972   1.810   4.826   6.125
 8025SOL     OW24973   1.720   6.512   6.538
 8025SOL    HW124974   1.755   6.418   6.530
 8025SOL    HW224975   1.785   6.575   6.494
 8026SOL     OW24976   0.375   4.345   6.889
 8026SOL    HW124977   0.467   4.377   6.913
 8026SOL    HW224978   0.363   4.352   6.790
 8027SOL     OW24979   4.829   1.108   4.655
 8027SOL    HW124980   4.776   1.184   4.617
 8027SOL    HW224981   4.927   1.129   4.649
 8028SOL     OW24982   3.792   5.463   5.244
 8028SOL    HW124983   3.740   5.414   5.174
 8028SOL    HW224984   3.732   5.526   5.293
 8029SOL     OW24985   4.556   3.067   1.231
 8029SOL    HW124986   4.478   3.057   1.292
 8029SOL    HW224987   4.589   2.976   1.202
 8030SOL     OW24988   4.469   4.644   0.639
 8030SOL    HW124989   4.429   4.677   0.553
 8030SOL    HW224990   4.470   4.544   0.639
 8031SOL     OW24991   6.427   6.565   2.159
 8031SOL    HW124992   6.479   6.480   2.173
 8031SOL    HW224993   6.490   6.639   2.137
 8032SOL     OW24994   6.494   4.621   1.427
 8032SOL    HW124995   6.428   4.673   1.373
 8032SOL    HW224996   6.445   4.569   1.497
 8033SOL     OW24997   4.956   1.294   5.755
 8033SOL    HW124998   4.997   1.352   5.684
 8033SOL    HW224999   5.015   1.293   5.835
 8034SOL     OW25000   4.723   0.231   4.421
 8034SOL    HW125001   4.767   0.170   4.355
 8034SOL    HW225002   4.770   0.319   4.421
 8035SOL     OW25003   5.058   1.748   4.201
 8035SOL    HW125004   4.997   1.711   4.271
 8035SOL    HW225005   5.126   1.807   4.244
 8036SOL     OW25006   6.907   3.988   3.436
 8036SOL    HW125007   6.841   4.017   3.506
 8036SOL    HW225008   6.998   3.979   3.476
 8037SOL     OW25009   1.702   3.093   0.318
 8037SOL    HW125010   1.749   3.182   0.316
 8037SOL    HW225011   1.761   3.023   0.278
 8038SOL     OW25012   4.527   6.733   2.837
 8038SOL    HW125013   4.430   6.736   2.811
 8038SOL    HW225014   4.580   6.691   2.764
 8039SOL     OW25015   0.621   1.553   4.707
 8039SOL    HW125016   0.628   1.532   4.609
 8039SOL    HW225017   0.536   1.514   4.743
 8040SOL     OW25018   1.744   5.269   6.895
 8040SOL    HW125019   1.688   5.189   6.873
 8040SOL    HW225020   1.802   5.291   6.817
 8041SOL     OW25021   2.601   1.879   2.613
 8041SOL    HW125022   2.574   1.794   2.659
 8041SOL    HW225023   2.577   1.873   2.516
 8042SOL     OW25024   3.163   3.033   4.015
 8042SOL    HW125025   3.176   3.005   3.919
 8042SOL    HW225026   3.133   3.129   4.017
 8043SOL     OW25027   3.589   6.216   1.441
 8043SOL    HW125028   3.646   6.297   1.441
 8043SOL    HW225029   3.599   6.168   1.529
 8044SOL     OW25030   4.022   2.287   1.110
 8044SOL    HW125031   4.029   2.309   1.013
 8044SOL    HW225032   3.926   2.285   1.137
 8045SOL     OW25033   5.255   2.312   2.845
 8045SOL    HW125034   5.289   2.260   2.766
 8045SOL    HW225035   5.197   2.254   2.901
 8046SOL     OW25036   0.322   5.274   1.471
 8046SOL    HW125037   0.286   5.239   1.385
 8046SOL    HW225038   0.392   5.343   1.453
 8047SOL     OW25039   4.433   5.737   4.503
 8047SOL    HW125040   4.335   5.754   4.517
 8047SOL    HW225041   4.475   5.819   4.464
 8048SOL     OW25042   5.182   1.066   5.561
 8048SOL    HW125043   5.165   1.115   5.647
 8048SOL    HW225044   5.220   1.130   5.494
 8049SOL     OW25045   0.833   0.199   0.392
 8049SOL    HW125046   0.871   0.160   0.308
 8049SOL    HW225047   0.733   0.204   0.384
 8050SOL     OW25048   1.519   3.848   3.547
 8050SOL    HW125049   1.543   3.872   3.641
 8050SOL    HW225050   1.593   3.794   3.507
 8051SOL     OW25051   4.970   5.790   3.448
 8051SOL    HW125052   5.000   5.790   3.544
 8051SOL    HW225053   5.000   5.705   3.405
 8052SOL     OW25054   4.028   1.325   1.664
 8052SOL    HW125055   3.942   1.377   1.661
 8052SOL    HW225056   4.018   1.241   1.611
 8053SOL     OW25057   2.932   3.679   3.735
 8053SOL    HW125058   2.937   3.674   3.635
 8053SOL    HW225059   2.933   3.774   3.764
 8054SOL     OW25060   5.732   6.422   4.294
 8054SOL    HW125061   5.711   6.327   4.318
 8054SOL    HW225062   5.831   6.436   4.296
 8055SOL     OW25063   0.588   0.178   5.254
 8055SOL    HW125064   0.568   0.256   5.195
 8055SOL    HW225065   0.686   0.178   5.276
 8056SOL     OW25066   2.526   1.081   3.703
 8056SOL    HW125067   2.622   1.066   3.728
 8056SOL    HW225068   2.518   1.164   3.648
 8057SOL     OW25069   2.986   2.091   2.881
 8057SOL    HW125070   2.916   2.157   2.911
 8057SOL    HW225071   2.946   1.999   2.879
 8058SOL     OW25072   3.544   0.052   2.980
 8058SOL    HW125073   3.494   7.016   2.913
 8058SOL    HW225074   3.617   0.104   2.935
 8059SOL     OW25075   3.284   1.885   5.120
 8059SOL    HW125076   3.354   1.942   5.078
 8059SOL    HW225077   3.231   1.839   5.049
 8060SOL     OW25078   6.054   2.225   5.043
 8060SOL    HW125079   6.118   2.236   5.119
 8060SOL    HW225080   5.989   2.151   5.064
 8061SOL     OW25081   0.360   1.028   3.173
 8061SOL    HW125082   0.285   1.078   3.217
 8061SOL    HW225083   0.410   1.089   3.113
 8062SOL     OW25084   3.838   4.994   3.734
 8062SOL    HW125085   3.751   5.025   3.772
 8062SOL    HW225086   3.881   4.929   3.797
 8063SOL     OW25087   1.456   2.300   1.717
 8063SOL    HW125088   1.472   2.378   1.779
 8063SOL    HW225089   1.480   2.215   1.764
 8064SOL     OW25090   0.109   3.494   1.731
 8064SOL    HW125091   0.135   3.543   1.815
 8064SOL    HW225092   0.175   3.420   1.715
 8065SOL     OW25093   2.501   5.490   3.717
 8065SOL    HW125094   2.508   5.587   3.740
 8065SOL    HW225095   2.587   5.444   3.737
 8066SOL     OW25096   0.692   1.881   5.080
 8066SOL    HW125097   0.608   1.934   5.077
 8066SOL    HW225098   0.719   1.854   4.988
 8067SOL     OW25099   4.924   2.834   2.082
 8067SOL    HW125100   4.853   2.902   2.066
 8067SOL    HW225101   4.984   2.865   2.156
 8068SOL     OW25102   0.169   3.715   1.305
 8068SOL    HW125103   0.105   3.791   1.309
 8068SOL    HW225104   0.142   3.645   1.371
 8069SOL     OW25105   2.928   5.940   1.503
 8069SOL    HW125106   2.888   5.932   1.595
 8069SOL    HW225107   2.995   6.014   1.503
 8070SOL     OW25108   4.270   3.239   0.354
 8070SOL    HW125109   4.291   3.259   0.258
 8070SOL    HW225110   4.332   3.291   0.413
 8071SOL     OW25111   3.054   6.279   4.645
 8071SOL    HW125112   2.981   6.325   4.695
 8071SOL    HW225113   3.142   6.302   4.686
 8072SOL     OW25114   3.972   1.690   1.066
 8072SOL    HW125115   3.997   1.620   1.131
 8072SOL    HW225116   4.028   1.772   1.081
 8073SOL     OW25117   3.107   5.141   4.791
 8073SOL    HW125118   3.172   5.065   4.794
 8073SOL    HW225119   3.129   5.205   4.864
 8074SOL     OW25120   3.540   2.930   0.568
 8074SOL    HW125121   3.635   2.903   0.556
 8074SOL    HW225122   3.536   3.025   0.598
 8075SOL     OW25123   6.978   0.324   0.856
 8075SOL    HW125124   6.992   0.228   0.830
 8075SOL    HW225125   6.958   0.378   0.774
 8076SOL     OW25126   6.306   1.378   5.522
 8076SOL    HW125127   6.264   1.468   5.524
 8076SOL    HW225128   6.353   1.365   5.435
 8077SOL     OW25129   3.263   6.085   2.640
 8077SOL    HW125130   3.283   5.999   2.593
 8077SOL    HW225131   3.245   6.066   2.737
 8078SOL     OW25132   0.096   1.921   0.583
 8078SOL    HW125133   0.082   1.875   0.495
 8078SOL    HW225134   0.194   1.925   0.603
 8079SOL     OW25135   5.082   2.182   3.887
 8079SOL    HW125136   5.064   2.084   3.879
 8079SOL    HW225137   5.178   2.197   3.910
 8080SOL     OW25138   1.187   2.561   0.958
 8080SOL    HW125139   1.118   2.568   0.887
 8080SOL    HW225140   1.147   2.583   1.047
 8081SOL     OW25141   6.065   5.895   5.594
 8081SOL    HW125142   5.991   5.843   5.550
 8081SOL    HW225143   6.081   5.859   5.685
 8082SOL     OW25144   4.490   0.127   2.709
 8082SOL    HW125145   4.422   0.060   2.680
 8082SOL    HW225146   4.582   0.095   2.684
 8083SOL     OW25147   4.911   3.001   3.217
 8083SOL    HW125148   4.917   3.050   3.304
 8083SOL    HW225149   5.003   2.987   3.180
 8084SOL     OW25150   4.178   6.854   0.180
 8084SOL    HW125151   4.170   6.924   0.109
 8084SOL    HW225152   4.096   6.854   0.237
 8085SOL     OW25153   6.948   6.356   1.823
 8085SOL    HW125154   6.870   6.392   1.774
 8085SOL    HW225155   0.015   6.391   1.782
 8086SOL     OW25156   5.929   0.394   2.878
 8086SOL    HW125157   6.012   0.359   2.833
 8086SOL    HW225158   5.934   0.494   2.885
 8087SOL     OW25159   2.861   1.300   0.018
 8087SOL    HW125160   2.783   1.354   0.050
 8087SOL    HW225161   2.946   1.337   0.057
 8088SOL     OW25162   5.679   2.197   1.391
 8088SOL    HW125163   5.637   2.280   1.356
 8088SOL    HW225164   5.776   2.196   1.367
 8089SOL     OW25165   5.596   2.385   0.652
 8089SOL    HW125166   5.629   2.309   0.596
 8089SOL    HW225167   5.616   2.471   0.605
 8090SOL     OW25168   4.149   2.168   0.513
 8090SOL    HW125169   4.125   2.259   0.548
 8090SOL    HW225170   4.067   2.124   0.477
 8091SOL     OW25171   2.172   3.621   5.206
 8091SOL    HW125172   2.256   3.652   5.251
 8091SOL    HW225173   2.116   3.700   5.182
 8092SOL     OW25174   5.579   2.009   4.674
 8092SOL    HW125175   5.480   2.000   4.672
 8092SOL    HW225176   5.620   1.948   4.606
 8093SOL     OW25177   3.941   5.505   2.744
 8093SOL    HW125178   3.973   5.544   2.657
 8093SOL    HW225179   3.951   5.405   2.741
 8094SOL     OW25180   1.442   3.549   4.781
 8094SOL    HW125181   1.510   3.622   4.771
 8094SOL    HW225182   1.426   3.505   4.693
 8095SOL     OW25183   0.222   4.390   4.553
 8095SOL    HW125184   0.278   4.469   4.578
 8095SOL    HW225185   0.151   4.376   4.622
 8096SOL     OW25186   2.255   6.437   3.315
 8096SOL    HW125187   2.195   6.508   3.353
 8096SOL    HW225188   2.261   6.448   3.216
 8097SOL     OW25189   4.182   0.057   3.944
 8097SOL    HW125190   4.166   0.156   3.935
 8097SOL    HW225191   4.279   0.041   3.962
 8098SOL     OW25192   1.683   6.994   3.077
 8098SOL    HW125193   1.652   0.042   3.146
 8098SOL    HW225194   1.766   0.010   3.033
 8099SOL     OW25195   3.672   6.885   4.636
 8099SOL    HW125196   3.686   6.803   4.692
 8099SOL    HW225197   3.594   6.871   4.575
 8100SOL     OW25198   6.166   1.063   0.673
 8100SOL    HW125199   6.189   1.160   0.670
 8100SOL    HW225200   6.156   1.028   0.580
 8101SOL     OW25201   2.103   6.432   2.203
 8101SOL    HW125202   2.076   6.520   2.162
 8101SOL    HW225203   2.178   6.447   2.266
 8102SOL     OW25204   0.704   4.278   4.128
 8102SOL    HW125205   0.715   4.263   4.226
 8102SOL    HW225206   0.794   4.283   4.085
 8103SOL     OW25207   3.340   0.115   0.841
 8103SOL    HW125208   3.307   0.136   0.932
 8103SOL    HW225209   3.438   0.095   0.845
 8104SOL     OW25210   4.015   0.571   6.019
 8104SOL    HW125211   3.938   0.605   5.966
 8104SOL    HW225212   4.101   0.595   5.973
 8105SOL     OW25213   0.920   2.921   3.048
 8105SOL    HW125214   0.849   2.962   3.106
 8105SOL    HW225215   0.990   2.989   3.029
 8106SOL     OW25216   2.579   6.144   3.057
 8106SOL    HW125217   2.489   6.142   3.013
 8106SOL    HW225218   2.649   6.167   2.989
 8107SOL     OW25219   0.339   4.965   4.418
 8107SOL    HW125220   0.376   4.900   4.484
 8107SOL    HW225221   0.275   5.026   4.464
 8108SOL     OW25222   6.200   2.737   5.364
 8108SOL    HW125223   6.299   2.731   5.354
 8108SOL    HW225224   6.177   2.764   5.458
 8109SOL     OW25225   0.985   3.980   5.148
 8109SOL    HW125226   1.024   3.942   5.063
 8109SOL    HW225227   1.058   3.992   5.215
 8110SOL     OW25228   3.112   6.181   1.420
 8110SOL    HW125229   3.150   6.221   1.337
 8110SOL    HW225230   3.184   6.130   1.468
 8111SOL     OW25231   4.896   0.644   4.718
 8111SOL    HW125232   4.988   0.623   4.750
 8111SOL    HW225233   4.846   0.692   4.790
 8112SOL     OW25234   1.882   2.224   4.368
 8112SOL    HW125235   1.970   2.235   4.322
 8112SOL    HW225236   1.871   2.296   4.436
 8113SOL     OW25237   2.404   3.404   0.558
 8113SOL    HW125238   2.469   3.480   0.571
 8113SOL    HW225239   2.410   3.341   0.636
 8114SOL     OW25240   1.528   3.854   2.549
 8114SOL    HW125241   1.590   3.874   2.624
 8114SOL    HW225242   1.452   3.919   2.550
 8115SOL     OW25243   3.496   0.673   0.137
 8115SOL    HW125244   3.526   0.580   0.115
 8115SOL    HW225245   3.446   0.672   0.224
 8116SOL     OW25246   4.699   5.148   5.792
 8116SOL    HW125247   4.791   5.108   5.789
 8116SOL    HW225248   4.658   5.144   5.701
 8117SOL     OW25249   1.344   0.853   3.588
 8117SOL    HW125250   1.341   0.753   3.580
 8117SOL    HW225251   1.255   0.886   3.619
 8118SOL     OW25252   5.714   4.376   5.281
 8118SOL    HW125253   5.628   4.346   5.239
 8118SOL    HW225254   5.791   4.347   5.223
 8119SOL     OW25255   5.248   5.126   5.959
 8119SOL    HW125256   5.326   5.135   5.897
 8119SOL    HW225257   5.167   5.098   5.907
 8120SOL     OW25258   3.001   5.222   0.530
 8120SOL    HW125259   2.966   5.142   0.577
 8120SOL    HW225260   2.933   5.255   0.464
 8121SOL     OW25261   0.358   4.990   1.589
 8121SOL    HW125262   0.439   5.044   1.567
 8121SOL    HW225263   0.298   5.044   1.648
 8122SOL     OW25264   0.873   5.305   2.558
 8122SOL    HW125265   0.828   5.268   2.477
 8122SOL    HW225266   0.817   5.377   2.598
 8123SOL     OW25267   6.564   0.997   6.287
 8123SOL    HW125268   6.644   0.940   6.269
 8123SOL    HW225269   6.492   0.940   6.328
 8124SOL     OW25270   5.831   6.708   1.248
 8124SOL    HW125271   5.780   6.635   1.203
 8124SOL    HW225272   5.797   6.797   1.217
 8125SOL     OW25273   1.188   1.583   3.453
 8125SOL    HW125274   1.228   1.641   3.523
 8125SOL    HW225275   1.180   1.635   3.367
 8126SOL     OW25276   5.066   4.806   2.688
 8126SOL    HW125277   4.994   4.869   2.659
 8126SOL    HW225278   5.090   4.745   2.613
 8127SOL     OW25279   2.675   5.170   6.215
 8127SOL    HW125280   2.614   5.146   6.290
 8127SOL    HW225281   2.770   5.155   6.243
 8128SOL     OW25282   2.890   1.076   1.979
 8128SOL    HW125283   2.849   1.014   2.045
 8128SOL    HW225284   2.839   1.072   1.893
 8129SOL     OW25285   4.698   0.928   6.521
 8129SOL    HW125286   4.642   0.875   6.457
 8129SOL    HW225287   4.792   0.894   6.521
 8130SOL     OW25288   0.044   2.923   6.683
 8130SOL    HW125289   0.008   3.009   6.717
 8130SOL    HW225290   0.099   2.879   6.755
 8131SOL     OW25291   3.277   2.049   0.858
 8131SOL    HW125292   3.249   2.059   0.762
 8131SOL    HW225293   3.206   2.087   0.917
 8132SOL     OW25294   5.945   0.114   6.064
 8132SOL    HW125295   5.850   0.084   6.058
 8132SOL    HW225296   6.003   0.038   6.093
 8133SOL     OW25297   2.622   4.868   1.797
 8133SOL    HW125298   2.689   4.805   1.758
 8133SOL    HW225299   2.634   4.872   1.896
 8134SOL     OW25300   0.211   2.503   5.689
 8134SOL    HW125301   0.295   2.518   5.743
 8134SOL    HW225302   0.141   2.568   5.719
 8135SOL     OW25303   2.851   5.755   1.961
 8135SOL    HW125304   2.841   5.656   1.972
 8135SOL    HW225305   2.947   5.780   1.975
 8136SOL     OW25306   4.485   5.682   2.733
 8136SOL    HW125307   4.468   5.608   2.799
 8136SOL    HW225308   4.544   5.750   2.775
 8137SOL     OW25309   3.430   1.388   4.929
 8137SOL    HW125310   3.405   1.484   4.942
 8137SOL    HW225311   3.387   1.352   4.846
 8138SOL     OW25312   6.217   1.316   6.989
 8138SOL    HW125313   6.179   1.224   6.996
 8138SOL    HW225314   6.235   1.352   0.062
 8139SOL     OW25315   0.164   1.085   2.642
 8139SOL    HW125316   0.260   1.057   2.644
 8139SOL    HW225317   0.122   1.063   2.730
 8140SOL     OW25318   4.708   0.202   1.064
 8140SOL    HW125319   4.783   0.158   1.015
 8140SOL    HW225320   4.743   0.244   1.148
 8141SOL     OW25321   4.908   6.736   5.636
 8141SOL    HW125322   4.856   6.683   5.704
 8141SOL    HW225323   4.863   6.823   5.620
 8142SOL     OW25324   1.430   4.815   6.820
 8142SOL    HW125325   1.480   4.812   6.734
 8142SOL    HW225326   1.355   4.880   6.812
 8143SOL     OW25327   6.979   4.480   1.064
 8143SOL    HW125328   6.892   4.431   1.058
 8143SOL    HW225329   6.981   4.537   1.146
 8144SOL     OW25330   6.525   6.729   6.419
 8144SOL    HW125331   6.605   6.709   6.362
 8144SOL    HW225332   6.500   6.648   6.472
 8145SOL     OW25333   5.834   5.459   1.581
 8145SOL    HW125334   5.867   5.465   1.676
 8145SOL    HW225335   5.893   5.396   1.530
 8146SOL     OW25336   4.718   0.944   5.166
 8146SOL    HW125337   4.667   0.952   5.080
 8146SOL    HW225338   4.668   0.990   5.239
 8147SOL     OW25339   6.475   1.849   1.849
 8147SOL    HW125340   6.441   1.939   1.874
 8147SOL    HW225341   6.529   1.855   1.765
 8148SOL     OW25342   4.961   4.274   0.417
 8148SOL    HW125343   4.923   4.268   0.325
 8148SOL    HW225344   4.900   4.330   0.474
 8149SOL     OW25345   3.232   6.266   2.279
 8149SOL    HW125346   3.221   6.352   2.230
 8149SOL    HW225347   3.192   6.274   2.370
 8150SOL     OW25348   2.303   4.186   1.173
 8150SOL    HW125349   2.312   4.271   1.225
 8150SOL    HW225350   2.369   4.185   1.097
 8151SOL     OW25351   5.491   3.799   1.845
 8151SOL    HW125352   5.589   3.819   1.847
 8151SOL    HW225353   5.464   3.774   1.752
 8152SOL     OW25354   6.325   2.340   2.595
 8152SOL    HW125355   6.297   2.436   2.593
 8152SOL    HW225356   6.423   2.333   2.577
 8153SOL     OW25357   1.609   0.249   3.634
 8153SOL    HW125358   1.514   0.227   3.654
 8153SOL    HW225359   1.618   0.346   3.611
 8154SOL     OW25360   3.590   5.415   1.995
 8154SOL    HW125361   3.680   5.380   2.022
 8154SOL    HW225362   3.545   5.454   2.075
 8155SOL     OW25363   1.626   3.269   1.887
 8155SOL    HW125364   1.640   3.214   1.970
 8155SOL    HW225365   1.651   3.364   1.906
 8156SOL     OW25366   5.941   6.343   0.873
 8156SOL    HW125367   6.021   6.400   0.854
 8156SOL    HW225368   5.859   6.386   0.835
 8157SOL     OW25369   6.729   4.902   6.015
 8157SOL    HW125370   6.744   4.804   5.998
 8157SOL    HW225371   6.637   4.927   5.985
 8158SOL     OW25372   5.031   4.854   0.506
 8158SOL    HW125373   5.063   4.803   0.426
 8158SOL    HW225374   5.073   4.816   0.589
 8159SOL     OW25375   2.931   5.737   3.019
 8159SOL    HW125376   2.930   5.683   3.103
 8159SOL    HW225377   2.989   5.818   3.032
 8160SOL     OW25378   5.084   1.117   3.363
 8160SOL    HW125379   5.146   1.190   3.392
 8160SOL    HW225380   5.094   1.102   3.265
 8161SOL     OW25381   5.606   2.529   6.571
 8161SOL    HW125382   5.661   2.451   6.600
 8161SOL    HW225383   5.509   2.503   6.574
 8162SOL     OW25384   5.616   6.800   6.637
 8162SOL    HW125385   5.663   6.744   6.704
 8162SOL    HW225386   5.545   6.746   6.591
 8163SOL     OW25387   2.696   3.944   5.277
 8163SOL    HW125388   2.740   4.034   5.285
 8163SOL    HW225389   2.608   3.954   5.231
 8164SOL     OW25390   5.336   2.228   0.592
 8164SOL    HW125391   5.432   2.248   0.608
 8164SOL    HW225392   5.326   2.134   0.559
 8165SOL     OW25393   0.633   3.757   6.581
 8165SOL    HW125394   0.665   3.695   6.653
 8165SOL    HW225395   0.687   3.841   6.583
 8166SOL     OW25396   1.376   0.501   3.167
 8166SOL    HW125397   1.422   0.413   3.182
 8166SOL    HW225398   1.277   0.487   3.167
 8167SOL     OW25399   6.659   6.767   4.264
 8167SOL    HW125400   6.614   6.856   4.252
 8167SOL    HW225401   6.732   6.758   4.196
 8168SOL     OW25402   1.759   1.494   3.276
 8168SOL    HW125403   1.855   1.501   3.248
 8168SOL    HW225404   1.727   1.400   3.260
 8169SOL     OW25405   4.886   1.677   1.297
 8169SOL    HW125406   4.917   1.770   1.318
 8169SOL    HW225407   4.835   1.640   1.375
 8170SOL     OW25408   1.032   4.666   2.672
 8170SOL    HW125409   0.943   4.712   2.668
 8170SOL    HW225410   1.031   4.586   2.612
 8171SOL     OW25411   1.724   1.947   6.507
 8171SOL    HW125412   1.630   1.954   6.540
 8171SOL    HW225413   1.771   1.874   6.555
 8172SOL     OW25414   0.996   1.907   2.348
 8172SOL    HW125415   1.008   1.812   2.320
 8172SOL    HW225416   0.916   1.914   2.407
 8173SOL     OW25417   5.371   1.143   2.092
 8173SOL    HW125418   5.284   1.119   2.050
 8173SOL    HW225419   5.394   1.075   2.162
 8174SOL     OW25420   6.030   2.905   1.064
 8174SOL    HW125421   5.966   2.828   1.065
 8174SOL    HW225422   6.022   2.955   1.150
 8175SOL     OW25423   0.051   2.371   5.493
 8175SOL    HW125424   6.984   2.403   5.537
 8175SOL    HW225425   0.125   2.435   5.513
 8176SOL     OW25426   2.590   5.315   2.122
 8176SOL    HW125427   2.689   5.318   2.137
 8176SOL    HW225428   2.562   5.393   2.066
 8177SOL     OW25429   3.582   6.497   3.894
 8177SOL    HW125430   3.644   6.419   3.901
 8177SOL    HW225431   3.492   6.471   3.928
 8178SOL     OW25432   2.673   6.005   6.596
 8178SOL    HW125433   2.577   6.025   6.577
 8178SOL    HW225434   2.697   5.916   6.557
 8179SOL     OW25435   5.283   1.861   5.170
 8179SOL    HW125436   5.200   1.916   5.180
 8179SOL    HW225437   5.294   1.802   5.249
 8180SOL     OW25438   6.773   0.083   4.851
 8180SOL    HW125439   6.776   0.166   4.908
 8180SOL    HW225440   6.807   0.104   4.760
 8181SOL     OW25441   2.073   1.663   0.661
 8181SOL    HW125442   2.050   1.581   0.608
 8181SOL    HW225443   2.166   1.655   0.696
 8182SOL     OW25444   3.700   3.294   5.543
 8182SOL    HW125445   3.794   3.316   5.518
 8182SOL    HW225446   3.681   3.326   5.636
 8183SOL     OW25447   6.957   2.162   4.966
 8183SOL    HW125448   0.020   2.216   4.943
 8183SOL    HW225449   6.906   2.208   5.038
 8184SOL     OW25450   6.143   1.565   6.869
 8184SOL    HW125451   6.158   1.474   6.909
 8184SOL    HW225452   6.103   1.625   6.937
 8185SOL     OW25453   2.661   6.506   0.429
 8185SOL    HW125454   2.757   6.480   0.419
 8185SOL    HW225455   2.616   6.503   0.340
 8186SOL     OW25456   3.802   5.799   5.374
 8186SOL    HW125457   3.704   5.806   5.391
 8186SOL    HW225458   3.849   5.775   5.459
 8187SOL     OW25459   1.626   2.435   5.145
 8187SOL    HW125460   1.679   2.355   5.116
 8187SOL    HW225461   1.593   2.422   5.238
 8188SOL     OW25462   5.523   3.025   3.147
 8188SOL    HW125463   5.448   2.971   3.186
 8188SOL    HW225464   5.558   3.089   3.216
 8189SOL     OW25465   4.814   4.629   2.773
 8189SOL    HW125466   4.808   4.661   2.679
 8189SOL    HW225467   4.832   4.706   2.834
 8190SOL     OW25468   4.468   5.317   4.071
 8190SOL    HW125469   4.436   5.411   4.055
 8190SOL    HW225470   4.438   5.259   3.995
 8191SOL     OW25471   4.036   6.514   1.920
 8191SOL    HW125472   4.083   6.568   1.850
 8191SOL    HW225473   4.083   6.427   1.932
 8192SOL     OW25474   4.034   4.983   0.482
 8192SOL    HW125475   3.979   4.981   0.565
 8192SOL    HW225476   4.128   5.011   0.505
 8193SOL     OW25477   6.999   6.290   4.426
 8193SOL    HW125478   0.039   6.361   4.467
 8193SOL    HW225479   6.992   6.212   4.488
 8194SOL     OW25480   5.684   2.300   1.089
 8194SOL    HW125481   5.634   2.326   1.171
 8194SOL    HW225482   5.641   2.341   1.009
 8195SOL     OW25483   1.453   0.222   1.908
 8195SOL    HW125484   1.495   0.309   1.930
 8195SOL    HW225485   1.524   0.152   1.895
 8196SOL     OW25486   3.870   6.148   5.921
 8196SOL    HW125487   3.775   6.120   5.905
 8196SOL    HW225488   3.928   6.110   5.849
 8197SOL     OW25489   4.388   2.161   0.089
 8197SOL    HW125490   4.315   2.191   0.150
 8197SOL    HW225491   4.402   2.062   0.100
 8198SOL     OW25492   3.538   6.734   3.415
 8198SOL    HW125493   3.533   6.668   3.489
 8198SOL    HW225494   3.632   6.743   3.383
 8199SOL     OW25495   5.405   2.846   6.536
 8199SOL    HW125496   5.322   2.828   6.589
 8199SOL    HW225497   5.384   2.847   6.438
 8200SOL     OW25498   4.980   3.918   1.558
 8200SOL    HW125499   4.899   3.960   1.516
 8200SOL    HW225500   5.058   3.927   1.496
 8201SOL     OW25501   5.839   0.287   3.575
 8201SOL    HW125502   5.835   0.274   3.476
 8201SOL    HW225503   5.927   0.252   3.609
 8202SOL     OW25504   6.824   5.858   4.881
 8202SOL    HW125505   6.809   5.957   4.875
 8202SOL    HW225506   6.754   5.817   4.938
 8203SOL     OW25507   4.636   2.346   0.400
 8203SOL    HW125508   4.682   2.390   0.477
 8203SOL    HW225509   4.647   2.247   0.407
 8204SOL     OW25510   2.999   5.473   6.802
 8204SOL    HW125511   2.992   5.472   6.902
 8204SOL    HW225512   3.011   5.568   6.772
 8205SOL     OW25513   0.267   4.550   0.830
 8205SOL    HW125514   0.291   4.632   0.777
 8205SOL    HW225515   0.264   4.573   0.927
 8206SOL     OW25516   4.848   2.542   6.136
 8206SOL    HW125517   4.839   2.505   6.228
 8206SOL    HW225518   4.827   2.470   6.069
 8207SOL     OW25519   3.657   3.824   5.195
 8207SOL    HW125520   3.655   3.728   5.167
 8207SOL    HW225521   3.593   3.876   5.140
 8208SOL     OW25522   2.018   0.094   1.407
 8208SOL    HW125523   2.007   0.052   1.498
 8208SOL    HW225524   2.031   0.192   1.418
 8209SOL     OW25525   0.723   1.342   6.019
 8209SOL    HW125526   0.638   1.368   5.972
 8209SOL    HW225527   0.795   1.407   5.993
 8210SOL     OW25528   2.492   0.514   1.038
 8210SOL    HW125529   2.538   0.483   0.956
 8210SOL    HW225530   2.558   0.559   1.099
 8211SOL     OW25531   3.727   3.961   2.384
 8211SOL    HW125532   3.628   3.979   2.382
 8211SOL    HW225533   3.770   4.007   2.307
 8212SOL     OW25534   2.942   1.676   1.122
 8212SOL    HW125535   2.950   1.690   1.023
 8212SOL    HW225536   2.851   1.706   1.152
 8213SOL     OW25537   5.996   4.609   2.248
 8213SOL    HW125538   6.070   4.544   2.264
 8213SOL    HW225539   6.008   4.689   2.306
 8214SOL     OW25540   0.152   5.726   4.128
 8214SOL    HW125541   0.251   5.712   4.125
 8214SOL    HW225542   0.131   5.820   4.101
 8215SOL     OW25543   2.841   5.707   6.289
 8215SOL    HW125544   2.912   5.767   6.251
 8215SOL    HW225545   2.752   5.737   6.256
 8216SOL     OW25546   5.014   5.895   3.721
 8216SOL    HW125547   5.090   5.945   3.763
 8216SOL    HW225548   4.998   5.810   3.771
 8217SOL     OW25549   2.171   3.876   1.790
 8217SOL    HW125550   2.091   3.820   1.813
 8217SOL    HW225551   2.239   3.819   1.744
 8218SOL     OW25552   0.883   6.685   5.025
 8218SOL    HW125553   0.794   6.725   5.005
 8218SOL    HW225554   0.876   6.585   5.022
 8219SOL     OW25555   3.721   2.981   0.879
 8219SOL    HW125556   3.732   3.044   0.802
 8219SOL    HW225557   3.793   2.912   0.878
 8220SOL     OW25558   3.508   3.607   4.828
 8220SOL    HW125559   3.466   3.600   4.737
 8220SOL    HW225560   3.436   3.607   4.898
 8221SOL     OW25561   6.410   5.678   3.356
 8221SOL    HW125562   6.348   5.626   3.297
 8221SOL    HW225563   6.452   5.752   3.305
 8222SOL     OW25564   5.134   1.843   1.635
 8222SOL    HW125565   5.053   1.864   1.689
 8222SOL    HW225566   5.137   1.746   1.614
 8223SOL     OW25567   1.135   4.262   5.129
 8223SOL    HW125568   1.189   4.276   5.211
 8223SOL    HW225569   1.074   4.183   5.142
 8224SOL     OW25570   5.715   2.528   1.962
 8224SOL    HW125571   5.638   2.583   1.928
 8224SOL    HW225572   5.765   2.580   2.031
 8225SOL     OW25573   3.936   1.108   1.528
 8225SOL    HW125574   3.897   1.177   1.467
 8225SOL    HW225575   3.866   1.079   1.594
 8226SOL     OW25576   3.434   7.015   0.583
 8226SOL    HW125577   3.409   0.093   0.599
 8226SOL    HW225578   3.513   7.011   0.522
 8227SOL     OW25579   6.863   0.878   2.601
 8227SOL    HW125580   6.815   0.966   2.593
 8227SOL    HW225581   6.805   0.813   2.650
 8228SOL     OW25582   0.421   1.501   6.565
 8228SOL    HW125583   0.381   1.410   6.554
 8228SOL    HW225584   0.376   1.565   6.503
 8229SOL     OW25585   3.648   4.216   1.173
 8229SOL    HW125586   3.684   4.294   1.224
 8229SOL    HW225587   3.668   4.226   1.076
 8230SOL     OW25588   4.076   6.366   5.128
 8230SOL    HW125589   4.108   6.453   5.093
 8230SOL    HW225590   4.003   6.381   5.194
 8231SOL     OW25591   2.911   3.015   1.387
 8231SOL    HW125592   2.935   3.106   1.419
 8231SOL    HW225593   2.958   2.946   1.442
 8232SOL     OW25594   5.976   1.977   2.424
 8232SOL    HW125595   5.942   1.935   2.508
 8232SOL    HW225596   5.912   2.048   2.395
 8233SOL     OW25597   1.846   6.906   6.693
 8233SOL    HW125598   1.839   6.964   6.774
 8233SOL    HW225599   1.818   6.813   6.716
 8234SOL     OW25600   3.296   4.015   0.062
 8234SOL    HW125601   3.336   3.962   7.005
 8234SOL    HW225602   3.197   4.026   0.047
 8235SOL     OW25603   0.386   3.750   6.783
 8235SOL    HW125604   0.412   3.727   6.690
 8235SOL    HW225605   0.379   3.850   6.793
 8236SOL     OW25606   6.694   4.621   6.941
 8236SOL    HW125607   6.685   4.670   6.855
 8236SOL    HW225608   6.775   4.562   6.938
 8237SOL     OW25609   4.494   6.328   6.019
 8237SOL    HW125610   4.468   6.421   6.046
 8237SOL    HW225611   4.521   6.276   6.100
 8238SOL     OW25612   0.663   5.317   6.873
 8238SOL    HW125613   0.757   5.327   6.841
 8238SOL    HW225614   0.650   5.224   6.906
 8239SOL     OW25615   0.580   0.786   5.338
 8239SOL    HW125616   0.483   0.767   5.353
 8239SOL    HW225617   0.620   0.824   5.422
 8240SOL     OW25618   3.104   3.998   2.944
 8240SOL    HW125619   3.184   3.967   2.995
 8240SOL    HW225620   3.123   4.087   2.903
 8241SOL     OW25621   2.539   4.936   5.757
 8241SOL    HW125622   2.508   4.841   5.756
 8241SOL    HW225623   2.577   4.958   5.847
 8242SOL     OW25624   0.635   3.617   5.614
 8242SOL    HW125625   0.598   3.534   5.656
 8242SOL    HW225626   0.670   3.678   5.685
 8243SOL     OW25627   6.886   3.696   1.506
 8243SOL    HW125628   6.808   3.634   1.512
 8243SOL    HW225629   6.855   3.790   1.502
 8244SOL     OW25630   0.431   0.172   3.353
 8244SOL    HW125631   0.336   0.144   3.343
 8244SOL    HW225632   0.457   0.231   3.276
 8245SOL     OW25633   3.283   2.128   2.573
 8245SOL    HW125634   3.355   2.158   2.635
 8245SOL    HW225635   3.199   2.180   2.591
 8246SOL     OW25636   0.400   3.771   6.454
 8246SOL    HW125637   0.369   3.863   6.478
 8246SOL    HW225638   0.494   3.758   6.487
 8247SOL     OW25639   2.019   6.903   3.356
 8247SOL    HW125640   2.089   6.918   3.286
 8247SOL    HW225641   1.994   6.991   3.397
 8248SOL     OW25642   0.644   4.397   4.856
 8248SOL    HW125643   0.744   4.397   4.863
 8248SOL    HW225644   0.606   4.444   4.936
 8249SOL     OW25645   2.332   1.402   5.835
 8249SOL    HW125646   2.417   1.371   5.879
 8249SOL    HW225647   2.340   1.500   5.814
 8250SOL     OW25648   2.347   2.138   1.392
 8250SOL    HW125649   2.288   2.093   1.460
 8250SOL    HW225650   2.438   2.097   1.394
 8251SOL     OW25651   5.354   2.534   4.212
 8251SOL    HW125652   5.364   2.541   4.113
 8251SOL    HW225653   5.439   2.564   4.256
 8252SOL     OW25654   4.222   2.077   6.544
 8252SOL    HW125655   4.277   2.017   6.603
 8252SOL    HW225656   4.221   2.169   6.582
 8253SOL     OW25657   3.708   5.633   5.661
 8253SOL    HW125658   3.807   5.618   5.666
 8253SOL    HW225659   3.690   5.731   5.655
 8254SOL     OW25660   4.888   4.667   5.549
 8254SOL    HW125661   4.820   4.670   5.622
 8254SOL    HW225662   4.924   4.574   5.541
 8255SOL     OW25663   1.150   6.341   5.294
 8255SOL    HW125664   1.248   6.317   5.289
 8255SOL    HW225665   1.141   6.438   5.316
 8256SOL     OW25666   7.007   6.173   2.718
 8256SOL    HW125667   0.034   6.095   2.761
 8256SOL    HW225668   0.033   6.193   2.630
 8257SOL     OW25669   5.484   3.995   3.287
 8257SOL    HW125670   5.499   4.033   3.378
 8257SOL    HW225671   5.471   4.070   3.222
 8258SOL     OW25672   4.679   2.736   1.957
 8258SOL    HW125673   4.638   2.823   1.926
 8258SOL    HW225674   4.768   2.754   1.998
 8259SOL     OW25675   3.478   2.132   5.554
 8259SOL    HW125676   3.504   2.049   5.504
 8259SOL    HW225677   3.410   2.182   5.502
 8260SOL     OW25678   2.561   0.144   1.650
 8260SOL    HW125679   2.538   0.093   1.732
 8260SOL    HW225680   2.478   0.158   1.595
 8261SOL     OW25681   5.368   6.574   3.163
 8261SOL    HW125682   5.436   6.636   3.123
 8261SOL    HW225683   5.278   6.617   3.158
 8262SOL     OW25684   1.255   4.660   0.291
 8262SOL    HW125685   1.222   4.690   0.201
 8262SOL    HW225686   1.200   4.703   0.362
 8263SOL     OW25687   6.920   2.909   7.007
 8263SOL    HW125688   6.932   2.957   6.920
 8263SOL    HW225689   6.824   2.882   7.017
 8264SOL     OW25690   1.249   6.631   1.499
 8264SOL    HW125691   1.215   6.687   1.423
 8264SOL    HW225692   1.306   6.687   1.559
 8265SOL     OW25693   5.478   0.336   2.127
 8265SOL    HW125694   5.429   0.340   2.040
 8265SOL    HW225695   5.575   0.354   2.111
 8266SOL     OW25696   2.104   1.101   4.099
 8266SOL    HW125697   2.024   1.146   4.060
 8266SOL    HW225698   2.179   1.102   4.032
 8267SOL     OW25699   0.978   3.721   1.549
 8267SOL    HW125700   0.975   3.784   1.626
 8267SOL    HW225701   0.946   3.767   1.466
 8268SOL     OW25702   2.926   6.120   6.171
 8268SOL    HW125703   2.996   6.189   6.152
 8268SOL    HW225704   2.919   6.108   6.270
 8269SOL     OW25705   4.693   2.821   3.192
 8269SOL    HW125706   4.698   2.759   3.113
 8269SOL    HW225707   4.756   2.897   3.177
 8270SOL     OW25708   3.071   5.774   5.099
 8270SOL    HW125709   3.124   5.724   5.031
 8270SOL    HW225710   2.981   5.796   5.062
 8271SOL     OW25711   6.754   6.869   2.989
 8271SOL    HW125712   6.793   6.853   3.080
 8271SOL    HW225713   6.662   6.909   2.998
 8272SOL     OW25714   6.556   1.433   2.762
 8272SOL    HW125715   6.489   1.420   2.690
 8272SOL    HW225716   6.623   1.502   2.735
 8273SOL     OW25717   3.243   0.920   0.643
 8273SOL    HW125718   3.328   0.970   0.650
 8273SOL    HW225719   3.253   0.830   0.685
 8274SOL     OW25720   4.123   5.472   4.324
 8274SOL    HW125721   4.093   5.469   4.419
 8274SOL    HW225722   4.218   5.442   4.318
 8275SOL     OW25723   5.634   0.623   3.928
 8275SOL    HW125724   5.604   0.533   3.899
 8275SOL    HW225725   5.698   0.615   4.005
 8276SOL     OW25726   0.562   2.105   5.736
 8276SOL    HW125727   0.509   2.089   5.653
 8276SOL    HW225728   0.648   2.151   5.712
 8277SOL     OW25729   1.167   5.918   6.176
 8277SOL    HW125730   1.117   5.837   6.144
 8277SOL    HW225731   1.232   5.947   6.105
 8278SOL     OW25732   3.445   1.758   0.060
 8278SOL    HW125733   3.483   1.679   0.108
 8278SOL    HW225734   3.518   1.805   0.011
 8279SOL     OW25735   6.611   6.427   5.247
 8279SOL    HW125736   6.617   6.399   5.343
 8279SOL    HW225737   6.517   6.416   5.215
 8280SOL     OW25738   3.512   2.649   0.545
 8280SOL    HW125739   3.503   2.749   0.554
 8280SOL    HW225740   3.538   2.610   0.633
 8281SOL     OW25741   2.194   4.399   1.739
 8281SOL    HW125742   2.273   4.407   1.678
 8281SOL    HW225743   2.133   4.327   1.705
 8282SOL     OW25744   3.713   4.336   0.102
 8282SOL    HW125745   3.733   4.313   0.007
 8282SOL    HW225746   3.775   4.287   0.163
 8283SOL     OW25747   1.609   4.663   4.317
 8283SOL    HW125748   1.610   4.711   4.229
 8283SOL    HW225749   1.542   4.705   4.378
 8284SOL     OW25750   1.743   3.989   2.148
 8284SOL    HW125751   1.735   3.940   2.062
 8284SOL    HW225752   1.676   4.063   2.150
 8285SOL     OW25753   4.182   3.938   5.467
 8285SOL    HW125754   4.140   3.921   5.378
 8285SOL    HW225755   4.193   4.036   5.481
 8286SOL     OW25756   5.300   1.621   4.810
 8286SOL    HW125757   5.366   1.547   4.825
 8286SOL    HW225758   5.338   1.707   4.844
 8287SOL     OW25759   0.771   5.192   4.459
 8287SOL    HW125760   0.725   5.122   4.513
 8287SOL    HW225761   0.753   5.282   4.497
 8288SOL     OW25762   2.040   2.724   2.650
 8288SOL    HW125763   2.085   2.780   2.579
 8288SOL    HW225764   2.048   2.627   2.626
 8289SOL     OW25765   6.689   6.976   6.453
 8289SOL    HW125766   6.641   6.889   6.441
 8289SOL    HW225767   6.702   0.001   6.364
 8290SOL     OW25768   5.057   1.555   1.102
 8290SOL    HW125769   5.027   1.597   1.188
 8290SOL    HW225770   5.146   1.513   1.116
 8291SOL     OW25771   6.185   5.499   6.227
 8291SOL    HW125772   6.161   5.417   6.280
 8291SOL    HW225773   6.185   5.476   6.130
 8292SOL     OW25774   2.863   5.358   6.568
 8292SOL    HW125775   2.907   5.448   6.570
 8292SOL    HW225776   2.845   5.327   6.661
 8293SOL     OW25777   2.310   5.176   1.401
 8293SOL    HW125778   2.327   5.086   1.441
 8293SOL    HW225779   2.238   5.222   1.453
 8294SOL     OW25780   6.946   3.390   4.774
 8294SOL    HW125781   6.893   3.475   4.772
 8294SOL    HW225782   6.895   3.317   4.727
 8295SOL     OW25783   4.896   3.583   3.060
 8295SOL    HW125784   4.984   3.623   3.086
 8295SOL    HW225785   4.912   3.501   3.004
 8296SOL     OW25786   2.832   5.803   0.467
 8296SOL    HW125787   2.917   5.753   0.451
 8296SOL    HW225788   2.794   5.834   0.380
 8297SOL     OW25789   6.486   3.144   2.577
 8297SOL    HW125790   6.477   3.151   2.676
 8297SOL    HW225791   6.460   3.230   2.534
 8298SOL     OW25792   6.806   0.680   0.854
 8298SOL    HW125793   6.818   0.668   0.952
 8298SOL    HW225794   6.812   0.777   0.830
 8299SOL     OW25795   0.062   2.997   2.428
 8299SOL    HW125796   0.056   2.907   2.386
 8299SOL    HW225797   0.149   3.039   2.405
 8300SOL     OW25798   0.431   6.740   4.493
 8300SOL    HW125799   0.420   6.783   4.403
 8300SOL    HW225800   0.368   6.783   4.557
 8301SOL     OW25801   4.888   1.278   7.002
 8301SOL    HW125802   4.901   1.358   6.943
 8301SOL    HW225803   4.931   1.198   6.960
 8302SOL     OW25804   5.376   6.886   5.945
 8302SOL    HW125805   5.295   6.901   5.888
 8302SOL    HW225806   5.421   6.802   5.917
 8303SOL     OW25807   6.126   0.453   3.252
 8303SOL    HW125808   6.203   0.487   3.198
 8303SOL    HW225809   6.043   0.505   3.229
 8304SOL     OW25810   5.648   4.683   1.275
 8304SOL    HW125811   5.683   4.768   1.315
 8304SOL    HW225812   5.633   4.696   1.177
 8305SOL     OW25813   4.452   5.093   4.284
 8305SOL    HW125814   4.513   5.171   4.274
 8305SOL    HW225815   4.358   5.120   4.264
 8306SOL     OW25816   6.044   1.404   3.414
 8306SOL    HW125817   5.963   1.389   3.357
 8306SOL    HW225818   6.126   1.378   3.363
 8307SOL     OW25819   3.639   5.573   1.641
 8307SOL    HW125820   3.631   5.632   1.560
 8307SOL    HW225821   3.603   5.482   1.620
 8308SOL     OW25822   2.317   5.889   0.090
 8308SOL    HW125823   2.385   5.833   0.137
 8308SOL    HW225824   2.363   5.948   0.023
 8309SOL     OW25825   6.201   5.667   2.896
 8309SOL    HW125826   6.116   5.669   2.947
 8309SOL    HW225827   6.209   5.580   2.847
 8310SOL     OW25828   1.659   5.395   1.409
 8310SOL    HW125829   1.722   5.472   1.393
 8310SOL    HW225830   1.712   5.311   1.420
 8311SOL     OW25831   6.140   1.055   4.597
 8311SOL    HW125832   6.059   1.002   4.623
 8311SOL    HW225833   6.156   1.044   4.499
 8312SOL     OW25834   5.545   0.702   6.343
 8312SOL    HW125835   5.605   0.647   6.401
 8312SOL    HW225836   5.451   0.668   6.351
 8313SOL     OW25837   5.595   0.457   5.978
 8313SOL    HW125838   5.622   0.390   6.048
 8313SOL    HW225839   5.630   0.547   6.002
 8314SOL     OW25840   6.357   0.106   6.431
 8314SOL    HW125841   6.375   0.136   6.525
 8314SOL    HW225842   6.261   0.081   6.421
 8315SOL     OW25843   3.928   3.014   3.001
 8315SOL    HW125844   3.869   2.996   3.079
 8315SOL    HW225845   4.022   2.992   3.024
 8316SOL     OW25846   1.823   3.270   1.421
 8316SOL    HW125847   1.830   3.305   1.514
 8316SOL    HW225848   1.872   3.183   1.414
 8317SOL     OW25849   1.474   2.193   2.857
 8317SOL    HW125850   1.487   2.143   2.772
 8317SOL    HW225851   1.449   2.288   2.837
 8318SOL     OW25852   4.442   1.540   6.386
 8318SOL    HW125853   4.372   1.470   6.399
 8318SOL    HW225854   4.407   1.629   6.416
 8319SOL     OW25855   1.396   0.714   0.933
 8319SOL    HW125856   1.461   0.646   0.902
 8319SOL    HW225857   1.392   0.790   0.867
 8320SOL     OW25858   3.303   3.890   3.093
 8320SOL    HW125859   3.397   3.863   3.073
 8320SOL    HW225860   3.296   3.918   3.189
 8321SOL     OW25861   0.022   6.947   6.916
 8321SOL    HW125862   0.020   0.026   6.893
 8321SOL    HW225863   7.014   6.935   7.012
 8322SOL     OW25864   6.359   1.163   1.099
 8322SOL    HW125865   6.332   1.257   1.120
 8322SOL    HW225866   6.278   1.106   1.089
 8323SOL     OW25867   3.905   4.980   1.783
 8323SOL    HW125868   3.919   5.060   1.723
 8323SOL    HW225869   3.824   4.930   1.752
 8324SOL     OW25870   5.548   0.393   0.691
 8324SOL    HW125871   5.610   0.433   0.624
 8324SOL    HW225872   5.476   0.459   0.713
 8325SOL     OW25873   1.245   3.584   5.329
 8325SOL    HW125874   1.220   3.672   5.368
 8325SOL    HW225875   1.302   3.599   5.248
 8326SOL     OW25876   4.106   4.103   6.130
 8326SOL    HW125877   4.027   4.162   6.118
 8326SOL    HW225878   4.078   4.007   6.123
 8327SOL     OW25879   0.372   0.948   5.704
 8327SOL    HW125880   0.341   1.042   5.718
 8327SOL    HW225881   0.459   0.948   5.655
 8328SOL     OW25882   2.656   6.408   6.265
 8328SOL    HW125883   2.743   6.389   6.311
 8328SOL    HW225884   2.654   6.505   6.238
 8329SOL     OW25885   0.654   2.202   4.555
 8329SOL    HW125886   0.714   2.275   4.521
 8329SOL    HW225887   0.559   2.224   4.532
 8330SOL     OW25888   3.468   1.519   6.853
 8330SOL    HW125889   3.382   1.472   6.873
 8330SOL    HW225890   3.469   1.608   6.897
 8331SOL     OW25891   3.476   0.531   0.558
 8331SOL    HW125892   3.548   0.517   0.627
 8331SOL    HW225893   3.493   0.472   0.480
 8332SOL     OW25894   6.014   5.548   2.132
 8332SOL    HW125895   6.022   5.465   2.187
 8332SOL    HW225896   6.010   5.627   2.193
 8333SOL     OW25897   1.378   4.979   0.124
 8333SOL    HW125898   1.329   4.995   0.210
 8333SOL    HW225899   1.347   4.893   0.083
 8334SOL     OW25900   3.468   1.796   5.521
 8334SOL    HW125901   3.416   1.812   5.604
 8334SOL    HW225902   3.439   1.860   5.450
 8335SOL     OW25903   4.604   1.432   0.314
 8335SOL    HW125904   4.628   1.488   0.394
 8335SOL    HW225905   4.612   1.335   0.338
 8336SOL     OW25906   0.498   4.024   2.961
 8336SOL    HW125907   0.475   3.989   2.871
 8336SOL    HW225908   0.595   4.052   2.963
 8337SOL     OW25909   0.087   6.747   4.072
 8337SOL    HW125910   0.094   6.726   3.974
 8337SOL    HW225911   7.011   6.777   4.092
 8338SOL     OW25912   3.590   5.478   1.150
 8338SOL    HW125913   3.494   5.465   1.175
 8338SOL    HW225914   3.605   5.574   1.127
 8339SOL     OW25915   6.911   0.466   2.031
 8339SOL    HW125916   6.877   0.392   2.089
 8339SOL    HW225917   6.980   0.430   1.968
 8340SOL     OW25918   4.874   3.736   0.872
 8340SOL    HW125919   4.794   3.757   0.927
 8340SOL    HW225920   4.844   3.698   0.784
 8341SOL     OW25921   2.932   0.409   6.743
 8341SOL    HW125922   2.866   0.483   6.732
 8341SOL    HW225923   2.962   0.378   6.653
 8342SOL     OW25924   4.512   6.859   0.064
 8342SOL    HW125925   4.612   6.849   0.061
 8342SOL    HW225926   4.488   6.923   0.136
 8343SOL     OW25927   0.057   5.565   3.286
 8343SOL    HW125928   0.063   5.634   3.214
 8343SOL    HW225929   6.989   5.515   3.278
 8344SOL     OW25930   6.311   5.876   4.443
 8344SOL    HW125931   6.291   5.950   4.507
 8344SOL    HW225932   6.406   5.847   4.453
 8345SOL     OW25933   3.417   1.943   2.416
 8345SOL    HW125934   3.381   2.011   2.480
 8345SOL    HW225935   3.474   1.988   2.347
 8346SOL     OW25936   3.572   4.843   0.248
 8346SOL    HW125937   3.610   4.802   0.331
 8346SOL    HW225938   3.644   4.855   0.181
 8347SOL     OW25939   3.134   6.346   5.489
 8347SOL    HW125940   3.145   6.444   5.506
 8347SOL    HW225941   3.214   6.312   5.440
 8348SOL     OW25942   2.070   0.828   1.353
 8348SOL    HW125943   2.020   0.794   1.273
 8348SOL    HW225944   2.038   0.920   1.375
 8349SOL     OW25945   1.196   6.483   2.302
 8349SOL    HW125946   1.188   6.443   2.393
 8349SOL    HW225947   1.207   6.582   2.310
 8350SOL     OW25948   2.958   6.719   6.060
 8350SOL    HW125949   2.961   6.722   5.960
 8350SOL    HW225950   3.046   6.686   6.094
 8351SOL     OW25951   4.768   5.456   4.494
 8351SOL    HW125952   4.753   5.545   4.451
 8351SOL    HW225953   4.850   5.414   4.455
 8352SOL     OW25954   0.813   0.006   3.498
 8352SOL    HW125955   0.840   6.939   3.453
 8352SOL    HW225956   0.717   0.001   3.526
 8353SOL     OW25957   0.894   3.968   0.933
 8353SOL    HW125958   0.950   3.903   0.985
 8353SOL    HW225959   0.866   3.926   0.846
 8354SOL     OW25960   2.995   0.155   4.169
 8354SOL    HW125961   3.037   0.245   4.163
 8354SOL    HW225962   2.902   0.160   4.135
 8355SOL     OW25963   2.302   1.529   5.202
 8355SOL    HW125964   2.208   1.499   5.191
 8355SOL    HW225965   2.304   1.626   5.225
 8356SOL     OW25966   1.116   6.761   1.910
 8356SOL    HW125967   1.065   6.733   1.991
 8356SOL    HW225968   1.173   6.841   1.932
 8357SOL     OW25969   3.703   6.936   5.506
 8357SOL    HW125970   3.688   6.845   5.468
 8357SOL    HW225971   3.802   6.953   5.515
 8358SOL     OW25972   1.697   3.669   4.773
 8358SOL    HW125973   1.690   3.609   4.694
 8358SOL    HW225974   1.721   3.762   4.743
 8359SOL     OW25975   3.140   1.160   4.878
 8359SOL    HW125976   3.193   1.228   4.828
 8359SOL    HW225977   3.201   1.095   4.923
 8360SOL     OW25978   4.134   0.285   0.302
 8360SOL    HW125979   4.075   0.235   0.238
 8360SOL    HW225980   4.209   0.225   0.332
 8361SOL     OW25981   3.804   0.458   1.253
 8361SOL    HW125982   3.756   0.545   1.259
 8361SOL    HW225983   3.756   0.389   1.307
 8362SOL     OW25984   4.954   1.999   1.322
 8362SOL    HW125985   5.042   2.040   1.348
 8362SOL    HW225986   4.916   1.951   1.400
 8363SOL     OW25987   4.784   2.756   0.178
 8363SOL    HW125988   4.708   2.798   0.226
 8363SOL    HW225989   4.768   2.658   0.169
 8364SOL     OW25990   0.026   1.721   4.223
 8364SOL    HW125991   0.007   1.643   4.282
 8364SOL    HW225992   6.961   1.775   4.211
 8365SOL     OW25993   1.595   2.331   2.495
 8365SOL    HW125994   1.568   2.390   2.571
 8365SOL    HW225995   1.609   2.387   2.413
 8366SOL     OW25996   2.825   4.958   0.916
 8366SOL    HW125997   2.804   4.861   0.926
 8366SOL    HW225998   2.742   5.008   0.890
 8367SOL     OW25999   3.433   5.874   5.037
 8367SOL    HW126000   3.361   5.864   4.968
 8367SOL    HW226001   3.471   5.784   5.057
 8368SOL     OW26002   1.002   6.283   7.007
 8368SOL    HW126003   0.925   6.220   0.000
 8368SOL    HW226004   0.967   6.375   6.987
 8369SOL     OW26005   0.712   0.329   6.500
 8369SOL    HW126006   0.661   0.361   6.420
 8369SOL    HW226007   0.809   0.349   6.488
 8370SOL     OW26008   2.677   1.474   5.920
 8370SOL    HW126009   2.660   1.481   5.822
 8370SOL    HW226010   2.766   1.514   5.942
 8371SOL     OW26011   2.541   4.332   1.020
 8371SOL    HW126012   2.619   4.305   1.077
 8371SOL    HW226013   2.570   4.336   0.924
 8372SOL     OW26014   1.904   5.779   1.606
 8372SOL    HW126015   1.980   5.801   1.667
 8372SOL    HW226016   1.841   5.716   1.652
 8373SOL     OW26017   1.467   6.542   3.997
 8373SOL    HW126018   1.500   6.454   3.964
 8373SOL    HW226019   1.543   6.596   4.032
 8374SOL     OW26020   0.237   0.004   5.060
 8374SOL    HW126021   0.153   0.018   5.007
 8374SOL    HW226022   0.311   0.059   5.020
 8375SOL     OW26023   4.263   6.180   5.365
 8375SOL    HW126024   4.208   6.172   5.282
 8375SOL    HW226025   4.203   6.204   5.442
 8376SOL     OW26026   1.130   1.054   4.567
 8376SOL    HW126027   1.219   1.074   4.609
 8376SOL    HW226028   1.134   0.964   4.524
 8377SOL     OW26029   5.786   6.078   0.581
 8377SOL    HW126030   5.728   6.144   0.628
 8377SOL    HW226031   5.881   6.092   0.608
 8378SOL     OW26032   3.484   5.064   3.063
 8378SOL    HW126033   3.459   5.011   3.145
 8378SOL    HW226034   3.412   5.129   3.042
 8379SOL     OW26035   5.060   2.957   1.633
 8379SOL    HW126036   5.117   2.875   1.638
 8379SOL    HW226037   5.048   2.995   1.725
 8380SOL     OW26038   0.428   0.539   0.986
 8380SOL    HW126039   0.434   0.584   1.075
 8380SOL    HW226040   0.366   0.461   0.993
 8381SOL     OW26041   0.415   2.229   4.428
 8381SOL    HW126042   0.382   2.136   4.414
 8381SOL    HW226043   0.416   2.278   4.341
 8382SOL     OW26044   2.381   6.841   2.164
 8382SOL    HW126045   2.460   6.832   2.103
 8382SOL    HW226046   2.324   6.918   2.135
 8383SOL     OW26047   3.348   6.956   6.110
 8383SOL    HW126048   3.402   6.972   6.028
 8383SOL    HW226049   3.289   6.876   6.095
 8384SOL     OW26050   6.148   1.805   1.722
 8384SOL    HW126051   6.165   1.897   1.687
 8384SOL    HW226052   6.182   1.738   1.656
 8385SOL     OW26053   4.873   2.495   6.929
 8385SOL    HW126054   4.890   2.404   6.890
 8385SOL    HW226055   4.842   2.485   0.006
 8386SOL     OW26056   1.822   6.254   1.758
 8386SOL    HW126057   1.834   6.347   1.724
 8386SOL    HW226058   1.912   6.210   1.767
 8387SOL     OW26059   1.076   1.386   1.049
 8387SOL    HW126060   0.997   1.445   1.031
 8387SOL    HW226061   1.119   1.361   0.962
 8388SOL     OW26062   2.326   6.762   0.469
 8388SOL    HW126063   2.402   6.826   0.484
 8388SOL    HW226064   2.246   6.794   0.518
 8389SOL     OW26065   0.106   3.504   4.005
 8389SOL    HW126066   0.081   3.533   3.913
 8389SOL    HW226067   0.078   3.574   4.071
 8390SOL     OW26068   3.860   6.696   0.246
 8390SOL    HW126069   3.816   6.636   0.313
 8390SOL    HW226070   3.916   6.764   0.294
 8391SOL     OW26071   5.303   5.630   1.419
 8391SOL    HW126072   5.397   5.645   1.449
 8391SOL    HW226073   5.252   5.585   1.492
 8392SOL     OW26074   0.127   5.188   5.534
 8392SOL    HW126075   0.111   5.094   5.565
 8392SOL    HW226076   0.123   5.250   5.613
 8393SOL     OW26077   0.528   6.959   2.881
 8393SOL    HW126078   0.466   7.001   2.947
 8393SOL    HW226079   0.555   6.868   2.913
 8394SOL     OW26080   0.537   3.238   1.845
 8394SOL    HW126081   0.633   3.262   1.831
 8394SOL    HW226082   0.529   3.140   1.863
 8395SOL     OW26083   1.460   6.349   4.572
 8395SOL    HW126084   1.380   6.379   4.624
 8395SOL    HW226085   1.542   6.362   4.627
 8396SOL     OW26086   4.079   5.290   2.628
 8396SOL    HW126087   4.100   5.193   2.636
 8396SOL    HW226088   4.079   5.317   2.532
 8397SOL     OW26089   2.210   0.944   2.947
 8397SOL    HW126090   2.202   0.854   2.906
 8397SOL    HW226091   2.194   0.939   3.045
 8398SOL     OW26092   4.634   2.620   6.593
 8398SOL    HW126093   4.673   2.625   6.685
 8398SOL    HW226094   4.696   2.571   6.533
 8399SOL     OW26095   5.953   6.988   0.820
 8399SOL    HW126096   5.956   0.054   0.765
 8399SOL    HW226097   6.027   6.927   0.793
 8400SOL     OW26098   1.369   0.756   4.258
 8400SOL    HW126099   1.378   0.750   4.158
 8400SOL    HW226100   1.460   0.764   4.298
 8401SOL     OW26101   3.418   1.813   5.999
 8401SOL    HW126102   3.404   1.718   5.971
 8401SOL    HW226103   3.369   1.830   6.085
 8402SOL     OW26104   3.950   1.847   5.976
 8402SOL    HW126105   3.858   1.839   6.015
 8402SOL    HW226106   3.950   1.919   5.906
 8403SOL     OW26107   0.649   2.080   3.862
 8403SOL    HW126108   0.725   2.146   3.859
 8403SOL    HW226109   0.666   2.013   3.935
 8404SOL     OW26110   4.285   7.010   6.340
 8404SOL    HW126111   4.384   0.006   6.343
 8404SOL    HW226112   4.245   0.020   6.427
 8405SOL     OW26113   2.467   0.908   6.150
 8405SOL    HW126114   2.422   0.942   6.233
 8405SOL    HW226115   2.499   0.815   6.166
 8406SOL     OW26116   5.442   6.951   0.753
 8406SOL    HW126117   5.535   6.916   0.766
 8406SOL    HW226118   5.429   6.972   0.656
 8407SOL     OW26119   4.055   6.150   3.954
 8407SOL    HW126120   4.019   6.079   3.894
 8407SOL    HW226121   4.123   6.204   3.904
 8408SOL     OW26122   5.628   3.046   2.016
 8408SOL    HW126123   5.624   3.137   2.057
 8408SOL    HW226124   5.714   3.035   1.967
 8409SOL     OW26125   5.805   3.306   3.726
 8409SOL    HW126126   5.775   3.396   3.695
 8409SOL    HW226127   5.739   3.270   3.793
 8410SOL     OW26128   5.148   0.323   1.809
 8410SOL    HW126129   5.120   0.253   1.876
 8410SOL    HW226130   5.068   0.352   1.756
 8411SOL     OW26131   0.230   5.297   6.789
 8411SOL    HW126132   0.213   5.201   6.811
 8411SOL    HW226133   0.291   5.337   6.857
 8412SOL     OW26134   3.647   2.131   1.683
 8412SOL    HW126135   3.705   2.161   1.607
 8412SOL    HW226136   3.632   2.207   1.746
 8413SOL     OW26137   3.882   5.911   0.104
 8413SOL    HW126138   3.847   5.835   0.050
 8413SOL    HW226139   3.892   5.882   0.199
 8414SOL     OW26140   4.138   5.551   3.182
 8414SOL    HW126141   4.147   5.571   3.084
 8414SOL    HW226142   4.046   5.575   3.212
 8415SOL     OW26143   6.787   6.012   3.214
 8415SOL    HW126144   6.796   5.941   3.283
 8415SOL    HW226145   6.786   5.971   3.123
 8416SOL     OW26146   5.610   3.320   2.804
 8416SOL    HW126147   5.641   3.355   2.892
 8416SOL    HW226148   5.534   3.256   2.818
 8417SOL     OW26149   1.561   5.221   5.754
 8417SOL    HW126150   1.505   5.152   5.707
 8417SOL    HW226151   1.620   5.175   5.821
 8418SOL     OW26152   5.753   5.315   1.179
 8418SOL    HW126153   5.841   5.361   1.166
 8418SOL    HW226154   5.702   5.316   1.093
 8419SOL     OW26155   5.348   0.754   2.413
 8419SOL    HW126156   5.293   0.782   2.491
 8419SOL    HW226157   5.369   0.657   2.419
 8420SOL     OW26158   3.988   6.871   0.397
 8420SOL    HW126159   4.062   6.832   0.453
 8420SOL    HW226160   3.933   6.932   0.454
 8421SOL     OW26161   2.720   5.686   6.821
 8421SOL    HW126162   2.759   5.762   6.873
 8421SOL    HW226163   2.739   5.600   6.868
 8422SOL     OW26164   4.486   0.845   1.231
 8422SOL    HW126165   4.561   0.910   1.226
 8422SOL    HW226166   4.400   0.893   1.249
 8423SOL     OW26167   4.045   4.629   5.622
 8423SOL    HW126168   4.076   4.715   5.580
 8423SOL    HW226169   4.115   4.596   5.685
 8424SOL     OW26170   1.944   2.516   3.037
 8424SOL    HW126171   1.962   2.419   3.020
 8424SOL    HW226172   1.849   2.528   3.066
 8425SOL     OW26173   5.166   5.980   0.406
 8425SOL    HW126174   5.217   6.009   0.325
 8425SOL    HW226175   5.083   5.931   0.378
 8426SOL     OW26176   3.166   3.656   4.082
 8426SOL    HW126177   3.100   3.588   4.116
 8426SOL    HW226178   3.249   3.652   4.138
 8427SOL     OW26179   3.607   3.159   4.839
 8427SOL    HW126180   3.676   3.090   4.819
 8427SOL    HW226181   3.631   3.207   4.924
 8428SOL     OW26182   0.259   4.229   1.713
 8428SOL    HW126183   0.178   4.210   1.768
 8428SOL    HW226184   0.341   4.219   1.770
 8429SOL     OW26185   1.810   4.363   3.468
 8429SOL    HW126186   1.890   4.384   3.412
 8429SOL    HW226187   1.738   4.324   3.410
 8430SOL     OW26188   3.433   5.032   4.507
 8430SOL    HW126189   3.344   4.995   4.481
 8430SOL    HW226190   3.423   5.129   4.531
 8431SOL     OW26191   3.102   5.412   0.840
 8431SOL    HW126192   3.152   5.343   0.789
 8431SOL    HW226193   3.166   5.465   0.896
 8432SOL     OW26194   5.574   6.471   6.085
 8432SOL    HW126195   5.568   6.371   6.094
 8432SOL    HW226196   5.669   6.497   6.067
 8433SOL     OW26197   5.568   1.839   0.156
 8433SOL    HW126198   5.660   1.807   0.135
 8433SOL    HW226199   5.571   1.936   0.181
 8434SOL     OW26200   3.117   6.638   4.765
 8434SOL    HW126201   3.126   6.682   4.854
 8434SOL    HW226202   3.180   6.560   4.760
 8435SOL     OW26203   5.781   0.769   1.375
 8435SOL    HW126204   5.881   0.776   1.374
 8435SOL    HW226205   5.752   0.735   1.465
 8436SOL     OW26206   3.350   0.135   4.204
 8436SOL    HW126207   3.423   0.191   4.243
 8436SOL    HW226208   3.262   0.180   4.219
 8437SOL     OW26209   2.492   0.160   3.940
 8437SOL    HW126210   2.425   0.116   3.999
 8437SOL    HW226211   2.484   0.259   3.948
 8438SOL     OW26212   2.417   4.784   2.169
 8438SOL    HW126213   2.398   4.774   2.267
 8438SOL    HW226214   2.406   4.880   2.143
 8439SOL     OW26215   6.423   5.114   2.399
 8439SOL    HW126216   6.375   5.127   2.486
 8439SOL    HW226217   6.521   5.124   2.414
 8440SOL     OW26218   0.748   1.904   3.346
 8440SOL    HW126219   0.709   1.955   3.423
 8440SOL    HW226220   0.704   1.932   3.261
 8441SOL     OW26221   6.040   6.782   0.433
 8441SOL    HW126222   6.126   6.731   0.435
 8441SOL    HW226223   6.052   6.870   0.478
 8442SOL     OW26224   3.156   2.018   5.541
 8442SOL    HW126225   3.192   2.081   5.472
 8442SOL    HW226226   3.157   1.925   5.505
 8443SOL     OW26227   1.749   5.490   3.751
 8443SOL    HW126228   1.834   5.538   3.726
 8443SOL    HW226229   1.759   5.450   3.841
 8444SOL     OW26230   2.822   6.010   3.777
 8444SOL    HW126231   2.892   5.942   3.798
 8444SOL    HW226232   2.788   6.052   3.861
 8445SOL     OW26233   3.951   6.123   0.610
 8445SOL    HW126234   4.018   6.077   0.668
 8445SOL    HW226235   3.906   6.195   0.662
 8446SOL     OW26236   4.620   5.092   6.509
 8446SOL    HW126237   4.672   5.173   6.484
 8446SOL    HW226238   4.623   5.025   6.434
 8447SOL     OW26239   4.859   2.349   2.153
 8447SOL    HW126240   4.922   2.289   2.202
 8447SOL    HW226241   4.865   2.441   2.190
 8448SOL     OW26242   4.861   6.007   4.016
 8448SOL    HW126243   4.778   6.044   4.059
 8448SOL    HW226244   4.915   6.082   3.978
 8449SOL     OW26245   6.673   2.051   4.078
 8449SOL    HW126246   6.665   1.966   4.025
 8449SOL    HW226247   6.623   2.124   4.032
 8450SOL     OW26248   1.339   5.949   1.367
 8450SOL    HW126249   1.355   6.043   1.338
 8450SOL    HW226250   1.374   5.886   1.298
 8451SOL     OW26251   4.358   2.475   0.064
 8451SOL    HW126252   4.394   2.501   0.154
 8451SOL    HW226253   4.370   2.376   0.050
 8452SOL     OW26254   6.480   0.955   3.259
 8452SOL    HW126255   6.561   0.896   3.263
 8452SOL    HW226256   6.509   1.051   3.256
 8453SOL     OW26257   6.914   4.300   6.160
 8453SOL    HW126258   6.906   4.300   6.060
 8453SOL    HW226259   7.000   4.258   6.187
 8454SOL     OW26260   0.066   6.743   0.670
 8454SOL    HW126261   0.116   6.795   0.738
 8454SOL    HW226262   6.988   6.734   0.697
 8455SOL     OW26263   5.672   2.662   1.359
 8455SOL    HW126264   5.763   2.619   1.359
 8455SOL    HW226265   5.682   2.761   1.352
 8456SOL     OW26266   4.935   6.006   2.894
 8456SOL    HW126267   4.899   6.087   2.940
 8456SOL    HW226268   4.978   6.033   2.808
 8457SOL     OW26269   6.474   6.438   4.340
 8457SOL    HW126270   6.543   6.402   4.402
 8457SOL    HW226271   6.510   6.519   4.294
 8458SOL     OW26272   2.878   1.410   6.560
 8458SOL    HW126273   2.874   1.406   6.460
 8458SOL    HW226274   2.836   1.495   6.592
 8459SOL     OW26275   2.937   6.551   1.871
 8459SOL    HW126276   2.840   6.568   1.852
 8459SOL    HW226277   2.991   6.628   1.837
 8460SOL     OW26278   4.581   3.795   5.336
 8460SOL    HW126279   4.575   3.723   5.267
 8460SOL    HW226280   4.490   3.816   5.371
 8461SOL     OW26281   6.877   3.863   3.761
 8461SOL    HW126282   6.790   3.913   3.761
 8461SOL    HW226283   6.947   3.917   3.808
 8462SOL     OW26284   3.261   2.416   0.226
 8462SOL    HW126285   3.293   2.510   0.238
 8462SOL    HW226286   3.301   2.377   0.143
 8463SOL     OW26287   6.280   6.653   0.403
 8463SOL    HW126288   6.374   6.686   0.409
 8463SOL    HW226289   6.279   6.563   0.360
 8464SOL     OW26290   5.715   3.544   5.443
 8464SOL    HW126291   5.768   3.618   5.402
 8464SOL    HW226292   5.629   3.581   5.480
 8465SOL     OW26293   1.432   2.675   1.004
 8465SOL    HW126294   1.461   2.659   1.099
 8465SOL    HW226295   1.335   2.653   0.995
 8466SOL     OW26296   0.792   6.505   5.273
 8466SOL    HW126297   0.716   6.570   5.278
 8466SOL    HW226298   0.839   6.502   5.360
 8467SOL     OW26299   4.377   0.292   1.427
 8467SOL    HW126300   4.328   0.259   1.347
 8467SOL    HW226301   4.446   0.225   1.454
 8468SOL     OW26302   4.469   2.644   6.901
 8468SOL    HW126303   4.458   2.593   6.816
 8468SOL    HW226304   4.453   2.582   6.978
 8469SOL     OW26305   3.987   1.287   5.773
 8469SOL    HW126306   3.969   1.189   5.783
 8469SOL    HW226307   4.075   1.301   5.727
 8470SOL     OW26308   1.468   4.398   0.009
 8470SOL    HW126309   1.377   4.404   6.986
 8470SOL    HW226310   1.486   4.481   0.063
 8471SOL     OW26311   3.582   0.782   4.205
 8471SOL    HW126312   3.654   0.819   4.147
 8471SOL    HW226313   3.569   0.685   4.184
 8472SOL     OW26314   6.713   0.588   5.518
 8472SOL    HW126315   6.786   0.655   5.503
 8472SOL    HW226316   6.673   0.562   5.430
 8473SOL     OW26317   6.796   5.892   0.610
 8473SOL    HW126318   6.721   5.949   0.575
 8473SOL    HW226319   6.765   5.842   0.691
 8474SOL     OW26320   3.389   3.263   2.737
 8474SOL    HW126321   3.461   3.225   2.679
 8474SOL    HW226322   3.325   3.315   2.681
 8475SOL     OW26323   6.843   2.187   3.691
 8475SOL    HW126324   6.761   2.137   3.660
 8475SOL    HW226325   6.880   2.240   3.615
 8476SOL     OW26326   6.640   2.007   0.960
 8476SOL    HW126327   6.633   2.084   0.897
 8476SOL    HW226328   6.564   2.010   1.025
 8477SOL     OW26329   4.856   6.910   1.630
 8477SOL    HW126330   4.762   6.878   1.625
 8477SOL    HW226331   4.892   6.895   1.722
 8478SOL     OW26332   1.919   0.188   6.315
 8478SOL    HW126333   1.848   0.141   6.263
 8478SOL    HW226334   1.878   0.251   6.381
 8479SOL     OW26335   0.372   3.274   0.775
 8479SOL    HW126336   0.449   3.302   0.718
 8479SOL    HW226337   0.374   3.175   0.789
 8480SOL     OW26338   4.656   2.175   6.634
 8480SOL    HW126339   4.586   2.154   6.703
 8480SOL    HW226340   4.623   2.248   6.574
 8481SOL     OW26341   4.474   2.408   4.924
 8481SOL    HW126342   4.497   2.340   4.854
 8481SOL    HW226343   4.378   2.433   4.917
 8482SOL     OW26344   4.768   5.681   2.275
 8482SOL    HW126345   4.711   5.704   2.354
 8482SOL    HW226346   4.732   5.728   2.194
 8483SOL     OW26347   4.272   6.513   2.198
 8483SOL    HW126348   4.254   6.467   2.111
 8483SOL    HW226349   4.303   6.606   2.181
 8484SOL     OW26350   0.190   6.319   2.957
 8484SOL    HW126351   0.214   6.237   2.905
 8484SOL    HW226352   0.109   6.362   2.918
 8485SOL     OW26353   3.782   2.855   0.511
 8485SOL    HW126354   3.763   2.900   0.424
 8485SOL    HW226355   3.792   2.757   0.496
 8486SOL     OW26356   2.481   1.852   2.370
 8486SOL    HW126357   2.408   1.802   2.322
 8486SOL    HW226358   2.442   1.933   2.414
 8487SOL     OW26359   5.736   1.458   5.965
 8487SOL    HW126360   5.799   1.408   5.907
 8487SOL    HW226361   5.645   1.416   5.959
 8488SOL     OW26362   5.152   5.842   0.884
 8488SOL    HW126363   5.196   5.866   0.798
 8488SOL    HW226364   5.198   5.763   0.924
 8489SOL     OW26365   6.209   2.061   1.639
 8489SOL    HW126366   6.262   2.091   1.560
 8489SOL    HW226367   6.247   2.101   1.722
 8490SOL     OW26368   4.839   6.939   3.963
 8490SOL    HW126369   4.816   6.848   3.998
 8490SOL    HW226370   4.938   6.950   3.962
 8491SOL     OW26371   3.268   5.757   1.509
 8491SOL    HW126372   3.211   5.726   1.585
 8491SOL    HW226373   3.214   5.760   1.425
 8492SOL     OW26374   4.775   3.975   5.257
 8492SOL    HW126375   4.707   3.905   5.279
 8492SOL    HW226376   4.856   3.962   5.315
 8493SOL     OW26377   2.123   2.845   6.470
 8493SOL    HW126378   2.203   2.847   6.530
 8493SOL    HW226379   2.149   2.879   6.380
 8494SOL     OW26380   4.041   5.797   1.393
 8494SOL    HW126381   4.102   5.861   1.346
 8494SOL    HW226382   3.977   5.758   1.327
 8495SOL     OW26383   6.017   4.726   2.688
 8495SOL    HW126384   6.027   4.704   2.785
 8495SOL    HW226385   5.940   4.676   2.650
 8496SOL     OW26386   1.481   2.029   1.819
 8496SOL    HW126387   1.521   1.939   1.803
 8496SOL    HW226388   1.382   2.025   1.808
 8497SOL     OW26389   6.648   1.010   3.651
 8497SOL    HW126390   6.748   1.014   3.648
 8497SOL    HW226391   6.610   1.102   3.639
 8498SOL     OW26392   6.487   6.098   3.125
 8498SOL    HW126393   6.572   6.143   3.154
 8498SOL    HW226394   6.411   6.133   3.180
 8499SOL     OW26395   2.170   4.643   6.565
 8499SOL    HW126396   2.126   4.670   6.650
 8499SOL    HW226397   2.101   4.611   6.500
 8500SOL     OW26398   1.551   6.056   5.529
 8500SOL    HW126399   1.469   6.015   5.489
 8500SOL    HW226400   1.565   6.019   5.620
 8501SOL     OW26401   0.027   2.602   0.286
 8501SOL    HW126402   0.003   2.546   0.207
 8501SOL    HW226403   0.124   2.627   0.281
 8502SOL     OW26404   0.746   3.251   1.139
 8502SOL    HW126405   0.765   3.232   1.043
 8502SOL    HW226406   0.765   3.347   1.158
 8503SOL     OW26407   0.378   6.570   3.973
 8503SOL    HW126408   0.326   6.534   4.050
 8503SOL    HW226409   0.469   6.598   4.004
 8504SOL     OW26410   2.288   4.626   2.690
 8504SOL    HW126411   2.283   4.725   2.707
 8504SOL    HW226412   2.378   4.592   2.715
 8505SOL     OW26413   5.624   3.601   3.513
 8505SOL    HW126414   5.629   3.603   3.413
 8505SOL    HW226415   5.716   3.616   3.550
 8506SOL     OW26416   0.647   0.789   6.676
 8506SOL    HW126417   0.658   0.855   6.602
 8506SOL    HW226418   0.609   0.704   6.640
 8507SOL     OW26419   3.488   0.378   5.271
 8507SOL    HW126420   3.557   0.392   5.342
 8507SOL    HW226421   3.517   0.422   5.186
 8508SOL     OW26422   5.182   1.664   4.548
 8508SOL    HW126423   5.232   1.588   4.589
 8508SOL    HW226424   5.224   1.751   4.576
 8509SOL     OW26425   4.250   1.523   4.321
 8509SOL    HW126426   4.204   1.601   4.364
 8509SOL    HW226427   4.268   1.544   4.225
 8510SOL     OW26428   5.865   4.121   2.773
 8510SOL    HW126429   5.929   4.046   2.791
 8510SOL    HW226430   5.886   4.198   2.832
 8511SOL     OW26431   6.245   4.064   2.434
 8511SOL    HW126432   6.164   4.015   2.402
 8511SOL    HW226433   6.283   4.117   2.358
 8512SOL     OW26434   2.781   1.889   1.825
 8512SOL    HW126435   2.806   1.861   1.918
 8512SOL    HW226436   2.858   1.874   1.764
 8513SOL     OW26437   6.009   5.316   0.852
 8513SOL    HW126438   5.949   5.264   0.791
 8513SOL    HW226439   6.045   5.255   0.923
 8514SOL     OW26440   2.580   2.450   4.108
 8514SOL    HW126441   2.662   2.488   4.153
 8514SOL    HW226442   2.605   2.368   4.057
 8515SOL     OW26443   4.420   2.435   0.839
 8515SOL    HW126444   4.376   2.356   0.881
 8515SOL    HW226445   4.518   2.416   0.828
 8516SOL     OW26446   6.034   2.190   1.984
 8516SOL    HW126447   5.968   2.250   2.029
 8516SOL    HW226448   6.002   2.170   1.891
 8517SOL     OW26449   0.881   2.668   6.549
 8517SOL    HW126450   0.854   2.578   6.583
 8517SOL    HW226451   0.918   2.658   6.456
 8518SOL     OW26452   4.469   4.790   6.979
 8518SOL    HW126453   4.395   4.857   6.984
 8518SOL    HW226454   4.492   4.758   0.053
 8519SOL     OW26455   1.655   4.613   1.765
 8519SOL    HW126456   1.679   4.699   1.811
 8519SOL    HW226457   1.658   4.627   1.666
 8520SOL     OW26458   2.929   2.568   0.463
 8520SOL    HW126459   2.879   2.655   0.458
 8520SOL    HW226460   2.911   2.524   0.551
 8521SOL     OW26461   1.764   5.320   6.408
 8521SOL    HW126462   1.725   5.228   6.415
 8521SOL    HW226463   1.805   5.346   6.495
 8522SOL     OW26464   1.473   6.101   1.666
 8522SOL    HW126465   1.439   6.188   1.702
 8522SOL    HW226466   1.456   6.028   1.732
 8523SOL     OW26467   3.173   0.149   6.054
 8523SOL    HW126468   3.253   0.093   6.075
 8523SOL    HW226469   3.103   0.135   6.125
 8524SOL     OW26470   0.759   2.224   4.899
 8524SOL    HW126471   0.707   2.214   4.814
 8524SOL    HW226472   0.745   2.144   4.956
 8525SOL     OW26473   6.427   4.023   3.140
 8525SOL    HW126474   6.406   4.114   3.102
 8525SOL    HW226475   6.476   4.034   3.226
 8526SOL     OW26476   3.569   5.339   0.149
 8526SOL    HW126477   3.486   5.289   0.125
 8526SOL    HW226478   3.575   5.348   0.248
 8527SOL     OW26479   2.792   0.677   6.031
 8527SOL    HW126480   2.692   0.674   6.032
 8527SOL    HW226481   2.823   0.705   5.940
 8528SOL     OW26482   4.496   3.040   5.978
 8528SOL    HW126483   4.451   3.048   6.067
 8528SOL    HW226484   4.594   3.049   5.990
 8529SOL     OW26485   0.583   6.983   0.855
 8529SOL    HW126486   0.558   6.995   0.951
 8529SOL    HW226487   0.540   0.038   0.801
 8530SOL     OW26488   2.712   3.408   5.303
 8530SOL    HW126489   2.723   3.326   5.247
 8530SOL    HW226490   2.794   3.464   5.297
 8531SOL     OW26491   6.616   4.929   2.195
 8531SOL    HW126492   6.696   4.879   2.162
 8531SOL    HW226493   6.641   4.983   2.275
 8532SOL     OW26494   4.069   4.879   4.524
 8532SOL    HW126495   4.067   4.876   4.624
 8532SOL    HW226496   3.976   4.865   4.488
 8533SOL     OW26497   2.010   0.184   5.459
 8533SOL    HW126498   2.105   0.154   5.456
 8533SOL    HW226499   1.980   0.210   5.367
 8534SOL     OW26500   6.285   3.118   4.477
 8534SOL    HW126501   6.240   3.079   4.557
 8534SOL    HW226502   6.240   3.085   4.394
 8535SOL     OW26503   6.961   1.744   5.371
 8535SOL    HW126504   6.934   1.712   5.280
 8535SOL    HW226505   6.921   1.685   5.441
 8536SOL     OW26506   5.479   2.242   4.794
 8536SOL    HW126507   5.538   2.173   4.752
 8536SOL    HW226508   5.457   2.214   4.887
 8537SOL     OW26509   5.449   1.777   2.600
 8537SOL    HW126510   5.481   1.835   2.524
 8537SOL    HW226511   5.503   1.693   2.602
 8538SOL     OW26512   0.563   1.670   6.334
 8538SOL    HW126513   0.603   1.717   6.413
 8538SOL    HW226514   0.571   1.728   6.253
 8539SOL     OW26515   6.217   1.321   1.932
 8539SOL    HW126516   6.236   1.419   1.939
 8539SOL    HW226517   6.296   1.275   1.893
 8540SOL     OW26518   4.898   1.180   0.534
 8540SOL    HW126519   4.814   1.190   0.480
 8540SOL    HW226520   4.928   1.270   0.567
 8541SOL     OW26521   2.852   2.245   4.254
 8541SOL    HW126522   2.764   2.275   4.289
 8541SOL    HW226523   2.918   2.242   4.329
 8542SOL     OW26524   2.582   4.630   6.905
 8542SOL    HW126525   2.561   4.534   6.887
 8542SOL    HW226526   2.567   4.683   6.822
 8543SOL     OW26527   3.413   1.293   0.238
 8543SOL    HW126528   3.327   1.341   0.252
 8543SOL    HW226529   3.403   1.227   0.164
 8544SOL     OW26530   5.242   2.742   4.949
 8544SOL    HW126531   5.276   2.664   4.896
 8544SOL    HW226532   5.300   2.754   5.030
 8545SOL     OW26533   4.451   0.215   4.323
 8545SOL    HW126534   4.545   0.180   4.324
 8545SOL    HW226535   4.423   0.239   4.417
 8546SOL     OW26536   0.736   0.378   2.797
 8546SOL    HW126537   0.800   0.346   2.727
 8546SOL    HW226538   0.706   0.471   2.775
 8547SOL     OW26539   0.983   6.683   6.732
 8547SOL    HW126540   0.950   6.768   6.773
 8547SOL    HW226541   1.035   6.705   6.649
 8548SOL     OW26542   6.884   3.114   5.490
 8548SOL    HW126543   6.921   3.038   5.436
 8548SOL    HW226544   6.807   3.082   5.545
 8549SOL     OW26545   0.807   2.863   4.537
 8549SOL    HW126546   0.742   2.806   4.487
 8549SOL    HW226547   0.857   2.922   4.473
 8550SOL     OW26548   1.246   5.317   0.222
 8550SOL    HW126549   1.346   5.325   0.219
 8550SOL    HW226550   1.211   5.296   0.131
 8551SOL     OW26551   2.540   3.024   6.843
 8551SOL    HW126552   2.498   3.094   6.901
 8551SOL    HW226553   2.638   3.019   6.862
 8552SOL     OW26554   2.069   0.049   2.792
 8552SOL    HW126555   2.088   0.147   2.779
 8552SOL    HW226556   2.027   0.035   2.882
 8553SOL     OW26557   4.397   5.196   6.899
 8553SOL    HW126558   4.485   5.186   6.854
 8553SOL    HW226559   4.347   5.109   6.896
 8554SOL     OW26560   0.797   4.702   0.490
 8554SOL    HW126561   0.712   4.671   0.449
 8554SOL    HW226562   0.870   4.636   0.472
 8555SOL     OW26563   2.921   0.707   3.391
 8555SOL    HW126564   2.964   0.770   3.327
 8555SOL    HW226565   2.961   0.718   3.482
 8556SOL     OW26566   1.970   6.183   5.086
 8556SOL    HW126567   1.967   6.113   5.157
 8556SOL    HW226568   1.945   6.142   4.998
 8557SOL     OW26569   6.779   6.557   2.246
 8557SOL    HW126570   6.795   6.578   2.342
 8557SOL    HW226571   6.841   6.611   2.189
 8558SOL     OW26572   2.801   4.903   2.871
 8558SOL    HW126573   2.726   4.934   2.812
 8558SOL    HW226574   2.865   4.979   2.885
 8559SOL     OW26575   1.899   0.172   2.484
 8559SOL    HW126576   1.990   0.169   2.524
 8559SOL    HW226577   1.888   0.099   2.417
 8560SOL     OW26578   0.937   6.239   1.640
 8560SOL    HW126579   1.028   6.200   1.627
 8560SOL    HW226580   0.870   6.165   1.645
 8561SOL     OW26581   3.368   0.420   2.923
 8561SOL    HW126582   3.337   0.344   2.979
 8561SOL    HW226583   3.394   0.497   2.982
 8562SOL     OW26584   4.202   6.365   6.146
 8562SOL    HW126585   4.171   6.444   6.199
 8562SOL    HW226586   4.256   6.305   6.205
 8563SOL     OW26587   1.182   4.926   1.030
 8563SOL    HW126588   1.201   4.894   1.123
 8563SOL    HW226589   1.253   4.892   0.968
 8564SOL     OW26590   2.969   0.335   5.054
 8564SOL    HW126591   2.918   0.414   5.090
 8564SOL    HW226592   3.046   0.315   5.115
 8565SOL     OW26593   3.589   5.231   1.028
 8565SOL    HW126594   3.609   5.321   1.067
 8565SOL    HW226595   3.541   5.242   0.941
 8566SOL     OW26596   0.882   6.667   1.371
 8566SOL    HW126597   0.959   6.696   1.315
 8566SOL    HW226598   0.912   6.600   1.439
 8567SOL     OW26599   0.430   1.821   2.916
 8567SOL    HW126600   0.506   1.768   2.953
 8567SOL    HW226601   0.406   1.894   2.981
 8568SOL     OW26602   5.831   1.478   6.648
 8568SOL    HW126603   5.761   1.549   6.658
 8568SOL    HW226604   5.846   1.434   6.736
 8569SOL     OW26605   4.486   1.621   5.791
 8569SOL    HW126606   4.584   1.598   5.790
 8569SOL    HW226607   4.470   1.700   5.732
 8570SOL     OW26608   1.933   1.588   4.784
 8570SOL    HW126609   1.899   1.612   4.693
 8570SOL    HW226610   1.915   1.491   4.802
 8571SOL     OW26611   0.064   6.040   5.726
 8571SOL    HW126612   0.129   6.066   5.797
 8571SOL    HW226613   0.110   5.989   5.654
 8572SOL     OW26614   2.654   4.679   5.992
 8572SOL    HW126615   2.672   4.778   5.990
 8572SOL    HW226616   2.690   4.640   6.077
 8573SOL     OW26617   3.429   5.978   6.216
 8573SOL    HW126618   3.419   5.924   6.299
 8573SOL    HW226619   3.444   5.916   6.138
 8574SOL     OW26620   6.947   6.724   6.227
 8574SOL    HW126621   6.930   6.711   6.324
 8574SOL    HW226622   6.997   6.645   6.191
 8575SOL     OW26623   2.126   2.539   3.713
 8575SOL    HW126624   2.060   2.542   3.638
 8575SOL    HW226625   2.200   2.476   3.688
 8576SOL     OW26626   1.308   4.235   5.364
 8576SOL    HW126627   1.405   4.228   5.339
 8576SOL    HW226628   1.299   4.278   5.454
 8577SOL     OW26629   1.494   6.697   4.323
 8577SOL    HW126630   1.572   6.665   4.376
 8577SOL    HW226631   1.438   6.618   4.296
 8578SOL     OW26632   5.941   6.381   4.629
 8578SOL    HW126633   5.940   6.303   4.566
 8578SOL    HW226634   5.856   6.383   4.682
 8579SOL     OW26635   2.180   0.345   2.145
 8579SOL    HW126636   2.138   0.356   2.235
 8579SOL    HW226637   2.109   0.328   2.076
 8580SOL     OW26638   2.365   5.807   1.138
 8580SOL    HW126639   2.278   5.856   1.151
 8580SOL    HW226640   2.371   5.777   1.043
 8581SOL     OW26641   3.391   3.596   1.574
 8581SOL    HW126642   3.417   3.613   1.479
 8581SOL    HW226643   3.447   3.653   1.635
 8582SOL     OW26644   4.813   4.028   4.706
 8582SOL    HW126645   4.792   4.118   4.668
 8582SOL    HW226646   4.813   4.034   4.806
 8583SOL     OW26647   4.655   0.908   4.638
 8583SOL    HW126648   4.706   0.992   4.658
 8583SOL    HW226649   4.633   0.906   4.540
 8584SOL     OW26650   0.168   5.469   6.593
 8584SOL    HW126651   0.069   5.481   6.606
 8584SOL    HW226652   0.202   5.406   6.663
 8585SOL     OW26653   6.750   0.615   6.759
 8585SOL    HW126654   6.830   0.593   6.704
 8585SOL    HW226655   6.668   0.613   6.701
 8586SOL     OW26656   3.269   6.929   2.117
 8586SOL    HW126657   3.234   6.886   2.201
 8586SOL    HW226658   3.350   6.983   2.139
 8587SOL     OW26659   1.349   0.492   4.376
 8587SOL    HW126660   1.349   0.423   4.304
 8587SOL    HW226661   1.352   0.583   4.335
 8588SOL     OW26662   4.158   0.567   0.323
 8588SOL    HW126663   4.148   0.468   0.311
 8588SOL    HW226664   4.161   0.588   0.421
 8589SOL     OW26665   5.362   2.818   5.508
 8589SOL    HW126666   5.289   2.749   5.497
 8589SOL    HW226667   5.385   2.856   5.419
 8590SOL     OW26668   0.048   6.502   2.605
 8590SOL    HW126669   0.082   6.416   2.567
 8590SOL    HW226670   0.124   6.566   2.614
 8591SOL     OW26671   0.424   4.300   0.338
 8591SOL    HW126672   0.386   4.345   0.257
 8591SOL    HW226673   0.406   4.355   0.419
 8592SOL     OW26674   5.880   2.515   7.000
 8592SOL    HW126675   5.787   2.485   6.978
 8592SOL    HW226676   5.893   2.609   6.970
 8593SOL     OW26677   2.600   1.379   0.536
 8593SOL    HW126678   2.620   1.427   0.450
 8593SOL    HW226679   2.648   1.423   0.611
 8594SOL     OW26680   4.496   2.344   5.192
 8594SOL    HW126681   4.515   2.420   5.254
 8594SOL    HW226682   4.486   2.379   5.099
 8595SOL     OW26683   0.524   1.429   3.188
 8595SOL    HW126684   0.591   1.372   3.234
 8595SOL    HW226685   0.476   1.486   3.255
 8596SOL     OW26686   1.007   4.574   3.104
 8596SOL    HW126687   1.036   4.666   3.080
 8596SOL    HW226688   0.956   4.534   3.027
 8597SOL     OW26689   4.486   2.051   1.009
 8597SOL    HW126690   4.536   2.099   1.081
 8597SOL    HW226691   4.423   2.115   0.965
 8598SOL     OW26692   6.006   0.047   0.515
 8598SOL    HW126693   5.930   0.113   0.518
 8598SOL    HW226694   6.086   0.090   0.474
 8599SOL     OW26695   1.471   2.517   4.870
 8599SOL    HW126696   1.541   2.564   4.924
 8599SOL    HW226697   1.516   2.458   4.803
 8600SOL     OW26698   5.332   4.508   6.165
 8600SOL    HW126699   5.279   4.589   6.140
 8600SOL    HW226700   5.313   4.434   6.101
 8601SOL     OW26701   0.993   1.694   4.904
 8601SOL    HW126702   1.005   1.652   4.994
 8601SOL    HW226703   1.058   1.653   4.840
 8602SOL     OW26704   3.491   6.215   2.353
 8602SOL    HW126705   3.523   6.273   2.429
 8602SOL    HW226706   3.392   6.227   2.343
 8603SOL     OW26707   5.092   6.174   1.047
 8603SOL    HW126708   5.139   6.123   1.119
 8603SOL    HW226709   5.082   6.116   0.966
 8604SOL     OW26710   0.652   2.728   4.984
 8604SOL    HW126711   0.574   2.681   4.943
 8604SOL    HW226712   0.634   2.827   4.986
 8605SOL     OW26713   2.279   5.307   4.179
 8605SOL    HW126714   2.369   5.263   4.170
 8605SOL    HW226715   2.244   5.291   4.271
 8606SOL     OW26716   1.392   3.419   6.622
 8606SOL    HW126717   1.331   3.468   6.560
 8606SOL    HW226718   1.386   3.459   6.714
 8607SOL     OW26719   3.168   5.091   6.515
 8607SOL    HW126720   3.223   5.166   6.478
 8607SOL    HW226721   3.162   5.018   6.447
 8608SOL     OW26722   2.952   4.843   2.392
 8608SOL    HW126723   2.974   4.821   2.487
 8608SOL    HW226724   2.891   4.923   2.391
 8609SOL     OW26725   5.335   1.068   2.806
 8609SOL    HW126726   5.305   1.002   2.737
 8609SOL    HW226727   5.393   1.022   2.873
 8610SOL     OW26728   0.765   1.953   2.974
 8610SOL    HW126729   0.682   1.972   3.027
 8610SOL    HW226730   0.844   1.993   3.020
 8611SOL     OW26731   3.237   2.127   4.809
 8611SOL    HW126732   3.158   2.069   4.792
 8611SOL    HW226733   3.209   2.205   4.866
 8612SOL     OW26734   2.676   3.315   0.205
 8612SOL    HW126735   2.728   3.247   0.258
 8612SOL    HW226736   2.598   3.346   0.258
 8613SOL     OW26737   2.791   1.396   1.609
 8613SOL    HW126738   2.799   1.371   1.513
 8613SOL    HW226739   2.882   1.408   1.649
 8614SOL     OW26740   1.104   2.886   3.464
 8614SOL    HW126741   1.086   2.940   3.382
 8614SOL    HW226742   1.200   2.895   3.490
 8615SOL     OW26743   4.062   1.601   5.037
 8615SOL    HW126744   3.988   1.668   5.036
 8615SOL    HW226745   4.025   1.510   5.019
 8616SOL     OW26746   3.107   4.669   1.688
 8616SOL    HW126747   3.022   4.634   1.726
 8616SOL    HW226748   3.154   4.725   1.757
 8617SOL     OW26749   6.590   1.727   5.695
 8617SOL    HW126750   6.611   1.661   5.767
 8617SOL    HW226751   6.522   1.792   5.728
 8618SOL     OW26752   5.891   4.846   1.076
 8618SOL    HW126753   5.855   4.913   1.141
 8618SOL    HW226754   5.880   4.880   0.983
 8619SOL     OW26755   3.575   4.953   2.209
 8619SOL    HW126756   3.598   4.902   2.127
 8619SOL    HW226757   3.476   4.958   2.218
 8620SOL     OW26758   1.534   0.278   3.182
 8620SOL    HW126759   1.598   0.262   3.257
 8620SOL    HW226760   1.476   0.197   3.170
 8621SOL     OW26761   5.782   1.780   2.820
 8621SOL    HW126762   5.707   1.769   2.885
 8621SOL    HW226763   5.794   1.877   2.799
 8622SOL     OW26764   5.476   3.453   1.148
 8622SOL    HW126765   5.429   3.514   1.085
 8622SOL    HW226766   5.411   3.387   1.185
 8623SOL     OW26767   0.792   3.652   4.755
 8623SOL    HW126768   0.797   3.606   4.666
 8623SOL    HW226769   0.882   3.648   4.799
 8624SOL     OW26770   1.756   3.921   4.653
 8624SOL    HW126771   1.761   3.890   4.558
 8624SOL    HW226772   1.760   4.021   4.655
 8625SOL     OW26773   4.532   0.956   6.254
 8625SOL    HW126774   4.545   0.952   6.155
 8625SOL    HW226775   4.459   1.022   6.275
 8626SOL     OW26776   3.088   2.900   6.411
 8626SOL    HW126777   3.176   2.942   6.391
 8626SOL    HW226778   3.097   2.842   6.492
 8627SOL     OW26779   0.755   1.478   3.610
 8627SOL    HW126780   0.846   1.478   3.651
 8627SOL    HW226781   0.687   1.459   3.681
 8628SOL     OW26782   6.712   6.249   0.535
 8628SOL    HW126783   6.660   6.164   0.531
 8628SOL    HW226784   6.802   6.231   0.575
 8629SOL     OW26785   1.884   5.826   5.011
 8629SOL    HW126786   1.816   5.799   5.080
 8629SOL    HW226787   1.839   5.835   4.922
 8630SOL     OW26788   5.194   4.637   3.995
 8630SOL    HW126789   5.125   4.599   4.056
 8630SOL    HW226790   5.256   4.696   4.046
 8631SOL     OW26791   0.719   5.325   6.470
 8631SOL    HW126792   0.684   5.235   6.446
 8631SOL    HW226793   0.819   5.327   6.458
 8632SOL     OW26794   4.030   4.886   4.830
 8632SOL    HW126795   3.931   4.884   4.826
 8632SOL    HW226796   4.061   4.852   4.919
 8633SOL     OW26797   5.625   2.408   5.611
 8633SOL    HW126798   5.646   2.341   5.683
 8633SOL    HW226799   5.639   2.500   5.646
 8634SOL     OW26800   4.866   3.696   0.209
 8634SOL    HW126801   4.838   3.768   0.146
 8634SOL    HW226802   4.960   3.714   0.240
 8635SOL     OW26803   5.157   3.497   6.417
 8635SOL    HW126804   5.122   3.404   6.413
 8635SOL    HW226805   5.246   3.501   6.370
 8636SOL     OW26806   5.738   5.920   0.807
 8636SOL    HW126807   5.718   5.998   0.865
 8636SOL    HW226808   5.758   5.951   0.714
 8637SOL     OW26809   2.762   0.625   6.706
 8637SOL    HW126810   2.667   0.633   6.735
 8637SOL    HW226811   2.809   0.712   6.720
 8638SOL     OW26812   3.465   2.219   5.206
 8638SOL    HW126813   3.445   2.169   5.122
 8638SOL    HW226814   3.392   2.284   5.225
 8639SOL     OW26815   5.209   2.418   0.450
 8639SOL    HW126816   5.122   2.435   0.498
 8639SOL    HW226817   5.255   2.340   0.492
 8640SOL     OW26818   4.249   4.073   6.807
 8640SOL    HW126819   4.166   4.087   6.861
 8640SOL    HW226820   4.297   4.160   6.796
 8641SOL     OW26821   4.544   4.849   3.797
 8641SOL    HW126822   4.612   4.868   3.868
 8641SOL    HW226823   4.581   4.784   3.731
 8642SOL     OW26824   1.017   6.444   3.464
 8642SOL    HW126825   1.082   6.412   3.534
 8642SOL    HW226826   1.020   6.383   3.385
 8643SOL     OW26827   3.078   0.671   6.594
 8643SOL    HW126828   3.042   0.616   6.669
 8643SOL    HW226829   3.060   0.768   6.611
 8644SOL     OW26830   5.164   2.131   5.144
 8644SOL    HW126831   5.084   2.091   5.189
 8644SOL    HW226832   5.154   2.230   5.139
 8645SOL     OW26833   4.292   4.697   1.299
 8645SOL    HW126834   4.388   4.667   1.301
 8645SOL    HW226835   4.239   4.634   1.241
 8646SOL     OW26836   0.006   2.116   0.207
 8646SOL    HW126837   6.931   2.115   0.243
 8646SOL    HW226838   0.012   2.180   0.131
 8647SOL     OW26839   2.942   5.205   6.317
 8647SOL    HW126840   2.958   5.218   6.415
 8647SOL    HW226841   2.930   5.294   6.273
 8648SOL     OW26842   6.920   6.967   2.784
 8648SOL    HW126843   6.822   6.948   2.798
 8648SOL    HW226844   6.940   0.043   2.809
 8649SOL     OW26845   5.672   5.579   6.063
 8649SOL    HW126846   5.704   5.658   6.116
 8649SOL    HW226847   5.600   5.532   6.114
 8650SOL     OW26848   1.970   5.077   4.271
 8650SOL    HW126849   2.025   5.154   4.304
 8650SOL    HW226850   1.988   4.996   4.327
 8651SOL     OW26851   4.372   0.629   0.173
 8651SOL    HW126852   4.378   0.726   0.152
 8651SOL    HW226853   4.291   0.611   0.228
 8652SOL     OW26854   1.768   5.291   3.551
 8652SOL    HW126855   1.757   5.382   3.591
 8652SOL    HW226856   1.802   5.228   3.622
 8653SOL     OW26857   6.866   1.004   6.271
 8653SOL    HW126858   6.882   1.099   6.245
 8653SOL    HW226859   6.842   0.999   6.369
 8654SOL     OW26860   0.570   4.910   1.993
 8654SOL    HW126861   0.590   4.935   1.898
 8654SOL    HW226862   0.652   4.871   2.035
 8655SOL     OW26863   6.205   1.021   4.334
 8655SOL    HW126864   6.158   0.989   4.252
 8655SOL    HW226865   6.294   1.059   4.308
 8656SOL     OW26866   6.707   7.001   1.036
 8656SOL    HW126867   6.642   0.056   1.011
 8656SOL    HW226868   6.656   6.918   1.056
 8657SOL     OW26869   4.766   5.408   6.974
 8657SOL    HW126870   4.742   5.314   6.948
 8657SOL    HW226871   4.732   5.428   0.048
 8658SOL     OW26872   6.493   6.435   0.083
 8658SOL    HW126873   6.549   6.484   0.150
 8658SOL    HW226874   6.419   6.387   0.129
 8659SOL     OW26875   4.659   2.057   2.360
 8659SOL    HW126876   4.576   2.032   2.310
 8659SOL    HW226877   4.723   1.980   2.359
 8660SOL     OW26878   0.083   3.647   1.986
 8660SOL    HW126879   0.117   3.596   2.065
 8660SOL    HW226880   7.004   3.668   1.999
 8661SOL     OW26881   6.623   3.920   1.296
 8661SOL    HW126882   6.713   3.877   1.288
 8661SOL    HW226883   6.552   3.852   1.276
 8662SOL     OW26884   4.104   5.769   0.968
 8662SOL    HW126885   4.134   5.685   0.922
 8662SOL    HW226886   4.150   5.777   1.056
 8663SOL     OW26887   2.878   5.829   2.434
 8663SOL    HW126888   2.857   5.926   2.428
 8663SOL    HW226889   2.857   5.796   2.526
 8664SOL     OW26890   1.850   6.573   1.597
 8664SOL    HW126891   1.893   6.562   1.507
 8664SOL    HW226892   1.752   6.555   1.589
 8665SOL     OW26893   5.698   5.469   5.164
 8665SOL    HW126894   5.783   5.506   5.203
 8665SOL    HW226895   5.713   5.447   5.067
 8666SOL     OW26896   5.689   1.188   3.645
 8666SOL    HW126897   5.676   1.270   3.589
 8666SOL    HW226898   5.731   1.116   3.589
 8667SOL     OW26899   3.746   2.091   3.504
 8667SOL    HW126900   3.815   2.139   3.451
 8667SOL    HW226901   3.764   2.102   3.602
 8668SOL     OW26902   4.916   3.490   3.530
 8668SOL    HW126903   4.912   3.551   3.610
 8668SOL    HW226904   4.893   3.397   3.558
 8669SOL     OW26905   1.310   6.333   6.215
 8669SOL    HW126906   1.408   6.351   6.215
 8669SOL    HW226907   1.286   6.282   6.132
 8670SOL     OW26908   4.424   4.841   5.979
 8670SOL    HW126909   4.489   4.766   5.979
 8670SOL    HW226910   4.470   4.925   5.951
 8671SOL     OW26911   5.270   1.896   3.039
 8671SOL    HW126912   5.171   1.904   3.032
 8671SOL    HW226913   5.311   1.912   2.949
 8672SOL     OW26914   1.218   5.394   3.830
 8672SOL    HW126915   1.190   5.346   3.914
 8672SOL    HW226916   1.145   5.388   3.763
 8673SOL     OW26917   5.035   2.830   0.122
 8673SOL    HW126918   4.949   2.807   0.167
 8673SOL    HW226919   5.103   2.759   0.144
 8674SOL     OW26920   4.837   6.272   2.964
 8674SOL    HW126921   4.847   6.337   3.039
 8674SOL    HW226922   4.750   6.224   2.972
 8675SOL     OW26923   3.864   2.080   4.960
 8675SOL    HW126924   3.945   2.127   4.927
 8675SOL    HW226925   3.840   2.113   5.051
 8676SOL     OW26926   5.674   6.666   3.091
 8676SOL    HW126927   5.615   6.734   3.135
 8676SOL    HW226928   5.768   6.700   3.088
 8677SOL     OW26929   2.100   5.616   6.210
 8677SOL    HW126930   2.102   5.524   6.171
 8677SOL    HW226931   2.184   5.664   6.186
 8678SOL     OW26932   0.153   0.379   1.856
 8678SOL    HW126933   0.079   0.384   1.789
 8678SOL    HW226934   0.227   0.440   1.828
 8679SOL     OW26935   0.538   1.977   3.146
 8679SOL    HW126936   0.478   1.902   3.176
 8679SOL    HW226937   0.511   2.061   3.192
 8680SOL     OW26938   6.819   3.207   0.092
 8680SOL    HW126939   6.874   3.174   0.169
 8680SOL    HW226940   6.801   3.131   0.030
 8681SOL     OW26941   4.892   5.212   1.009
 8681SOL    HW126942   4.902   5.303   0.967
 8681SOL    HW226943   4.854   5.222   1.100
 8682SOL     OW26944   5.707   6.527   2.527
 8682SOL    HW126945   5.754   6.502   2.443
 8682SOL    HW226946   5.737   6.618   2.557
 8683SOL     OW26947   1.636   2.206   4.268
 8683SOL    HW126948   1.589   2.290   4.243
 8683SOL    HW226949   1.722   2.228   4.314
 8684SOL     OW26950   6.339   2.714   4.908
 8684SOL    HW126951   6.270   2.757   4.966
 8684SOL    HW226952   6.315   2.618   4.894
 8685SOL     OW26953   6.810   2.007   6.655
 8685SOL    HW126954   6.862   1.936   6.703
 8685SOL    HW226955   6.868   2.051   6.587
 8686SOL     OW26956   0.088   1.157   3.186
 8686SOL    HW126957   0.056   1.246   3.153
 8686SOL    HW226958   0.067   1.149   3.284
 8687SOL     OW26959   4.673   5.212   2.159
 8687SOL    HW126960   4.685   5.213   2.259
 8687SOL    HW226961   4.719   5.132   2.121
 8688SOL     OW26962   0.488   5.213   6.046
 8688SOL    HW126963   0.414   5.178   5.988
 8688SOL    HW226964   0.575   5.172   6.017
 8689SOL     OW26965   3.640   3.475   1.383
 8689SOL    HW126966   3.575   3.541   1.346
 8689SOL    HW226967   3.611   3.382   1.359
 8690SOL     OW26968   1.581   3.934   3.815
 8690SOL    HW126969   1.600   3.885   3.900
 8690SOL    HW226970   1.616   4.028   3.823
 8691SOL     OW26971   3.942   2.133   5.938
 8691SOL    HW126972   3.942   2.146   6.038
 8691SOL    HW226973   4.006   2.197   5.896
 8692SOL     OW26974   2.984   1.374   4.867
 8692SOL    HW126975   2.902   1.371   4.923
 8692SOL    HW226976   3.041   1.295   4.887
 8693SOL     OW26977   5.139   0.072   0.762
 8693SOL    HW126978   5.232   0.073   0.799
 8693SOL    HW226979   5.142   0.064   0.662
 8694SOL     OW26980   5.250   0.798   4.640
 8694SOL    HW126981   5.247   0.699   4.631
 8694SOL    HW226982   5.179   0.839   4.583
 8695SOL     OW26983   4.527   2.819   5.763
 8695SOL    HW126984   4.555   2.846   5.671
 8695SOL    HW226985   4.532   2.897   5.824
 8696SOL     OW26986   2.146   5.096   5.317
 8696SOL    HW126987   2.144   5.189   5.280
 8696SOL    HW226988   2.239   5.075   5.348
 8697SOL     OW26989   0.457   3.503   5.875
 8697SOL    HW126990   0.438   3.470   5.967
 8697SOL    HW226991   0.376   3.548   5.837
 8698SOL     OW26992   4.939   6.243   4.945
 8698SOL    HW126993   4.948   6.272   4.850
 8698SOL    HW226994   4.955   6.320   5.006
 8699SOL     OW26995   0.681   3.087   5.182
 8699SOL    HW126996   0.594   3.109   5.224
 8699SOL    HW226997   0.666   3.052   5.090
 8700SOL     OW26998   1.176   0.296   4.805
 8700SOL    HW126999   1.124   0.377   4.833
 8700SOL    HW227000   1.121   0.241   4.741
 8701SOL     OW27001   1.442   0.918   6.642
 8701SOL    HW127002   1.370   0.901   6.710
 8701SOL    HW227003   1.401   0.960   6.561
 8702SOL     OW27004   5.659   4.944   1.551
 8702SOL    HW127005   5.629   4.945   1.456
 8702SOL    HW227006   5.598   5.001   1.606
 8703SOL     OW27007   2.906   5.142   0.166
 8703SOL    HW127008   2.994   5.135   0.120
 8703SOL    HW227009   2.832   5.130   0.100
 8704SOL     OW27010   0.484   3.901   3.370
 8704SOL    HW127011   0.530   3.868   3.452
 8704SOL    HW227012   0.387   3.914   3.389
 8705SOL     OW27013   5.169   0.945   6.546
 8705SOL    HW127014   5.122   1.023   6.505
 8705SOL    HW227015   5.215   0.974   6.630
 8706SOL     OW27016   5.165   2.424   6.941
 8706SOL    HW127017   5.168   2.367   6.859
 8706SOL    HW227018   5.072   2.460   6.954
 8707SOL     OW27019   0.591   1.429   5.807
 8707SOL    HW127020   0.664   1.471   5.753
 8707SOL    HW227021   0.502   1.460   5.772
 8708SOL     OW27022   3.854   1.508   2.912
 8708SOL    HW127023   3.856   1.547   3.004
 8708SOL    HW227024   3.857   1.581   2.844
 8709SOL     OW27025   6.892   6.733   0.430
 8709SOL    HW127026   6.888   6.764   0.525
 8709SOL    HW227027   6.840   6.648   0.420
 8710SOL     OW27028   1.780   2.949   3.584
 8710SOL    HW127029   1.805   2.855   3.606
 8710SOL    HW227030   1.844   3.012   3.630
 8711SOL     OW27031   2.004   6.601   2.733
 8711SOL    HW127032   1.976   6.697   2.730
 8711SOL    HW227033   2.006   6.570   2.829
 8712SOL     OW27034   3.740   1.735   4.749
 8712SOL    HW127035   3.689   1.653   4.776
 8712SOL    HW227036   3.807   1.757   4.820
 8713SOL     OW27037   6.453   3.379   2.961
 8713SOL    HW127038   6.494   3.457   3.010
 8713SOL    HW227039   6.382   3.413   2.898
 8714SOL     OW27040   1.006   0.002   5.652
 8714SOL    HW127041   0.940   0.028   5.723
 8714SOL    HW227042   1.062   6.944   5.686
 8715SOL     OW27043   4.260   0.848   0.958
 8715SOL    HW127044   4.212   0.867   0.872
 8715SOL    HW227045   4.242   0.922   1.023
 8716SOL     OW27046   6.782   7.011   1.300
 8716SOL    HW127047   6.756   0.004   1.205
 8716SOL    HW227048   6.805   0.082   1.339
 8717SOL     OW27049   2.952   3.936   4.982
 8717SOL    HW127050   3.011   3.976   4.913
 8717SOL    HW227051   2.859   3.926   4.946
 8718SOL     OW27052   1.266   3.181   5.556
 8718SOL    HW127053   1.343   3.245   5.552
 8718SOL    HW227054   1.300   3.092   5.585
 8719SOL     OW27055   4.426   0.050   6.882
 8719SOL    HW127056   4.471   7.009   6.949
 8719SOL    HW227057   4.469   0.038   6.793
 8720SOL     OW27058   0.064   5.684   6.161
 8720SOL    HW127059   0.041   5.701   6.257
 8720SOL    HW227060   0.119   5.760   6.126
 8721SOL     OW27061   6.489   2.455   1.877
 8721SOL    HW127062   6.535   2.370   1.902
 8721SOL    HW227063   6.394   2.451   1.908
 8722SOL     OW27064   3.757   1.120   1.176
 8722SOL    HW127065   3.725   1.198   1.122
 8722SOL    HW227066   3.827   1.070   1.125
 8723SOL     OW27067   4.551   6.861   1.953
 8723SOL    HW127068   4.604   6.900   2.029
 8723SOL    HW227069   4.608   6.797   1.902
 8724SOL     OW27070   5.309   0.033   4.538
 8724SOL    HW127071   5.334   0.016   4.443
 8724SOL    HW227072   5.267   6.968   4.577
 8725SOL     OW27073   1.866   5.817   5.779
 8725SOL    HW127074   1.925   5.801   5.858
 8725SOL    HW227075   1.805   5.893   5.799
 8726SOL     OW27076   0.130   0.816   3.137
 8726SOL    HW127077   0.120   0.910   3.167
 8726SOL    HW227078   0.222   0.783   3.159
 8727SOL     OW27079   5.403   0.503   2.380
 8727SOL    HW127080   5.455   0.458   2.307
 8727SOL    HW227081   5.306   0.479   2.371
 8728SOL     OW27082   6.396   1.026   2.086
 8728SOL    HW127083   6.492   1.003   2.101
 8728SOL    HW227084   6.367   1.095   2.153
 8729SOL     OW27085   3.556   4.886   5.819
 8729SOL    HW127086   3.548   4.984   5.836
 8729SOL    HW227087   3.530   4.836   5.901
 8730SOL     OW27088   5.501   4.172   2.352
 8730SOL    HW127089   5.500   4.111   2.431
 8730SOL    HW227090   5.578   4.235   2.358
 8731SOL     OW27091   1.271   3.140   2.596
 8731SOL    HW127092   1.287   3.064   2.532
 8731SOL    HW227093   1.181   3.131   2.637
 8732SOL     OW27094   5.852   5.137   1.883
 8732SOL    HW127095   5.760   5.121   1.918
 8732SOL    HW227096   5.916   5.076   1.929
 8733SOL     OW27097   1.919   5.970   1.401
 8733SOL    HW127098   1.830   5.973   1.356
 8733SOL    HW227099   1.910   5.925   1.490
 8734SOL     OW27100   0.519   3.996   2.688
 8734SOL    HW127101   0.613   4.011   2.716
 8734SOL    HW227102   0.516   3.970   2.591
 8735SOL     OW27103   0.759   2.605   0.061
 8735SOL    HW127104   0.829   2.619   0.131
 8735SOL    HW227105   0.798   2.622   6.988
 8736SOL     OW27106   0.105   5.096   0.868
 8736SOL    HW127107   0.186   5.154   0.875
 8736SOL    HW227108   0.033   5.146   0.818
 8737SOL     OW27109   1.723   6.418   0.287
 8737SOL    HW127110   1.817   6.448   0.271
 8737SOL    HW227111   1.684   6.469   0.364
 8738SOL     OW27112   2.733   5.777   4.082
 8738SOL    HW127113   2.747   5.876   4.081
 8738SOL    HW227114   2.635   5.757   4.085
 8739SOL     OW27115   5.593   5.515   6.601
 8739SOL    HW127116   5.582   5.416   6.610
 8739SOL    HW227117   5.651   5.549   6.675
 8740SOL     OW27118   3.991   1.319   4.638
 8740SOL    HW127119   3.934   1.397   4.613
 8740SOL    HW227120   3.951   1.236   4.599
 8741SOL     OW27121   2.227   1.460   2.392
 8741SOL    HW127122   2.174   1.375   2.396
 8741SOL    HW227123   2.321   1.439   2.363
 8742SOL     OW27124   4.678   6.653   1.811
 8742SOL    HW127125   4.648   6.682   1.720
 8742SOL    HW227126   4.621   6.577   1.841
 8743SOL     OW27127   1.499   6.832   2.060
 8743SOL    HW127128   1.406   6.847   2.092
 8743SOL    HW227129   1.534   6.745   2.095
 8744SOL     OW27130   3.777   2.947   0.206
 8744SOL    HW127131   3.759   3.044   0.223
 8744SOL    HW227132   3.804   2.935   0.111
 8745SOL     OW27133   6.407   1.976   5.907
 8745SOL    HW127134   6.363   2.014   5.988
 8745SOL    HW227135   6.433   2.050   5.845
 8746SOL     OW27136   4.607   5.326   4.303
 8746SOL    HW127137   4.576   5.399   4.364
 8746SOL    HW227138   4.560   5.334   4.215
 8747SOL     OW27139   6.958   2.068   3.251
 8747SOL    HW127140   6.923   2.152   3.292
 8747SOL    HW227141   6.934   1.990   3.307
 8748SOL     OW27142   0.161   1.149   4.168
 8748SOL    HW127143   0.193   1.070   4.116
 8748SOL    HW227144   0.207   1.232   4.136
 8749SOL     OW27145   2.207   0.658   5.011
 8749SOL    HW127146   2.230   0.661   4.913
 8749SOL    HW227147   2.291   0.664   5.065
 8750SOL     OW27148   3.248   4.169   5.117
 8750SOL    HW127149   3.320   4.238   5.114
 8750SOL    HW227150   3.169   4.205   5.166
 8751SOL     OW27151   6.391   1.981   2.324
 8751SOL    HW127152   6.349   1.922   2.255
 8751SOL    HW227153   6.325   2.052   2.352
 8752SOL     OW27154   3.529   2.903   6.209
 8752SOL    HW127155   3.498   2.822   6.159
 8752SOL    HW227156   3.449   2.954   6.241
 8753SOL     OW27157   3.264   1.805   6.214
 8753SOL    HW127158   3.186   1.766   6.166
 8753SOL    HW227159   3.260   1.779   6.310
 8754SOL     OW27160   1.786   3.658   5.930
 8754SOL    HW127161   1.855   3.586   5.937
 8754SOL    HW227162   1.808   3.717   5.852
 8755SOL     OW27163   2.455   0.838   0.867
 8755SOL    HW127164   2.529   0.776   0.840
 8755SOL    HW227165   2.435   0.901   0.792
 8756SOL     OW27166   1.692   3.106   4.346
 8756SOL    HW127167   1.781   3.143   4.318
 8756SOL    HW227168   1.706   3.034   4.414
 8757SOL     OW27169   3.651   6.203   6.558
 8757SOL    HW127170   3.629   6.167   6.648
 8757SOL    HW227171   3.638   6.132   6.489
 8758SOL     OW27172   5.281   6.141   2.770
 8758SOL    HW127173   5.184   6.124   2.785
 8758SOL    HW227174   5.324   6.167   2.857
 8759SOL     OW27175   4.537   3.222   6.437
 8759SOL    HW127176   4.615   3.272   6.475
 8759SOL    HW227177   4.513   3.146   6.497
 8760SOL     OW27178   2.907   0.993   5.634
 8760SOL    HW127179   3.001   0.960   5.625
 8760SOL    HW227180   2.844   0.915   5.630
 8761SOL     OW27181   6.011   2.567   1.186
 8761SOL    HW127182   5.980   2.568   1.281
 8761SOL    HW227183   6.108   2.587   1.183
 8762SOL     OW27184   0.878   4.821   3.673
 8762SOL    HW127185   0.955   4.837   3.736
 8762SOL    HW227186   0.792   4.830   3.724
 8763SOL     OW27187   6.276   6.834   6.323
 8763SOL    HW127188   6.219   6.887   6.387
 8763SOL    HW227189   6.370   6.833   6.356
 8764SOL     OW27190   4.799   0.302   5.585
 8764SOL    HW127191   4.751   0.237   5.644
 8764SOL    HW227192   4.739   0.329   5.509
 8765SOL     OW27193   5.254   0.451   3.923
 8765SOL    HW127194   5.281   0.517   3.853
 8765SOL    HW227195   5.155   0.439   3.923
 8766SOL     OW27196   4.308   4.686   4.553
 8766SOL    HW127197   4.328   4.682   4.651
 8766SOL    HW227198   4.210   4.698   4.540
 8767SOL     OW27199   5.409   5.839   2.396
 8767SOL    HW127200   5.384   5.934   2.415
 8767SOL    HW227201   5.476   5.836   2.322
 8768SOL     OW27202   1.415   2.639   0.332
 8768SOL    HW127203   1.370   2.692   0.404
 8768SOL    HW227204   1.415   2.542   0.356
 8769SOL     OW27205   6.913   0.768   3.250
 8769SOL    HW127206   7.004   0.760   3.210
 8769SOL    HW227207   6.912   0.723   3.340
 8770SOL     OW27208   4.488   4.570   2.019
 8770SOL    HW127209   4.493   4.470   2.014
 8770SOL    HW227210   4.530   4.610   1.937
 8771SOL     OW27211   1.188   1.598   6.625
 8771SOL    HW127212   1.140   1.679   6.656
 8771SOL    HW227213   1.263   1.577   6.687
 8772SOL     OW27214   4.583   0.732   6.975
 8772SOL    HW127215   4.596   0.663   6.903
 8772SOL    HW227216   4.671   0.757   7.013
 8773SOL     OW27217   5.685   2.942   3.955
 8773SOL    HW127218   5.784   2.932   3.967
 8773SOL    HW227219   5.638   2.864   3.996
 8774SOL     OW27220   1.617   0.975   0.118
 8774SOL    HW127221   1.638   0.932   0.030
 8774SOL    HW227222   1.663   1.063   0.124
 8775SOL     OW27223   5.402   0.481   5.474
 8775SOL    HW127224   5.461   0.454   5.550
 8775SOL    HW227225   5.448   0.551   5.419
 8776SOL     OW27226   4.623   3.099   0.508
 8776SOL    HW127227   4.546   3.160   0.490
 8776SOL    HW227228   4.696   3.150   0.555
 8777SOL     OW27229   5.937   4.016   3.731
 8777SOL    HW127230   6.003   3.966   3.788
 8777SOL    HW227231   5.918   4.105   3.772
 8778SOL     OW27232   5.601   3.243   6.194
 8778SOL    HW127233   5.696   3.243   6.227
 8778SOL    HW227234   5.600   3.225   6.096
 8779SOL     OW27235   2.802   5.058   2.408
 8779SOL    HW127236   2.717   5.111   2.407
 8779SOL    HW227237   2.881   5.120   2.407
 8780SOL     OW27238   0.744   6.694   2.537
 8780SOL    HW127239   0.674   6.635   2.578
 8780SOL    HW227240   0.722   6.709   2.441
 8781SOL     OW27241   4.631   0.919   4.055
 8781SOL    HW127242   4.724   0.928   4.019
 8781SOL    HW227243   4.576   0.997   4.025
 8782SOL     OW27244   6.610   6.785   2.142
 8782SOL    HW127245   6.633   6.857   2.208
 8782SOL    HW227246   6.669   6.706   2.158
 8783SOL     OW27247   6.427   3.941   3.687
 8783SOL    HW127248   6.364   3.922   3.611
 8783SOL    HW227249   6.383   4.003   3.752
 8784SOL     OW27250   0.076   5.336   5.766
 8784SOL    HW127251   0.001   5.353   5.830
 8784SOL    HW227252   0.123   5.422   5.746
 8785SOL     OW27253   5.397   4.989   0.223
 8785SOL    HW127254   5.333   4.954   0.155
 8785SOL    HW227255   5.391   5.089   0.226
 8786SOL     OW27256   2.672   0.925   0.627
 8786SOL    HW127257   2.765   0.894   0.646
 8786SOL    HW227258   2.646   0.897   0.534
 8787SOL     OW27259   3.048   1.287   2.018
 8787SOL    HW127260   3.139   1.271   2.057
 8787SOL    HW227261   3.002   1.199   2.004
 8788SOL     OW27262   6.499   0.077   5.594
 8788SOL    HW127263   6.503   0.014   5.671
 8788SOL    HW227264   6.526   0.168   5.625
 8789SOL     OW27265   5.990   5.906   4.608
 8789SOL    HW127266   5.915   5.897   4.673
 8789SOL    HW227267   5.965   5.861   4.522
 8790SOL     OW27268   6.727   0.438   6.445
 8790SOL    HW127269   6.749   0.393   6.531
 8790SOL    HW227270   6.711   0.369   6.374
 8791SOL     OW27271   5.145   6.845   5.058
 8791SOL    HW127272   5.125   6.942   5.045
 8791SOL    HW227273   5.187   6.808   4.975
 8792SOL     OW27274   2.795   5.620   3.503
 8792SOL    HW127275   2.808   5.535   3.452
 8792SOL    HW227276   2.784   5.696   3.439
 8793SOL     OW27277   0.721   4.287   2.494
 8793SOL    HW127278   0.691   4.222   2.564
 8793SOL    HW227279   0.811   4.261   2.459
 8794SOL     OW27280   5.023   0.122   2.883
 8794SOL    HW127281   5.030   0.144   2.980
 8794SOL    HW227282   5.082   0.044   2.862
 8795SOL     OW27283   1.111   4.116   5.953
 8795SOL    HW127284   1.097   4.017   5.958
 8795SOL    HW227285   1.208   4.136   5.964
 8796SOL     OW27286   4.615   2.259   4.234
 8796SOL    HW127287   4.605   2.186   4.301
 8796SOL    HW227288   4.562   2.237   4.152
 8797SOL     OW27289   0.381   0.250   0.105
 8797SOL    HW127290   0.307   0.316   0.123
 8797SOL    HW227291   0.390   0.236   0.007
 8798SOL     OW27292   4.634   6.168   6.202
 8798SOL    HW127293   4.557   6.109   6.227
 8798SOL    HW227294   4.676   6.206   6.285
 8799SOL     OW27295   2.796   4.739   3.351
 8799SOL    HW127296   2.776   4.733   3.254
 8799SOL    HW227297   2.751   4.664   3.400
 8800SOL     OW27298   6.054   4.313   6.286
 8800SOL    HW127299   6.007   4.274   6.206
 8800SOL    HW227300   6.052   4.413   6.280
 8801SOL     OW27301   6.815   1.030   4.395
 8801SOL    HW127302   6.796   1.072   4.483
 8801SOL    HW227303   6.730   1.024   4.342
 8802SOL     OW27304   2.233   0.116   6.474
 8802SOL    HW127305   2.146   0.069   6.462
 8802SOL    HW227306   2.219   0.215   6.471
 8803SOL     OW27307   0.255   6.375   0.147
 8803SOL    HW127308   0.166   6.388   0.103
 8803SOL    HW227309   0.313   6.454   0.128
 8804SOL     OW27310   2.458   6.464   1.696
 8804SOL    HW127311   2.538   6.405   1.691
 8804SOL    HW227312   2.433   6.479   1.792
 8805SOL     OW27313   3.519   6.080   3.748
 8805SOL    HW127314   3.510   5.998   3.692
 8805SOL    HW227315   3.528   6.160   3.689
 8806SOL     OW27316   3.348   4.797   1.784
 8806SOL    HW127317   3.379   4.854   1.707
 8806SOL    HW227318   3.427   4.762   1.833
 8807SOL     OW27319   5.092   0.358   0.335
 8807SOL    HW127320   5.086   0.294   0.259
 8807SOL    HW227321   5.162   0.328   0.399
 8808SOL     OW27322   6.065   3.085   6.826
 8808SOL    HW127323   5.967   3.064   6.838
 8808SOL    HW227324   6.118   3.000   6.834
 8809SOL     OW27325   3.834   5.138   3.342
 8809SOL    HW127326   3.766   5.179   3.281
 8809SOL    HW227327   3.926   5.159   3.309
 8810SOL     OW27328   6.160   0.339   5.024
 8810SOL    HW127329   6.152   0.341   5.123
 8810SOL    HW227330   6.106   0.262   4.988
 8811SOL     OW27331   3.441   1.437   2.679
 8811SOL    HW127332   3.384   1.452   2.760
 8811SOL    HW227333   3.429   1.512   2.614
 8812SOL     OW27334   2.253   0.650   0.264
 8812SOL    HW127335   2.296   0.560   0.267
 8812SOL    HW227336   2.243   0.686   0.356
 8813SOL     OW27337   2.561   5.615   2.807
 8813SOL    HW127338   2.542   5.710   2.829
 8813SOL    HW227339   2.504   5.555   2.863
 8814SOL     OW27340   6.671   0.248   0.644
 8814SOL    HW127341   6.666   0.241   0.744
 8814SOL    HW227342   6.735   0.322   0.620
 8815SOL     OW27343   5.625   6.856   1.124
 8815SOL    HW127344   5.577   6.914   1.190
 8815SOL    HW227345   5.564   6.784   1.092
 8816SOL     OW27346   1.242   6.251   0.803
 8816SOL    HW127347   1.261   6.344   0.771
 8816SOL    HW227348   1.291   6.185   0.747
 8817SOL     OW27349   0.061   4.733   3.827
 8817SOL    HW127350   0.054   4.830   3.852
 8817SOL    HW227351   0.104   4.682   3.902
 8818SOL     OW27352   0.810   4.626   4.185
 8818SOL    HW127353   0.726   4.571   4.181
 8818SOL    HW227354   0.786   4.723   4.193
 8819SOL     OW27355   5.290   4.889   5.510
 8819SOL    HW127356   5.321   4.984   5.519
 8819SOL    HW227357   5.313   4.855   5.419
 8820SOL     OW27358   2.412   0.887   5.235
 8820SOL    HW127359   2.420   0.800   5.185
 8820SOL    HW227360   2.443   0.961   5.176
 8821SOL     OW27361   2.014   6.183   1.023
 8821SOL    HW127362   2.101   6.226   0.999
 8821SOL    HW227363   1.940   6.225   0.971
 8822SOL     OW27364   0.769   0.493   4.407
 8822SOL    HW127365   0.792   0.551   4.485
 8822SOL    HW227366   0.781   0.397   4.431
 8823SOL     OW27367   1.976   1.083   2.799
 8823SOL    HW127368   1.991   1.154   2.868
 8823SOL    HW227369   2.055   1.080   2.737
 8824SOL     OW27370   1.341   1.925   0.114
 8824SOL    HW127371   1.435   1.959   0.109
 8824SOL    HW227372   1.323   1.887   0.204
 8825SOL     OW27373   1.973   0.944   1.888
 8825SOL    HW127374   2.010   0.921   1.979
 8825SOL    HW227375   1.930   1.035   1.892
 8826SOL     OW27376   1.024   3.642   0.475
 8826SOL    HW127377   1.086   3.611   0.403
 8826SOL    HW227378   1.037   3.740   0.490
 8827SOL     OW27379   4.460   0.987   2.956
 8827SOL    HW127380   4.469   0.912   3.021
 8827SOL    HW227381   4.389   0.964   2.889
 8828SOL     OW27382   3.965   5.758   6.407
 8828SOL    HW127383   3.974   5.683   6.472
 8828SOL    HW227384   3.978   5.724   6.314
 8829SOL     OW27385   5.100   2.644   1.455
 8829SOL    HW127386   5.026   2.637   1.522
 8829SOL    HW227387   5.064   2.680   1.369
 8830SOL     OW27388   1.527   2.072   2.604
 8830SOL    HW127389   1.532   2.160   2.556
 8830SOL    HW227390   1.510   1.999   2.539
 8831SOL     OW27391   4.787   2.342   3.566
 8831SOL    HW127392   4.884   2.362   3.556
 8831SOL    HW227393   4.735   2.428   3.567
 8832SOL     OW27394   6.997   6.497   2.865
 8832SOL    HW127395   0.012   6.486   2.771
 8832SOL    HW227396   7.017   6.590   2.897
 8833SOL     OW27397   2.537   5.620   6.206
 8833SOL    HW127398   2.553   5.545   6.271
 8833SOL    HW227399   2.596   5.608   6.127
 8834SOL     OW27400   5.736   3.993   5.027
 8834SOL    HW127401   5.729   3.894   5.012
 8834SOL    HW227402   5.688   4.017   5.111
 8835SOL     OW27403   4.871   0.695   5.538
 8835SOL    HW127404   4.966   0.725   5.552
 8835SOL    HW227405   4.822   0.698   5.624
 8836SOL     OW27406   4.963   1.941   0.316
 8836SOL    HW127407   5.019   1.888   0.380
 8836SOL    HW227408   4.921   1.879   0.250
 8837SOL     OW27409   0.287   6.726   2.428
 8837SOL    HW127410   0.283   6.826   2.421
 8837SOL    HW227411   0.284   6.700   2.525
 8838SOL     OW27412   1.796   4.720   3.569
 8838SOL    HW127413   1.739   4.795   3.603
 8838SOL    HW227414   1.874   4.707   3.631
 8839SOL     OW27415   4.664   5.621   1.860
 8839SOL    HW127416   4.651   5.713   1.823
 8839SOL    HW227417   4.597   5.559   1.819
 8840SOL     OW27418   0.281   1.608   3.121
 8840SOL    HW127419   0.343   1.552   3.066
 8840SOL    HW227420   0.205   1.552   3.153
 8841SOL     OW27421   0.511   0.756   4.274
 8841SOL    HW127422   0.458   0.675   4.251
 8841SOL    HW227423   0.456   0.838   4.254
 8842SOL     OW27424   3.597   2.906   3.050
 8842SOL    HW127425   3.534   2.983   3.041
 8842SOL    HW227426   3.587   2.864   3.140
 8843SOL     OW27427   1.636   3.562   5.541
 8843SOL    HW127428   1.689   3.608   5.470
 8843SOL    HW227429   1.687   3.483   5.575
 8844SOL     OW27430   0.745   1.411   5.413
 8844SOL    HW127431   0.828   1.385   5.464
 8844SOL    HW227432   0.676   1.339   5.422
 8845SOL     OW27433   3.449   3.776   1.084
 8845SOL    HW127434   3.455   3.726   0.997
 8845SOL    HW227435   3.368   3.835   1.082
 8846SOL     OW27436   3.864   4.866   4.367
 8846SOL    HW127437   3.797   4.924   4.412
 8846SOL    HW227438   3.824   4.827   4.284
 8847SOL     OW27439   2.481   1.662   2.728
 8847SOL    HW127440   2.397   1.668   2.673
 8847SOL    HW227441   2.525   1.574   2.710
 8848SOL     OW27442   2.619   2.072   2.085
 8848SOL    HW127443   2.688   2.007   2.054
 8848SOL    HW227444   2.628   2.157   2.033
 8849SOL     OW27445   3.254   5.621   3.602
 8849SOL    HW127446   3.308   5.641   3.684
 8849SOL    HW227447   3.212   5.705   3.568
 8850SOL     OW27448   1.741   1.252   6.601
 8850SOL    HW127449   1.744   1.329   6.537
 8850SOL    HW227450   1.667   1.267   6.667
 8851SOL     OW27451   0.725   5.240   2.100
 8851SOL    HW127452   0.773   5.176   2.039
 8851SOL    HW227453   0.630   5.210   2.112
 8852SOL     OW27454   4.940   3.820   5.688
 8852SOL    HW127455   4.845   3.835   5.659
 8852SOL    HW227456   4.953   3.858   5.779
 8853SOL     OW27457   2.801   1.244   6.775
 8853SOL    HW127458   2.848   1.307   6.713
 8853SOL    HW227459   2.827   1.266   6.869
 8854SOL     OW27460   3.668   1.667   5.821
 8854SOL    HW127461   3.573   1.640   5.808
 8854SOL    HW227462   3.675   1.766   5.822
 8855SOL     OW27463   0.714   5.846   0.782
 8855SOL    HW127464   0.763   5.851   0.869
 8855SOL    HW227465   0.689   5.752   0.763
 8856SOL     OW27466   0.280   0.246   6.358
 8856SOL    HW127467   0.267   0.345   6.364
 8856SOL    HW227468   0.191   0.200   6.362
 8857SOL     OW27469   6.795   1.468   4.132
 8857SOL    HW127470   6.715   1.438   4.081
 8857SOL    HW227471   6.766   1.514   4.216
 8858SOL     OW27472   1.202   2.422   5.311
 8858SOL    HW127473   1.192   2.463   5.221
 8858SOL    HW227474   1.298   2.399   5.327
 8859SOL     OW27475   6.580   0.469   3.932
 8859SOL    HW127476   6.568   0.513   3.843
 8859SOL    HW227477   6.625   0.381   3.920
 8860SOL     OW27478   0.623   3.117   2.655
 8860SOL    HW127479   0.602   3.200   2.603
 8860SOL    HW227480   0.544   3.093   2.712
 8861SOL     OW27481   4.368   1.543   6.029
 8861SOL    HW127482   4.405   1.588   5.948
 8861SOL    HW227483   4.268   1.542   6.024
 8862SOL     OW27484   5.755   0.910   3.489
 8862SOL    HW127485   5.835   0.891   3.433
 8862SOL    HW227486   5.756   0.851   3.570
 8863SOL     OW27487   1.432   5.125   4.291
 8863SOL    HW127488   1.468   5.189   4.223
 8863SOL    HW227489   1.508   5.083   4.340
 8864SOL     OW27490   3.350   3.982   5.830
 8864SOL    HW127491   3.284   4.055   5.812
 8864SOL    HW227492   3.390   3.951   5.744
 8865SOL     OW27493   2.975   1.136   6.151
 8865SOL    HW127494   3.035   1.216   6.155
 8865SOL    HW227495   2.927   1.134   6.063
 8866SOL     OW27496   5.336   0.153   3.221
 8866SOL    HW127497   5.380   0.197   3.299
 8866SOL    HW227498   5.388   0.174   3.138
 8867SOL     OW27499   5.796   3.525   2.030
 8867SOL    HW127500   5.724   3.518   1.962
 8867SOL    HW227501   5.779   3.603   2.090
 8868SOL     OW27502   6.889   2.451   0.862
 8868SOL    HW127503   6.954   2.416   0.795
 8868SOL    HW227504   6.932   2.455   0.952
 8869SOL     OW27505   4.376   6.071   4.678
 8869SOL    HW127506   4.475   6.069   4.661
 8869SOL    HW227507   4.354   6.149   4.737
 8870SOL     OW27508   3.820   0.519   6.596
 8870SOL    HW127509   3.906   0.569   6.591
 8870SOL    HW227510   3.755   0.558   6.530
 8871SOL     OW27511   1.660   0.813   3.866
 8871SOL    HW127512   1.699   0.879   3.802
 8871SOL    HW227513   1.732   0.750   3.898
 8872SOL     OW27514   1.692   4.225   4.726
 8872SOL    HW127515   1.634   4.261   4.653
 8872SOL    HW227516   1.657   4.255   4.815
 8873SOL     OW27517   1.161   5.958   1.861
 8873SOL    HW127518   1.230   5.898   1.819
 8873SOL    HW227519   1.072   5.940   1.819
 8874SOL     OW27520   2.144   5.567   2.503
 8874SOL    HW127521   2.214   5.622   2.459
 8874SOL    HW227522   2.110   5.498   2.439
 8875SOL     OW27523   6.738   2.986   5.215
 8875SOL    HW127524   6.717   3.041   5.134
 8875SOL    HW227525   6.822   2.934   5.198
 8876SOL     OW27526   1.747   0.142   4.729
 8876SOL    HW127527   1.710   0.118   4.819
 8876SOL    HW227528   1.820   0.210   4.740
 8877SOL     OW27529   2.972   1.091   3.942
 8877SOL    HW127530   2.905   1.092   3.867
 8877SOL    HW227531   2.951   1.166   4.005
 8878SOL     OW27532   6.665   5.061   0.090
 8878SOL    HW127533   6.643   5.033   7.014
 8878SOL    HW227534   6.718   4.989   0.134
 8879SOL     OW27535   5.088   4.369   1.605
 8879SOL    HW127536   5.004   4.315   1.609
 8879SOL    HW227537   5.117   4.392   1.698
 8880SOL     OW27538   5.040   5.866   4.428
 8880SOL    HW127539   4.974   5.932   4.392
 8880SOL    HW227540   5.066   5.892   4.521
 8881SOL     OW27541   6.153   6.804   3.700
 8881SOL    HW127542   6.168   6.719   3.650
 8881SOL    HW227543   6.066   6.799   3.749
 8882SOL     OW27544   5.615   1.269   1.294
 8882SOL    HW127545   5.628   1.368   1.295
 8882SOL    HW227546   5.632   1.234   1.201
 8883SOL     OW27547   1.474   6.064   6.129
 8883SOL    HW127548   1.527   6.146   6.150
 8883SOL    HW227549   1.446   6.020   6.214
 8884SOL     OW27550   6.306   3.891   6.242
 8884SOL    HW127551   6.207   3.878   6.244
 8884SOL    HW227552   6.328   3.980   6.203
 8885SOL     OW27553   6.831   3.610   0.958
 8885SOL    HW127554   6.904   3.543   0.949
 8885SOL    HW227555   6.743   3.566   0.940
 8886SOL     OW27556   3.076   6.765   5.005
 8886SOL    HW127557   3.097   6.719   5.092
 8886SOL    HW227558   3.082   6.864   5.018
 8887SOL     OW27559   3.419   1.521   1.214
 8887SOL    HW127560   3.429   1.491   1.119
 8887SOL    HW227561   3.421   1.621   1.218
 8888SOL     OW27562   1.825   1.864   6.274
 8888SOL    HW127563   1.883   1.938   6.239
 8888SOL    HW227564   1.771   1.898   6.351
 8889SOL     OW27565   6.731   0.244   6.248
 8889SOL    HW127566   6.776   0.279   6.166
 8889SOL    HW227567   6.698   0.151   6.231
 8890SOL     OW27568   6.518   5.963   3.960
 8890SOL    HW127569   6.530   6.029   3.886
 8890SOL    HW227570   6.440   5.990   4.017
 8891SOL     OW27571   5.151   3.877   6.580
 8891SOL    HW127572   5.241   3.906   6.546
 8891SOL    HW227573   5.160   3.791   6.630
 8892SOL     OW27574   3.645   5.607   3.516
 8892SOL    HW127575   3.685   5.517   3.536
 8892SOL    HW227576   3.624   5.613   3.418
 8893SOL     OW27577   0.622   5.794   3.189
 8893SOL    HW127578   0.560   5.793   3.111
 8893SOL    HW227579   0.569   5.789   3.274
 8894SOL     OW27580   4.252   2.847   6.501
 8894SOL    HW127581   4.189   2.771   6.517
 8894SOL    HW227582   4.202   2.934   6.503
 8895SOL     OW27583   6.225   2.602   2.584
 8895SOL    HW127584   6.260   2.662   2.655
 8895SOL    HW227585   6.136   2.636   2.553
 8896SOL     OW27586   2.351   3.456   5.577
 8896SOL    HW127587   2.399   3.534   5.539
 8896SOL    HW227588   2.257   3.455   5.544
 8897SOL     OW27589   1.759   2.584   3.440
 8897SOL    HW127590   1.841   2.640   3.456
 8897SOL    HW227591   1.694   2.636   3.385
 8898SOL     OW27592   5.225   3.186   3.087
 8898SOL    HW127593   5.290   3.187   3.011
 8898SOL    HW227594   5.226   3.096   3.130
 8899SOL     OW27595   1.737   5.661   0.781
 8899SOL    HW127596   1.654   5.716   0.782
 8899SOL    HW227597   1.804   5.701   0.843
 8900SOL     OW27598   6.129   3.261   2.625
 8900SOL    HW127599   6.141   3.163   2.613
 8900SOL    HW227600   6.035   3.279   2.655
 8901SOL     OW27601   1.899   0.867   4.658
 8901SOL    HW127602   1.902   0.767   4.664
 8901SOL    HW227603   1.980   0.901   4.610
 8902SOL     OW27604   2.105   0.124   0.155
 8902SOL    HW127605   2.177   0.063   0.121
 8902SOL    HW227606   2.117   0.215   0.116
 8903SOL     OW27607   1.060   1.583   5.143
 8903SOL    HW127608   1.129   1.519   5.107
 8903SOL    HW227609   1.106   1.657   5.192
 8904SOL     OW27610   5.835   6.444   3.919
 8904SOL    HW127611   5.748   6.465   3.964
 8904SOL    HW227612   5.819   6.422   3.824
 8905SOL     OW27613   1.243   4.474   4.087
 8905SOL    HW127614   1.332   4.465   4.131
 8905SOL    HW227615   1.252   4.529   4.004
 8906SOL     OW27616   0.413   6.142   0.176
 8906SOL    HW127617   0.371   6.225   0.141
 8906SOL    HW227618   0.389   6.065   0.117
 8907SOL     OW27619   2.602   2.383   5.169
 8907SOL    HW127620   2.637   2.458   5.226
 8907SOL    HW227621   2.543   2.324   5.225
 8908SOL     OW27622   1.218   3.975   6.335
 8908SOL    HW127623   1.241   4.071   6.325
 8908SOL    HW227624   1.134   3.955   6.284
 8909SOL     OW27625   2.893   0.704   6.297
 8909SOL    HW127626   2.880   0.610   6.328
 8909SOL    HW227627   2.850   0.716   6.208
 8910SOL     OW27628   0.198   2.371   6.104
 8910SOL    HW127629   0.105   2.356   6.139
 8910SOL    HW227630   0.202   2.344   6.008
 8911SOL     OW27631   3.773   2.041   4.383
 8911SOL    HW127632   3.747   2.018   4.288
 8911SOL    HW227633   3.695   2.084   4.429
 8912SOL     OW27634   3.310   3.356   0.330
 8912SOL    HW127635   3.240   3.297   0.371
 8912SOL    HW227636   3.297   3.359   0.231
 8913SOL     OW27637   5.046   5.036   5.825
 8913SOL    HW127638   5.055   5.110   5.759
 8913SOL    HW227639   5.046   4.948   5.778
 8914SOL     OW27640   4.433   0.275   4.796
 8914SOL    HW127641   4.462   0.333   4.872
 8914SOL    HW227642   4.511   0.260   4.735
 8915SOL     OW27643   0.869   2.941   3.970
 8915SOL    HW127644   0.789   2.925   3.912
 8915SOL    HW227645   0.839   2.945   4.066
 8916SOL     OW27646   6.975   3.732   0.745
 8916SOL    HW127647   0.037   3.716   0.803
 8916SOL    HW227648   6.891   3.719   0.798
 8917SOL     OW27649   6.738   3.568   0.319
 8917SOL    HW127650   6.808   3.600   0.383
 8917SOL    HW227651   6.770   3.581   0.225
 8918SOL     OW27652   6.264   4.182   1.116
 8918SOL    HW127653   6.252   4.264   1.060
 8918SOL    HW227654   6.193   4.116   1.093
 8919SOL     OW27655   3.848   4.329   0.733
 8919SOL    HW127656   3.852   4.240   0.687
 8919SOL    HW227657   3.763   4.335   0.786
 8920SOL     OW27658   0.422   0.244   6.847
 8920SOL    HW127659   0.515   0.231   6.813
 8920SOL    HW227660   0.358   0.246   6.770
 8921SOL     OW27661   1.957   2.439   2.664
 8921SOL    HW127662   1.912   2.462   2.577
 8921SOL    HW227663   1.894   2.390   2.723
 8922SOL     OW27664   4.055   5.184   1.619
 8922SOL    HW127665   3.961   5.210   1.601
 8922SOL    HW227666   4.087   5.123   1.546
 8923SOL     OW27667   1.923   3.244   6.384
 8923SOL    HW127668   1.860   3.319   6.404
 8923SOL    HW227669   1.875   3.172   6.334
 8924SOL     OW27670   3.915   5.288   5.590
 8924SOL    HW127671   3.938   5.378   5.552
 8924SOL    HW227672   3.990   5.256   5.647
 8925SOL     OW27673   0.931   1.617   2.734
 8925SOL    HW127674   0.905   1.709   2.705
 8925SOL    HW227675   0.861   1.552   2.705
 8926SOL     OW27676   6.778   3.470   5.980
 8926SOL    HW127677   6.774   3.380   5.938
 8926SOL    HW227678   6.737   3.467   6.071
 8927SOL     OW27679   0.329   1.345   4.555
 8927SOL    HW127680   0.261   1.281   4.592
 8927SOL    HW227681   0.417   1.299   4.546
 8928SOL     OW27682   0.591   0.346   6.263
 8928SOL    HW127683   0.497   0.379   6.254
 8928SOL    HW227684   0.616   0.295   6.180
 8929SOL     OW27685   6.116   2.712   4.319
 8929SOL    HW127686   6.163   2.679   4.401
 8929SOL    HW227687   6.027   2.749   4.345
 8930SOL     OW27688   1.351   3.710   3.835
 8930SOL    HW127689   1.396   3.798   3.845
 8930SOL    HW227690   1.304   3.687   3.921
 8931SOL     OW27691   2.500   3.004   0.481
 8931SOL    HW127692   2.533   2.982   0.573
 8931SOL    HW227693   2.400   3.004   0.481
 8932SOL     OW27694   6.010   0.841   1.043
 8932SOL    HW127695   5.927   0.896   1.030
 8932SOL    HW227696   5.999   0.782   1.122
 8933SOL     OW27697   1.602   2.928   5.804
 8933SOL    HW127698   1.684   2.870   5.803
 8933SOL    HW227699   1.588   2.967   5.713
 8934SOL     OW27700   3.705   4.995   4.580
 8934SOL    HW127701   3.612   5.030   4.573
 8934SOL    HW227702   3.720   4.959   4.672
 8935SOL     OW27703   6.388   4.501   0.920
 8935SOL    HW127704   6.354   4.504   1.014
 8935SOL    HW227705   6.439   4.416   0.906
 8936SOL     OW27706   0.909   3.352   2.544
 8936SOL    HW127707   0.960   3.409   2.480
 8936SOL    HW227708   0.896   3.401   2.630
 8937SOL     OW27709   0.183   6.522   4.476
 8937SOL    HW127710   0.232   6.525   4.563
 8937SOL    HW227711   0.155   6.615   4.450
 8938SOL     OW27712   0.301   0.506   0.293
 8938SOL    HW127713   0.345   0.590   0.326
 8938SOL    HW227714   0.241   0.528   0.216
 8939SOL     OW27715   5.603   4.930   4.642
 8939SOL    HW127716   5.696   4.966   4.630
 8939SOL    HW227717   5.608   4.833   4.666
 8940SOL     OW27718   5.855   1.630   2.013
 8940SOL    HW127719   5.932   1.693   1.998
 8940SOL    HW227720   5.833   1.627   2.110
 8941SOL     OW27721   5.862   2.704   4.482
 8941SOL    HW127722   5.915   2.625   4.513
 8941SOL    HW227723   5.849   2.767   4.559
 8942SOL     OW27724   6.319   5.475   5.697
 8942SOL    HW127725   6.275   5.499   5.610
 8942SOL    HW227726   6.415   5.504   5.694
 8943SOL     OW27727   3.892   5.679   0.762
 8943SOL    HW127728   3.943   5.742   0.821
 8943SOL    HW227729   3.867   5.725   0.677
 8944SOL     OW27730   5.492   5.920   4.488
 8944SOL    HW127731   5.419   5.982   4.518
 8944SOL    HW227732   5.478   5.897   4.392
 8945SOL     OW27733   0.653   1.618   4.035
 8945SOL    HW127734   0.691   1.539   3.986
 8945SOL    HW227735   0.644   1.596   4.132
 8946SOL     OW27736   2.832   0.970   3.468
 8946SOL    HW127737   2.740   0.941   3.444
 8946SOL    HW227738   2.878   0.896   3.517
 8947SOL     OW27739   2.771   3.378   5.870
 8947SOL    HW127740   2.779   3.477   5.877
 8947SOL    HW227741   2.674   3.352   5.876
 8948SOL     OW27742   5.834   6.077   3.741
 8948SOL    HW127743   5.815   6.017   3.819
 8948SOL    HW227744   5.930   6.069   3.715
 8949SOL     OW27745   4.120   6.362   0.737
 8949SOL    HW127746   4.143   6.442   0.793
 8949SOL    HW227747   4.095   6.286   0.796
 8950SOL     OW27748   3.860   4.214   0.296
 8950SOL    HW127749   3.879   4.135   0.355
 8950SOL    HW227750   3.876   4.298   0.346
 8951SOL     OW27751   2.166   0.992   4.564
 8951SOL    HW127752   2.226   1.029   4.634
 8951SOL    HW227753   2.141   1.064   4.499
 8952SOL     OW27754   0.943   5.179   3.467
 8952SOL    HW127755   0.867   5.143   3.522
 8952SOL    HW227756   0.924   5.273   3.441
 8953SOL     OW27757   1.284   4.419   0.594
 8953SOL    HW127758   1.233   4.443   0.512
 8953SOL    HW227759   1.321   4.326   0.585
 8954SOL     OW27760   6.823   6.850   4.506
 8954SOL    HW127761   6.922   6.861   4.490
 8954SOL    HW227762   6.782   6.805   4.427
 8955SOL     OW27763   6.750   4.670   3.410
 8955SOL    HW127764   6.679   4.633   3.470
 8955SOL    HW227765   6.838   4.630   3.434
 8956SOL     OW27766   1.759   1.656   6.082
 8956SOL    HW127767   1.814   1.733   6.114
 8956SOL    HW227768   1.818   1.578   6.065
 8957SOL     OW27769   1.685   4.883   1.596
 8957SOL    HW127770   1.740   4.967   1.605
 8957SOL    HW227771   1.589   4.906   1.608
 8958SOL     OW27772   0.433   2.496   4.902
 8958SOL    HW127773   0.425   2.409   4.854
 8958SOL    HW227774   0.411   2.484   4.999
 8959SOL     OW27775   1.570   4.248   2.168
 8959SOL    HW127776   1.530   4.224   2.256
 8959SOL    HW227777   1.625   4.331   2.178
 8960SOL     OW27778   4.450   5.777   3.522
 8960SOL    HW127779   4.458   5.866   3.477
 8960SOL    HW227780   4.540   5.734   3.528
 8961SOL     OW27781   3.265   1.455   3.309
 8961SOL    HW127782   3.341   1.516   3.331
 8961SOL    HW227783   3.212   1.494   3.234
 8962SOL     OW27784   6.010   5.676   2.396
 8962SOL    HW127785   6.046   5.728   2.474
 8962SOL    HW227786   5.933   5.725   2.356
 8963SOL     OW27787   3.637   0.320   4.997
 8963SOL    HW127788   3.589   0.408   5.005
 8963SOL    HW227789   3.704   0.325   4.923
 8964SOL     OW27790   5.985   3.059   3.346
 8964SOL    HW127791   5.992   3.021   3.254
 8964SOL    HW227792   5.925   3.003   3.402
 8965SOL     OW27793   2.222   5.504   0.266
 8965SOL    HW127794   2.131   5.539   0.290
 8965SOL    HW227795   2.292   5.565   0.304
 8966SOL     OW27796   6.879   3.869   6.899
 8966SOL    HW127797   6.922   3.805   6.836
 8966SOL    HW227798   6.806   3.919   6.852
 8967SOL     OW27799   3.984   0.443   1.795
 8967SOL    HW127800   3.941   0.456   1.706
 8967SOL    HW227801   3.920   0.401   1.859
 8968SOL     OW27802   4.624   5.714   2.494
 8968SOL    HW127803   4.555   5.690   2.563
 8968SOL    HW227804   4.612   5.809   2.466
 8969SOL     OW27805   6.666   0.250   3.399
 8969SOL    HW127806   6.629   0.157   3.391
 8969SOL    HW227807   6.706   0.262   3.490
 8970SOL     OW27808   2.485   3.251   6.684
 8970SOL    HW127809   2.544   3.261   6.604
 8970SOL    HW227810   2.529   3.190   6.750
 8971SOL     OW27811   5.898   5.060   1.632
 8971SOL    HW127812   5.815   5.041   1.580
 8971SOL    HW227813   5.874   5.101   1.720
 8972SOL     OW27814   4.264   3.680   0.294
 8972SOL    HW127815   4.352   3.724   0.308
 8972SOL    HW227816   4.235   3.692   0.200
 8973SOL     OW27817   0.036   3.735   3.387
 8973SOL    HW127818   6.989   3.811   3.394
 8973SOL    HW227819   0.064   3.724   3.292
 8974SOL     OW27820   1.295   3.256   3.815
 8974SOL    HW127821   1.251   3.179   3.770
 8974SOL    HW227822   1.303   3.237   3.913
 8975SOL     OW27823   0.901   6.054   0.217
 8975SOL    HW127824   0.821   6.029   0.272
 8975SOL    HW227825   0.875   6.125   0.151
 8976SOL     OW27826   0.518   5.139   0.487
 8976SOL    HW127827   0.538   5.166   0.581
 8976SOL    HW227828   0.504   5.220   0.431
 8977SOL     OW27829   6.956   3.145   6.802
 8977SOL    HW127830   6.858   3.166   6.806
 8977SOL    HW227831   7.008   3.228   6.820
 8978SOL     OW27832   4.978   6.868   4.434
 8978SOL    HW127833   5.007   6.949   4.383
 8978SOL    HW227834   4.917   6.895   4.508
 8979SOL     OW27835   0.588   4.519   5.109
 8979SOL    HW127836   0.673   4.481   5.146
 8979SOL    HW227837   0.579   4.614   5.139
 8980SOL     OW27838   4.610   2.704   4.969
 8980SOL    HW127839   4.666   2.775   5.011
 8980SOL    HW227840   4.513   2.723   4.987
 8981SOL     OW27841   4.195   1.845   4.987
 8981SOL    HW127842   4.166   1.863   4.892
 8981SOL    HW227843   4.151   1.761   5.020
 8982SOL     OW27844   1.687   1.439   1.834
 8982SOL    HW127845   1.764   1.377   1.845
 8982SOL    HW227846   1.663   1.446   1.737
 8983SOL     OW27847   0.944   5.547   0.563
 8983SOL    HW127848   1.033   5.512   0.532
 8983SOL    HW227849   0.926   5.635   0.521
 8984SOL     OW27850   6.149   6.500   3.699
 8984SOL    HW127851   6.207   6.466   3.773
 8984SOL    HW227852   6.072   6.438   3.686
 8985SOL     OW27853   2.124   1.267   0.917
 8985SOL    HW127854   2.114   1.192   0.982
 8985SOL    HW227855   2.146   1.351   0.966
 8986SOL     OW27856   4.178   4.954   2.131
 8986SOL    HW127857   4.277   4.949   2.115
 8986SOL    HW227858   4.160   4.956   2.229
 8987SOL     OW27859   4.323   0.026   0.886
 8987SOL    HW127860   4.235   0.009   0.842
 8987SOL    HW227861   4.311   0.094   0.959
 8988SOL     OW27862   1.788   4.338   0.569
 8988SOL    HW127863   1.812   4.366   0.476
 8988SOL    HW227864   1.707   4.388   0.599
 8989SOL     OW27865   4.767   4.177   1.851
 8989SOL    HW127866   4.675   4.208   1.828
 8989SOL    HW227867   4.783   4.189   1.949
 8990SOL     OW27868   2.285   5.961   2.493
 8990SOL    HW127869   2.331   5.875   2.514
 8990SOL    HW227870   2.340   6.012   2.426
 8991SOL     OW27871   1.860   1.787   6.691
 8991SOL    HW127872   1.872   1.689   6.705
 8991SOL    HW227873   1.814   1.826   6.771
 8992SOL     OW27874   6.458   2.405   6.551
 8992SOL    HW127875   6.519   2.469   6.505
 8992SOL    HW227876   6.506   2.319   6.569
 8993SOL     OW27877   5.015   2.917   2.890
 8993SOL    HW127878   4.956   2.995   2.911
 8993SOL    HW227879   4.964   2.850   2.836
 8994SOL     OW27880   0.611   5.016   4.593
 8994SOL    HW127881   0.522   5.009   4.638
 8994SOL    HW227882   0.637   4.927   4.556
 8995SOL     OW27883   0.913   2.620   6.856
 8995SOL    HW127884   0.918   2.684   6.779
 8995SOL    HW227885   1.003   2.614   6.900
 8996SOL     OW27886   6.620   5.267   1.713
 8996SOL    HW127887   6.636   5.349   1.767
 8996SOL    HW227888   6.529   5.231   1.732
 8997SOL     OW27889   4.098   1.649   6.489
 8997SOL    HW127890   4.113   1.550   6.495
 8997SOL    HW227891   4.185   1.694   6.470
 8998SOL     OW27892   0.296   3.399   5.214
 8998SOL    HW127893   0.235   3.383   5.291
 8998SOL    HW227894   0.295   3.319   5.154
 8999SOL     OW27895   5.315   6.975   0.485
 8999SOL    HW127896   5.218   6.979   0.460
 8999SOL    HW227897   5.370   6.953   0.404
 9000SOL     OW27898   2.359   4.445   6.795
 9000SOL    HW127899   2.284   4.470   6.856
 9000SOL    HW227900   2.324   4.431   6.702
 9001SOL     OW27901   0.674   5.484   2.658
 9001SOL    HW127902   0.610   5.422   2.704
 9001SOL    HW227903   0.709   5.551   2.723
 9002SOL     OW27904   6.627   4.871   4.911
 9002SOL    HW127905   6.613   4.795   4.848
 9002SOL    HW227906   6.725   4.891   4.919
 9003SOL     OW27907   5.213   2.552   1.031
 9003SOL    HW127908   5.174   2.628   0.979
 9003SOL    HW227909   5.262   2.491   0.968
 9004SOL     OW27910   4.923   6.850   1.890
 9004SOL    HW127911   4.977   6.918   1.941
 9004SOL    HW227912   4.901   6.774   1.950
 9005SOL     OW27913   5.043   1.754   4.868
 9005SOL    HW127914   5.115   1.688   4.844
 9005SOL    HW227915   5.007   1.733   4.959
 9006SOL     OW27916   2.329   6.165   0.531
 9006SOL    HW127917   2.336   6.205   0.439
 9006SOL    HW227918   2.416   6.178   0.579
 9007SOL     OW27919   3.575   6.765   3.933
 9007SOL    HW127920   3.581   6.666   3.918
 9007SOL    HW227921   3.625   6.790   4.016
 9008SOL     OW27922   6.733   5.156   3.019
 9008SOL    HW127923   6.669   5.122   3.088
 9008SOL    HW227924   6.825   5.155   3.057
 9009SOL     OW27925   2.687   0.326   0.400
 9009SOL    HW127926   2.699   0.348   0.304
 9009SOL    HW227927   2.681   0.410   0.454
 9010SOL     OW27928   0.925   6.905   4.717
 9010SOL    HW127929   0.995   6.842   4.750
 9010SOL    HW227930   0.867   6.933   4.793
 9011SOL     OW27931   4.193   2.087   1.497
 9011SOL    HW127932   4.143   2.002   1.518
 9011SOL    HW227933   4.148   2.163   1.544
 9012SOL     OW27934   3.370   4.213   0.987
 9012SOL    HW127935   3.448   4.227   1.048
 9012SOL    HW227936   3.389   4.256   0.899
 9013SOL     OW27937   0.362   6.183   4.001
 9013SOL    HW127938   0.263   6.176   3.997
 9013SOL    HW227939   0.397   6.209   3.911
 9014SOL     OW27940   0.853   0.592   0.020
 9014SOL    HW127941   0.814   0.683   0.009
 9014SOL    HW227942   0.873   0.575   0.116
 9015SOL     OW27943   6.164   1.859   0.979
 9015SOL    HW127944   6.193   1.765   0.960
 9015SOL    HW227945   6.071   1.858   1.016
 9016SOL     OW27946   0.650   6.319   6.468
 9016SOL    HW127947   0.584   6.301   6.541
 9016SOL    HW227948   0.687   6.412   6.478
 9017SOL     OW27949   4.541   2.497   1.886
 9017SOL    HW127950   4.576   2.590   1.896
 9017SOL    HW227951   4.583   2.438   1.955
 9018SOL     OW27952   4.771   1.525   5.812
 9018SOL    HW127953   4.801   1.620   5.824
 9018SOL    HW227954   4.848   1.464   5.831
 9019SOL     OW27955   0.507   0.445   1.368
 9019SOL    HW127956   0.540   0.370   1.310
 9019SOL    HW227957   0.452   0.507   1.313
 9020SOL     OW27958   1.389   3.509   1.393
 9020SOL    HW127959   1.375   3.524   1.295
 9020SOL    HW227960   1.467   3.447   1.406
 9021SOL     OW27961   6.702   0.138   3.887
 9021SOL    HW127962   6.719   0.208   3.818
 9021SOL    HW227963   6.771   0.066   3.879
 9022SOL     OW27964   2.691   1.466   0.775
 9022SOL    HW127965   2.734   1.376   0.786
 9022SOL    HW227966   2.604   1.467   0.825
 9023SOL     OW27967   3.123   3.173   2.281
 9023SOL    HW127968   3.116   3.106   2.207
 9023SOL    HW227969   3.171   3.132   2.358
 9024SOL     OW27970   0.533   5.095   5.183
 9024SOL    HW127971   0.474   5.115   5.261
 9024SOL    HW227972   0.534   5.173   5.121
 9025SOL     OW27973   0.603   5.830   0.376
 9025SOL    HW127974   0.541   5.878   0.438
 9025SOL    HW227975   0.563   5.826   0.285
 9026SOL     OW27976   3.937   3.403   2.022
 9026SOL    HW127977   3.980   3.467   1.959
 9026SOL    HW227978   4.005   3.335   2.052
 9027SOL     OW27979   1.112   1.874   3.942
 9027SOL    HW127980   1.185   1.908   4.000
 9027SOL    HW227981   1.065   1.951   3.898
 9028SOL     OW27982   2.477   3.947   6.277
 9028SOL    HW127983   2.408   4.009   6.240
 9028SOL    HW227984   2.522   3.990   6.355
 9029SOL     OW27985   3.457   5.328   5.073
 9029SOL    HW127986   3.433   5.263   5.001
 9029SOL    HW227987   3.507   5.280   5.146
 9030SOL     OW27988   1.847   1.424   3.639
 9030SOL    HW127989   1.875   1.441   3.734
 9030SOL    HW227990   1.918   1.371   3.593
 9031SOL     OW27991   4.646   6.078   4.576
 9031SOL    HW127992   4.644   5.992   4.627
 9031SOL    HW227993   4.693   6.064   4.489
 9032SOL     OW27994   3.107   2.908   1.213
 9032SOL    HW127995   3.063   2.960   1.287
 9032SOL    HW227996   3.050   2.913   1.131
 9033SOL     OW27997   1.670   5.037   3.903
 9033SOL    HW127998   1.672   4.951   3.955
 9033SOL    HW227999   1.575   5.065   3.890
 9034SOL     OW28000   2.682   0.481   5.190
 9034SOL    HW128001   2.729   0.568   5.179
 9034SOL    HW228002   2.681   0.432   5.103
 9035SOL     OW28003   1.296   4.904   5.873
 9035SOL    HW128004   1.221   4.957   5.915
 9035SOL    HW228005   1.380   4.920   5.926
 9036SOL     OW28006   1.673   1.145   5.502
 9036SOL    HW128007   1.663   1.240   5.529
 9036SOL    HW228008   1.641   1.086   5.576
 9037SOL     OW28009   1.535   3.602   5.964
 9037SOL    HW128010   1.631   3.630   5.953
 9037SOL    HW228011   1.531   3.503   5.974
 9038SOL     OW28012   4.845   6.966   5.998
 9038SOL    HW128013   4.905   0.027   5.982
 9038SOL    HW228014   4.786   6.953   5.918
 9039SOL     OW28015   2.434   4.633   4.273
 9039SOL    HW128016   2.422   4.538   4.300
 9039SOL    HW228017   2.445   4.689   4.355
 9040SOL     OW28018   2.300   2.344   2.418
 9040SOL    HW128019   2.379   2.406   2.416
 9040SOL    HW228020   2.258   2.348   2.509
 9041SOL     OW28021   0.463   2.306   2.075
 9041SOL    HW128022   0.513   2.378   2.027
 9041SOL    HW228023   0.528   2.239   2.111
 9042SOL     OW28024   2.440   7.014   3.320
 9042SOL    HW128025   2.435   0.013   3.222
 9042SOL    HW228026   2.360   0.038   3.365
 9043SOL     OW28027   3.068   1.558   6.331
 9043SOL    HW128028   3.081   1.623   6.256
 9043SOL    HW228029   2.976   1.519   6.326
 9044SOL     OW28030   5.771   1.909   1.633
 9044SOL    HW128031   5.683   1.923   1.588
 9044SOL    HW228032   5.781   1.813   1.657
 9045SOL     OW28033   2.953   1.782   2.429
 9045SOL    HW128034   3.002   1.717   2.371
 9045SOL    HW228035   2.959   1.873   2.389
 9046SOL     OW28036   3.630   3.853   4.786
 9046SOL    HW128037   3.562   3.782   4.802
 9046SOL    HW228038   3.714   3.830   4.836
 9047SOL     OW28039   1.035   2.935   5.571
 9047SOL    HW128040   1.099   2.880   5.516
 9047SOL    HW228041   0.968   2.979   5.510
 9048SOL     OW28042   6.346   2.597   5.730
 9048SOL    HW128043   6.342   2.606   5.829
 9048SOL    HW228044   6.407   2.521   5.705
 9049SOL     OW28045   3.813   0.274   6.173
 9049SOL    HW128046   3.725   0.313   6.198
 9049SOL    HW228047   3.886   0.336   6.201
 9050SOL     OW28048   0.117   4.277   5.662
 9050SOL    HW128049   0.077   4.202   5.609
 9050SOL    HW228050   0.163   4.241   5.743
 9051SOL     OW28051   4.103   5.966   0.790
 9051SOL    HW128052   4.108   5.898   0.863
 9051SOL    HW228053   4.196   5.990   0.759
 9052SOL     OW28054   1.675   2.187   3.022
 9052SOL    HW128055   1.640   2.143   3.105
 9052SOL    HW228056   1.600   2.204   2.959
 9053SOL     OW28057   1.433   1.646   2.989
 9053SOL    HW128058   1.389   1.690   2.910
 9053SOL    HW228059   1.518   1.694   3.010
 9054SOL     OW28060   1.680   7.010   2.232
 9054SOL    HW128061   1.671   0.088   2.259
 9054SOL    HW228062   1.636   6.996   2.143
 9055SOL     OW28063   6.250   3.250   3.875
 9055SOL    HW128064   6.278   3.330   3.821
 9055SOL    HW228065   6.327   3.221   3.932
 9056SOL     OW28066   6.686   0.563   1.375
 9056SOL    HW128067   6.603   0.617   1.393
 9056SOL    HW228068   6.750   0.575   1.451
 9057SOL     OW28069   5.963   5.120   5.840
 9057SOL    HW128070   6.031   5.190   5.862
 9057SOL    HW228071   6.008   5.032   5.829
 9058SOL     OW28072   1.897   1.671   3.569
 9058SOL    HW128073   1.883   1.572   3.559
 9058SOL    HW228074   1.831   1.720   3.511
 9059SOL     OW28075   1.319   1.563   5.069
 9059SOL    HW128076   1.387   1.573   4.996
 9059SOL    HW228077   1.293   1.653   5.103
 9060SOL     OW28078   6.845   3.151   2.501
 9060SOL    HW128079   6.824   3.140   2.598
 9060SOL    HW228080   6.935   3.111   2.482
 9061SOL     OW28081   3.178   6.007   2.203
 9061SOL    HW128082   3.086   6.040   2.180
 9061SOL    HW228083   3.235   6.085   2.229
 9062SOL     OW28084   1.845   5.972   1.992
 9062SOL    HW128085   1.774   5.972   2.062
 9062SOL    HW228086   1.842   6.057   1.941
 9063SOL     OW28087   2.301   6.933   2.663
 9063SOL    HW128088   2.275   6.837   2.655
 9063SOL    HW228089   2.227   6.984   2.708
 9064SOL     OW28090   6.282   3.703   5.571
 9064SOL    HW128091   6.290   3.744   5.662
 9064SOL    HW228092   6.194   3.657   5.563
 9065SOL     OW28093   2.904   6.391   6.370
 9065SOL    HW128094   2.911   6.296   6.398
 9065SOL    HW228095   2.995   6.428   6.351
 9066SOL     OW28096   5.603   0.039   0.271
 9066SOL    HW128097   5.603   7.017   0.180
 9066SOL    HW228098   5.644   6.993   0.336
 9067SOL     OW28099   6.409   0.329   4.095
 9067SOL    HW128100   6.459   0.387   4.031
 9067SOL    HW228101   6.367   0.253   4.046
 9068SOL     OW28102   2.666   0.162   5.706
 9068SOL    HW128103   2.616   0.145   5.791
 9068SOL    HW228104   2.764   0.151   5.722
 9069SOL     OW28105   2.631   2.311   1.954
 9069SOL    HW128106   2.572   2.387   1.982
 9069SOL    HW228107   2.723   2.327   1.990
 9070SOL     OW28108   0.937   3.115   5.927
 9070SOL    HW128109   0.994   3.061   5.989
 9070SOL    HW228110   0.970   3.210   5.926
 9071SOL     OW28111   5.656   0.198   0.839
 9071SOL    HW128112   5.643   0.100   0.825
 9071SOL    HW228113   5.607   0.249   0.768
 9072SOL     OW28114   6.374   1.209   2.265
 9072SOL    HW128115   6.360   1.234   2.360
 9072SOL    HW228116   6.376   1.291   2.208
 9073SOL     OW28117   3.355   6.484   0.392
 9073SOL    HW128118   3.312   6.476   0.482
 9073SOL    HW228119   3.300   6.545   0.334
 9074SOL     OW28120   2.416   1.028   1.882
 9074SOL    HW128121   2.346   0.958   1.884
 9074SOL    HW228122   2.383   1.110   1.928
 9075SOL     OW28123   1.225   1.409   2.435
 9075SOL    HW128124   1.138   1.365   2.458
 9075SOL    HW228125   1.282   1.345   2.385
 9076SOL     OW28126   6.055   1.906   5.230
 9076SOL    HW128127   6.027   1.980   5.290
 9076SOL    HW228128   6.009   1.822   5.257
 9077SOL     OW28129   5.456   6.855   6.851
 9077SOL    HW128130   5.518   6.859   6.773
 9077SOL    HW228131   5.485   6.922   6.920
 9078SOL     OW28132   4.277   3.583   6.373
 9078SOL    HW128133   4.207   3.653   6.358
 9078SOL    HW228134   4.328   3.603   6.456
 9079SOL     OW28135   2.481   6.511   3.991
 9079SOL    HW128136   2.473   6.611   3.991
 9079SOL    HW228137   2.448   6.475   3.904
 9080SOL     OW28138   5.471   2.094   0.232
 9080SOL    HW128139   5.381   2.104   0.189
 9080SOL    HW228140   5.536   2.156   0.187
 9081SOL     OW28141   4.273   6.528   3.045
 9081SOL    HW128142   4.303   6.569   2.958
 9081SOL    HW228143   4.218   6.447   3.026
 9082SOL     OW28144   2.682   6.712   5.049
 9082SOL    HW128145   2.587   6.718   5.019
 9082SOL    HW228146   2.697   6.773   5.127
 9083SOL     OW28147   3.909   4.578   5.929
 9083SOL    HW128148   3.853   4.534   5.859
 9083SOL    HW228149   3.982   4.631   5.885
 9084SOL     OW28150   3.082   3.896   5.670
 9084SOL    HW128151   3.100   3.994   5.675
 9084SOL    HW228152   3.094   3.865   5.575
 9085SOL     OW28153   1.969   4.712   1.220
 9085SOL    HW128154   1.921   4.687   1.136
 9085SOL    HW228155   1.961   4.810   1.235
 9086SOL     OW28156   0.677   4.215   0.414
 9086SOL    HW128157   0.588   4.230   0.369
 9086SOL    HW228158   0.663   4.202   0.512
 9087SOL     OW28159   4.575   2.530   2.222
 9087SOL    HW128160   4.550   2.495   2.312
 9087SOL    HW228161   4.500   2.586   2.186
 9088SOL     OW28162   5.241   5.974   0.672
 9088SOL    HW128163   5.325   6.024   0.693
 9088SOL    HW228164   5.216   5.987   0.576
 9089SOL     OW28165   4.790   6.560   5.146
 9089SOL    HW128166   4.694   6.559   5.173
 9089SOL    HW228167   4.826   6.653   5.152
 9090SOL     OW28168   0.065   6.799   3.378
 9090SOL    HW128169   0.140   6.733   3.367
 9090SOL    HW228170   0.028   6.792   3.471
 9091SOL     OW28171   3.248   3.969   1.053
 9091SOL    HW128172   3.313   4.042   1.032
 9091SOL    HW228173   3.162   3.987   1.005
 9092SOL     OW28174   0.093   1.686   0.897
 9092SOL    HW128175   0.053   1.597   0.919
 9092SOL    HW228176   0.021   1.755   0.893
 9093SOL     OW28177   1.147   6.556   6.227
 9093SOL    HW128178   1.215   6.501   6.179
 9093SOL    HW228179   1.087   6.496   6.280
 9094SOL     OW28180   6.214   5.397   2.754
 9094SOL    HW128181   6.141   5.344   2.796
 9094SOL    HW228182   6.298   5.343   2.752
 9095SOL     OW28183   4.485   4.391   5.953
 9095SOL    HW128184   4.393   4.353   5.959
 9095SOL    HW228185   4.501   4.450   6.033
 9096SOL     OW28186   5.731   3.795   1.494
 9096SOL    HW128187   5.691   3.706   1.469
 9096SOL    HW228188   5.662   3.851   1.539
 9097SOL     OW28189   0.827   1.789   6.860
 9097SOL    HW128190   0.843   1.690   6.854
 9097SOL    HW228191   0.800   1.813   6.953
 9098SOL     OW28192   3.757   1.978   5.805
 9098SOL    HW128193   3.820   2.026   5.866
 9098SOL    HW228194   3.663   2.002   5.830
 9099SOL     OW28195   2.763   2.527   5.769
 9099SOL    HW128196   2.700   2.483   5.705
 9099SOL    HW228197   2.812   2.600   5.721
 9100SOL     OW28198   0.585   3.693   4.011
 9100SOL    HW128199   0.648   3.770   4.022
 9100SOL    HW228200   0.509   3.721   3.953
 9101SOL     OW28201   2.234   2.500   3.010
 9101SOL    HW128202   2.258   2.497   2.913
 9101SOL    HW228203   2.135   2.512   3.020
 9102SOL     OW28204   2.870   6.952   1.754
 9102SOL    HW128205   2.884   6.942   1.853
 9102SOL    HW228206   2.950   6.998   1.714
 9103SOL     OW28207   6.530   3.284   6.599
 9103SOL    HW128208   6.448   3.341   6.604
 9103SOL    HW228209   6.526   3.228   6.517
 9104SOL     OW28210   0.307   6.659   1.967
 9104SOL    HW128211   0.395   6.703   1.946
 9104SOL    HW228212   0.311   6.563   1.940
 9105SOL     OW28213   1.448   1.594   6.876
 9105SOL    HW128214   1.359   1.632   6.897
 9105SOL    HW228215   1.506   1.598   6.957
 9106SOL     OW28216   0.165   3.050   0.624
 9106SOL    HW128217   0.147   2.984   0.551
 9106SOL    HW228218   0.094   3.120   0.624
 9107SOL     OW28219   3.648   0.905   5.795
 9107SOL    HW128220   3.737   0.904   5.750
 9107SOL    HW228221   3.578   0.869   5.733
 9108SOL     OW28222   4.745   4.166   5.622
 9108SOL    HW128223   4.717   4.083   5.573
 9108SOL    HW228224   4.845   4.173   5.621
 9109SOL     OW28225   6.839   2.296   3.364
 9109SOL    HW128226   6.831   2.380   3.309
 9109SOL    HW228227   6.749   2.251   3.368
 9110SOL     OW28228   1.619   4.758   3.988
 9110SOL    HW128229   1.689   4.688   3.975
 9110SOL    HW228230   1.544   4.743   3.923
 9111SOL     OW28231   4.669   1.963   0.785
 9111SOL    HW128232   4.750   1.911   0.812
 9111SOL    HW228233   4.588   1.926   0.830
 9112SOL     OW28234   0.640   5.498   3.088
 9112SOL    HW128235   0.617   5.436   3.163
 9112SOL    HW228236   0.570   5.492   3.017
 9113SOL     OW28237   4.640   1.513   2.553
 9113SOL    HW128238   4.642   1.601   2.507
 9113SOL    HW228239   4.568   1.456   2.513
 9114SOL     OW28240   0.924   4.556   2.179
 9114SOL    HW128241   0.990   4.481   2.183
 9114SOL    HW228242   0.864   4.552   2.259
 9115SOL     OW28243   0.306   6.032   4.370
 9115SOL    HW128244   0.338   6.125   4.351
 9115SOL    HW228245   0.233   6.008   4.307
 9116SOL     OW28246   6.895   0.885   1.731
 9116SOL    HW128247   6.911   0.970   1.782
 9116SOL    HW228248   6.941   0.810   1.778
 9117SOL     OW28249   5.053   2.344   0.246
 9117SOL    HW128250   5.059   2.424   0.187
 9117SOL    HW228251   5.109   2.358   0.327
 9118SOL     OW28252   6.736   3.627   0.042
 9118SOL    HW128253   6.648   3.619   7.013
 9118SOL    HW228254   6.811   3.618   6.993
 9119SOL     OW28255   4.371   0.535   2.707
 9119SOL    HW128256   4.356   0.628   2.673
 9119SOL    HW228257   4.410   0.478   2.634
 9120SOL     OW28258   6.353   2.026   6.193
 9120SOL    HW128259   6.267   2.074   6.214
 9120SOL    HW228260   6.372   1.959   6.265
 9121SOL     OW28261   4.322   0.766   5.207
 9121SOL    HW128262   4.275   0.851   5.231
 9121SOL    HW228263   4.255   0.692   5.198
 9122SOL     OW28264   2.373   4.441   2.241
 9122SOL    HW128265   2.401   4.463   2.148
 9122SOL    HW228266   2.446   4.466   2.304
 9123SOL     OW28267   2.224   0.367   3.314
 9123SOL    HW128268   2.248   0.429   3.389
 9123SOL    HW228269   2.176   0.418   3.242
 9124SOL     OW28270   5.573   6.222   0.206
 9124SOL    HW128271   5.650   6.286   0.213
 9124SOL    HW228272   5.598   6.135   0.249
 9125SOL     OW28273   5.064   4.503   0.164
 9125SOL    HW128274   5.128   4.453   0.222
 9125SOL    HW228275   4.982   4.447   0.150
 9126SOL     OW28276   6.099   3.688   1.369
 9126SOL    HW128277   6.072   3.599   1.333
 9126SOL    HW228278   6.084   3.690   1.468
 9127SOL     OW28279   6.488   1.610   6.271
 9127SOL    HW128280   6.508   1.647   6.180
 9127SOL    HW228281   6.437   1.524   6.261
 9128SOL     OW28282   5.940   2.577   5.367
 9128SOL    HW128283   5.927   2.623   5.455
 9128SOL    HW228284   6.036   2.584   5.339
 9129SOL     OW28285   0.275   2.668   0.246
 9129SOL    HW128286   0.333   2.685   0.166
 9129SOL    HW228287   0.327   2.620   0.316
 9130SOL     OW28288   0.696   2.919   6.205
 9130SOL    HW128289   0.647   2.911   6.292
 9130SOL    HW228290   0.775   2.979   6.216
 9131SOL     OW28291   5.830   2.915   5.757
 9131SOL    HW128292   5.770   2.894   5.680
 9131SOL    HW228293   5.775   2.944   5.835
 9132SOL     OW28294   0.432   5.704   4.104
 9132SOL    HW128295   0.496   5.629   4.086
 9132SOL    HW228296   0.457   5.783   4.047
 9133SOL     OW28297   3.960   6.533   1.593
 9133SOL    HW128298   3.942   6.619   1.545
 9133SOL    HW228299   4.057   6.509   1.582
 9134SOL     OW28300   3.594   5.711   1.406
 9134SOL    HW128301   3.498   5.740   1.400
 9134SOL    HW228302   3.644   5.744   1.326
 9135SOL     OW28303   6.316   0.090   1.554
 9135SOL    HW128304   6.369   0.041   1.485
 9135SOL    HW228305   6.237   0.134   1.510
 9136SOL     OW28306   5.026   6.439   0.075
 9136SOL    HW128307   4.972   6.471   0.153
 9136SOL    HW228308   5.086   6.513   0.045
 9137SOL     OW28309   5.045   1.349   0.734
 9137SOL    HW128310   5.012   1.438   0.704
 9137SOL    HW228311   5.132   1.360   0.784
 9138SOL     OW28312   6.981   5.664   6.850
 9138SOL    HW128313   6.972   5.565   6.850
 9138SOL    HW228314   6.926   5.703   6.776
 9139SOL     OW28315   1.885   2.250   3.444
 9139SOL    HW128316   1.950   2.310   3.399
 9139SOL    HW228317   1.792   2.278   3.421
 9140SOL     OW28318   0.050   3.456   2.623
 9140SOL    HW128319   0.019   3.507   2.543
 9140SOL    HW228320   6.989   3.416   2.670
 9141SOL     OW28321   5.524   0.023   1.371
 9141SOL    HW128322   5.618   0.049   1.393
 9141SOL    HW228323   5.503   6.954   1.416
 9142SOL     OW28324   0.827   3.002   0.964
 9142SOL    HW128325   0.831   3.039   0.870
 9142SOL    HW228326   0.888   3.056   1.022
 9143SOL     OW28327   6.236   2.933   0.511
 9143SOL    HW128328   6.310   2.869   0.530
 9143SOL    HW228329   6.274   3.020   0.482
 9144SOL     OW28330   2.537   4.968   4.806
 9144SOL    HW128331   2.590   5.005   4.730
 9144SOL    HW228332   2.534   4.868   4.800
 9145SOL     OW28333   0.366   5.389   7.012
 9145SOL    HW128334   0.440   5.456   7.004
 9145SOL    HW228335   0.391   5.318   0.060
 9146SOL     OW28336   5.583   3.047   3.620
 9146SOL    HW128337   5.517   3.102   3.569
 9146SOL    HW228338   5.584   3.077   3.716
 9147SOL     OW28339   5.720   6.656   5.195
 9147SOL    HW128340   5.737   6.753   5.179
 9147SOL    HW228341   5.760   6.630   5.283
 9148SOL     OW28342   4.910   6.327   2.032
 9148SOL    HW128343   4.921   6.424   2.008
 9148SOL    HW228344   4.915   6.317   2.131
 9149SOL     OW28345   5.252   4.024   2.487
 9149SOL    HW128346   5.165   4.046   2.444
 9149SOL    HW228347   5.276   3.929   2.468
 9150SOL     OW28348   3.027   5.188   1.242
 9150SOL    HW128349   2.980   5.241   1.171
 9150SOL    HW228350   3.029   5.242   1.326
 9151SOL     OW28351   1.043   4.458   3.713
 9151SOL    HW128352   1.087   4.408   3.638
 9151SOL    HW228353   1.113   4.497   3.772
 9152SOL     OW28354   2.228   4.035   4.483
 9152SOL    HW128355   2.171   3.989   4.415
 9152SOL    HW228356   2.217   3.988   4.571
 9153SOL     OW28357   0.537   3.285   0.345
 9153SOL    HW128358   0.532   3.356   0.275
 9153SOL    HW228359   0.479   3.208   0.319
 9154SOL     OW28360   5.617   4.560   5.593
 9154SOL    HW128361   5.699   4.523   5.637
 9154SOL    HW228362   5.626   4.659   5.586
 9155SOL     OW28363   1.636   4.260   2.868
 9155SOL    HW128364   1.606   4.190   2.932
 9155SOL    HW228365   1.729   4.239   2.836
 9156SOL     OW28366   0.315   2.013   0.930
 9156SOL    HW128367   0.223   2.053   0.936
 9156SOL    HW228368   0.365   2.033   1.014
 9157SOL     OW28369   2.608   4.301   6.740
 9157SOL    HW128370   2.680   4.281   6.806
 9157SOL    HW228371   2.533   4.349   6.786
 9158SOL     OW28372   6.443   3.883   4.661
 9158SOL    HW128373   6.440   3.827   4.578
 9158SOL    HW228374   6.469   3.825   4.739
 9159SOL     OW28375   1.298   0.838   2.556
 9159SOL    HW128376   1.320   0.782   2.637
 9159SOL    HW228377   1.376   0.837   2.493
 9160SOL     OW28378   0.178   6.569   6.112
 9160SOL    HW128379   0.194   6.668   6.108
 9160SOL    HW228380   0.257   6.521   6.073
 9161SOL     OW28381   5.211   5.058   3.556
 9161SOL    HW128382   5.250   5.100   3.473
 9161SOL    HW228383   5.267   5.085   3.635
 9162SOL     OW28384   4.106   0.474   3.524
 9162SOL    HW128385   4.109   0.535   3.602
 9162SOL    HW228386   4.091   0.527   3.440
 9163SOL     OW28387   6.765   2.205   4.326
 9163SOL    HW128388   6.833   2.177   4.258
 9163SOL    HW228389   6.799   2.283   4.377
 9164SOL     OW28390   1.577   0.656   6.731
 9164SOL    HW128391   1.590   0.624   6.825
 9164SOL    HW228392   1.540   0.749   6.732
 9165SOL     OW28393   5.673   1.668   6.139
 9165SOL    HW128394   5.750   1.654   6.201
 9165SOL    HW228395   5.692   1.625   6.051
 9166SOL     OW28396   4.296   6.321   1.052
 9166SOL    HW128397   4.324   6.237   1.100
 9166SOL    HW228398   4.306   6.399   1.114
 9167SOL     OW28399   2.223   2.257   5.670
 9167SOL    HW128400   2.145   2.316   5.649
 9167SOL    HW228401   2.219   2.230   5.766
 9168SOL     OW28402   6.399   6.145   6.552
 9168SOL    HW128403   6.351   6.074   6.605
 9168SOL    HW228404   6.447   6.102   6.476
 9169SOL     OW28405   6.934   6.715   6.749
 9169SOL    HW128406   7.003   6.647   6.771
 9169SOL    HW228407   6.943   6.793   6.810
 9170SOL     OW28408   1.973   6.962   6.471
 9170SOL    HW128409   1.928   0.025   6.432
 9170SOL    HW228410   1.919   6.929   6.549
 9171SOL     OW28411   3.277   5.978   0.548
 9171SOL    HW128412   3.255   5.903   0.611
 9171SOL    HW228413   3.358   6.026   0.581
 9172SOL     OW28414   4.873   1.140   4.001
 9172SOL    HW128415   4.783   1.171   3.971
 9172SOL    HW228416   4.895   1.053   3.958
 9173SOL     OW28417   5.862   4.462   5.708
 9173SOL    HW128418   5.948   4.427   5.670
 9173SOL    HW228419   5.882   4.522   5.786
 9174SOL     OW28420   0.253   5.504   0.459
 9174SOL    HW128421   0.336   5.517   0.513
 9174SOL    HW228422   0.253   5.412   0.419
 9175SOL     OW28423   1.385   6.778   6.510
 9175SOL    HW128424   1.289   6.753   6.503
 9175SOL    HW228425   1.437   6.702   6.547
 9176SOL     OW28426   3.089   0.647   1.821
 9176SOL    HW128427   3.113   0.741   1.847
 9176SOL    HW228428   3.010   0.649   1.760
 9177SOL     OW28429   0.765   3.747   4.486
 9177SOL    HW128430   0.666   3.750   4.500
 9177SOL    HW228431   0.795   3.652   4.482
 9178SOL     OW28432   2.286   5.214   6.868
 9178SOL    HW128433   2.234   5.245   6.788
 9178SOL    HW228434   2.251   5.260   6.950
 9179SOL     OW28435   1.641   5.408   4.164
 9179SOL    HW128436   1.695   5.487   4.135
 9179SOL    HW228437   1.692   5.324   4.145
 9180SOL     OW28438   6.118   2.388   3.551
 9180SOL    HW128439   6.198   2.361   3.497
 9180SOL    HW228440   6.129   2.483   3.582
 9181SOL     OW28441   5.851   2.494   4.949
 9181SOL    HW128442   5.802   2.519   5.032
 9181SOL    HW228443   5.923   2.428   4.970
 9182SOL     OW28444   2.739   6.655   2.837
 9182SOL    HW128445   2.719   6.637   2.933
 9182SOL    HW228446   2.837   6.644   2.820
 9183SOL     OW28447   4.719   4.763   6.405
 9183SOL    HW128448   4.755   4.856   6.396
 9183SOL    HW228449   4.762   4.704   6.337
 9184SOL     OW28450   3.861   2.615   1.046
 9184SOL    HW128451   3.775   2.642   1.089
 9184SOL    HW228452   3.892   2.687   0.984
 9185SOL     OW28453   6.663   6.416   4.764
 9185SOL    HW128454   6.649   6.375   4.674
 9185SOL    HW228455   6.684   6.513   4.754
 9186SOL     OW28456   5.514   0.085   4.703
 9186SOL    HW128457   5.597   0.082   4.647
 9186SOL    HW228458   5.434   0.090   4.643
 9187SOL     OW28459   3.507   2.002   0.215
 9187SOL    HW128460   3.471   1.926   0.161
 9187SOL    HW228461   3.449   2.015   0.296
 9188SOL     OW28462   2.065   0.378   1.095
 9188SOL    HW128463   2.119   0.457   1.066
 9188SOL    HW228464   2.061   0.376   1.195
 9189SOL     OW28465   3.795   6.232   2.556
 9189SOL    HW128466   3.877   6.274   2.519
 9189SOL    HW228467   3.767   6.155   2.498
 9190SOL     OW28468   0.579   3.007   5.691
 9190SOL    HW128469   0.657   3.032   5.634
 9190SOL    HW228470   0.605   3.008   5.787
 9191SOL     OW28471   5.697   1.059   6.430
 9191SOL    HW128472   5.793   1.070   6.401
 9191SOL    HW228473   5.640   1.046   6.349
 9192SOL     OW28474   7.003   2.356   6.422
 9192SOL    HW128475   6.937   2.391   6.355
 9192SOL    HW228476   6.955   2.326   6.504
 9193SOL     OW28477   3.990   3.151   4.631
 9193SOL    HW128478   4.038   3.212   4.568
 9193SOL    HW228479   3.922   3.098   4.581
 9194SOL     OW28480   2.979   0.067   2.494
 9194SOL    HW128481   2.910   0.071   2.423
 9194SOL    HW228482   3.009   0.160   2.517
 9195SOL     OW28483   1.565   3.385   2.997
 9195SOL    HW128484   1.523   3.303   2.958
 9195SOL    HW228485   1.538   3.394   3.093
 9196SOL     OW28486   5.316   6.743   3.874
 9196SOL    HW128487   5.249   6.708   3.808
 9196SOL    HW228488   5.376   6.668   3.903
 9197SOL     OW28489   3.315   5.080   1.030
 9197SOL    HW128490   3.216   5.068   1.026
 9197SOL    HW228491   3.351   5.035   1.111
 9198SOL     OW28492   6.369   4.231   0.081
 9198SOL    HW128493   6.347   4.152   0.138
 9198SOL    HW228494   6.338   4.315   0.126
 9199SOL     OW28495   0.412   2.569   5.841
 9199SOL    HW128496   0.411   2.593   5.938
 9199SOL    HW228497   0.435   2.650   5.787
 9200SOL     OW28498   2.721   5.991   5.426
 9200SOL    HW128499   2.767   6.042   5.498
 9200SOL    HW228500   2.786   5.972   5.352
 9201SOL     OW28501   6.993   3.090   0.277
 9201SOL    HW128502   6.966   2.994   0.287
 9201SOL    HW228503   6.979   3.138   0.364
 9202SOL     OW28504   0.873   5.554   4.303
 9202SOL    HW128505   0.831   5.636   4.341
 9202SOL    HW228506   0.875   5.561   4.203
 9203SOL     OW28507   6.195   2.938   6.369
 9203SOL    HW128508   6.129   2.884   6.420
 9203SOL    HW228509   6.248   2.995   6.433
 9204SOL     OW28510   4.930   3.505   4.170
 9204SOL    HW128511   4.974   3.419   4.142
 9204SOL    HW228512   4.941   3.516   4.269
 9205SOL     OW28513   5.268   5.644   2.961
 9205SOL    HW128514   5.191   5.648   3.024
 9205SOL    HW228515   5.258   5.716   2.892
 9206SOL     OW28516   3.008   6.466   3.551
 9206SOL    HW128517   3.075   6.527   3.508
 9206SOL    HW228518   3.038   6.445   3.644
 9207SOL     OW28519   4.014   5.172   0.158
 9207SOL    HW128520   4.068   5.247   0.120
 9207SOL    HW228521   4.073   5.092   0.172
 9208SOL     OW28522   6.073   3.962   2.250
 9208SOL    HW128523   6.138   3.926   2.183
 9208SOL    HW228524   6.031   3.887   2.299
 9209SOL     OW28525   4.441   0.577   1.223
 9209SOL    HW128526   4.466   0.524   1.303
 9209SOL    HW228527   4.477   0.670   1.232
 9210SOL     OW28528   0.703   0.746   1.345
 9210SOL    HW128529   0.768   0.714   1.276
 9210SOL    HW228530   0.634   0.804   1.301
 9211SOL     OW28531   5.754   3.107   6.828
 9211SOL    HW128532   5.797   3.147   6.910
 9211SOL    HW228533   5.655   3.106   6.840
 9212SOL     OW28534   5.032   4.273   4.477
 9212SOL    HW128535   5.036   4.208   4.553
 9212SOL    HW228536   5.034   4.223   4.390
 9213SOL     OW28537   4.747   5.705   4.405
 9213SOL    HW128538   4.771   5.732   4.499
 9213SOL    HW228539   4.697   5.780   4.361
 9214SOL     OW28540   6.985   2.889   5.182
 9214SOL    HW128541   6.981   2.798   5.222
 9214SOL    HW228542   0.062   2.909   5.154
 9215SOL     OW28543   1.492   4.365   2.642
 9215SOL    HW128544   1.547   4.322   2.713
 9215SOL    HW228545   1.398   4.378   2.675
 9216SOL     OW28546   2.420   6.690   3.724
 9216SOL    HW128547   2.482   6.766   3.743
 9216SOL    HW228548   2.436   6.657   3.631
 9217SOL     OW28549   6.285   2.385   0.335
 9217SOL    HW128550   6.224   2.449   0.289
 9217SOL    HW228551   6.273   2.294   0.295
 9218SOL     OW28552   4.358   1.085   0.228
 9218SOL    HW128553   4.444   1.118   0.266
 9218SOL    HW228554   4.376   1.014   0.160
 9219SOL     OW28555   4.978   3.789   6.408
 9219SOL    HW128556   5.032   3.813   6.489
 9219SOL    HW228557   4.898   3.850   6.402
 9220SOL     OW28558   1.596   6.334   2.334
 9220SOL    HW128559   1.566   6.301   2.424
 9220SOL    HW228560   1.518   6.338   2.273
 9221SOL     OW28561   2.535   6.933   3.799
 9221SOL    HW128562   2.576   6.967   3.714
 9221SOL    HW228563   2.504   7.009   3.855
 9222SOL     OW28564   2.465   5.527   5.024
 9222SOL    HW128565   2.507   5.607   5.067
 9222SOL    HW228566   2.531   5.484   4.962
 9223SOL     OW28567   1.592   3.061   4.060
 9223SOL    HW128568   1.510   3.116   4.046
 9223SOL    HW228569   1.609   3.051   4.158
 9224SOL     OW28570   1.283   4.895   3.685
 9224SOL    HW128571   1.202   4.891   3.744
 9224SOL    HW228572   1.313   4.802   3.662
 9225SOL     OW28573   3.495   5.887   5.950
 9225SOL    HW128574   3.506   5.983   5.922
 9225SOL    HW228575   3.569   5.832   5.911
 9226SOL     OW28576   0.484   6.790   1.238
 9226SOL    HW128577   0.425   6.724   1.194
 9226SOL    HW228578   0.458   6.800   1.334
 9227SOL     OW28579   2.480   6.079   1.153
 9227SOL    HW128580   2.430   6.128   1.081
 9227SOL    HW228581   2.469   5.980   1.139
 9228SOL     OW28582   2.586   1.869   0.194
 9228SOL    HW128583   2.636   1.819   0.123
 9228SOL    HW228584   2.498   1.826   0.210
 9229SOL     OW28585   1.068   4.414   5.510
 9229SOL    HW128586   1.109   4.466   5.435
 9229SOL    HW228587   0.981   4.457   5.536
 9230SOL     OW28588   5.227   3.015   3.523
 9230SOL    HW128589   5.129   2.996   3.532
 9230SOL    HW228590   5.265   2.960   3.449
 9231SOL     OW28591   1.587   2.873   5.287
 9231SOL    HW128592   1.590   2.939   5.362
 9231SOL    HW228593   1.670   2.880   5.232
 9232SOL     OW28594   3.094   5.104   6.972
 9232SOL    HW128595   3.102   5.172   6.898
 9232SOL    HW228596   3.045   5.024   6.938
 9233SOL     OW28597   6.789   6.431   1.064
 9233SOL    HW128598   6.761   6.493   0.991
 9233SOL    HW228599   6.871   6.382   1.036
 9234SOL     OW28600   2.903   5.622   0.779
 9234SOL    HW128601   2.912   5.657   0.686
 9234SOL    HW228602   2.983   5.566   0.802
 9235SOL     OW28603   2.012   2.719   3.457
 9235SOL    HW128604   2.022   2.623   3.429
 9235SOL    HW228605   2.094   2.749   3.505
 9236SOL     OW28606   1.624   4.088   0.500
 9236SOL    HW128607   1.667   4.178   0.490
 9236SOL    HW228608   1.662   4.041   0.580
 9237SOL     OW28609   0.466   5.472   2.876
 9237SOL    HW128610   0.409   5.554   2.885
 9237SOL    HW228611   0.410   5.396   2.843
 9238SOL     OW28612   2.296   2.862   5.944
 9238SOL    HW128613   2.378   2.860   5.887
 9238SOL    HW228614   2.322   2.856   6.041
 9239SOL     OW28615   0.246   4.178   5.888
 9239SOL    HW128616   0.227   4.090   5.932
 9239SOL    HW228617   0.328   4.219   5.928
 9240SOL     OW28618   4.859   3.162   2.239
 9240SOL    HW128619   4.821   3.104   2.167
 9240SOL    HW228620   4.920   3.230   2.199
 9241SOL     OW28621   0.465   4.882   0.417
 9241SOL    HW128622   0.503   4.962   0.463
 9241SOL    HW228623   0.367   4.895   0.403
 9242SOL     OW28624   1.727   3.915   1.241
 9242SOL    HW128625   1.664   3.948   1.311
 9242SOL    HW228626   1.691   3.939   1.151
 9243SOL     OW28627   6.657   0.305   1.607
 9243SOL    HW128628   6.701   0.307   1.696
 9243SOL    HW228629   6.592   0.229   1.603
 9244SOL     OW28630   3.040   5.850   6.126
 9244SOL    HW128631   3.003   5.937   6.093
 9244SOL    HW228632   3.028   5.780   6.056
 9245SOL     OW28633   0.730   5.114   3.617
 9245SOL    HW128634   0.746   5.204   3.658
 9245SOL    HW228635   0.688   5.054   3.685
 9246SOL     OW28636   6.082   6.941   2.490
 9246SOL    HW128637   5.989   6.962   2.521
 9246SOL    HW228638   6.112   7.013   2.427
 9247SOL     OW28639   2.629   6.196   3.323
 9247SOL    HW128640   2.606   6.178   3.227
 9247SOL    HW228641   2.545   6.195   3.378
 9248SOL     OW28642   2.915   1.922   4.491
 9248SOL    HW128643   2.824   1.956   4.464
 9248SOL    HW228644   2.918   1.823   4.480
 9249SOL     OW28645   3.917   5.055   1.322
 9249SOL    HW128646   4.009   5.060   1.362
 9249SOL    HW228647   3.918   4.993   1.244
 9250SOL     OW28648   5.542   3.415   4.684
 9250SOL    HW128649   5.631   3.448   4.715
 9250SOL    HW228650   5.547   3.394   4.587
 9251SOL     OW28651   4.274   1.976   2.598
 9251SOL    HW128652   4.371   1.958   2.616
 9251SOL    HW228653   4.256   1.965   2.500
 9252SOL     OW28654   5.612   0.606   4.341
 9252SOL    HW128655   5.687   0.578   4.281
 9252SOL    HW228656   5.630   0.574   4.434
 9253SOL     OW28657   5.622   5.325   5.486
 9253SOL    HW128658   5.550   5.282   5.539
 9253SOL    HW228659   5.590   5.413   5.451
 9254SOL     OW28660   4.929   5.520   2.893
 9254SOL    HW128661   4.970   5.551   2.979
 9254SOL    HW228662   4.913   5.599   2.833
 9255SOL     OW28663   5.070   3.789   6.930
 9255SOL    HW128664   5.141   3.734   6.974
 9255SOL    HW228665   5.006   3.728   6.882
 9256SOL     OW28666   3.021   0.333   2.568
 9256SOL    HW128667   3.071   0.380   2.641
 9256SOL    HW228668   2.943   0.389   2.540
 9257SOL     OW28669   6.455   4.859   3.544
 9257SOL    HW128670   6.429   4.947   3.584
 9257SOL    HW228671   6.538   4.870   3.491
 9258SOL     OW28672   4.105   3.491   2.309
 9258SOL    HW128673   4.006   3.475   2.306
 9258SOL    HW228674   4.149   3.445   2.232
 9259SOL     OW28675   0.302   1.668   0.709
 9259SOL    HW128676   0.231   1.671   0.779
 9259SOL    HW228677   0.346   1.758   0.703
 9260SOL     OW28678   6.047   2.133   5.445
 9260SOL    HW128679   6.139   2.165   5.467
 9260SOL    HW228680   5.980   2.202   5.472
 9261SOL     OW28681   3.705   1.410   0.440
 9261SOL    HW128682   3.725   1.345   0.514
 9261SOL    HW228683   3.765   1.489   0.447
 9262SOL     OW28684   6.777   5.668   5.181
 9262SOL    HW128685   6.833   5.741   5.220
 9262SOL    HW228686   6.706   5.708   5.122
 9263SOL     OW28687   4.376   0.081   2.380
 9263SOL    HW128688   4.354   0.167   2.426
 9263SOL    HW228689   4.404   0.100   2.286
 9264SOL     OW28690   4.867   4.251   0.849
 9264SOL    HW128691   4.909   4.313   0.783
 9264SOL    HW228692   4.917   4.165   0.850
 9265SOL     OW28693   3.520   2.402   6.825
 9265SOL    HW128694   3.565   2.371   6.741
 9265SOL    HW228695   3.569   2.481   6.862
 9266SOL     OW28696   1.126   6.171   1.088
 9266SOL    HW128697   1.103   6.214   1.001
 9266SOL    HW228698   1.050   6.112   1.117
 9267SOL     OW28699   6.885   1.652   5.097
 9267SOL    HW128700   6.842   1.742   5.089
 9267SOL    HW228701   6.881   1.605   5.009
 9268SOL     OW28702   1.685   6.549   2.614
 9268SOL    HW128703   1.607   6.590   2.567
 9268SOL    HW228704   1.756   6.526   2.546
 9269SOL     OW28705   4.912   1.309   6.487
 9269SOL    HW128706   4.841   1.380   6.487
 9269SOL    HW228707   4.878   1.228   6.534
 9270SOL     OW28708   4.427   6.583   6.066
 9270SOL    HW128709   4.518   6.613   6.094
 9270SOL    HW228710   4.388   6.649   6.002
 9271SOL     OW28711   6.134   0.231   0.968
 9271SOL    HW128712   6.069   0.250   0.894
 9271SOL    HW228713   6.116   0.140   1.006
 9272SOL     OW28714   1.051   5.629   5.528
 9272SOL    HW128715   1.112   5.636   5.449
 9272SOL    HW228716   1.101   5.595   5.607
 9273SOL     OW28717   5.907   5.949   2.918
 9273SOL    HW128718   5.944   5.940   2.825
 9273SOL    HW228719   5.860   5.864   2.943
 9274SOL     OW28720   6.541   1.553   0.444
 9274SOL    HW128721   6.445   1.584   0.446
 9274SOL    HW228722   6.548   1.464   0.489
 9275SOL     OW28723   6.491   0.719   7.000
 9275SOL    HW128724   6.408   0.759   0.021
 9275SOL    HW228725   6.544   0.790   6.954
 9276SOL     OW28726   2.050   4.471   1.321
 9276SOL    HW128727   2.013   4.561   1.298
 9276SOL    HW228728   2.020   4.404   1.253
 9277SOL     OW28729   4.531   4.578   0.999
 9277SOL    HW128730   4.589   4.659   1.004
 9277SOL    HW228731   4.439   4.600   1.034
 9278SOL     OW28732   1.865   6.943   5.691
 9278SOL    HW128733   1.854   6.855   5.644
 9278SOL    HW228734   1.886   7.014   5.624
 9279SOL     OW28735   2.877   0.232   1.437
 9279SOL    HW128736   2.967   0.237   1.395
 9279SOL    HW228737   2.842   0.139   1.430
 9280SOL     OW28738   2.283   1.705   2.245
 9280SOL    HW128739   2.206   1.769   2.237
 9280SOL    HW228740   2.250   1.618   2.282
 9281SOL     OW28741   2.638   3.919   6.585
 9281SOL    HW128742   2.666   3.823   6.579
 9281SOL    HW228743   2.680   3.961   6.666
 9282SOL     OW28744   5.681   0.994   3.078
 9282SOL    HW128745   5.724   1.079   3.051
 9282SOL    HW228746   5.743   0.917   3.060
 9283SOL     OW28747   4.834   0.722   4.232
 9283SOL    HW128748   4.777   0.640   4.238
 9283SOL    HW228749   4.785   0.799   4.274
 9284SOL     OW28750   2.882   3.079   5.418
 9284SOL    HW128751   2.786   3.108   5.420
 9284SOL    HW228752   2.941   3.159   5.425
 9285SOL     OW28753   4.936   3.275   1.264
 9285SOL    HW128754   4.946   3.326   1.349
 9285SOL    HW228755   4.887   3.330   1.196
 9286SOL     OW28756   5.496   5.922   1.187
 9286SOL    HW128757   5.481   5.983   1.109
 9286SOL    HW228758   5.408   5.888   1.219
 9287SOL     OW28759   3.533   4.844   6.343
 9287SOL    HW128760   3.530   4.927   6.287
 9287SOL    HW228761   3.609   4.787   6.312
 9288SOL     OW28762   4.402   1.319   2.764
 9288SOL    HW128763   4.498   1.318   2.791
 9288SOL    HW228764   4.391   1.374   2.681
 9289SOL     OW28765   4.372   0.546   1.564
 9289SOL    HW128766   4.383   0.455   1.523
 9289SOL    HW228767   4.413   0.547   1.655
 9290SOL     OW28768   5.334   0.824   3.269
 9290SOL    HW128769   5.318   0.859   3.361
 9290SOL    HW228770   5.390   0.888   3.218
 9291SOL     OW28771   1.265   5.128   5.592
 9291SOL    HW128772   1.314   5.042   5.602
 9291SOL    HW228773   1.235   5.161   5.681
 9292SOL     OW28774   2.433   2.434   5.791
 9292SOL    HW128775   2.352   2.439   5.732
 9292SOL    HW228776   2.483   2.520   5.785
 9293SOL     OW28777   6.665   3.184   6.850
 9293SOL    HW128778   6.611   3.209   6.770
 9293SOL    HW228779   6.645   3.247   6.925
 9294SOL     OW28780   5.148   1.010   5.963
 9294SOL    HW128781   5.081   1.012   5.889
 9294SOL    HW228782   5.160   1.102   6.000
 9295SOL     OW28783   5.321   0.440   5.051
 9295SOL    HW128784   5.392   0.506   5.076
 9295SOL    HW228785   5.360   0.372   4.988
 9296SOL     OW28786   1.872   5.342   6.681
 9296SOL    HW128787   1.873   5.442   6.694
 9296SOL    HW228788   1.961   5.313   6.646
 9297SOL     OW28789   1.232   6.938   2.915
 9297SOL    HW128790   1.224   0.020   2.913
 9297SOL    HW228791   1.261   6.905   2.825
 9298SOL     OW28792   1.029   6.378   6.652
 9298SOL    HW128793   1.123   6.363   6.620
 9298SOL    HW228794   1.025   6.461   6.707
 9299SOL     OW28795   0.262   1.972   4.369
 9299SOL    HW128796   0.243   1.912   4.291
 9299SOL    HW228797   0.217   2.060   4.354
 9300SOL     OW28798   0.564   4.223   5.910
 9300SOL    HW128799   0.563   4.241   5.812
 9300SOL    HW228800   0.577   4.309   5.959
 9301SOL     OW28801   5.590   5.415   4.581
 9301SOL    HW128802   5.522   5.465   4.527
 9301SOL    HW228803   5.550   5.387   4.668
 9302SOL     OW28804   1.993   3.510   3.995
 9302SOL    HW128805   1.934   3.431   4.013
 9302SOL    HW228806   1.957   3.563   3.919
 9303SOL     OW28807   3.354   3.956   0.540
 9303SOL    HW128808   3.310   3.976   0.452
 9303SOL    HW228809   3.307   4.004   0.613
 9304SOL     OW28810   4.206   4.534   1.692
 9304SOL    HW128811   4.119   4.497   1.659
 9304SOL    HW228812   4.281   4.479   1.656
 9305SOL     OW28813   3.620   1.286   0.733
 9305SOL    HW128814   3.655   1.193   0.721
 9305SOL    HW228815   3.590   1.298   0.828
 9306SOL     OW28816   1.080   3.792   5.505
 9306SOL    HW128817   1.009   3.850   5.545
 9306SOL    HW228818   1.092   3.710   5.561
 9307SOL     OW28819   1.138   4.120   1.048
 9307SOL    HW128820   1.160   4.189   0.979
 9307SOL    HW228821   1.192   4.138   1.131
 9308SOL     OW28822   1.657   3.664   1.175
 9308SOL    HW128823   1.691   3.755   1.195
 9308SOL    HW228824   1.700   3.598   1.235
 9309SOL     OW28825   3.462   5.600   6.109
 9309SOL    HW128826   3.389   5.568   6.048
 9309SOL    HW228827   3.455   5.699   6.122
 9310SOL     OW28828   5.568   5.632   5.556
 9310SOL    HW128829   5.505   5.707   5.576
 9310SOL    HW228830   5.593   5.586   5.640
 9311SOL     OW28831   5.052   4.618   0.917
 9311SOL    HW128832   5.131   4.639   0.974
 9311SOL    HW228833   4.976   4.590   0.975
 9312SOL     OW28834   1.296   3.150   1.231
 9312SOL    HW128835   1.335   3.239   1.208
 9312SOL    HW228836   1.322   3.125   1.324
 9313SOL     OW28837   6.995   0.172   1.581
 9313SOL    HW128838   7.001   0.263   1.623
 9313SOL    HW228839   6.967   0.182   1.485
 9314SOL     OW28840   6.491   3.653   6.925
 9314SOL    HW128841   6.536   3.673   6.838
 9314SOL    HW228842   6.446   3.735   6.959
 9315SOL     OW28843   6.991   0.135   5.452
 9315SOL    HW128844   6.987   0.035   5.451
 9315SOL    HW228845   6.948   0.171   5.369
 9316SOL     OW28846   5.651   6.304   5.680
 9316SOL    HW128847   5.687   6.281   5.589
 9316SOL    HW228848   5.559   6.267   5.689
 9317SOL     OW28849   4.248   5.456   3.847
 9317SOL    HW128850   4.219   5.533   3.790
 9317SOL    HW228851   4.320   5.405   3.800
 9318SOL     OW28852   6.276   0.782   6.489
 9318SOL    HW128853   6.262   0.749   6.583
 9318SOL    HW228854   6.356   0.736   6.450
 9319SOL     OW28855   2.411   3.145   1.025
 9319SOL    HW128856   2.385   3.189   1.111
 9319SOL    HW228857   2.476   3.071   1.044
 9320SOL     OW28858   3.888   0.631   5.385
 9320SOL    HW128859   3.976   0.666   5.416
 9320SOL    HW228860   3.883   0.533   5.403
 9321SOL     OW28861   1.019   0.485   4.905
 9321SOL    HW128862   1.047   0.578   4.880
 9321SOL    HW228863   0.972   0.486   4.993
 9322SOL     OW28864   0.224   3.588   6.588
 9322SOL    HW128865   0.267   3.640   6.515
 9322SOL    HW228866   0.204   3.495   6.555
 9323SOL     OW28867   0.767   1.379   4.882
 9323SOL    HW128868   0.784   1.421   4.971
 9323SOL    HW228869   0.717   1.443   4.824
 9324SOL     OW28870   1.547   4.164   2.437
 9324SOL    HW128871   1.542   4.205   2.528
 9324SOL    HW228872   1.503   4.074   2.440
 9325SOL     OW28873   6.361   0.332   6.716
 9325SOL    HW128874   6.283   0.362   6.771
 9325SOL    HW228875   6.427   0.407   6.708
 9326SOL     OW28876   2.836   4.676   0.226
 9326SOL    HW128877   2.904   4.609   0.195
 9326SOL    HW228878   2.879   4.742   0.287
 9327SOL     OW28879   4.495   0.358   2.569
 9327SOL    HW128880   4.462   0.278   2.619
 9327SOL    HW228881   4.593   0.351   2.553
 9328SOL     OW28882   2.085   0.839   4.149
 9328SOL    HW128883   2.087   0.939   4.150
 9328SOL    HW228884   1.997   0.807   4.186
 9329SOL     OW28885   5.728   4.136   0.882
 9329SOL    HW128886   5.805   4.194   0.855
 9329SOL    HW228887   5.743   4.102   0.975
 9330SOL     OW28888   6.866   0.499   5.779
 9330SOL    HW128889   6.807   0.447   5.840
 9330SOL    HW228890   6.825   0.504   5.688
 9331SOL     OW28891   2.772   1.123   6.354
 9331SOL    HW128892   2.845   1.117   6.286
 9331SOL    HW228893   2.691   1.165   6.313
 9332SOL     OW28894   3.285   4.765   0.367
 9332SOL    HW128895   3.302   4.828   0.443
 9332SOL    HW228896   3.296   4.813   0.280
 9333SOL     OW28897   3.538   5.375   6.304
 9333SOL    HW128898   3.518   5.283   6.270
 9333SOL    HW228899   3.513   5.443   6.235
 9334SOL     OW28900   4.473   6.748   4.609
 9334SOL    HW128901   4.479   6.764   4.708
 9334SOL    HW228902   4.502   6.830   4.560
 9335SOL     OW28903   1.459   1.348   6.484
 9335SOL    HW128904   1.391   1.405   6.437
 9335SOL    HW228905   1.547   1.358   6.438
 9336SOL     OW28906   4.197   0.384   4.713
 9336SOL    HW128907   4.283   0.334   4.728
 9336SOL    HW228908   4.170   0.430   4.798
 9337SOL     OW28909   4.588   1.289   5.086
 9337SOL    HW128910   4.547   1.234   5.013
 9337SOL    HW228911   4.567   1.247   5.175
 9338SOL     OW28912   6.112   6.981   1.234
 9338SOL    HW128913   6.115   0.036   1.303
 9338SOL    HW228914   6.017   6.967   1.206
 9339SOL     OW28915   6.167   6.501   0.046
 9339SOL    HW128916   6.209   6.540   6.982
 9339SOL    HW228917   6.067   6.501   0.036
 9340SOL     OW28918   3.985   4.803   3.262
 9340SOL    HW128919   3.926   4.791   3.342
 9340SOL    HW228920   3.931   4.840   3.186
 9341SOL     OW28921   5.586   5.008   1.301
 9341SOL    HW128922   5.556   5.093   1.343
 9341SOL    HW228923   5.666   5.025   1.243
 9342SOL     OW28924   2.610   6.690   4.648
 9342SOL    HW128925   2.675   6.720   4.718
 9342SOL    HW228926   2.645   6.608   4.603
 9343SOL     OW28927   4.791   4.285   2.111
 9343SOL    HW128928   4.802   4.317   2.205
 9343SOL    HW228929   4.695   4.292   2.084
 9344SOL     OW28930   5.534   6.440   1.821
 9344SOL    HW128931   5.551   6.346   1.851
 9344SOL    HW228932   5.445   6.446   1.777
 9345SOL     OW28933   6.838   5.083   0.750
 9345SOL    HW128934   6.889   5.114   0.669
 9345SOL    HW228935   6.836   4.983   0.751
 9346SOL     OW28936   4.645   0.911   2.123
 9346SOL    HW128937   4.703   0.858   2.184
 9346SOL    HW228938   4.639   0.865   2.034
 9347SOL     OW28939   3.209   5.362   0.476
 9347SOL    HW128940   3.305   5.335   0.481
 9347SOL    HW228941   3.151   5.288   0.510
 9348SOL     OW28942   3.090   5.397   3.006
 9348SOL    HW128943   3.065   5.433   3.096
 9348SOL    HW228944   3.031   5.437   2.936
 9349SOL     OW28945   6.228   4.945   2.075
 9349SOL    HW128946   6.263   5.031   2.113
 9349SOL    HW228947   6.304   4.889   2.043
 9350SOL     OW28948   6.535   1.716   4.987
 9350SOL    HW128949   6.597   1.791   5.007
 9350SOL    HW228950   6.441   1.750   4.982
 9351SOL     OW28951   3.665   6.376   6.018
 9351SOL    HW128952   3.652   6.449   5.952
 9351SOL    HW228953   3.762   6.367   6.040
 9352SOL     OW28954   3.636   1.887   6.398
 9352SOL    HW128955   3.685   1.965   6.438
 9352SOL    HW228956   3.554   1.921   6.351
 9353SOL     OW28957   1.016   4.660   1.198
 9353SOL    HW128958   0.952   4.595   1.239
 9353SOL    HW228959   0.969   4.715   1.129
 9354SOL     OW28960   0.561   1.679   6.026
 9354SOL    HW128961   0.605   1.641   5.944
 9354SOL    HW228962   0.500   1.754   6.001
 9355SOL     OW28963   0.287   1.577   4.409
 9355SOL    HW128964   0.321   1.487   4.437
 9355SOL    HW228965   0.218   1.608   4.474
 9356SOL     OW28966   4.828   6.063   2.145
 9356SOL    HW128967   4.872   6.130   2.205
 9356SOL    HW228968   4.889   5.984   2.132
 9357SOL     OW28969   2.415   3.686   6.424
 9357SOL    HW128970   2.445   3.601   6.381
 9357SOL    HW228971   2.426   3.762   6.361
 9358SOL     OW28972   6.372   3.337   2.446
 9358SOL    HW128973   6.391   3.380   2.358
 9358SOL    HW228974   6.274   3.318   2.453
 9359SOL     OW28975   0.890   3.536   5.502
 9359SOL    HW128976   0.819   3.554   5.571
 9359SOL    HW228977   0.874   3.593   5.422
 9360SOL     OW28978   1.741   5.734   6.657
 9360SOL    HW128979   1.751   5.829   6.686
 9360SOL    HW228980   1.815   5.679   6.697
 9361SOL     OW28981   1.280   6.725   3.074
 9361SOL    HW128982   1.195   6.701   3.122
 9361SOL    HW228983   1.269   6.814   3.029
 9362SOL     OW28984   1.884   3.350   2.730
 9362SOL    HW128985   1.951   3.385   2.665
 9362SOL    HW228986   1.794   3.389   2.709
 9363SOL     OW28987   3.956   6.684   2.126
 9363SOL    HW128988   3.974   6.780   2.102
 9363SOL    HW228989   4.000   6.625   2.058
 9364SOL     OW28990   3.914   3.031   6.241
 9364SOL    HW128991   3.844   2.998   6.305
 9364SOL    HW228992   3.888   3.007   6.148
 9365SOL     OW28993   2.471   2.244   4.514
 9365SOL    HW128994   2.387   2.205   4.478
 9365SOL    HW228995   2.515   2.179   4.575
 9366SOL     OW28996   3.572   6.545   6.223
 9366SOL    HW128997   3.559   6.475   6.153
 9366SOL    HW228998   3.656   6.526   6.274
 9367SOL     OW28999   0.089   6.328   2.268
 9367SOL    HW129000   0.125   6.265   2.199
 9367SOL    HW229001   0.116   6.422   2.244
 9368SOL     OW29002   2.830   1.344   3.179
 9368SOL    HW129003   2.748   1.333   3.123
 9368SOL    HW229004   2.808   1.325   3.275
 9369SOL     OW29005   6.279   6.579   4.957
 9369SOL    HW129006   6.224   6.533   4.888
 9369SOL    HW229007   6.220   6.620   5.026
 9370SOL     OW29008   5.158   0.842   2.595
 9370SOL    HW129009   5.148   0.758   2.648
 9370SOL    HW229010   5.097   0.912   2.632
 9371SOL     OW29011   2.340   4.994   0.510
 9371SOL    HW129012   2.286   5.028   0.586
 9371SOL    HW229013   2.303   4.907   0.479
 9372SOL     OW29014   5.368   6.101   2.413
 9372SOL    HW129015   5.290   6.130   2.358
 9372SOL    HW229016   5.453   6.136   2.373
 9373SOL     OW29017   4.516   2.149   2.784
 9373SOL    HW129018   4.427   2.178   2.819
 9373SOL    HW229019   4.512   2.053   2.757
 9374SOL     OW29020   0.513   3.785   0.208
 9374SOL    HW129021   0.505   3.734   0.293
 9374SOL    HW229022   0.482   3.879   0.223
 9375SOL     OW29023   0.186   1.114   2.369
 9375SOL    HW129024   0.176   1.089   2.466
 9375SOL    HW229025   0.273   1.160   2.355
 9376SOL     OW29026   2.704   4.285   1.214
 9376SOL    HW129027   2.742   4.241   1.296
 9376SOL    HW229028   2.631   4.348   1.241
 9377SOL     OW29029   2.133   5.307   4.401
 9377SOL    HW129030   2.042   5.332   4.433
 9377SOL    HW229031   2.171   5.238   4.463
 9378SOL     OW29032   1.814   1.211   4.353
 9378SOL    HW129033   1.761   1.192   4.270
 9378SOL    HW229034   1.758   1.266   4.416
 9379SOL     OW29035   4.055   6.025   5.764
 9379SOL    HW129036   4.129   6.063   5.820
 9379SOL    HW229037   4.092   5.953   5.706
 9380SOL     OW29038   5.231   5.561   4.751
 9380SOL    HW129039   5.261   5.467   4.734
 9380SOL    HW229040   5.139   5.574   4.712
 9381SOL     OW29041   3.749   2.933   6.055
 9381SOL    HW129042   3.681   2.894   6.118
 9381SOL    HW229043   3.705   3.003   5.998
 9382SOL     OW29044   3.500   0.819   3.580
 9382SOL    HW129045   3.531   0.777   3.495
 9382SOL    HW229046   3.482   0.916   3.565
 9383SOL     OW29047   0.687   5.726   4.429
 9383SOL    HW129048   0.697   5.753   4.525
 9383SOL    HW229049   0.619   5.784   4.385
 9384SOL     OW29050   4.247   0.428   2.159
 9384SOL    HW129051   4.151   0.447   2.177
 9384SOL    HW229052   4.300   0.441   2.243
 9385SOL     OW29053   4.436   1.213   3.731
 9385SOL    HW129054   4.352   1.164   3.753
 9385SOL    HW229055   4.414   1.303   3.693
 9386SOL     OW29056   2.294   6.070   5.052
 9386SOL    HW129057   2.307   6.131   5.130
 9386SOL    HW229058   2.279   6.125   4.969
 9387SOL     OW29059   2.758   1.661   6.622
 9387SOL    HW129060   2.713   1.731   6.567
 9387SOL    HW229061   2.768   1.695   6.716
 9388SOL     OW29062   3.110   5.634   2.680
 9388SOL    HW129063   3.159   5.705   2.731
 9388SOL    HW229064   3.012   5.653   2.684
 9389SOL     OW29065   1.957   0.122   3.489
 9389SOL    HW129066   2.056   0.131   3.499
 9389SOL    HW229067   1.912   0.160   3.570
 9390SOL     OW29068   5.086   4.795   5.692
 9390SOL    HW129069   5.177   4.792   5.649
 9390SOL    HW229070   5.020   4.750   5.633
 9391SOL     OW29071   2.755   1.350   5.035
 9391SOL    HW129072   2.675   1.397   5.072
 9391SOL    HW229073   2.726   1.267   4.987
 9392SOL     OW29074   6.124   6.576   5.200
 9392SOL    HW129075   6.044   6.636   5.204
 9392SOL    HW229076   6.103   6.489   5.243
 9393SOL     OW29077   3.019   6.271   6.626
 9393SOL    HW129078   2.965   6.262   6.710
 9393SOL    HW229079   3.100   6.326   6.645
 9394SOL     OW29080   6.919   1.072   1.920
 9394SOL    HW129081   6.863   1.155   1.925
 9394SOL    HW229082   6.961   1.055   2.009
 9395SOL     OW29083   2.573   1.230   1.299
 9395SOL    HW129084   2.563   1.235   1.199
 9395SOL    HW229085   2.638   1.300   1.330
 9396SOL     OW29086   2.061   4.276   3.906
 9396SOL    HW129087   2.029   4.313   3.993
 9396SOL    HW229088   2.115   4.345   3.858
 9397SOL     OW29089   4.989   0.250   6.395
 9397SOL    HW129090   5.060   0.243   6.466
 9397SOL    HW229091   4.913   0.190   6.419
 9398SOL     OW29092   6.379   0.716   5.172
 9398SOL    HW129093   6.300   0.719   5.110
 9398SOL    HW229094   6.376   0.633   5.227
 9399SOL     OW29095   1.148   1.966   5.973
 9399SOL    HW129096   1.117   2.050   5.929
 9399SOL    HW229097   1.083   1.893   5.953
 9400SOL     OW29098   4.693   0.768   1.899
 9400SOL    HW129099   4.788   0.764   1.868
 9400SOL    HW229100   4.641   0.830   1.841
 9401SOL     OW29101   6.610   0.794   3.482
 9401SOL    HW129102   6.518   0.780   3.446
 9401SOL    HW229103   6.607   0.867   3.551
 9402SOL     OW29104   1.134   5.268   2.645
 9402SOL    HW129105   1.146   5.257   2.744
 9402SOL    HW229106   1.037   5.268   2.623
 9403SOL     OW29107   6.378   1.340   3.016
 9403SOL    HW129108   6.425   1.313   3.101
 9403SOL    HW229109   6.445   1.379   2.952
 9404SOL     OW29110   1.469   3.048   0.151
 9404SOL    HW129111   1.552   3.047   0.207
 9404SOL    HW229112   1.433   2.955   0.143
 9405SOL     OW29113   2.292   4.591   3.542
 9405SOL    HW129114   2.356   4.549   3.608
 9405SOL    HW229115   2.288   4.689   3.558
 9406SOL     OW29116   6.803   2.852   6.070
 9406SOL    HW129117   6.738   2.927   6.059
 9406SOL    HW229118   6.832   2.820   5.980
 9407SOL     OW29119   3.004   5.099   3.354
 9407SOL    HW129120   2.941   5.102   3.432
 9407SOL    HW229121   3.025   5.003   3.332
 9408SOL     OW29122   6.444   2.973   6.528
 9408SOL    HW129123   6.472   3.033   6.453
 9408SOL    HW229124   6.525   2.940   6.576
 9409SOL     OW29125   5.924   6.018   0.277
 9409SOL    HW129126   5.828   6.029   0.303
 9409SOL    HW229127   5.983   6.044   0.353
 9410SOL     OW29128   2.945   0.395   1.102
 9410SOL    HW129129   2.872   0.459   1.122
 9410SOL    HW229130   2.993   0.371   1.186
 9411SOL     OW29131   3.536   2.851   2.217
 9411SOL    HW129132   3.535   2.849   2.317
 9411SOL    HW229133   3.448   2.818   2.183
 9412SOL     OW29134   6.919   1.172   2.592
 9412SOL    HW129135   6.894   1.203   2.500
 9412SOL    HW229136   6.989   1.101   2.585
 9413SOL     OW29137   3.868   5.752   3.499
 9413SOL    HW129138   3.896   5.833   3.551
 9413SOL    HW229139   3.777   5.724   3.527
 9414SOL     OW29140   2.537   0.987   3.182
 9414SOL    HW129141   2.473   0.912   3.167
 9414SOL    HW229142   2.518   1.060   3.116
 9415SOL     OW29143   2.406   6.809   1.774
 9415SOL    HW129144   2.382   6.906   1.782
 9415SOL    HW229145   2.460   6.782   1.854
 9416SOL     OW29146   0.031   2.351   0.659
 9416SOL    HW129147   0.013   2.259   0.693
 9416SOL    HW229148   0.033   2.351   0.559
 9417SOL     OW29149   4.640   0.592   0.776
 9417SOL    HW129150   4.719   0.654   0.784
 9417SOL    HW229151   4.661   0.521   0.709
 9418SOL     OW29152   3.948   0.144   0.958
 9418SOL    HW129153   3.954   0.062   1.015
 9418SOL    HW229154   3.962   0.225   1.015
 9419SOL     OW29155   2.815   4.850   5.697
 9419SOL    HW129156   2.736   4.911   5.701
 9419SOL    HW229157   2.866   4.855   5.783
 9420SOL     OW29158   5.954   4.086   5.619
 9420SOL    HW129159   5.867   4.134   5.635
 9420SOL    HW229160   5.936   3.989   5.601
 9421SOL     OW29161   2.141   6.473   4.309
 9421SOL    HW129162   2.178   6.540   4.244
 9421SOL    HW229163   2.119   6.388   4.262
 9422SOL     OW29164   3.244   5.178   3.349
 9422SOL    HW129165   3.147   5.155   3.336
 9422SOL    HW229166   3.255   5.277   3.349
 9423SOL     OW29167   2.700   6.549   3.852
 9423SOL    HW129168   2.614   6.532   3.900
 9423SOL    HW229169   2.763   6.598   3.912
 9424SOL     OW29170   5.385   1.852   4.923
 9424SOL    HW129171   5.331   1.835   5.005
 9424SOL    HW229172   5.426   1.943   4.927
 9425SOL     OW29173   5.838   3.736   0.817
 9425SOL    HW129174   5.896   3.817   0.828
 9425SOL    HW229175   5.850   3.699   0.725
 9426SOL     OW29176   3.882   2.042   6.192
 9426SOL    HW129177   3.854   2.092   6.275
 9426SOL    HW229178   3.807   1.983   6.163
 9427SOL     OW29179   2.588   5.365   3.111
 9427SOL    HW129180   2.547   5.310   3.183
 9427SOL    HW229181   2.680   5.331   3.091
 9428SOL     OW29182   6.824   1.019   1.080
 9428SOL    HW129183   6.839   1.106   1.127
 9428SOL    HW229184   6.729   0.991   1.090
 9429SOL     OW29185   2.065   3.657   2.888
 9429SOL    HW129186   2.101   3.723   2.955
 9429SOL    HW229187   2.046   3.704   2.802
 9430SOL     OW29188   0.147   3.754   4.265
 9430SOL    HW129189   0.128   3.757   4.364
 9430SOL    HW229190   0.242   3.728   4.250
 9431SOL     OW29191   6.509   4.053   0.522
 9431SOL    HW129192   6.576   4.083   0.453
 9431SOL    HW229193   6.552   4.053   0.612
 9432SOL     OW29194   5.548   0.676   3.586
 9432SOL    HW129195   5.616   0.706   3.653
 9432SOL    HW229196   5.548   0.739   3.508
 9433SOL     OW29197   3.611   6.168   3.086
 9433SOL    HW129198   3.560   6.087   3.055
 9433SOL    HW229199   3.672   6.199   3.012
 9434SOL     OW29200   5.524   5.783   2.972
 9434SOL    HW129201   5.471   5.699   2.982
 9434SOL    HW229202   5.500   5.828   2.887
 9435SOL     OW29203   0.357   2.741   4.806
 9435SOL    HW129204   0.433   2.734   4.741
 9435SOL    HW229205   0.343   2.652   4.850
 9436SOL     OW29206   1.499   2.613   1.276
 9436SOL    HW129207   1.478   2.656   1.364
 9436SOL    HW229208   1.586   2.565   1.283
 9437SOL     OW29209   1.311   5.988   3.187
 9437SOL    HW129210   1.312   6.066   3.125
 9437SOL    HW229211   1.242   5.922   3.156
 9438SOL     OW29212   0.317   0.284   1.515
 9438SOL    HW129213   0.251   0.292   1.440
 9438SOL    HW229214   0.405   0.322   1.486
 9439SOL     OW29215   0.324   3.099   1.264
 9439SOL    HW129216   0.338   3.172   1.197
 9439SOL    HW229217   0.378   3.019   1.238
 9440SOL     OW29218   4.114   5.219   3.245
 9440SOL    HW129219   4.140   5.314   3.265
 9440SOL    HW229220   4.182   5.178   3.185
 9441SOL     OW29221   6.404   4.234   5.547
 9441SOL    HW129222   6.362   4.245   5.457
 9441SOL    HW229223   6.333   4.219   5.616
 9442SOL     OW29224   4.803   3.406   1.055
 9442SOL    HW129225   4.731   3.443   1.114
 9442SOL    HW229226   4.763   3.340   0.991
 9443SOL     OW29227   2.614   5.281   0.977
 9443SOL    HW129228   2.578   5.292   0.885
 9443SOL    HW229229   2.568   5.203   1.021
 9444SOL     OW29230   1.202   3.120   0.752
 9444SOL    HW129231   1.266   3.065   0.807
 9444SOL    HW229232   1.200   3.085   0.659
 9445SOL     OW29233   6.157   2.742   3.286
 9445SOL    HW129234   6.150   2.720   3.188
 9445SOL    HW229235   6.066   2.747   3.326
 9446SOL     OW29236   6.247   5.390   3.851
 9446SOL    HW129237   6.342   5.420   3.863
 9446SOL    HW229238   6.234   5.301   3.895
 9447SOL     OW29239   6.132   4.327   3.357
 9447SOL    HW129240   6.043   4.293   3.388
 9447SOL    HW229241   6.146   4.300   3.261
 9448SOL     OW29242   0.271   6.980   6.735
 9448SOL    HW129243   0.202   6.933   6.681
 9448SOL    HW229244   0.311   6.917   6.801
 9449SOL     OW29245   6.382   6.829   0.123
 9449SOL    HW129246   6.417   6.779   0.043
 9449SOL    HW229247   6.284   6.809   0.134
 9450SOL     OW29248   1.684   5.064   4.416
 9450SOL    HW129249   1.756   5.050   4.348
 9450SOL    HW229250   1.709   5.019   4.501
 9451SOL     OW29251   4.400   0.409   6.068
 9451SOL    HW129252   4.479   0.348   6.067
 9451SOL    HW229253   4.325   0.367   6.016
 9452SOL     OW29254   1.740   3.898   0.682
 9452SOL    HW129255   1.711   3.883   0.776
 9452SOL    HW229256   1.818   3.838   0.661
 9453SOL     OW29257   2.396   4.581   3.296
 9453SOL    HW129258   2.382   4.676   3.268
 9453SOL    HW229259   2.343   4.563   3.379
 9454SOL     OW29260   3.524   3.556   6.691
 9454SOL    HW129261   3.572   3.580   6.775
 9454SOL    HW229262   3.587   3.563   6.613
 9455SOL     OW29263   2.483   1.512   3.812
 9455SOL    HW129264   2.429   1.593   3.834
 9455SOL    HW229265   2.518   1.520   3.718
 9456SOL     OW29266   6.840   3.823   1.113
 9456SOL    HW129267   6.842   3.733   1.070
 9456SOL    HW229268   6.851   3.893   1.043
 9457SOL     OW29269   1.585   3.494   5.011
 9457SOL    HW129270   1.524   3.512   4.933
 9457SOL    HW229271   1.679   3.489   4.979
 9458SOL     OW29272   1.012   2.921   0.169
 9458SOL    HW129273   1.045   3.007   0.208
 9458SOL    HW229274   0.917   2.933   0.138
 9459SOL     OW29275   5.908   4.775   3.637
 9459SOL    HW129276   5.970   4.699   3.618
 9459SOL    HW229277   5.896   4.785   3.736
 9460SOL     OW29278   1.321   3.206   4.087
 9460SOL    HW129279   1.323   3.296   4.129
 9460SOL    HW229280   1.274   3.141   4.147
 9461SOL     OW29281   0.197   1.803   1.717
 9461SOL    HW129282   0.168   1.708   1.705
 9461SOL    HW229283   0.139   1.863   1.662
 9462SOL     OW29284   2.080   3.634   3.337
 9462SOL    HW129285   2.078   3.734   3.338
 9462SOL    HW229286   2.136   3.602   3.260
 9463SOL     OW29287   6.069   0.217   1.706
 9463SOL    HW129288   6.125   0.139   1.678
 9463SOL    HW229289   6.115   0.302   1.680
 9464SOL     OW29290   5.923   0.499   0.634
 9464SOL    HW129291   6.019   0.519   0.651
 9464SOL    HW229292   5.866   0.554   0.696
 9465SOL     OW29293   1.427   4.487   1.822
 9465SOL    HW129294   1.343   4.541   1.816
 9465SOL    HW229295   1.503   4.539   1.782
 9466SOL     OW29296   3.780   4.514   5.623
 9466SOL    HW129297   3.789   4.436   5.560
 9466SOL    HW229298   3.865   4.566   5.624
 9467SOL     OW29299   1.391   2.231   2.297
 9467SOL    HW129300   1.479   2.273   2.316
 9467SOL    HW229301   1.332   2.296   2.250
 9468SOL     OW29302   5.797   3.737   6.495
 9468SOL    HW129303   5.867   3.666   6.486
 9468SOL    HW229304   5.707   3.695   6.502
 9469SOL     OW29305   6.363   5.224   1.834
 9469SOL    HW129306   6.360   5.307   1.778
 9469SOL    HW229307   6.359   5.248   1.930
 9470SOL     OW29308   5.183   3.099   5.960
 9470SOL    HW129309   5.114   3.156   6.004
 9470SOL    HW229310   5.143   3.012   5.934
 9471SOL     OW29311   6.749   1.708   4.551
 9471SOL    HW129312   6.703   1.683   4.636
 9471SOL    HW229313   6.766   1.807   4.550
 9472SOL     OW29314   6.463   2.735   5.547
 9472SOL    HW129315   6.441   2.827   5.579
 9472SOL    HW229316   6.446   2.669   5.620
 9473SOL     OW29317   2.726   5.143   6.989
 9473SOL    HW129318   2.736   5.084   6.909
 9473SOL    HW229319   2.635   5.130   0.011
 9474SOL     OW29320   0.221   3.233   0.228
 9474SOL    HW129321   0.292   3.174   0.188
 9474SOL    HW229322   0.132   3.190   0.215
 9475SOL     OW29323   3.639   3.187   0.017
 9475SOL    HW129324   3.586   3.115   6.989
 9475SOL    HW229325   3.613   3.276   6.997
 9476SOL     OW29326   3.970   3.938   4.828
 9476SOL    HW129327   3.997   3.959   4.734
 9476SOL    HW229328   3.976   4.021   4.884
 9477SOL     OW29329   0.748   2.720   0.844
 9477SOL    HW129330   0.656   2.689   0.869
 9477SOL    HW229331   0.771   2.802   0.896
 9478SOL     OW29332   4.862   3.236   0.611
 9478SOL    HW129333   4.893   3.320   0.657
 9478SOL    HW229334   4.877   3.244   0.513
 9479SOL     OW29335   4.364   6.160   6.826
 9479SOL    HW129336   4.313   6.245   6.813
 9479SOL    HW229337   4.311   6.097   6.883
 9480SOL     OW29338   5.832   4.947   0.844
 9480SOL    HW129339   5.745   4.911   0.809
 9480SOL    HW229340   5.864   5.019   0.784
 9481SOL     OW29341   5.194   3.076   2.389
 9481SOL    HW129342   5.141   3.127   2.457
 9481SOL    HW229343   5.287   3.112   2.385
 9482SOL     OW29344   0.504   1.250   2.751
 9482SOL    HW129345   0.530   1.289   2.839
 9482SOL    HW229346   0.448   1.169   2.766
 9483SOL     OW29347   1.751   1.066   0.879
 9483SOL    HW129348   1.694   1.014   0.815
 9483SOL    HW229349   1.768   1.157   0.842
 9484SOL     OW29350   4.433   0.516   4.117
 9484SOL    HW129351   4.351   0.507   4.173
 9484SOL    HW229352   4.508   0.549   4.174
 9485SOL     OW29353   0.815   0.702   0.461
 9485SOL    HW129354   0.792   0.795   0.490
 9485SOL    HW229355   0.736   0.642   0.476
 9486SOL     OW29356   3.962   6.705   1.117
 9486SOL    HW129357   3.880   6.693   1.061
 9486SOL    HW229358   4.036   6.648   1.080
 9487SOL     OW29359   3.387   3.576   4.243
 9487SOL    HW129360   3.430   3.512   4.179
 9487SOL    HW229361   3.456   3.609   4.308
 9488SOL     OW29362   2.776   6.398   0.864
 9488SOL    HW129363   2.818   6.438   0.782
 9488SOL    HW229364   2.783   6.298   0.859
 9489SOL     OW29365   4.531   4.406   1.321
 9489SOL    HW129366   4.597   4.379   1.391
 9489SOL    HW229367   4.514   4.504   1.327
 9490SOL     OW29368   6.395   4.549   2.284
 9490SOL    HW129369   6.403   4.634   2.335
 9490SOL    HW229370   6.313   4.500   2.312
 9491SOL     OW29371   5.700   5.050   4.188
 9491SOL    HW129372   5.665   4.977   4.247
 9491SOL    HW229373   5.780   5.018   4.138
 9492SOL     OW29374   3.501   2.849   4.154
 9492SOL    HW129375   3.415   2.895   4.175
 9492SOL    HW229376   3.511   2.769   4.213
 9493SOL     OW29377   3.017   5.517   4.520
 9493SOL    HW129378   2.963   5.523   4.605
 9493SOL    HW229379   3.023   5.421   4.492
 9494SOL     OW29380   4.982   3.450   2.364
 9494SOL    HW129381   4.990   3.380   2.435
 9494SOL    HW229382   4.976   3.407   2.274
 9495SOL     OW29383   6.405   1.604   3.727
 9495SOL    HW129384   6.393   1.568   3.819
 9495SOL    HW229385   6.316   1.613   3.683
 9496SOL     OW29386   5.979   3.616   1.707
 9496SOL    HW129387   6.054   3.681   1.697
 9496SOL    HW229388   6.013   3.532   1.749
 9497SOL     OW29389   5.302   6.464   5.625
 9497SOL    HW129390   5.240   6.517   5.683
 9497SOL    HW229391   5.348   6.395   5.681
 9498SOL     OW29392   4.293   6.568   4.488
 9498SOL    HW129393   4.241   6.634   4.433
 9498SOL    HW229394   4.359   6.616   4.545
 9499SOL     OW29395   2.617   5.434   6.382
 9499SOL    HW129396   2.701   5.435   6.436
 9499SOL    HW229397   2.604   5.344   6.341
 9500SOL     OW29398   5.366   0.084   0.961
 9500SOL    HW129399   5.417   0.022   0.902
 9500SOL    HW229400   5.310   0.030   1.025
 9501SOL     OW29401   2.936   1.082   4.734
 9501SOL    HW129402   3.003   1.097   4.807
 9501SOL    HW229403   2.957   1.142   4.657
 9502SOL     OW29404   5.490   3.079   5.201
 9502SOL    HW129405   5.440   3.122   5.277
 9502SOL    HW229406   5.574   3.131   5.183
 9503SOL     OW29407   0.649   1.558   1.421
 9503SOL    HW129408   0.570   1.521   1.469
 9503SOL    HW229409   0.651   1.658   1.432
 9504SOL     OW29410   0.383   2.342   0.487
 9504SOL    HW129411   0.403   2.262   0.543
 9504SOL    HW229412   0.297   2.383   0.517
 9505SOL     OW29413   4.769   4.604   4.135
 9505SOL    HW129414   4.672   4.583   4.149
 9505SOL    HW229415   4.777   4.686   4.078
 9506SOL     OW29416   1.091   1.882   6.368
 9506SOL    HW129417   0.998   1.898   6.335
 9506SOL    HW229418   1.088   1.823   6.449
 9507SOL     OW29419   1.125   2.488   3.372
 9507SOL    HW129420   1.063   2.554   3.329
 9507SOL    HW229421   1.092   2.395   3.355
 9508SOL     OW29422   6.340   2.152   1.408
 9508SOL    HW129423   6.405   2.213   1.453
 9508SOL    HW229424   6.313   2.191   1.320
 9509SOL     OW29425   0.880   1.104   4.303
 9509SOL    HW129426   0.796   1.155   4.284
 9509SOL    HW229427   0.869   1.009   4.273
 9510SOL     OW29428   1.286   3.702   3.563
 9510SOL    HW129429   1.366   3.760   3.552
 9510SOL    HW229430   1.292   3.653   3.650
 9511SOL     OW29431   1.525   0.642   0.495
 9511SOL    HW129432   1.542   0.544   0.490
 9511SOL    HW229433   1.578   0.682   0.570
 9512SOL     OW29434   6.214   1.633   1.477
 9512SOL    HW129435   6.222   1.725   1.439
 9512SOL    HW229436   6.295   1.580   1.453
 9513SOL     OW29437   2.062   3.568   6.879
 9513SOL    HW129438   2.156   3.549   6.907
 9513SOL    HW229439   2.043   3.520   6.793
 9514SOL     OW29440   2.050   5.439   5.885
 9514SOL    HW129441   1.954   5.449   5.911
 9514SOL    HW229442   2.096   5.379   5.951
 9515SOL     OW29443   1.989   5.777   0.868
 9515SOL    HW129444   2.006   5.816   0.958
 9515SOL    HW229445   2.075   5.769   0.818
 9516SOL     OW29446   5.909   4.596   5.933
 9516SOL    HW129447   5.855   4.680   5.940
 9516SOL    HW229448   6.004   4.616   5.957
 9517SOL     OW29449   2.281   4.760   0.800
 9517SOL    HW129450   2.242   4.776   0.709
 9517SOL    HW229451   2.222   4.697   0.851
 9518SOL     OW29452   2.103   2.188   0.509
 9518SOL    HW129453   2.044   2.134   0.450
 9518SOL    HW229454   2.101   2.284   0.481
 9519SOL     OW29455   4.086   3.760   4.992
 9519SOL    HW129456   4.010   3.695   4.990
 9519SOL    HW229457   4.069   3.833   4.926
 9520SOL     OW29458   1.490   1.422   3.794
 9520SOL    HW129459   1.534   1.463   3.714
 9520SOL    HW229460   1.426   1.487   3.835
 9521SOL     OW29461   4.968   5.342   1.626
 9521SOL    HW129462   5.012   5.359   1.538
 9521SOL    HW229463   4.888   5.283   1.613
 9522SOL     OW29464   3.074   5.791   1.327
 9522SOL    HW129465   3.028   5.843   1.399
 9522SOL    HW229466   3.007   5.738   1.276
 9523SOL     OW29467   2.578   4.663   4.859
 9523SOL    HW129468   2.516   4.596   4.899
 9523SOL    HW229469   2.661   4.669   4.915
 9524SOL     OW29470   3.374   3.084   1.417
 9524SOL    HW129471   3.413   3.067   1.508
 9524SOL    HW229472   3.413   3.018   1.352
 9525SOL     OW29473   2.377   2.812   5.572
 9525SOL    HW129474   2.335   2.734   5.618
 9525SOL    HW229475   2.443   2.855   5.633
 9526SOL     OW29476   5.523   5.258   1.446
 9526SOL    HW129477   5.521   5.229   1.542
 9526SOL    HW229478   5.555   5.352   1.441
 9527SOL     OW29479   0.662   0.797   3.870
 9527SOL    HW129480   0.736   0.732   3.850
 9527SOL    HW229481   0.580   0.747   3.898
 9528SOL     OW29482   6.883   1.158   0.459
 9528SOL    HW129483   6.973   1.200   0.450
 9528SOL    HW229484   6.888   1.082   0.524
 9529SOL     OW29485   6.641   3.015   5.934
 9529SOL    HW129486   6.643   2.987   5.838
 9529SOL    HW229487   6.603   3.108   5.942
 9530SOL     OW29488   1.587   4.029   1.864
 9530SOL    HW129489   1.529   4.108   1.885
 9530SOL    HW229490   1.660   4.059   1.802
 9531SOL     OW29491   4.922   5.287   3.034
 9531SOL    HW129492   4.887   5.366   2.985
 9531SOL    HW229493   4.847   5.225   3.057
 9532SOL     OW29494   6.666   0.004   2.255
 9532SOL    HW129495   6.729   0.024   2.329
 9532SOL    HW229496   6.702   0.041   2.169
 9533SOL     OW29497   6.823   6.642   5.803
 9533SOL    HW129498   6.920   6.665   5.809
 9533SOL    HW229499   6.794   6.645   5.708
 9534SOL     OW29500   0.149   3.863   4.820
 9534SOL    HW129501   0.245   3.888   4.814
 9534SOL    HW229502   0.118   3.873   4.915
 9535SOL     OW29503   2.091   1.263   5.908
 9535SOL    HW129504   2.157   1.336   5.894
 9535SOL    HW229505   2.129   1.196   5.973
 9536SOL     OW29506   2.787   4.224   5.362
 9536SOL    HW129507   2.764   4.183   5.451
 9536SOL    HW229508   2.749   4.316   5.358
 9537SOL     OW29509   3.018   6.523   2.902
 9537SOL    HW129510   3.005   6.616   2.935
 9537SOL    HW229511   3.078   6.473   2.964
 9538SOL     OW29512   6.226   1.895   3.621
 9538SOL    HW129513   6.162   1.947   3.678
 9538SOL    HW229514   6.197   1.799   3.617
 9539SOL     OW29515   2.914   3.804   5.202
 9539SOL    HW129516   2.840   3.854   5.246
 9539SOL    HW229517   2.937   3.847   5.114
 9540SOL     OW29518   6.056   4.314   4.255
 9540SOL    HW129519   5.969   4.361   4.241
 9540SOL    HW229520   6.047   4.250   4.332
 9541SOL     OW29521   4.137   0.474   5.526
 9541SOL    HW129522   4.161   0.517   5.613
 9541SOL    HW229523   4.046   0.434   5.533
 9542SOL     OW29524   5.318   4.208   4.482
 9542SOL    HW129525   5.367   4.145   4.422
 9542SOL    HW229526   5.221   4.207   4.460
 9543SOL     OW29527   3.717   0.927   5.409
 9543SOL    HW129528   3.705   0.883   5.320
 9543SOL    HW229529   3.674   1.017   5.408
 9544SOL     OW29530   6.670   1.548   3.694
 9544SOL    HW129531   6.682   1.486   3.772
 9544SOL    HW229532   6.594   1.610   3.712
 9545SOL     OW29533   5.864   5.337   4.065
 9545SOL    HW129534   5.820   5.375   4.147
 9545SOL    HW229535   5.940   5.279   4.092
 9546SOL     OW29536   3.024   2.071   5.782
 9546SOL    HW129537   2.968   2.152   5.801
 9546SOL    HW229538   3.077   2.087   5.699
 9547SOL     OW29539   2.335   6.712   4.717
 9547SOL    HW129540   2.414   6.652   4.718
 9547SOL    HW229541   2.319   6.744   4.624
 9548SOL     OW29542   6.017   5.926   6.423
 9548SOL    HW129543   6.003   5.837   6.378
 9548SOL    HW229544   6.106   5.927   6.468
 9549SOL     OW29545   2.776   3.108   0.873
 9549SOL    HW129546   2.782   3.069   0.965
 9549SOL    HW229547   2.702   3.064   0.823
 9550SOL     OW29548   0.328   1.293   0.550
 9550SOL    HW129549   0.293   1.240   0.628
 9550SOL    HW229550   0.270   1.373   0.535
 9551SOL     OW29551   5.779   1.140   4.125
 9551SOL    HW129552   5.790   1.239   4.115
 9551SOL    HW229553   5.817   1.112   4.213
 9552SOL     OW29554   1.338   6.441   2.905
 9552SOL    HW129555   1.426   6.443   2.858
 9552SOL    HW229556   1.332   6.520   2.966
 9553SOL     OW29557   6.149   3.816   6.741
 9553SOL    HW129558   6.193   3.806   6.830
 9553SOL    HW229559   6.220   3.830   6.671
 9554SOL     OW29560   2.672   0.472   1.466
 9554SOL    HW129561   2.738   0.397   1.469
 9554SOL    HW229562   2.589   0.441   1.419
 9555SOL     OW29563   1.120   0.860   2.799
 9555SOL    HW129564   1.199   0.891   2.747
 9555SOL    HW229565   1.110   0.761   2.788
 9556SOL     OW29566   1.564   1.955   1.312
 9556SOL    HW129567   1.485   2.015   1.302
 9556SOL    HW229568   1.593   1.953   1.407
 9557SOL     OW29569   0.193   0.318   2.517
 9557SOL    HW129570   0.121   0.386   2.528
 9557SOL    HW229571   0.196   0.260   2.598
 9558SOL     OW29572   6.294   6.293   4.816
 9558SOL    HW129573   6.380   6.310   4.864
 9558SOL    HW229574   6.249   6.380   4.794
 9559SOL     OW29575   0.928   4.221   0.803
 9559SOL    HW129576   1.018   4.263   0.788
 9559SOL    HW229577   0.940   4.130   0.843
 9560SOL     OW29578   1.186   1.675   3.198
 9560SOL    HW129579   1.263   1.646   3.141
 9560SOL    HW229580   1.115   1.714   3.139
 9561SOL     OW29581   1.242   6.585   0.505
 9561SOL    HW129582   1.161   6.537   0.471
 9561SOL    HW229583   1.227   6.684   0.500
 9562SOL     OW29584   3.374   0.255   5.601
 9562SOL    HW129585   3.331   0.280   5.688
 9562SOL    HW229586   3.459   0.307   5.590
 9563SOL     OW29587   6.168   6.840   0.757
 9563SOL    HW129588   6.251   6.796   0.723
 9563SOL    HW229589   6.177   6.858   0.855
 9564SOL     OW29590   3.153   0.294   0.284
 9564SOL    HW129591   3.163   0.331   0.192
 9564SOL    HW229592   3.109   0.205   0.281
 9565SOL     OW29593   4.192   5.877   4.632
 9565SOL    HW129594   4.258   5.943   4.668
 9565SOL    HW229595   4.100   5.914   4.642
 9566SOL     OW29596   2.580   4.762   6.677
 9566SOL    HW129597   2.598   4.688   6.612
 9566SOL    HW229598   2.482   4.774   6.688
 9567SOL     OW29599   5.782   4.788   6.602
 9567SOL    HW129600   5.702   4.730   6.586
 9567SOL    HW229601   5.781   4.821   6.696
 9568SOL     OW29602   4.121   2.662   6.726
 9568SOL    HW129603   4.197   2.607   6.692
 9568SOL    HW229604   4.105   2.641   6.822
 9569SOL     OW29605   0.057   0.534   2.629
 9569SOL    HW129606   0.134   0.592   2.603
 9569SOL    HW229607   0.052   0.529   2.729
 9570SOL     OW29608   0.766   2.786   2.536
 9570SOL    HW129609   0.813   2.811   2.451
 9570SOL    HW229610   0.787   2.852   2.607
 9571SOL     OW29611   2.148   3.941   0.053
 9571SOL    HW129612   2.125   4.036   0.074
 9571SOL    HW229613   2.153   3.929   6.972
 9572SOL     OW29614   2.170   5.584   1.705
 9572SOL    HW129615   2.162   5.586   1.606
 9572SOL    HW229616   2.159   5.677   1.742
 9573SOL     OW29617   1.124   1.136   6.482
 9573SOL    HW129618   1.213   1.093   6.468
 9573SOL    HW229619   1.136   1.224   6.528
 9574SOL     OW29620   3.890   3.389   4.018
 9574SOL    HW129621   3.968   3.388   4.081
 9574SOL    HW229622   3.812   3.343   4.061
 9575SOL     OW29623   5.795   1.573   0.919
 9575SOL    HW129624   5.754   1.661   0.941
 9575SOL    HW229625   5.831   1.532   1.003
 9576SOL     OW29626   2.885   0.399   2.276
 9576SOL    HW129627   2.839   0.447   2.201
 9576SOL    HW229628   2.867   0.300   2.267
 9577SOL     OW29629   1.140   0.819   4.410
 9577SOL    HW129630   1.218   0.794   4.353
 9577SOL    HW229631   1.058   0.828   4.352
 9578SOL     OW29632   0.294   4.171   3.732
 9578SOL    HW129633   0.299   4.079   3.771
 9578SOL    HW229634   0.383   4.194   3.692
 9579SOL     OW29635   1.904   5.551   2.883
 9579SOL    HW129636   1.828   5.586   2.827
 9579SOL    HW229637   1.987   5.602   2.859
 9580SOL     OW29638   4.319   3.294   1.018
 9580SOL    HW129639   4.308   3.195   1.030
 9580SOL    HW229640   4.285   3.340   1.100
 9581SOL     OW29641   1.284   5.415   6.277
 9581SOL    HW129642   1.291   5.495   6.336
 9581SOL    HW229643   1.367   5.361   6.283
 9582SOL     OW29644   4.580   4.784   4.729
 9582SOL    HW129645   4.631   4.715   4.780
 9582SOL    HW229646   4.482   4.771   4.744
 9583SOL     OW29647   3.477   4.734   1.051
 9583SOL    HW129648   3.525   4.665   1.104
 9583SOL    HW229649   3.403   4.692   0.999
 9584SOL     OW29650   6.560   6.480   0.511
 9584SOL    HW129651   6.620   6.403   0.530
 9584SOL    HW229652   6.599   6.535   0.438
 9585SOL     OW29653   6.404   0.270   3.276
 9585SOL    HW129654   6.352   0.283   3.360
 9585SOL    HW229655   6.420   0.358   3.232
 9586SOL     OW29656   5.801   3.675   2.599
 9586SOL    HW129657   5.747   3.670   2.683
 9586SOL    HW229658   5.899   3.667   2.621
 9587SOL     OW29659   6.478   0.747   2.446
 9587SOL    HW129660   6.422   0.690   2.507
 9587SOL    HW229661   6.537   0.806   2.500
 9588SOL     OW29662   0.497   1.450   2.200
 9588SOL    HW129663   0.569   1.381   2.207
 9588SOL    HW229664   0.503   1.497   2.112
 9589SOL     OW29665   2.681   5.587   5.979
 9589SOL    HW129666   2.630   5.519   5.926
 9589SOL    HW229667   2.669   5.677   5.938
 9590SOL     OW29668   0.237   4.472   2.098
 9590SOL    HW129669   0.282   4.560   2.114
 9590SOL    HW229670   0.202   4.469   2.005
 9591SOL     OW29671   2.696   5.960   0.251
 9591SOL    HW129672   2.601   5.957   0.282
 9591SOL    HW229673   2.734   6.051   0.273
 9592SOL     OW29674   3.759   4.593   1.625
 9592SOL    HW129675   3.716   4.615   1.538
 9592SOL    HW229676   3.694   4.608   1.699
 9593SOL     OW29677   6.468   0.540   4.785
 9593SOL    HW129678   6.547   0.569   4.840
 9593SOL    HW229679   6.390   0.597   4.807
 9594SOL     OW29680   1.589   5.932   3.315
 9594SOL    HW129681   1.651   5.987   3.259
 9594SOL    HW229682   1.494   5.956   3.292
 9595SOL     OW29683   1.908   4.194   5.101
 9595SOL    HW129684   1.906   4.197   5.001
 9595SOL    HW229685   1.829   4.144   5.135
 9596SOL     OW29686   0.695   5.878   0.020
 9596SOL    HW129687   0.775   5.841   6.990
 9596SOL    HW229688   0.612   5.856   6.987
 9597SOL     OW29689   0.493   4.601   0.385
 9597SOL    HW129690   0.454   4.557   0.466
 9597SOL    HW229691   0.505   4.698   0.402
 9598SOL     OW29692   0.847   3.707   5.199
 9598SOL    HW129693   0.874   3.626   5.148
 9598SOL    HW229694   0.901   3.785   5.168
 9599SOL     OW29695   3.233   0.524   5.484
 9599SOL    HW129696   3.323   0.506   5.524
 9599SOL    HW229697   3.177   0.441   5.488
 9600SOL     OW29698   2.193   6.992   6.791
 9600SOL    HW129699   2.274   6.974   6.847
 9600SOL    HW229700   2.150   6.905   6.767
 9601SOL     OW29701   6.034   4.262   0.062
 9601SOL    HW129702   6.122   4.307   0.076
 9601SOL    HW229703   6.037   4.169   0.100
 9602SOL     OW29704   6.545   4.925   6.888
 9602SOL    HW129705   6.484   4.852   6.920
 9602SOL    HW229706   6.614   4.887   6.826
 9603SOL     OW29707   3.238   0.758   4.867
 9603SOL    HW129708   3.195   0.769   4.957
 9603SOL    HW229709   3.260   0.847   4.829
 9604SOL     OW29710   4.896   0.231   0.681
 9604SOL    HW129711   4.850   0.143   0.675
 9604SOL    HW229712   4.961   0.230   0.757
 9605SOL     OW29713   0.873   4.926   5.034
 9605SOL    HW129714   0.866   4.960   5.128
 9605SOL    HW229715   0.827   4.990   4.973
 9606SOL     OW29716   1.641   5.920   5.136
 9606SOL    HW129717   1.577   5.844   5.150
 9606SOL    HW229718   1.590   6.005   5.125
 9607SOL     OW29719   1.008   2.107   2.152
 9607SOL    HW129720   1.003   2.065   2.243
 9607SOL    HW229721   1.093   2.079   2.107
 9608SOL     OW29722   6.592   6.633   1.808
 9608SOL    HW129723   6.650   6.569   1.758
 9608SOL    HW229724   6.649   6.697   1.859
 9609SOL     OW29725   1.590   3.813   5.627
 9609SOL    HW129726   1.602   3.725   5.583
 9609SOL    HW229727   1.668   3.832   5.687
 9610SOL     OW29728   1.521   4.289   3.949
 9610SOL    HW129729   1.601   4.229   3.954
 9610SOL    HW229730   1.512   4.340   4.035
 9611SOL     OW29731   0.219   6.692   0.357
 9611SOL    HW129732   0.151   6.720   0.425
 9611SOL    HW229733   0.178   6.695   0.266
 9612SOL     OW29734   6.392   3.545   1.386
 9612SOL    HW129735   6.374   3.449   1.365
 9612SOL    HW229736   6.328   3.603   1.335
 9613SOL     OW29737   3.659   6.234   3.512
 9613SOL    HW129738   3.603   6.165   3.467
 9613SOL    HW229739   3.751   6.197   3.528
 9614SOL     OW29740   3.545   2.942   1.262
 9614SOL    HW129741   3.559   2.871   1.331
 9614SOL    HW229742   3.541   2.900   1.171
 9615SOL     OW29743   1.219   6.760   2.273
 9615SOL    HW129744   1.299   6.800   2.317
 9615SOL    HW229745   1.140   6.819   2.290
 9616SOL     OW29746   4.370   3.872   0.676
 9616SOL    HW129747   4.299   3.829   0.620
 9616SOL    HW229748   4.445   3.807   0.689
 9617SOL     OW29749   1.330   3.493   4.488
 9617SOL    HW129750   1.317   3.585   4.449
 9617SOL    HW229751   1.402   3.445   4.438
 9618SOL     OW29752   5.055   0.154   6.129
 9618SOL    HW129753   5.040   0.124   6.223
 9618SOL    HW229754   5.106   0.240   6.129
 9619SOL     OW29755   1.276   0.355   0.760
 9619SOL    HW129756   1.324   0.317   0.839
 9619SOL    HW229757   1.182   0.376   0.784
 9620SOL     OW29758   5.524   1.749   6.349
 9620SOL    HW129759   5.447   1.686   6.340
 9620SOL    HW229760   5.580   1.746   6.266
 9621SOL     OW29761   1.771   1.424   2.889
 9621SOL    HW129762   1.803   1.513   2.921
 9621SOL    HW229763   1.685   1.402   2.936
 9622SOL     OW29764   6.107   1.209   6.571
 9622SOL    HW129765   6.098   1.299   6.528
 9622SOL    HW229766   6.060   1.140   6.516
 9623SOL     OW29767   4.442   5.371   5.539
 9623SOL    HW129768   4.422   5.417   5.453
 9623SOL    HW229769   4.441   5.437   5.614
 9624SOL     OW29770   5.266   4.301   4.042
 9624SOL    HW129771   5.334   4.228   4.034
 9624SOL    HW229772   5.311   4.390   4.037
 9625SOL     OW29773   5.090   4.618   6.681
 9625SOL    HW129774   5.151   4.575   6.615
 9625SOL    HW229775   5.088   4.565   6.765
 9626SOL     OW29776   2.381   5.732   5.576
 9626SOL    HW129777   2.340   5.669   5.642
 9626SOL    HW229778   2.317   5.807   5.558
 9627SOL     OW29779   6.823   4.000   4.675
 9627SOL    HW129780   6.804   3.960   4.765
 9627SOL    HW229781   6.822   3.927   4.606
 9628SOL     OW29782   6.294   4.491   0.484
 9628SOL    HW129783   6.300   4.394   0.505
 9628SOL    HW229784   6.352   4.543   0.547
 9629SOL     OW29785   6.744   5.690   2.363
 9629SOL    HW129786   6.775   5.764   2.423
 9629SOL    HW229787   6.817   5.666   2.299
 9630SOL     OW29788   6.331   6.704   5.736
 9630SOL    HW129789   6.406   6.667   5.791
 9630SOL    HW229790   6.252   6.644   5.742
 9631SOL     OW29791   4.974   1.932   0.646
 9631SOL    HW129792   4.962   1.876   0.728
 9631SOL    HW229793   5.058   1.906   0.599
 9632SOL     OW29794   2.469   5.489   1.883
 9632SOL    HW129795   2.447   5.401   1.841
 9632SOL    HW229796   2.386   5.529   1.923
 9633SOL     OW29797   3.907   4.436   0.450
 9633SOL    HW129798   3.983   4.490   0.416
 9633SOL    HW229799   3.910   4.431   0.550
 9634SOL     OW29800   0.350   5.847   3.331
 9634SOL    HW129801   0.308   5.796   3.406
 9634SOL    HW229802   0.285   5.855   3.255
 9635SOL     OW29803   2.032   4.175   5.361
 9635SOL    HW129804   2.132   4.167   5.356
 9635SOL    HW229805   1.993   4.165   5.270
 9636SOL     OW29806   4.440   1.791   6.149
 9636SOL    HW129807   4.416   1.695   6.135
 9636SOL    HW229808   4.536   1.805   6.122
 9637SOL     OW29809   3.690   2.569   0.789
 9637SOL    HW129810   3.725   2.501   0.853
 9637SOL    HW229811   3.689   2.659   0.833
 9638SOL     OW29812   0.113   3.265   5.662
 9638SOL    HW129813   0.186   3.199   5.646
 9638SOL    HW229814   0.130   3.314   5.748
 9639SOL     OW29815   4.234   2.170   1.973
 9639SOL    HW129816   4.270   2.254   2.015
 9639SOL    HW229817   4.136   2.164   1.991
 9640SOL     OW29818   3.105   0.443   2.807
 9640SOL    HW129819   3.190   0.416   2.854
 9640SOL    HW229820   3.036   0.466   2.876
 9641SOL     OW29821   5.447   5.557   1.875
 9641SOL    HW129822   5.464   5.543   1.777
 9641SOL    HW229823   5.531   5.542   1.926
 9642SOL     OW29824   1.083   5.973   4.540
 9642SOL    HW129825   0.984   5.990   4.539
 9642SOL    HW229826   1.124   6.011   4.457
 9643SOL     OW29827   5.149   4.208   3.387
 9643SOL    HW129828   5.220   4.143   3.361
 9643SOL    HW229829   5.101   4.240   3.305
 9644SOL     OW29830   0.687   5.845   5.565
 9644SOL    HW129831   0.767   5.898   5.539
 9644SOL    HW229832   0.706   5.748   5.554
 9645SOL     OW29833   2.619   4.599   4.054
 9645SOL    HW129834   2.566   4.598   4.139
 9645SOL    HW229835   2.556   4.589   3.976
 9646SOL     OW29836   2.473   5.045   2.092
 9646SOL    HW129837   2.508   5.137   2.107
 9646SOL    HW229838   2.549   4.984   2.070
 9647SOL     OW29839   0.288   6.679   2.715
 9647SOL    HW129840   0.262   6.672   2.811
 9647SOL    HW229841   0.387   6.674   2.706
 9648SOL     OW29842   3.683   2.748   6.729
 9648SOL    HW129843   3.617   2.821   6.711
 9648SOL    HW229844   3.666   2.708   6.819
 9649SOL     OW29845   1.770   4.277   0.043
 9649SOL    HW129846   1.767   4.319   6.970
 9649SOL    HW229847   1.693   4.213   0.052
 9650SOL     OW29848   5.055   4.836   3.159
 9650SOL    HW129849   5.045   4.925   3.113
 9650SOL    HW229850   5.148   4.826   3.194
 9651SOL     OW29851   5.281   1.171   1.060
 9651SOL    HW129852   5.309   1.078   1.086
 9651SOL    HW229853   5.297   1.233   1.137
 9652SOL     OW29854   1.165   4.560   1.854
 9652SOL    HW129855   1.124   4.626   1.791
 9652SOL    HW229856   1.137   4.468   1.827
 9653SOL     OW29857   4.643   5.015   4.553
 9653SOL    HW129858   4.581   4.957   4.606
 9653SOL    HW229859   4.599   5.043   4.468
 9654SOL     OW29860   2.948   3.289   2.916
 9654SOL    HW129861   2.925   3.338   2.832
 9654SOL    HW229862   2.982   3.355   2.984
 9655SOL     OW29863   0.087   1.832   0.333
 9655SOL    HW129864   0.028   1.752   0.343
 9655SOL    HW229865   0.043   1.898   0.271
 9656SOL     OW29866   4.095   3.017   1.295
 9656SOL    HW129867   4.069   2.924   1.323
 9656SOL    HW229868   4.018   3.079   1.311
 9657SOL     OW29869   5.669   3.315   2.114
 9657SOL    HW129870   5.597   3.382   2.134
 9657SOL    HW229871   5.750   3.362   2.081
 9658SOL     OW29872   5.575   1.510   2.549
 9658SOL    HW129873   5.611   1.465   2.468
 9658SOL    HW229874   5.587   1.450   2.628
 9659SOL     OW29875   0.466   3.430   6.800
 9659SOL    HW129876   0.477   3.336   6.834
 9659SOL    HW229877   0.413   3.483   6.866
 9660SOL     OW29878   0.708   6.747   2.890
 9660SOL    HW129879   0.807   6.743   2.875
 9660SOL    HW229880   0.664   6.677   2.834
 9661SOL     OW29881   3.570   6.146   1.699
 9661SOL    HW129882   3.579   6.073   1.768
 9661SOL    HW229883   3.550   6.232   1.744
 9662SOL     OW29884   4.171   2.929   6.166
 9662SOL    HW129885   4.079   2.957   6.193
 9662SOL    HW229886   4.235   3.004   6.182
 9663SOL     OW29887   0.022   5.985   2.380
 9663SOL    HW129888   6.979   5.954   2.452
 9663SOL    HW229889   6.991   6.048   2.320
 9664SOL     OW29890   5.732   5.414   4.306
 9664SOL    HW129891   5.692   5.489   4.359
 9664SOL    HW229892   5.659   5.361   4.263
 9665SOL     OW29893   5.987   6.464   6.225
 9665SOL    HW129894   5.998   6.540   6.289
 9665SOL    HW229895   6.022   6.380   6.266
 9666SOL     OW29896   6.465   3.971   2.147
 9666SOL    HW129897   6.555   3.995   2.111
 9666SOL    HW229898   6.421   4.053   2.184
 9667SOL     OW29899   4.150   3.776   0.060
 9667SOL    HW129900   4.090   3.705   0.024
 9667SOL    HW229901   4.103   3.864   0.056
 9668SOL     OW29902   0.458   0.652   6.220
 9668SOL    HW129903   0.399   0.586   6.174
 9668SOL    HW229904   0.554   0.628   6.204
 9669SOL     OW29905   2.048   0.006   1.692
 9669SOL    HW129906   2.040   6.925   1.681
 9669SOL    HW229907   1.962   0.043   1.726
 9670SOL     OW29908   0.143   4.653   6.126
 9670SOL    HW129909   0.164   4.620   6.034
 9670SOL    HW229910   0.178   4.746   6.136
 9671SOL     OW29911   0.131   4.518   0.287
 9671SOL    HW129912   0.143   4.422   0.264
 9671SOL    HW229913   0.120   4.527   0.386
 9672SOL     OW29914   1.829   5.331   3.275
 9672SOL    HW129915   1.740   5.325   3.229
 9672SOL    HW229916   1.814   5.338   3.374
 9673SOL     OW29917   4.174   4.013   1.366
 9673SOL    HW129918   4.088   4.049   1.329
 9673SOL    HW229919   4.154   3.948   1.439
 9674SOL     OW29920   3.322   6.709   3.236
 9674SOL    HW129921   3.402   6.716   3.295
 9674SOL    HW229922   3.347   6.734   3.143
 9675SOL     OW29923   5.558   2.359   6.113
 9675SOL    HW129924   5.588   2.452   6.094
 9675SOL    HW229925   5.481   2.337   6.053
 9676SOL     OW29926   1.242   3.052   5.968
 9676SOL    HW129927   1.289   3.130   5.926
 9676SOL    HW229928   1.220   2.985   5.897
 9677SOL     OW29929   6.640   5.390   4.540
 9677SOL    HW129930   6.571   5.359   4.474
 9677SOL    HW229931   6.595   5.447   4.609
 9678SOL     OW29932   3.022   3.900   4.052
 9678SOL    HW129933   3.068   3.811   4.049
 9678SOL    HW229934   2.995   3.926   3.959
 9679SOL     OW29935   2.942   0.162   3.367
 9679SOL    HW129936   2.946   0.106   3.284
 9679SOL    HW229937   2.902   0.108   3.441
 9680SOL     OW29938   4.033   0.856   3.520
 9680SOL    HW129939   4.105   0.851   3.451
 9680SOL    HW229940   3.967   0.927   3.495
 9681SOL     OW29941   2.793   1.756   0.581
 9681SOL    HW129942   2.695   1.740   0.565
 9681SOL    HW229943   2.839   1.762   0.492
 9682SOL     OW29944   4.908   4.417   3.377
 9682SOL    HW129945   4.935   4.511   3.356
 9682SOL    HW229946   4.859   4.378   3.300
 9683SOL     OW29947   3.336   6.449   1.747
 9683SOL    HW129948   3.267   6.427   1.678
 9683SOL    HW229949   3.333   6.380   1.819
 9684SOL     OW29950   1.062   3.283   6.277
 9684SOL    HW129951   1.106   3.318   6.360
 9684SOL    HW229952   1.112   3.203   6.244
 9685SOL     OW29953   4.217   4.469   0.562
 9685SOL    HW129954   4.162   4.387   0.577
 9685SOL    HW229955   4.192   4.539   0.628
 9686SOL     OW29956   0.758   3.261   6.573
 9686SOL    HW129957   0.696   3.189   6.604
 9686SOL    HW229958   0.845   3.253   6.622
 9687SOL     OW29959   0.888   0.837   4.208
 9687SOL    HW129960   0.931   0.849   4.118
 9687SOL    HW229961   0.812   0.773   4.200
 9688SOL     OW29962   1.583   2.905   1.273
 9688SOL    HW129963   1.545   2.930   1.184
 9688SOL    HW229964   1.515   2.921   1.345
 9689SOL     OW29965   0.904   4.508   6.353
 9689SOL    HW129966   0.876   4.567   6.277
 9689SOL    HW229967   1.004   4.507   6.359
 9690SOL     OW29968   6.124   5.782   6.799
 9690SOL    HW129969   6.116   5.734   6.887
 9690SOL    HW229970   6.117   5.717   6.724
 9691SOL     OW29971   3.416   4.982   1.258
 9691SOL    HW129972   3.509   4.981   1.297
 9691SOL    HW229973   3.386   4.889   1.240
 9692SOL     OW29974   3.976   5.883   2.077
 9692SOL    HW129975   3.978   5.790   2.039
 9692SOL    HW229976   3.957   5.948   2.004
 9693SOL     OW29977   5.481   3.794   2.626
 9693SOL    HW129978   5.570   3.840   2.627
 9693SOL    HW229979   5.444   3.796   2.533
 9694SOL     OW29980   3.065   1.410   1.707
 9694SOL    HW129981   3.115   1.495   1.697
 9694SOL    HW229982   3.096   1.361   1.789
 9695SOL     OW29983   0.221   2.961   3.446
 9695SOL    HW129984   0.304   2.918   3.409
 9695SOL    HW229985   0.153   2.971   3.373
 9696SOL     OW29986   5.449   2.758   1.076
 9696SOL    HW129987   5.422   2.844   1.119
 9696SOL    HW229988   5.400   2.683   1.120
 9697SOL     OW29989   0.191   5.232   0.268
 9697SOL    HW129990   0.286   5.245   0.239
 9697SOL    HW229991   0.131   5.233   0.188
 9698SOL     OW29992   5.248   2.060   5.819
 9698SOL    HW129993   5.260   2.028   5.725
 9698SOL    HW229994   5.166   2.116   5.826
 9699SOL     OW29995   6.230   6.319   6.433
 9699SOL    HW129996   6.291   6.390   6.398
 9699SOL    HW229997   6.279   6.262   6.499
 9700SOL     OW29998   4.895   5.889   4.972
 9700SOL    HW129999   4.805   5.849   4.952
 9700SOL    HW230000   4.965   5.818   4.966
 9701SOL     OW30001   4.185   5.234   5.520
 9701SOL    HW130002   4.263   5.296   5.522
 9701SOL    HW230003   4.118   5.267   5.454
 9702SOL     OW30004   4.262   1.301   6.702
 9702SOL    HW130005   4.247   1.331   6.797
 9702SOL    HW230006   4.356   1.324   6.675
 9703SOL     OW30007   4.981   3.999   3.643
 9703SOL    HW130008   4.884   4.000   3.664
 9703SOL    HW230009   4.998   3.939   3.564
 9704SOL     OW30010   3.538   6.637   1.754
 9704SOL    HW130011   3.510   6.666   1.845
 9704SOL    HW230012   3.489   6.553   1.729
 9705SOL     OW30013   5.678   3.970   5.979
 9705SOL    HW130014   5.720   4.061   5.974
 9705SOL    HW230015   5.695   3.921   5.893
 9706SOL     OW30016   1.904   2.853   1.015
 9706SOL    HW130017   1.919   2.951   1.030
 9706SOL    HW230018   1.959   2.822   0.937
 9707SOL     OW30019   6.397   4.226   2.241
 9707SOL    HW130020   6.451   4.280   2.306
 9707SOL    HW230021   6.394   4.273   2.153
 9708SOL     OW30022   1.315   1.721   3.671
 9708SOL    HW130023   1.413   1.701   3.675
 9708SOL    HW230024   1.267   1.666   3.739
 9709SOL     OW30025   5.477   6.201   2.959
 9709SOL    HW130026   5.508   6.133   3.026
 9709SOL    HW230027   5.544   6.275   2.953
 9710SOL     OW30028   0.080   1.905   1.418
 9710SOL    HW130029   0.125   1.895   1.330
 9710SOL    HW230030   6.999   1.891   1.407
 9711SOL     OW30031   3.692   5.344   5.752
 9711SOL    HW130032   3.776   5.319   5.704
 9711SOL    HW230033   3.630   5.390   5.689
 9712SOL     OW30034   5.549   4.119   6.594
 9712SOL    HW130035   5.500   4.206   6.598
 9712SOL    HW230036   5.596   4.103   6.681
 9713SOL     OW30037   1.589   4.251   3.322
 9713SOL    HW130038   1.490   4.258   3.330
 9713SOL    HW230039   1.617   4.155   3.335
 9714SOL     OW30040   4.349   6.249   6.335
 9714SOL    HW130041   4.371   6.190   6.413
 9714SOL    HW230042   4.401   6.333   6.341
 9715SOL     OW30043   5.803   4.390   0.091
 9715SOL    HW130044   5.750   4.336   0.155
 9715SOL    HW230045   5.887   4.340   0.067
 9716SOL     OW30046   3.997   4.692   6.496
 9716SOL    HW130047   4.027   4.616   6.439
 9716SOL    HW230048   4.074   4.727   6.550
 9717SOL     OW30049   5.148   6.570   5.825
 9717SOL    HW130050   5.092   6.641   5.867
 9717SOL    HW230051   5.095   6.485   5.820
 9718SOL     OW30052   5.189   3.384   0.535
 9718SOL    HW130053   5.189   3.335   0.622
 9718SOL    HW230054   5.245   3.466   0.542
 9719SOL     OW30055   6.495   0.711   5.975
 9719SOL    HW130056   6.520   0.646   6.046
 9719SOL    HW230057   6.571   0.720   5.910
 9720SOL     OW30058   0.472   5.158   2.094
 9720SOL    HW130059   0.491   5.066   2.060
 9720SOL    HW230060   0.393   5.196   2.047
 9721SOL     OW30061   0.351   1.930   0.685
 9721SOL    HW130062   0.318   1.967   0.772
 9721SOL    HW230063   0.418   1.993   0.645
 9722SOL     OW30064   4.429   1.290   4.371
 9722SOL    HW130065   4.371   1.366   4.346
 9722SOL    HW230066   4.495   1.319   4.441
 9723SOL     OW30067   3.301   6.735   2.975
 9723SOL    HW130068   3.294   6.800   2.900
 9723SOL    HW230069   3.361   6.660   2.949
 9724SOL     OW30070   1.664   4.933   0.174
 9724SOL    HW130071   1.565   4.943   0.164
 9724SOL    HW230072   1.699   5.006   0.233
 9725SOL     OW30073   5.132   5.544   5.828
 9725SOL    HW130074   5.197   5.468   5.822
 9725SOL    HW230075   5.151   5.610   5.755
 9726SOL     OW30076   5.164   1.308   3.723
 9726SOL    HW130077   5.145   1.403   3.698
 9726SOL    HW230078   5.207   1.306   3.813
 9727SOL     OW30079   1.098   2.453   0.144
 9727SOL    HW130080   1.025   2.519   0.160
 9727SOL    HW230081   1.165   2.491   0.081
 9728SOL     OW30082   1.413   0.238   5.561
 9728SOL    HW130083   1.488   0.179   5.532
 9728SOL    HW230084   1.416   0.323   5.509
 9729SOL     OW30085   1.197   4.353   3.159
 9729SOL    HW130086   1.288   4.385   3.133
 9729SOL    HW230087   1.133   4.430   3.161
 9730SOL     OW30088   1.790   4.094   3.579
 9730SOL    HW130089   1.748   4.061   3.494
 9730SOL    HW230090   1.797   4.194   3.575
 9731SOL     OW30091   5.400   4.414   0.940
 9731SOL    HW130092   5.377   4.502   0.982
 9731SOL    HW230093   5.318   4.375   0.898
 9732SOL     OW30094   6.980   5.208   2.686
 9732SOL    HW130095   6.882   5.228   2.687
 9732SOL    HW230096   7.006   5.163   2.771
 9733SOL     OW30097   5.205   5.430   0.175
 9733SOL    HW130098   5.145   5.483   0.116
 9733SOL    HW230099   5.229   5.485   0.255
 9734SOL     OW30100   6.418   1.694   0.770
 9734SOL    HW130101   6.500   1.640   0.788
 9734SOL    HW230102   6.444   1.790   0.760
 9735SOL     OW30103   2.099   3.546   3.729
 9735SOL    HW130104   2.124   3.449   3.727
 9735SOL    HW230105   2.164   3.595   3.788
 9736SOL     OW30106   6.035   1.824   6.009
 9736SOL    HW130107   5.995   1.746   5.961
 9736SOL    HW230108   6.088   1.792   6.087
 9737SOL     OW30109   5.746   2.684   3.269
 9737SOL    HW130110   5.769   2.731   3.184
 9737SOL    HW230111   5.662   2.632   3.256
 9738SOL     OW30112   2.323   0.388   0.286
 9738SOL    HW130113   2.280   0.370   0.197
 9738SOL    HW230114   2.283   0.327   0.354
 9739SOL     OW30115   5.662   5.483   1.378
 9739SOL    HW130116   5.701   5.429   1.303
 9739SOL    HW230117   5.720   5.474   1.459
 9740SOL     OW30118   6.828   1.052   3.263
 9740SOL    HW130119   6.872   1.085   3.347
 9740SOL    HW230120   6.860   0.960   3.243
 9741SOL     OW30121   3.838   2.083   2.386
 9741SOL    HW130122   3.775   2.142   2.334
 9741SOL    HW230123   3.840   1.992   2.344
 9742SOL     OW30124   4.560   1.415   0.891
 9742SOL    HW130125   4.654   1.445   0.904
 9742SOL    HW230126   4.540   1.341   0.956
 9743SOL     OW30127   6.622   3.065   4.604
 9743SOL    HW130128   6.551   2.996   4.590
 9743SOL    HW230129   6.683   3.036   4.677
 9744SOL     OW30130   2.156   6.941   1.968
 9744SOL    HW130131   2.082   6.990   2.014
 9744SOL    HW230132   2.118   6.891   1.890
 9745SOL     OW30133   5.207   2.513   6.303
 9745SOL    HW130134   5.198   2.429   6.250
 9745SOL    HW230135   5.250   2.493   6.392
 9746SOL     OW30136   6.160   0.195   5.473
 9746SOL    HW130137   6.163   0.254   5.553
 9746SOL    HW230138   6.179   0.100   5.500
 9747SOL     OW30139   2.646   0.968   1.421
 9747SOL    HW130140   2.567   0.914   1.450
 9747SOL    HW230141   2.615   1.044   1.364
 9748SOL     OW30142   0.088   0.450   3.399
 9748SOL    HW130143   0.100   0.456   3.300
 9748SOL    HW230144   0.021   0.518   3.429
 9749SOL     OW30145   2.550   6.957   4.193
 9749SOL    HW130146   2.641   6.997   4.185
 9749SOL    HW230147   2.535   6.926   4.287
 9750SOL     OW30148   5.817   3.843   3.410
 9750SOL    HW130149   5.758   3.826   3.331
 9750SOL    HW230150   5.847   3.756   3.450
 9751SOL     OW30151   2.355   0.943   0.320
 9751SOL    HW130152   2.385   0.967   0.228
 9751SOL    HW230153   2.256   0.952   0.326
 9752SOL     OW30154   4.105   2.176   4.861
 9752SOL    HW130155   4.063   2.194   4.772
 9752SOL    HW230156   4.155   2.257   4.891
 9753SOL     OW30157   6.750   5.403   6.291
 9753SOL    HW130158   6.652   5.410   6.312
 9753SOL    HW230159   6.775   5.475   6.227
 9754SOL     OW30160   2.034   0.597   0.073
 9754SOL    HW130161   2.024   0.693   0.047
 9754SOL    HW230162   2.097   0.590   0.150
 9755SOL     OW30163   3.575   3.786   4.392
 9755SOL    HW130164   3.646   3.719   4.414
 9755SOL    HW230165   3.610   3.878   4.411
 9756SOL     OW30166   5.481   3.308   0.325
 9756SOL    HW130167   5.453   3.225   0.278
 9756SOL    HW230168   5.533   3.285   0.407
 9757SOL     OW30169   5.746   4.440   4.165
 9757SOL    HW130170   5.689   4.426   4.084
 9757SOL    HW230171   5.804   4.520   4.150
 9758SOL     OW30172   3.035   0.334   6.503
 9758SOL    HW130173   3.132   0.311   6.510
 9758SOL    HW230174   3.005   0.320   6.409
 9759SOL     OW30175   1.269   0.334   0.157
 9759SOL    HW130176   1.289   0.403   0.226
 9759SOL    HW230177   1.221   0.257   0.200
 9760SOL     OW30178   5.013   2.802   5.491
 9760SOL    HW130179   5.079   2.877   5.482
 9760SOL    HW230180   4.970   2.784   5.403
 9761SOL     OW30181   6.749   1.387   2.219
 9761SOL    HW130182   6.820   1.339   2.271
 9761SOL    HW230183   6.659   1.369   2.260
 9762SOL     OW30184   3.219   1.873   4.483
 9762SOL    HW130185   3.227   1.971   4.502
 9762SOL    HW230186   3.302   1.842   4.436
 9763SOL     OW30187   4.832   1.836   2.337
 9763SOL    HW130188   4.905   1.784   2.294
 9763SOL    HW230189   4.847   1.841   2.436
 9764SOL     OW30190   0.245   2.617   3.221
 9764SOL    HW130191   0.206   2.527   3.243
 9764SOL    HW230192   0.174   2.687   3.232
 9765SOL     OW30193   6.846   0.108   3.207
 9765SOL    HW130194   6.829   0.021   3.254
 9765SOL    HW230195   6.776   0.175   3.235
 9766SOL     OW30196   2.800   6.882   2.189
 9766SOL    HW130197   2.785   6.806   2.126
 9766SOL    HW230198   2.805   6.847   2.283
 9767SOL     OW30199   4.022   1.230   5.402
 9767SOL    HW130200   3.937   1.197   5.442
 9767SOL    HW230201   4.090   1.241   5.475
 9768SOL     OW30202   5.788   1.635   2.273
 9768SOL    HW130203   5.718   1.565   2.287
 9768SOL    HW230204   5.847   1.639   2.354
 9769SOL     OW30205   3.918   1.424   3.235
 9769SOL    HW130206   3.936   1.368   3.154
 9769SOL    HW230207   3.971   1.388   3.312
 9770SOL     OW30208   4.675   1.583   6.263
 9770SOL    HW130209   4.584   1.581   6.305
 9770SOL    HW230210   4.674   1.646   6.185
 9771SOL     OW30211   2.901   6.208   0.248
 9771SOL    HW130212   2.893   6.235   0.152
 9771SOL    HW230213   2.910   6.290   0.304
 9772SOL     OW30214   2.217   6.019   1.340
 9772SOL    HW130215   2.229   6.092   1.407
 9772SOL    HW230216   2.120   5.996   1.332
 9773SOL     OW30217   4.854   5.476   3.739
 9773SOL    HW130218   4.876   5.379   3.729
 9773SOL    HW230219   4.934   5.531   3.718
 9774SOL     OW30220   0.470   5.318   1.787
 9774SOL    HW130221   0.386   5.298   1.838
 9774SOL    HW230222   0.488   5.245   1.722
 9775SOL     OW30223   2.634   0.612   3.199
 9775SOL    HW130224   2.683   0.694   3.169
 9775SOL    HW230225   2.684   0.569   3.274
 9776SOL     OW30226   1.141   4.863   4.944
 9776SOL    HW130227   1.215   4.877   5.010
 9776SOL    HW230228   1.053   4.871   4.991
 9777SOL     OW30229   6.542   5.910   6.882
 9777SOL    HW130230   6.561   5.853   6.802
 9777SOL    HW230231   6.584   6.000   6.869
 9778SOL     OW30232   0.191   0.833   4.262
 9778SOL    HW130233   0.220   0.895   4.189
 9778SOL    HW230234   0.224   0.868   4.350
 9779SOL     OW30235   1.174   1.344   4.549
 9779SOL    HW130236   1.266   1.370   4.520
 9779SOL    HW230237   1.169   1.245   4.558
 9780SOL     OW30238   2.054   2.665   1.166
 9780SOL    HW130239   1.998   2.723   1.107
 9780SOL    HW230240   1.995   2.610   1.224
 9781SOL     OW30241   2.060   3.540   4.362
 9781SOL    HW130242   2.126   3.580   4.427
 9781SOL    HW230243   2.109   3.479   4.300
 9782SOL     OW30244   7.008   0.895   1.249
 9782SOL    HW130245   0.043   0.829   1.196
 9782SOL    HW230246   6.937   0.935   1.192
 9783SOL     OW30247   4.070   2.120   2.734
 9783SOL    HW130248   3.984   2.118   2.684
 9783SOL    HW230249   4.140   2.071   2.683
 9784SOL     OW30250   3.127   1.712   4.982
 9784SOL    HW130251   3.062   1.735   4.909
 9784SOL    HW230252   3.077   1.691   5.066
 9785SOL     OW30253   0.992   2.375   6.599
 9785SOL    HW130254   1.006   2.308   6.526
 9785SOL    HW230255   0.897   2.405   6.598
 9786SOL     OW30256   2.416   4.063   0.446
 9786SOL    HW130257   2.325   4.080   0.409
 9786SOL    HW230258   2.484   4.112   0.391
 9787SOL     OW30259   3.792   4.072   2.159
 9787SOL    HW130260   3.722   4.107   2.097
 9787SOL    HW230261   3.881   4.076   2.116
 9788SOL     OW30262   0.839   1.055   3.774
 9788SOL    HW130263   0.845   1.072   3.675
 9788SOL    HW230264   0.776   0.979   3.791
 9789SOL     OW30265   1.937   5.596   0.548
 9789SOL    HW130266   1.880   5.617   0.628
 9789SOL    HW230267   2.030   5.632   0.564
 9790SOL     OW30268   6.433   4.536   6.818
 9790SOL    HW130269   6.526   4.525   6.853
 9790SOL    HW230270   6.395   4.622   6.850
 9791SOL     OW30271   0.122   1.265   1.658
 9791SOL    HW130272   0.185   1.227   1.727
 9791SOL    HW230273   0.089   1.192   1.599
 9792SOL     OW30274   4.159   4.749   0.463
 9792SOL    HW130275   4.241   4.771   0.409
 9792SOL    HW230276   4.099   4.829   0.466
 9793SOL     OW30277   4.550   6.486   3.076
 9793SOL    HW130278   4.586   6.571   3.037
 9793SOL    HW230279   4.451   6.483   3.063
 9794SOL     OW30280   6.842   4.138   0.031
 9794SOL    HW130281   6.834   4.134   6.949
 9794SOL    HW230282   6.936   4.162   0.055
 9795SOL     OW30283   1.809   1.948   4.461
 9795SOL    HW130284   1.820   2.013   4.387
 9795SOL    HW230285   1.748   1.874   4.433
 9796SOL     OW30286   3.258   2.837   2.123
 9796SOL    HW130287   3.185   2.768   2.119
 9796SOL    HW230288   3.221   2.925   2.095
 9797SOL     OW30289   2.173   5.362   0.044
 9797SOL    HW130290   2.204   5.411   0.125
 9797SOL    HW230291   2.078   5.332   0.057
 9798SOL     OW30292   2.615   0.537   1.819
 9798SOL    HW130293   2.692   0.474   1.830
 9798SOL    HW230294   2.580   0.531   1.726
 9799SOL     OW30295   3.042   3.165   5.037
 9799SOL    HW130296   3.049   3.085   5.096
 9799SOL    HW230297   2.948   3.173   5.003
 9800SOL     OW30298   4.041   5.436   4.597
 9800SOL    HW130299   3.986   5.352   4.589
 9800SOL    HW230300   4.118   5.419   4.659
 9801SOL     OW30301   4.622   4.221   7.007
 9801SOL    HW130302   4.633   4.143   6.945
 9801SOL    HW230303   4.620   4.305   6.954
 9802SOL     OW30304   0.010   3.934   1.279
 9802SOL    HW130305   6.979   3.966   1.360
 9802SOL    HW230306   6.964   3.888   1.217
 9803SOL     OW30307   0.997   2.333   6.930
 9803SOL    HW130308   1.034   2.373   7.014
 9803SOL    HW230309   0.963   2.406   6.870
 9804SOL     OW30310   1.886   6.186   3.071
 9804SOL    HW130311   1.925   6.114   3.013
 9804SOL    HW230312   1.925   6.274   3.045
 9805SOL     OW30313   1.243   6.553   3.834
 9805SOL    HW130314   1.229   6.519   3.742
 9805SOL    HW230315   1.334   6.527   3.866
 9806SOL     OW30316   1.219   0.951   6.820
 9806SOL    HW130317   1.193   1.039   6.860
 9806SOL    HW230318   1.148   0.883   6.840
 9807SOL     OW30319   3.199   4.314   0.026
 9807SOL    HW130320   3.145   4.231   0.009
 9807SOL    HW230321   3.284   4.290   0.072
 9808SOL     OW30322   3.953   0.202   5.375
 9808SOL    HW130323   3.888   0.198   5.300
 9808SOL    HW230324   3.918   0.263   5.447
 9809SOL     OW30325   1.399   2.543   6.202
 9809SOL    HW130326   1.315   2.491   6.194
 9809SOL    HW230327   1.454   2.532   6.119
 9810SOL     OW30328   2.328   2.702   3.745
 9810SOL    HW130329   2.249   2.642   3.729
 9810SOL    HW230330   2.403   2.648   3.784
 9811SOL     OW30331   5.336   4.472   3.175
 9811SOL    HW130332   5.239   4.453   3.161
 9811SOL    HW230333   5.387   4.386   3.173
 9812SOL     OW30334   3.479   2.530   5.880
 9812SOL    HW130335   3.546   2.456   5.872
 9812SOL    HW230336   3.386   2.492   5.875
 9813SOL     OW30337   5.407   1.558   0.662
 9813SOL    HW130338   5.366   1.566   0.753
 9813SOL    HW230339   5.472   1.633   0.649
 9814SOL     OW30340   6.973   6.862   0.209
 9814SOL    HW130341   6.951   6.810   0.292
 9814SOL    HW230342   6.998   6.955   0.235
 9815SOL     OW30343   5.510   4.094   3.532
 9815SOL    HW130344   5.523   4.022   3.600
 9815SOL    HW230345   5.482   4.178   3.577
 9816SOL     OW30346   0.522   1.181   6.423
 9816SOL    HW130347   0.542   1.260   6.366
 9816SOL    HW230348   0.423   1.170   6.432
 9817SOL     OW30349   2.779   0.148   3.101
 9817SOL    HW130350   2.807   0.058   3.135
 9817SOL    HW230351   2.805   0.157   3.005
 9818SOL     OW30352   1.465   0.796   4.670
 9818SOL    HW130353   1.538   0.769   4.606
 9818SOL    HW230354   1.437   0.716   4.723
 9819SOL     OW30355   4.805   3.017   3.872
 9819SOL    HW130356   4.862   3.097   3.853
 9819SOL    HW230357   4.768   3.025   3.965
 9820SOL     OW30358   4.089   3.188   6.668
 9820SOL    HW130359   4.119   3.185   6.573
 9820SOL    HW230360   4.090   3.096   6.707
 9821SOL     OW30361   5.128   0.699   0.020
 9821SOL    HW130362   5.204   0.653   6.993
 9821SOL    HW230363   5.097   0.645   0.098
 9822SOL     OW30364   3.149   5.849   3.532
 9822SOL    HW130365   3.051   5.850   3.513
 9822SOL    HW230366   3.176   5.935   3.576
 9823SOL     OW30367   2.550   1.340   6.733
 9823SOL    HW130368   2.540   1.437   6.710
 9823SOL    HW230369   2.647   1.316   6.736
 9824SOL     OW30370   2.038   4.815   4.377
 9824SOL    HW130371   1.997   4.735   4.333
 9824SOL    HW230372   2.107   4.785   4.443
 9825SOL     OW30373   5.098   5.758   4.179
 9825SOL    HW130374   5.055   5.790   4.264
 9825SOL    HW230375   5.027   5.726   4.116
 9826SOL     OW30376   4.589   5.147   5.555
 9826SOL    HW130377   4.521   5.214   5.525
 9826SOL    HW230378   4.675   5.163   5.507
 9827SOL     OW30379   1.862   3.831   3.972
 9827SOL    HW130380   1.902   3.885   4.045
 9827SOL    HW230381   1.896   3.863   3.884
 9828SOL     OW30382   2.146   2.172   5.251
 9828SOL    HW130383   2.051   2.199   5.234
 9828SOL    HW230384   2.155   2.140   5.346
 9829SOL     OW30385   4.379   5.304   5.831
 9829SOL    HW130386   4.438   5.241   5.881
 9829SOL    HW230387   4.411   5.398   5.845
 9830SOL     OW30388   4.869   2.447   1.878
 9830SOL    HW130389   4.849   2.393   1.960
 9830SOL    HW230390   4.960   2.487   1.887
 9831SOL     OW30391   1.542   4.980   1.897
 9831SOL    HW130392   1.619   4.916   1.906
 9831SOL    HW230393   1.519   4.990   1.800
 9832SOL     OW30394   5.195   5.520   2.242
 9832SOL    HW130395   5.135   5.558   2.312
 9832SOL    HW230396   5.190   5.420   2.245
 9833SOL     OW30397   3.038   3.474   4.779
 9833SOL    HW130398   3.040   3.472   4.879
 9833SOL    HW230399   3.006   3.386   4.744
 9834SOL     OW30400   2.300   4.158   5.309
 9834SOL    HW130401   2.337   4.242   5.269
 9834SOL    HW230402   2.349   4.079   5.273
 9835SOL     OW30403   4.176   3.625   5.249
 9835SOL    HW130404   4.185   3.676   5.164
 9835SOL    HW230405   4.155   3.529   5.229
 9836SOL     OW30406   6.690   4.081   3.628
 9836SOL    HW130407   6.605   4.028   3.632
 9836SOL    HW230408   6.706   4.126   3.715
 9837SOL     OW30409   3.746   0.395   2.467
 9837SOL    HW130410   3.700   0.441   2.391
 9837SOL    HW230411   3.781   0.307   2.435
 9838SOL     OW30412   1.689   0.034   0.592
 9838SOL    HW130413   1.679   6.991   0.671
 9838SOL    HW230414   1.666   7.002   0.508
 9839SOL     OW30415   5.254   0.177   3.822
 9839SOL    HW130416   5.245   0.258   3.881
 9839SOL    HW230417   5.217   0.197   3.732
 9840SOL     OW30418   5.413   1.697   0.934
 9840SOL    HW130419   5.387   1.662   1.024
 9840SOL    HW230420   5.500   1.745   0.941
 9841SOL     OW30421   1.570   4.452   5.058
 9841SOL    HW130422   1.575   4.358   5.027
 9841SOL    HW230423   1.562   4.455   5.158
 9842SOL     OW30424   3.056   2.999   2.051
 9842SOL    HW130425   2.964   2.989   2.089
 9842SOL    HW230426   3.051   3.034   1.958
 9843SOL     OW30427   6.476   0.768   1.752
 9843SOL    HW130428   6.567   0.770   1.795
 9843SOL    HW230429   6.409   0.810   1.814
 9844SOL     OW30430   6.634   0.994   2.900
 9844SOL    HW130431   6.683   1.075   2.866
 9844SOL    HW230432   6.569   1.022   2.971
 9845SOL     OW30433   1.956   2.974   3.283
 9845SOL    HW130434   1.963   2.883   3.325
 9845SOL    HW230435   1.951   2.965   3.184
 9846SOL     OW30436   3.298   2.548   1.548
 9846SOL    HW130437   3.219   2.500   1.587
 9846SOL    HW230438   3.375   2.544   1.613
 9847SOL     OW30439   3.676   2.860   3.558
 9847SOL    HW130440   3.648   2.785   3.618
 9847SOL    HW230441   3.759   2.903   3.594
 9848SOL     OW30442   4.510   3.000   5.430
 9848SOL    HW130443   4.437   3.064   5.455
 9848SOL    HW230444   4.474   2.931   5.368
 9849SOL     OW30445   0.861   6.819   5.936
 9849SOL    HW130446   0.927   6.827   6.011
 9849SOL    HW230447   0.768   6.816   5.974
 9850SOL     OW30448   6.445   0.068   3.719
 9850SOL    HW130449   6.534   0.106   3.747
 9850SOL    HW230450   6.380   0.076   3.794
 9851SOL     OW30451   0.178   0.198   4.589
 9851SOL    HW130452   0.094   0.225   4.542
 9851SOL    HW230453   0.167   0.105   4.625
 9852SOL     OW30454   3.356   1.382   4.030
 9852SOL    HW130455   3.266   1.426   4.026
 9852SOL    HW230456   3.344   1.283   4.023
 9853SOL     OW30457   5.329   4.004   4.825
 9853SOL    HW130458   5.415   3.991   4.874
 9853SOL    HW230459   5.302   4.100   4.831
 9854SOL     OW30460   6.392   6.122   4.614
 9854SOL    HW130461   6.348   6.191   4.670
 9854SOL    HW230462   6.408   6.158   4.522
 9855SOL     OW30463   2.101   3.823   1.281
 9855SOL    HW130464   2.009   3.833   1.318
 9855SOL    HW230465   2.140   3.736   1.312
 9856SOL     OW30466   5.097   4.018   4.642
 9856SOL    HW130467   5.022   3.988   4.700
 9856SOL    HW230468   5.184   3.990   4.681
 9857SOL     OW30469   5.049   3.365   2.929
 9857SOL    HW130470   5.137   3.391   2.968
 9857SOL    HW230471   5.022   3.432   2.860
 9858SOL     OW30472   6.991   6.929   1.654
 9858SOL    HW130473   0.038   6.907   1.582
 9858SOL    HW230474   6.967   0.009   1.648
 9859SOL     OW30475   6.280   6.118   2.325
 9859SOL    HW130476   6.261   6.214   2.304
 9859SOL    HW230477   6.343   6.113   2.402
 9860SOL     OW30478   1.845   2.439   3.660
 9860SOL    HW130479   1.884   2.366   3.604
 9860SOL    HW230480   1.780   2.492   3.606
 9861SOL     OW30481   2.800   0.466   3.389
 9861SOL    HW130482   2.819   0.389   3.450
 9861SOL    HW230483   2.873   0.534   3.398
 9862SOL     OW30484   3.432   3.001   6.888
 9862SOL    HW130485   3.337   3.033   6.887
 9862SOL    HW230486   3.435   2.906   6.858
 9863SOL     OW30487   3.559   6.770   2.307
 9863SOL    HW130488   3.582   6.793   2.212
 9863SOL    HW230489   3.463   6.746   2.313
 9864SOL     OW30490   3.731   6.894   3.738
 9864SOL    HW130491   3.692   6.817   3.789
 9864SOL    HW230492   3.736   6.974   3.796
 9865SOL     OW30493   1.408   6.922   4.470
 9865SOL    HW130494   1.461   7.002   4.443
 9865SOL    HW230495   1.448   6.840   4.428
 9866SOL     OW30496   5.064   4.249   5.941
 9866SOL    HW130497   5.054   4.239   5.842
 9866SOL    HW230498   5.159   4.266   5.964
 9867SOL     OW30499   6.562   1.639   1.084
 9867SOL    HW130500   6.652   1.668   1.118
 9867SOL    HW230501   6.563   1.638   0.984
 9868SOL     OW30502   0.514   3.387   4.676
 9868SOL    HW130503   0.575   3.308   4.675
 9868SOL    HW230504   0.449   3.380   4.600
 9869SOL     OW30505   0.561   2.309   1.333
 9869SOL    HW130506   0.651   2.274   1.308
 9869SOL    HW230507   0.519   2.248   1.400
 9870SOL     OW30508   4.082   5.823   2.314
 9870SOL    HW130509   4.027   5.875   2.249
 9870SOL    HW230510   4.120   5.742   2.269
 9871SOL     OW30511   6.612   4.749   5.718
 9871SOL    HW130512   6.573   4.658   5.710
 9871SOL    HW230513   6.546   4.811   5.760
 9872SOL     OW30514   3.154   5.346   4.974
 9872SOL    HW130515   3.105   5.346   5.062
 9872SOL    HW230516   3.130   5.428   4.923
 9873SOL     OW30517   2.343   2.482   0.705
 9873SOL    HW130518   2.351   2.383   0.695
 9873SOL    HW230519   2.284   2.503   0.783
 9874SOL     OW30520   5.390   3.372   4.910
 9874SOL    HW130521   5.453   3.409   4.978
 9874SOL    HW230522   5.433   3.377   4.819
 9875SOL     OW30523   5.903   5.571   1.848
 9875SOL    HW130524   5.966   5.549   1.923
 9875SOL    HW230525   5.814   5.595   1.886
 9876SOL     OW30526   5.720   0.996   3.918
 9876SOL    HW130527   5.744   1.061   3.990
 9876SOL    HW230528   5.625   0.965   3.931
 9877SOL     OW30529   6.572   4.534   4.515
 9877SOL    HW130530   6.640   4.481   4.465
 9877SOL    HW230531   6.504   4.569   4.451
 9878SOL     OW30532   2.806   4.135   5.633
 9878SOL    HW130533   2.811   4.229   5.668
 9878SOL    HW230534   2.844   4.073   5.702
 9879SOL     OW30535   5.070   5.812   5.305
 9879SOL    HW130536   5.004   5.780   5.373
 9879SOL    HW230537   5.113   5.733   5.261
 9880SOL     OW30538   3.231   1.006   0.288
 9880SOL    HW130539   3.134   0.983   0.284
 9880SOL    HW230540   3.273   0.988   0.199
 9881SOL     OW30541   0.461   1.879   5.276
 9881SOL    HW130542   0.495   1.801   5.224
 9881SOL    HW230543   0.469   1.962   5.221
 9882SOL     OW30544   1.736   3.724   5.104
 9882SOL    HW130545   1.822   3.731   5.052
 9882SOL    HW230546   1.676   3.657   5.060
 9883SOL     OW30547   1.315   6.198   1.271
 9883SOL    HW130548   1.355   6.288   1.259
 9883SOL    HW230549   1.240   6.186   1.205
 9884SOL     OW30550   4.855   2.040   0.962
 9884SOL    HW130551   4.793   2.051   0.884
 9884SOL    HW230552   4.807   2.065   1.046
 9885SOL     OW30553   6.798   1.922   5.041
 9885SOL    HW130554   6.862   1.988   5.002
 9885SOL    HW230555   6.774   1.949   5.134
 9886SOL     OW30556   0.948   5.089   1.877
 9886SOL    HW130557   1.030   5.075   1.932
 9886SOL    HW230558   0.961   5.167   1.815
 9887SOL     OW30559   3.970   0.161   0.148
 9887SOL    HW130560   3.872   0.141   0.153
 9887SOL    HW230561   4.017   0.089   0.098
 9888SOL     OW30562   5.270   5.122   2.760
 9888SOL    HW130563   5.222   5.105   2.674
 9888SOL    HW230564   5.263   5.220   2.783
 9889SOL     OW30565   6.177   4.619   0.813
 9889SOL    HW130566   6.093   4.593   0.861
 9889SOL    HW230567   6.255   4.571   0.854
 9890SOL     OW30568   0.432   2.091   1.172
 9890SOL    HW130569   0.531   2.083   1.158
 9890SOL    HW230570   0.409   2.186   1.193
 9891SOL     OW30571   5.930   3.391   1.534
 9891SOL    HW130572   5.898   3.484   1.551
 9891SOL    HW230573   5.901   3.331   1.608
 9892SOL     OW30574   1.309   5.044   2.613
 9892SOL    HW130575   1.392   5.092   2.639
 9892SOL    HW230576   1.230   5.105   2.623
 9893SOL     OW30577   6.619   0.288   2.609
 9893SOL    HW130578   6.608   0.321   2.515
 9893SOL    HW230579   6.713   0.258   2.623
 9894SOL     OW30580   2.926   2.032   6.627
 9894SOL    HW130581   2.860   2.018   6.701
 9894SOL    HW230582   3.012   2.067   6.665
 9895SOL     OW30583   5.112   3.417   5.369
 9895SOL    HW130584   5.036   3.482   5.366
 9895SOL    HW230585   5.127   3.381   5.277
 9896SOL     OW30586   5.482   1.390   0.449
 9896SOL    HW130587   5.449   1.437   0.531
 9896SOL    HW230588   5.450   1.295   0.450
 9897SOL     OW30589   5.515   0.096   2.237
 9897SOL    HW130590   5.514   0.192   2.210
 9897SOL    HW230591   5.455   0.082   2.315
 9898SOL     OW30592   1.165   4.660   6.073
 9898SOL    HW130593   1.258   4.689   6.097
 9898SOL    HW230594   1.101   4.691   6.143
 9899SOL     OW30595   0.763   5.184   2.359
 9899SOL    HW130596   0.778   5.094   2.317
 9899SOL    HW230597   0.735   5.249   2.289
 9900SOL     OW30598   1.485   3.108   2.266
 9900SOL    HW130599   1.502   3.204   2.246
 9900SOL    HW230600   1.403   3.078   2.216
 9901SOL     OW30601   2.916   0.812   6.869
 9901SOL    HW130602   2.899   0.904   6.904
 9901SOL    HW230603   2.881   0.745   6.934
 9902SOL     OW30604   4.084   4.226   1.070
 9902SOL    HW130605   4.091   4.259   0.976
 9902SOL    HW230606   4.176   4.222   1.110
 9903SOL     OW30607   5.316   1.978   1.455
 9903SOL    HW130608   5.270   2.055   1.411
 9903SOL    HW230609   5.253   1.932   1.517
 9904SOL     OW30610   0.806   3.266   6.133
 9904SOL    HW130611   0.897   3.262   6.174
 9904SOL    HW230612   0.805   3.211   6.049
 9905SOL     OW30613   1.794   0.438   6.158
 9905SOL    HW130614   1.834   0.529   6.170
 9905SOL    HW230615   1.786   0.393   6.247
 9906SOL     OW30616   1.602   3.460   0.507
 9906SOL    HW130617   1.554   3.546   0.523
 9906SOL    HW230618   1.629   3.419   0.595
 9907SOL     OW30619   1.543   1.041   2.020
 9907SOL    HW130620   1.620   0.988   2.055
 9907SOL    HW230621   1.537   1.128   2.069
 9908SOL     OW30622   0.475   2.764   5.656
 9908SOL    HW130623   0.522   2.699   5.596
 9908SOL    HW230624   0.524   2.851   5.655
 9909SOL     OW30625   3.724   0.504   2.729
 9909SOL    HW130626   3.775   0.455   2.800
 9909SOL    HW230627   3.739   0.460   2.641
 9910SOL     OW30628   1.788   5.401   1.730
 9910SOL    HW130629   1.760   5.492   1.699
 9910SOL    HW230630   1.789   5.398   1.830
 9911SOL     OW30631   3.229   5.824   2.401
 9911SOL    HW130632   3.181   5.859   2.320
 9911SOL    HW230633   3.261   5.731   2.383
 9912SOL     OW30634   4.484   1.195   1.762
 9912SOL    HW130635   4.415   1.261   1.734
 9912SOL    HW230636   4.522   1.221   1.851
 9913SOL     OW30637   5.942   3.060   1.297
 9913SOL    HW130638   5.855   3.016   1.274
 9913SOL    HW230639   5.951   3.145   1.245
 9914SOL     OW30640   6.984   6.901   5.391
 9914SOL    HW130641   6.934   6.928   5.309
 9914SOL    HW230642   6.955   6.809   5.419
 9915SOL     OW30643   5.707   1.888   3.163
 9915SOL    HW130644   5.801   1.913   3.139
 9915SOL    HW230645   5.664   1.840   3.087
 9916SOL     OW30646   1.822   1.878   3.736
 9916SOL    HW130647   1.837   1.786   3.774
 9916SOL    HW230648   1.746   1.875   3.672
 9917SOL     OW30649   3.437   4.082   5.370
 9917SOL    HW130650   3.358   4.061   5.428
 9917SOL    HW230651   3.406   4.116   5.282
 9918SOL     OW30652   1.233   3.076   2.167
 9918SOL    HW130653   1.214   2.996   2.110
 9918SOL    HW230654   1.147   3.113   2.202
 9919SOL     OW30655   2.311   5.624   2.284
 9919SOL    HW130656   2.406   5.653   2.271
 9919SOL    HW230657   2.275   5.587   2.198
 9920SOL     OW30658   4.418   0.479   2.982
 9920SOL    HW130659   4.405   0.516   2.890
 9920SOL    HW230660   4.458   0.388   2.976
 9921SOL     OW30661   4.261   0.067   4.899
 9921SOL    HW130662   4.221   0.116   4.977
 9921SOL    HW230663   4.286   0.132   4.828
 9922SOL     OW30664   4.281   4.518   1.097
 9922SOL    HW130665   4.222   4.526   1.016
 9922SOL    HW230666   4.342   4.439   1.086
 9923SOL     OW30667   6.126   3.497   0.418
 9923SOL    HW130668   6.169   3.498   0.327
 9923SOL    HW230669   6.192   3.530   0.486
 9924SOL     OW30670   4.958   1.994   2.875
 9924SOL    HW130671   4.996   2.068   2.819
 9924SOL    HW230672   4.873   2.024   2.917
 9925SOL     OW30673   1.086   4.859   3.845
 9925SOL    HW130674   1.028   4.785   3.881
 9925SOL    HW230675   1.156   4.882   3.912
 9926SOL     OW30676   4.110   3.045   0.504
 9926SOL    HW130677   4.013   3.066   0.499
 9926SOL    HW230678   4.162   3.113   0.452
 9927SOL     OW30679   1.171   1.267   0.826
 9927SOL    HW130680   1.194   1.181   0.871
 9927SOL    HW230681   1.121   1.248   0.741
 9928SOL     OW30682   5.584   3.584   2.766
 9928SOL    HW130683   5.526   3.635   2.702
 9928SOL    HW230684   5.562   3.486   2.760
 9929SOL     OW30685   3.389   4.153   4.664
 9929SOL    HW130686   3.486   4.150   4.689
 9929SOL    HW230687   3.371   4.087   4.591
 9930SOL     OW30688   0.651   0.164   6.718
 9930SOL    HW130689   0.676   0.205   6.630
 9930SOL    HW230690   0.734   0.147   6.771
 9931SOL     OW30691   6.975   5.806   3.864
 9931SOL    HW130692   6.998   5.709   3.863
 9931SOL    HW230693   6.893   5.820   3.919
 9932SOL     OW30694   2.682   2.091   5.809
 9932SOL    HW130695   2.754   2.158   5.826
 9932SOL    HW230696   2.593   2.131   5.832
 9933SOL     OW30697   1.519   6.860   3.882
 9933SOL    HW130698   1.573   6.801   3.942
 9933SOL    HW230699   1.495   6.809   3.799
 9934SOL     OW30700   6.355   1.817   6.387
 9934SOL    HW130701   6.385   1.838   6.481
 9934SOL    HW230702   6.404   1.736   6.354
 9935SOL     OW30703   3.238   0.160   1.094
 9935SOL    HW130704   3.286   0.242   1.125
 9935SOL    HW230705   3.152   0.151   1.144
 9936SOL     OW30706   6.247   4.867   0.824
 9936SOL    HW130707   6.208   4.774   0.825
 9936SOL    HW230708   6.303   4.879   0.742
 9937SOL     OW30709   0.761   1.307   1.921
 9937SOL    HW130710   0.777   1.218   1.878
 9937SOL    HW230711   0.827   1.321   1.994
 9938SOL     OW30712   5.527   6.075   4.151
 9938SOL    HW130713   5.466   6.007   4.191
 9938SOL    HW230714   5.513   6.079   4.052
 9939SOL     OW30715   2.956   3.485   0.775
 9939SOL    HW130716   2.970   3.502   0.677
 9939SOL    HW230717   2.859   3.463   0.791
 9940SOL     OW30718   1.577   0.316   2.238
 9940SOL    HW130719   1.565   0.370   2.154
 9940SOL    HW230720   1.665   0.339   2.280
 9941SOL     OW30721   3.113   4.942   5.833
 9941SOL    HW130722   3.094   5.040   5.845
 9941SOL    HW230723   3.059   4.889   5.898
 9942SOL     OW30724   3.854   5.607   2.436
 9942SOL    HW130725   3.939   5.658   2.452
 9942SOL    HW230726   3.792   5.663   2.381
 9943SOL     OW30727   1.180   4.488   6.458
 9943SOL    HW130728   1.280   4.495   6.453
 9943SOL    HW230729   1.155   4.402   6.503
 9944SOL     OW30730   1.162   4.659   6.679
 9944SOL    HW130731   1.171   4.596   6.602
 9944SOL    HW230732   1.208   4.746   6.657
 9945SOL     OW30733   4.638   5.193   6.779
 9945SOL    HW130734   4.668   5.129   6.708
 9945SOL    HW230735   4.612   5.280   6.738
 9946SOL     OW30736   6.259   0.062   3.102
 9946SOL    HW130737   6.299   0.138   3.153
 9946SOL    HW230738   6.244   0.089   3.007
 9947SOL     OW30739   2.883   2.238   4.966
 9947SOL    HW130740   2.981   2.229   4.981
 9947SOL    HW230741   2.844   2.298   5.036
 9948SOL     OW30742   6.212   5.879   4.826
 9948SOL    HW130743   6.178   5.964   4.865
 9948SOL    HW230744   6.154   5.852   4.749
 9949SOL     OW30745   0.340   4.556   3.672
 9949SOL    HW130746   0.270   4.501   3.716
 9949SOL    HW230747   0.430   4.518   3.690
 9950SOL     OW30748   6.139   6.362   6.694
 9950SOL    HW130749   6.190   6.294   6.746
 9950SOL    HW230750   6.129   6.330   6.600
 9951SOL     OW30751   0.845   2.405   3.430
 9951SOL    HW130752   0.791   2.359   3.359
 9951SOL    HW230753   0.860   2.500   3.403
 9952SOL     OW30754   2.311   3.778   1.031
 9952SOL    HW130755   2.337   3.873   1.043
 9952SOL    HW230756   2.261   3.747   1.112
 9953SOL     OW30757   5.981   1.935   4.089
 9953SOL    HW130758   6.057   1.974   4.141
 9953SOL    HW230759   5.979   1.976   3.998
 9954SOL     OW30760   1.302   7.007   5.336
 9954SOL    HW130761   1.227   6.941   5.330
 9954SOL    HW230762   1.369   6.974   5.403
 9955SOL     OW30763   3.965   3.502   6.418
 9955SOL    HW130764   4.045   3.478   6.473
 9955SOL    HW230765   3.993   3.518   6.324
 9956SOL     OW30766   0.676   4.884   3.859
 9956SOL    HW130767   0.710   4.927   3.943
 9956SOL    HW230768   0.595   4.829   3.881
 9957SOL     OW30769   5.715   0.502   2.090
 9957SOL    HW130770   5.661   0.583   2.113
 9957SOL    HW230771   5.805   0.509   2.134
 9958SOL     OW30772   2.485   6.427   6.529
 9958SOL    HW130773   2.475   6.339   6.483
 9958SOL    HW230774   2.580   6.438   6.560
 9959SOL     OW30775   4.116   3.633   3.642
 9959SOL    HW130776   4.179   3.707   3.662
 9959SOL    HW230777   4.101   3.626   3.543
 9960SOL     OW30778   0.985   6.651   2.126
 9960SOL    HW130779   0.951   6.560   2.152
 9960SOL    HW230780   1.072   6.667   2.173
 9961SOL     OW30781   1.166   5.239   4.067
 9961SOL    HW130782   1.116   5.157   4.093
 9961SOL    HW230783   1.256   5.239   4.112
 9962SOL     OW30784   4.608   0.745   2.555
 9962SOL    HW130785   4.520   0.749   2.601
 9962SOL    HW230786   4.675   0.700   2.615
 9963SOL     OW30787   2.050   2.699   6.016
 9963SOL    HW130788   2.072   2.612   6.059
 9963SOL    HW230789   2.127   2.762   6.028
 9964SOL     OW30790   4.187   4.994   5.950
 9964SOL    HW130791   4.273   4.947   5.968
 9964SOL    HW230792   4.121   4.930   5.910
 9965SOL     OW30793   3.601   4.638   5.321
 9965SOL    HW130794   3.532   4.687   5.268
 9965SOL    HW230795   3.673   4.702   5.349
 9966SOL     OW30796   2.497   5.724   2.528
 9966SOL    HW130797   2.550   5.788   2.471
 9966SOL    HW230798   2.545   5.709   2.614
 9967SOL     OW30799   5.054   5.649   2.017
 9967SOL    HW130800   4.985   5.595   1.968
 9967SOL    HW230801   5.082   5.600   2.099
 9968SOL     OW30802   3.362   5.345   6.532
 9968SOL    HW130803   3.428   5.321   6.602
 9968SOL    HW230804   3.407   5.345   6.442
 9969SOL     OW30805   0.802   2.954   4.213
 9969SOL    HW130806   0.719   2.938   4.266
 9969SOL    HW230807   0.862   3.015   4.265
 9970SOL     OW30808   6.526   4.560   2.028
 9970SOL    HW130809   6.481   4.555   2.118
 9970SOL    HW230810   6.604   4.622   2.033
 9971SOL     OW30811   2.550   4.245   0.294
 9971SOL    HW130812   2.530   4.209   0.203
 9971SOL    HW230813   2.489   4.322   0.314
 9972SOL     OW30814   3.798   4.813   6.844
 9972SOL    HW130815   3.734   4.766   6.784
 9972SOL    HW230816   3.748   4.873   6.906
 9973SOL     OW30817   3.882   1.775   4.982
 9973SOL    HW130818   3.807   1.739   5.038
 9973SOL    HW230819   3.881   1.875   4.985
 9974SOL     OW30820   6.536   3.621   3.110
 9974SOL    HW130821   6.511   3.711   3.072
 9974SOL    HW230822   6.518   3.620   3.208
 9975SOL     OW30823   0.028   4.633   0.012
 9975SOL    HW130824   0.071   4.599   0.096
 9975SOL    HW230825   6.967   4.577   7.007
 9976SOL     OW30826   6.704   5.339   5.230
 9976SOL    HW130827   6.803   5.345   5.218
 9976SOL    HW230828   6.672   5.252   5.192
 9977SOL     OW30829   6.502   4.992   5.886
 9977SOL    HW130830   6.507   5.052   5.807
 9977SOL    HW230831   6.438   5.030   5.953
 9978SOL     OW30832   6.475   2.060   4.400
 9978SOL    HW130833   6.543   2.076   4.328
 9978SOL    HW230834   6.520   2.033   4.484
 9979SOL     OW30835   6.632   4.577   6.291
 9979SOL    HW130836   6.560   4.585   6.222
 9979SOL    HW230837   6.720   4.600   6.250
 9980SOL     OW30838   1.381   1.078   6.409
 9980SOL    HW130839   1.400   1.060   6.312
 9980SOL    HW230840   1.427   1.162   6.436
 9981SOL     OW30841   2.399   1.893   1.157
 9981SOL    HW130842   2.302   1.889   1.179
 9981SOL    HW230843   2.453   1.863   1.236
 9982SOL     OW30844   0.902   2.134   2.771
 9982SOL    HW130845   0.925   2.229   2.791
 9982SOL    HW230846   0.846   2.097   2.845
 9983SOL     OW30847   1.067   1.710   1.797
 9983SOL    HW130848   1.147   1.734   1.852
 9983SOL    HW230849   1.031   1.793   1.754
 9984SOL     OW30850   1.012   0.400   0.823
 9984SOL    HW130851   0.962   0.317   0.796
 9984SOL    HW230852   0.968   0.442   0.902
 9985SOL     OW30853   3.361   0.409   1.155
 9985SOL    HW130854   3.417   0.460   1.221
 9985SOL    HW230855   3.380   0.443   1.063
 9986SOL     OW30856   4.909   4.391   6.556
 9986SOL    HW130857   4.979   4.458   6.533
 9986SOL    HW230858   4.952   4.307   6.588
 9987SOL     OW30859   5.374   2.161   2.640
 9987SOL    HW130860   5.431   2.233   2.601
 9987SOL    HW230861   5.293   2.147   2.583
 9988SOL     OW30862   0.084   5.853   4.936
 9988SOL    HW130863   0.068   5.902   5.021
 9988SOL    HW230864   7.015   5.816   4.901
 9989SOL     OW30865   5.178   3.682   3.033
 9989SOL    HW130866   5.216   3.602   3.080
 9989SOL    HW230867   5.225   3.695   2.946
 9990SOL     OW30868   2.525   6.721   3.303
 9990SOL    HW130869   2.470   6.803   3.316
 9990SOL    HW230870   2.491   6.648   3.361
 9991SOL     OW30871   1.262   2.900   4.589
 9991SOL    HW130872   1.337   2.887   4.524
 9991SOL    HW230873   1.275   2.837   4.666
 9992SOL     OW30874   4.718   3.509   0.370
 9992SOL    HW130875   4.749   3.415   0.378
 9992SOL    HW230876   4.795   3.568   0.349
 9993SOL     OW30877   4.896   6.585   2.661
 9993SOL    HW130878   4.886   6.488   2.637
 9993SOL    HW230879   4.944   6.632   2.587
 9994SOL     OW30880   6.770   3.900   4.228
 9994SOL    HW130881   6.833   3.977   4.230
 9994SOL    HW230882   6.676   3.933   4.226
 9995SOL     OW30883   3.032   6.808   2.950
 9995SOL    HW130884   3.123   6.780   2.982
 9995SOL    HW230885   3.037   6.899   2.911
 9996SOL     OW30886   2.929   2.035   1.247
 9996SOL    HW130887   2.936   2.065   1.152
 9996SOL    HW230888   2.957   2.109   1.308
 9997SOL     OW30889   4.158   1.903   1.056
 9997SOL    HW130890   4.241   1.869   1.013
 9997SOL    HW230891   4.182   1.956   1.138
 9998SOL     OW30892   6.737   3.748   2.264
 9998SOL    HW130893   6.789   3.714   2.342
 9998SOL    HW230894   6.772   3.837   2.236
 9999SOL     OW30895   6.174   4.504   4.401
 9999SOL    HW130896   6.187   4.570   4.327
 9999SOL    HW230897   6.127   4.423   4.366
10000SOL     OW30898   6.197   2.214   6.320
10000SOL    HW130899   6.209   2.310   6.295
10000SOL    HW230900   6.219   2.201   6.417
10001SOL     OW30901   5.079   1.038   1.562
10001SOL    HW130902   4.993   1.061   1.608
10001SOL    HW230903   5.156   1.057   1.624
10002SOL     OW30904   1.438   0.800   1.361
10002SOL    HW130905   1.453   0.894   1.390
10002SOL    HW230906   1.434   0.740   1.441
10003SOL     OW30907   3.970   2.185   3.342
10003SOL    HW130908   4.055   2.203   3.392
10003SOL    HW230909   3.962   2.248   3.265
10004SOL     OW30910   5.242   2.935   4.768
10004SOL    HW130911   5.211   2.861   4.827
10004SOL    HW230912   5.310   2.901   4.703
10005SOL     OW30913   5.031   5.644   3.124
10005SOL    HW130914   5.009   5.742   3.125
10005SOL    HW230915   5.044   5.613   3.218
10006SOL     OW30916   5.571   0.863   4.421
10006SOL    HW130917   5.579   0.765   4.402
10006SOL    HW230918   5.509   0.905   4.355
10007SOL     OW30919   0.899   4.367   4.892
10007SOL    HW130920   0.893   4.290   4.955
10007SOL    HW230921   0.957   4.438   4.931
10008SOL     OW30922   4.013   1.356   3.802
10008SOL    HW130923   3.983   1.412   3.879
10008SOL    HW230924   4.102   1.387   3.771
10009SOL     OW30925   2.231   3.634   1.441
10009SOL    HW130926   2.265   3.661   1.531
10009SOL    HW230927   2.199   3.539   1.445
10010SOL     OW30928   1.967   6.570   0.203
10010SOL    HW130929   1.968   6.630   0.283
10010SOL    HW230930   2.023   6.611   0.131
10011SOL     OW30931   0.359   2.382   5.156
10011SOL    HW130932   0.310   2.325   5.221
10011SOL    HW230933   0.419   2.446   5.205
10012SOL     OW30934   5.047   6.631   3.205
10012SOL    HW130935   5.090   6.570   3.272
10012SOL    HW230936   5.005   6.708   3.253
10013SOL     OW30937   2.361   1.807   4.521
10013SOL    HW130938   2.363   1.877   4.449
10013SOL    HW230939   2.280   1.821   4.578
10014SOL     OW30940   6.715   2.419   0.111
10014SOL    HW130941   6.631   2.463   0.141
10014SOL    HW230942   6.710   2.398   0.013
10015SOL     OW30943   3.163   4.086   0.347
10015SOL    HW130944   3.136   4.083   0.251
10015SOL    HW230945   3.139   4.000   0.391
10016SOL     OW30946   2.320   0.070   4.692
10016SOL    HW130947   2.265   7.018   4.648
10016SOL    HW230948   2.290   0.160   4.661
10017SOL     OW30949   1.789   2.255   2.138
10017SOL    HW130950   1.867   2.221   2.085
10017SOL    HW230951   1.802   2.233   2.235
10018SOL     OW30952   5.716   5.858   6.312
10018SOL    HW130953   5.646   5.787   6.318
10018SOL    HW230954   5.677   5.945   6.341
10019SOL     OW30955   1.008   2.016   3.350
10019SOL    HW130956   1.089   2.006   3.408
10019SOL    HW230957   0.928   1.978   3.398
10020SOL     OW30958   6.868   2.054   1.119
10020SOL    HW130959   6.790   2.022   1.065
10020SOL    HW230960   6.836   2.084   1.209
10021SOL     OW30961   0.833   2.603   1.543
10021SOL    HW130962   0.920   2.557   1.525
10021SOL    HW230963   0.761   2.534   1.554
10022SOL     OW30964   3.542   6.738   1.123
10022SOL    HW130965   3.634   6.716   1.091
10022SOL    HW230966   3.479   6.666   1.095
10023SOL     OW30967   2.061   5.402   5.602
10023SOL    HW130968   1.967   5.414   5.569
10023SOL    HW230969   2.059   5.381   5.700
10024SOL     OW30970   2.310   0.075   1.832
10024SOL    HW130971   2.287   0.087   1.736
10024SOL    HW230972   2.235   0.028   1.878
10025SOL     OW30973   1.285   1.048   0.967
10025SOL    HW130974   1.242   0.957   0.970
10025SOL    HW230975   1.313   1.074   1.059
10026SOL     OW30976   4.965   6.339   3.655
10026SOL    HW130977   4.885   6.278   3.652
10026SOL    HW230978   5.027   6.308   3.727
10027SOL     OW30979   0.737   4.724   4.839
10027SOL    HW130980   0.640   4.706   4.853
10027SOL    HW230981   0.778   4.754   4.925
10028SOL     OW30982   1.439   1.536   1.638
10028SOL    HW130983   1.510   1.495   1.582
10028SOL    HW230984   1.371   1.581   1.580
10029SOL     OW30985   3.129   1.775   3.568
10029SOL    HW130986   3.041   1.804   3.604
10029SOL    HW230987   3.179   1.725   3.639
10030SOL     OW30988   2.465   6.761   4.024
10030SOL    HW130989   2.464   6.796   3.931
10030SOL    HW230990   2.533   6.810   4.078
10031SOL     OW30991   6.058   5.048   3.669
10031SOL    HW130992   6.020   4.984   3.602
10031SOL    HW230993   6.005   5.133   3.666
10032SOL     OW30994   3.283   0.671   5.261
10032SOL    HW130995   3.371   0.636   5.229
10032SOL    HW230996   3.256   0.621   5.343
10033SOL     OW30997   4.580   2.521   4.298
10033SOL    HW130998   4.601   2.591   4.230
10033SOL    HW230999   4.603   2.431   4.261
10034SOL     OW31000   3.111   6.927   4.237
10034SOL    HW131001   3.180   6.928   4.164
10034SOL    HW231002   3.055   7.010   4.231
10035SOL     OW31003   0.012   4.353   2.266
10035SOL    HW131004   6.974   4.435   2.279
10035SOL    HW231005   0.102   4.380   2.229
10036SOL     OW31006   5.319   1.518   1.144
10036SOL    HW131007   5.334   1.433   1.193
10036SOL    HW231008   5.359   1.594   1.196
10037SOL     OW31009   5.616   1.389   0.829
10037SOL    HW131010   5.669   1.467   0.864
10037SOL    HW231011   5.545   1.422   0.768
10038SOL     OW31012   4.223   1.377   6.429
10038SOL    HW131013   4.231   1.349   6.525
10038SOL    HW231014   4.140   1.338   6.390
10039SOL     OW31015   3.107   0.332   3.929
10039SOL    HW131016   3.049   0.255   3.902
10039SOL    HW231017   3.140   0.379   3.848
10040SOL     OW31018   4.221   5.888   6.427
10040SOL    HW131019   4.140   5.836   6.401
10040SOL    HW231020   4.276   5.907   6.345
10041SOL     OW31021   4.313   5.836   6.071
10041SOL    HW131022   4.242   5.906   6.080
10041SOL    HW231023   4.402   5.878   6.085
10042SOL     OW31024   0.569   1.539   4.412
10042SOL    HW131025   0.489   1.589   4.378
10042SOL    HW231026   0.650   1.567   4.359
10043SOL     OW31027   6.499   2.172   4.942
10043SOL    HW131028   6.558   2.181   4.862
10043SOL    HW231029   6.406   2.149   4.913
10044SOL     OW31030   2.914   1.372   5.252
10044SOL    HW131031   2.856   1.367   5.334
10044SOL    HW231032   2.868   1.327   5.176
10045SOL     OW31033   4.320   0.233   3.245
10045SOL    HW131034   4.408   0.204   3.207
10045SOL    HW231035   4.280   0.302   3.184
10046SOL     OW31036   2.462   4.016   0.932
10046SOL    HW131037   2.402   4.044   0.857
10046SOL    HW231038   2.556   4.012   0.900
10047SOL     OW31039   0.475   4.037   5.316
10047SOL    HW131040   0.539   4.110   5.339
10047SOL    HW231041   0.517   3.977   5.247
10048SOL     OW31042   6.332   0.925   2.857
10048SOL    HW131043   6.364   1.007   2.809
10048SOL    HW231044   6.272   0.953   2.933
10049SOL     OW31045   0.438   1.749   6.703
10049SOL    HW131046   0.468   1.654   6.697
10049SOL    HW231047   0.365   1.756   6.772
10050SOL     OW31048   5.567   3.838   4.729
10050SOL    HW131049   5.530   3.819   4.819
10050SOL    HW231050   5.514   3.789   4.660
10051SOL     OW31051   6.217   3.423   5.843
10051SOL    HW131052   6.229   3.461   5.935
10051SOL    HW231053   6.150   3.349   5.847
10052SOL     OW31054   1.667   1.831   3.061
10052SOL    HW131055   1.698   1.864   3.150
10052SOL    HW231056   1.676   1.905   2.994
10053SOL     OW31057   3.880   5.669   3.222
10053SOL    HW131058   3.891   5.700   3.316
10053SOL    HW231059   3.868   5.748   3.162
10054SOL     OW31060   5.646   6.055   6.769
10054SOL    HW131061   5.721   6.000   6.732
10054SOL    HW231062   5.565   6.045   6.711
10055SOL     OW31063   5.902   0.870   4.562
10055SOL    HW131064   5.811   0.908   4.543
10055SOL    HW231065   5.894   0.796   4.629
10056SOL     OW31066   5.282   4.279   2.884
10056SOL    HW131067   5.232   4.365   2.871
10056SOL    HW231068   5.330   4.256   2.799
10057SOL     OW31069   4.393   2.419   5.512
10057SOL    HW131070   4.368   2.335   5.464
10057SOL    HW231071   4.410   2.398   5.608
10058SOL     OW31072   6.555   3.305   5.353
10058SOL    HW131073   6.604   3.340   5.433
10058SOL    HW231074   6.609   3.325   5.270
10059SOL     OW31075   6.638   1.125   0.365
10059SOL    HW131076   6.619   1.043   0.312
10059SOL    HW231077   6.731   1.122   0.401
10060SOL     OW31078   1.886   3.062   1.836
10060SOL    HW131079   1.904   3.160   1.841
10060SOL    HW231080   1.799   3.045   1.791
10061SOL     OW31081   4.685   1.321   4.528
10061SOL    HW131082   4.721   1.410   4.554
10061SOL    HW231083   4.712   1.300   4.434
10062SOL     OW31084   5.791   0.742   3.723
10062SOL    HW131085   5.740   0.694   3.793
10062SOL    HW231086   5.858   0.803   3.766
10063SOL     OW31087   2.861   0.743   3.985
10063SOL    HW131088   2.909   0.800   3.919
10063SOL    HW231089   2.779   0.791   4.017
10064SOL     OW31090   4.967   6.965   0.232
10064SOL    HW131091   4.892   6.909   0.197
10064SOL    HW231092   4.955   0.042   0.202
10065SOL     OW31093   3.008   6.568   2.609
10065SOL    HW131094   3.010   6.661   2.648
10065SOL    HW231095   3.028   6.502   2.681
10066SOL     OW31096   0.346   2.356   4.185
10066SOL    HW131097   0.249   2.376   4.200
10066SOL    HW231098   0.357   2.307   4.099
10067SOL     OW31099   0.609   3.832   5.183
10067SOL    HW131100   0.522   3.782   5.190
10067SOL    HW231101   0.680   3.781   5.231
10068SOL     OW31102   0.183   3.519   3.454
10068SOL    HW131103   0.142   3.606   3.430
10068SOL    HW231104   0.219   3.475   3.371
10069SOL     OW31105   3.015   5.612   2.286
10069SOL    HW131106   2.958   5.686   2.324
10069SOL    HW231107   3.065   5.568   2.360
10070SOL     OW31108   0.138   6.197   5.328
10070SOL    HW131109   0.225   6.233   5.360
10070SOL    HW231110   0.064   6.236   5.382
10071SOL     OW31111   6.322   6.209   4.377
10071SOL    HW131112   6.375   6.294   4.371
10071SOL    HW231113   6.224   6.232   4.380
10072SOL     OW31114   0.245   6.537   4.207
10072SOL    HW131115   0.237   6.520   4.305
10072SOL    HW231116   0.177   6.605   4.179
10073SOL     OW31117   6.366   4.398   4.205
10073SOL    HW131118   6.300   4.466   4.173
10073SOL    HW231119   6.324   4.308   4.205
10074SOL     OW31120   2.009   0.348   5.714
10074SOL    HW131121   2.048   0.319   5.801
10074SOL    HW231122   2.017   0.274   5.647
10075SOL     OW31123   1.596   2.425   2.235
10075SOL    HW131124   1.656   2.359   2.189
10075SOL    HW231125   1.607   2.515   2.193
10076SOL     OW31126   6.091   6.154   3.673
10076SOL    HW131127   6.045   6.243   3.671
10076SOL    HW231128   6.171   6.156   3.614
10077SOL     OW31129   4.362   3.266   0.069
10077SOL    HW131130   4.312   3.275   7.001
10077SOL    HW231131   4.458   3.288   0.055
10078SOL     OW31132   6.627   6.335   4.097
10078SOL    HW131133   6.603   6.401   4.025
10078SOL    HW231134   6.546   6.315   4.152
10079SOL     OW31135   5.997   2.860   3.658
10079SOL    HW131136   6.024   2.957   3.659
10079SOL    HW231137   5.904   2.851   3.623
10080SOL     OW31138   5.265   0.593   5.669
10080SOL    HW131139   5.216   0.674   5.636
10080SOL    HW231140   5.326   0.559   5.597
10081SOL     OW31141   0.436   1.527   0.236
10081SOL    HW131142   0.391   1.438   0.226
10081SOL    HW231143   0.518   1.530   0.179
10082SOL     OW31144   0.766   5.285   1.556
10082SOL    HW131145   0.790   5.342   1.635
10082SOL    HW231146   0.849   5.243   1.518
10083SOL     OW31147   4.091   0.918   3.783
10083SOL    HW131148   4.071   0.885   3.690
10083SOL    HW231149   4.082   0.842   3.847
10084SOL     OW31150   1.465   0.376   5.875
10084SOL    HW131151   1.374   0.353   5.839
10084SOL    HW231152   1.534   0.355   5.806
10085SOL     OW31153   2.981   6.412   0.672
10085SOL    HW131154   3.072   6.453   0.664
10085SOL    HW231155   2.990   6.318   0.704
10086SOL     OW31156   6.079   5.818   2.643
10086SOL    HW131157   6.096   5.913   2.670
10086SOL    HW231158   6.138   5.757   2.695
10087SOL     OW31159   6.587   5.786   3.707
10087SOL    HW131160   6.507   5.836   3.674
10087SOL    HW231161   6.580   5.772   3.806
10088SOL     OW31162   6.990   6.932   2.294
10088SOL    HW131163   6.938   6.871   2.234
10088SOL    HW231164   6.929   6.972   2.362
10089SOL     OW31165   2.877   1.836   3.693
10089SOL    HW131166   2.840   1.830   3.600
10089SOL    HW231167   2.808   1.807   3.759
10090SOL     OW31168   0.198   5.101   1.797
10090SOL    HW131169   0.170   5.170   1.863
10090SOL    HW231170   0.220   5.016   1.845
10091SOL     OW31171   6.474   5.691   6.726
10091SOL    HW131172   6.437   5.639   6.649
10091SOL    HW231173   6.442   5.650   6.812
10092SOL     OW31174   2.173   3.166   6.464
10092SOL    HW131175   2.079   3.174   6.431
10092SOL    HW231176   2.196   3.248   6.518
10093SOL     OW31177   4.725   3.477   5.420
10093SOL    HW131178   4.669   3.489   5.501
10093SOL    HW231179   4.676   3.509   5.340
10094SOL     OW31180   3.066   5.679   1.725
10094SOL    HW131181   3.003   5.625   1.671
10094SOL    HW231182   3.015   5.733   1.792
10095SOL     OW31183   5.553   1.835   4.361
10095SOL    HW131184   5.614   1.828   4.441
10095SOL    HW231185   5.578   1.765   4.294
10096SOL     OW31186   4.603   6.101   2.764
10096SOL    HW131187   4.587   6.120   2.861
10096SOL    HW231188   4.557   6.170   2.708
10097SOL     OW31189   1.557   2.279   0.120
10097SOL    HW131190   1.570   2.188   0.080
10097SOL    HW231191   1.640   2.305   0.170
10098SOL     OW31192   2.916   0.131   5.337
10098SOL    HW131193   2.974   0.192   5.390
10098SOL    HW231194   2.821   0.140   5.367
10099SOL     OW31195   1.124   4.879   1.340
10099SOL    HW131196   1.087   4.796   1.298
10099SOL    HW231197   1.088   4.890   1.432
10100SOL     OW31198   5.204   5.737   5.642
10100SOL    HW131199   5.269   5.779   5.579
10100SOL    HW231200   5.126   5.797   5.655
10101SOL     OW31201   6.694   3.107   2.277
10101SOL    HW131202   6.595   3.107   2.294
10101SOL    HW231203   6.742   3.107   2.365
10102SOL     OW31204   0.284   1.053   2.117
10102SOL    HW131205   0.239   1.050   2.207
10102SOL    HW231206   0.256   1.136   2.069
10103SOL     OW31207   2.458   0.575   5.546
10103SOL    HW131208   2.399   0.606   5.621
10103SOL    HW231209   2.533   0.640   5.533
10104SOL     OW31210   1.462   1.916   5.335
10104SOL    HW131211   1.475   1.869   5.422
10104SOL    HW231212   1.391   1.986   5.345
10105SOL     OW31213   2.129   0.325   6.157
10105SOL    HW131214   2.136   0.302   6.060
10105SOL    HW231215   2.052   0.275   6.198
10106SOL     OW31216   3.665   6.474   0.368
10106SOL    HW131217   3.567   6.493   0.362
10106SOL    HW231218   3.688   6.396   0.309
10107SOL     OW31219   5.153   1.359   5.926
10107SOL    HW131220   5.225   1.422   5.897
10107SOL    HW231221   5.143   1.361   6.025
10108SOL     OW31222   6.909   0.888   0.545
10108SOL    HW131223   6.873   0.826   0.474
10108SOL    HW231224   6.953   0.833   0.616
10109SOL     OW31225   6.957   0.961   0.821
10109SOL    HW131226   6.905   0.991   0.901
10109SOL    HW231227   6.916   0.998   0.738
10110SOL     OW31228   5.044   5.044   3.865
10110SOL    HW131229   5.013   5.039   3.960
10110SOL    HW231230   5.047   4.951   3.827
10111SOL     OW31231   6.477   3.241   4.058
10111SOL    HW131232   6.550   3.269   4.120
10111SOL    HW231233   6.462   3.143   4.066
10112SOL     OW31234   6.008   3.411   3.174
10112SOL    HW131235   6.041   3.491   3.123
10112SOL    HW231236   6.076   3.338   3.170
10113SOL     OW31237   4.388   0.179   0.403
10113SOL    HW131238   4.422   0.239   0.476
10113SOL    HW231239   4.451   0.184   0.325
10114SOL     OW31240   4.354   2.294   2.228
10114SOL    HW131241   4.292   2.224   2.263
10114SOL    HW231242   4.394   2.343   2.305
10115SOL     OW31243   4.396   2.084   4.935
10115SOL    HW131244   4.353   2.067   4.846
10115SOL    HW231245   4.495   2.089   4.923
10116SOL     OW31246   0.896   0.120   6.865
10116SOL    HW131247   0.981   0.131   6.813
10116SOL    HW231248   0.878   0.203   6.917
10117SOL     OW31249   6.299   6.419   6.023
10117SOL    HW131250   6.219   6.360   6.012
10117SOL    HW231251   6.284   6.504   5.973
10118SOL     OW31252   2.347   4.302   3.634
10118SOL    HW131253   2.422   4.256   3.585
10118SOL    HW231254   2.261   4.256   3.613
10119SOL     OW31255   6.632   4.985   3.815
10119SOL    HW131256   6.575   5.020   3.741
10119SOL    HW231257   6.627   5.047   3.893
10120SOL     OW31258   1.803   3.626   4.262
10120SOL    HW131259   1.895   3.605   4.295
10120SOL    HW231260   1.784   3.723   4.275
10121SOL     OW31261   5.636   4.092   0.082
10121SOL    HW131262   5.679   4.088   7.010
10121SOL    HW231263   5.552   4.147   0.077
10122SOL     OW31264   5.097   2.572   3.186
10122SOL    HW131265   5.149   2.518   3.252
10122SOL    HW231266   5.072   2.513   3.109
10123SOL     OW31267   5.443   6.116   0.976
10123SOL    HW131268   5.366   6.145   0.918
10123SOL    HW231269   5.529   6.138   0.930
10124SOL     OW31270   1.675   4.764   0.501
10124SOL    HW131271   1.747   4.773   0.571
10124SOL    HW231272   1.629   4.852   0.489
10125SOL     OW31273   2.103   1.070   1.120
10125SOL    HW131274   2.017   1.028   1.148
10125SOL    HW231275   2.170   0.999   1.097
10126SOL     OW31276   0.184   0.078   0.214
10126SOL    HW131277   0.229   0.083   0.303
10126SOL    HW231278   0.246   0.111   0.143
10127SOL     OW31279   1.927   3.719   0.699
10127SOL    HW131280   1.872   3.692   0.778
10127SOL    HW231281   2.018   3.744   0.729
10128SOL     OW31282   3.246   0.916   5.897
10128SOL    HW131283   3.199   0.977   5.960
10128SOL    HW231284   3.245   0.956   5.805
10129SOL     OW31285   6.577   1.413   2.453
10129SOL    HW131286   6.623   1.468   2.523
10129SOL    HW231287   6.505   1.467   2.410
10130SOL     OW31288   0.628   3.397   1.409
10130SOL    HW131289   0.581   3.481   1.384
10130SOL    HW231290   0.642   3.340   1.328
10131SOL     OW31291   2.049   6.952   4.589
10131SOL    HW131292   1.997   0.006   4.542
10131SOL    HW231293   2.056   6.872   4.529
10132SOL     OW31294   1.993   0.893   3.150
10132SOL    HW131295   1.939   0.881   3.234
10132SOL    HW231296   1.931   0.903   3.072
10133SOL     OW31297   4.499   6.630   0.797
10133SOL    HW131298   4.507   6.647   0.699
10133SOL    HW231299   4.512   6.532   0.815
10134SOL     OW31300   5.737   1.385   2.324
10134SOL    HW131301   5.836   1.394   2.311
10134SOL    HW231302   5.696   1.342   2.244
10135SOL     OW31303   5.455   2.519   3.942
10135SOL    HW131304   5.480   2.464   3.862
10135SOL    HW231305   5.410   2.602   3.912
10136SOL     OW31306   5.329   2.010   2.056
10136SOL    HW131307   5.386   2.047   2.130
10136SOL    HW231308   5.374   2.027   1.968
10137SOL     OW31309   0.480   4.704   4.912
10137SOL    HW131310   0.390   4.720   4.871
10137SOL    HW231311   0.470   4.654   4.997
10138SOL     OW31312   5.291   3.546   0.270
10138SOL    HW131313   5.283   3.594   0.357
10138SOL    HW231314   5.339   3.460   0.284
10139SOL     OW31315   2.910   3.714   4.715
10139SOL    HW131316   2.811   3.708   4.704
10139SOL    HW231317   2.948   3.622   4.726
10140SOL     OW31318   0.526   6.320   6.732
10140SOL    HW131319   0.551   6.367   6.817
10140SOL    HW231320   0.547   6.223   6.740
10141SOL     OW31321   4.654   1.154   5.414
10141SOL    HW131322   4.739   1.116   5.449
10141SOL    HW231323   4.641   1.246   5.450
10142SOL     OW31324   5.844   6.197   5.843
10142SOL    HW131325   5.874   6.106   5.813
10142SOL    HW231326   5.772   6.230   5.781
10143SOL     OW31327   5.192   2.389   0.789
10143SOL    HW131328   5.279   2.344   0.771
10143SOL    HW231329   5.117   2.328   0.763
10144SOL     OW31330   4.646   0.303   6.140
10144SOL    HW131331   4.684   0.383   6.188
10144SOL    HW231332   4.705   0.280   6.063
10145SOL     OW31333   3.615   5.768   3.042
10145SOL    HW131334   3.663   5.846   3.082
10145SOL    HW231335   3.679   5.715   2.986
10146SOL     OW31336   6.004   4.108   4.752
10146SOL    HW131337   5.906   4.121   4.765
10146SOL    HW231338   6.051   4.196   4.759
10147SOL     OW31339   4.796   4.115   6.569
10147SOL    HW131340   4.757   4.069   6.489
10147SOL    HW231341   4.736   4.190   6.597
10148SOL     OW31342   5.816   4.933   0.156
10148SOL    HW131343   5.834   4.850   0.104
10148SOL    HW231344   5.884   5.003   0.133
10149SOL     OW31345   5.289   3.702   1.286
10149SOL    HW131346   5.197   3.739   1.273
10149SOL    HW231347   5.351   3.745   1.220
10150SOL     OW31348   4.047   3.155   1.824
10150SOL    HW131349   4.121   3.222   1.817
10150SOL    HW231350   4.021   3.143   1.920
10151SOL     OW31351   1.321   6.763   0.079
10151SOL    HW131352   1.298   6.691   0.014
10151SOL    HW231353   1.395   6.730   0.139
10152SOL     OW31354   6.582   6.066   3.697
10152SOL    HW131355   6.525   6.053   3.616
10152SOL    HW231356   6.656   5.998   3.697
10153SOL     OW31357   5.117   6.250   3.869
10153SOL    HW131358   5.044   6.275   3.933
10153SOL    HW231359   5.205   6.277   3.906
10154SOL     OW31360   3.925   6.416   4.864
10154SOL    HW131361   4.013   6.371   4.877
10154SOL    HW231362   3.936   6.515   4.876
10155SOL     OW31363   5.013   2.156   5.580
10155SOL    HW131364   4.946   2.145   5.508
10155SOL    HW231365   5.081   2.224   5.553
10156SOL     OW31366   5.393   0.588   1.521
10156SOL    HW131367   5.384   0.567   1.423
10156SOL    HW231368   5.353   0.513   1.575
10157SOL     OW31369   0.058   2.311   0.389
10157SOL    HW131370   0.045   2.222   0.345
10157SOL    HW231371   0.121   2.366   0.334
10158SOL     OW31372   6.139   5.981   1.307
10158SOL    HW131373   6.203   6.058   1.310
10158SOL    HW231374   6.082   5.982   1.389
10159SOL     OW31375   3.628   3.115   2.281
10159SOL    HW131376   3.571   3.038   2.253
10159SOL    HW231377   3.581   3.201   2.259
10160SOL     OW31378   1.441   3.693   3.150
10160SOL    HW131379   1.505   3.622   3.179
10160SOL    HW231380   1.432   3.762   3.222
10161SOL     OW31381   3.367   4.100   6.577
10161SOL    HW131382   3.434   4.040   6.534
10161SOL    HW231383   3.372   4.091   6.677
10162SOL     OW31384   2.870   4.981   0.603
10162SOL    HW131385   2.937   4.954   0.672
10162SOL    HW231386   2.784   5.005   0.649
10163SOL     OW31387   0.356   4.018   6.879
10163SOL    HW131388   0.295   3.997   6.955
10163SOL    HW231389   0.373   4.116   6.875
10164SOL     OW31390   5.745   3.651   4.862
10164SOL    HW131391   5.825   3.597   4.835
10164SOL    HW231392   5.720   3.713   4.789
10165SOL     OW31393   6.462   1.937   3.474
10165SOL    HW131394   6.375   1.941   3.523
10165SOL    HW231395   6.517   2.017   3.497
10166SOL     OW31396   2.037   1.579   1.295
10166SOL    HW131397   2.067   1.541   1.382
10166SOL    HW231398   1.960   1.526   1.259
10167SOL     OW31399   0.177   5.772   0.195
10167SOL    HW131400   0.174   5.682   0.239
10167SOL    HW231401   0.145   5.842   0.259
10168SOL     OW31402   6.691   2.576   5.957
10168SOL    HW131403   6.640   2.494   5.931
10168SOL    HW231404   6.637   2.630   6.021
10169SOL     OW31405   6.987   3.374   3.542
10169SOL    HW131406   6.948   3.461   3.572
10169SOL    HW231407   0.065   3.387   3.518
10170SOL     OW31408   6.012   5.660   6.357
10170SOL    HW131409   5.919   5.631   6.338
10170SOL    HW231410   6.076   5.598   6.312
10171SOL     OW31411   0.590   2.502   4.161
10171SOL    HW131412   0.506   2.448   4.169
10171SOL    HW231413   0.664   2.456   4.211
10172SOL     OW31414   0.634   6.547   4.488
10172SOL    HW131415   0.620   6.449   4.473
10172SOL    HW231416   0.545   6.591   4.499
10173SOL     OW31417   2.151   3.079   0.007
10173SOL    HW131418   2.159   3.120   0.097
10173SOL    HW231419   2.165   3.149   6.955
10174SOL     OW31420   4.857   4.773   3.734
10174SOL    HW131421   4.861   4.840   3.660
10174SOL    HW231422   4.797   4.698   3.709
10175SOL     OW31423   5.879   2.291   3.462
10175SOL    HW131424   5.975   2.309   3.483
10175SOL    HW231425   5.848   2.211   3.514
10176SOL     OW31426   6.594   2.438   5.642
10176SOL    HW131427   6.574   2.454   5.546
10176SOL    HW231428   6.693   2.448   5.658
10177SOL     OW31429   1.953   0.755   0.401
10177SOL    HW131430   1.985   0.662   0.381
10177SOL    HW231431   1.856   0.763   0.380
10178SOL     OW31432   1.111   0.628   0.474
10178SOL    HW131433   1.093   0.537   0.511
10178SOL    HW231434   1.025   0.680   0.471
10179SOL     OW31435   0.878   3.525   6.547
10179SOL    HW131436   0.815   3.449   6.565
10179SOL    HW231437   0.846   3.576   6.467
10180SOL     OW31438   4.909   0.664   0.865
10180SOL    HW131439   4.964   0.608   0.927
10180SOL    HW231440   4.928   0.636   0.770
10181SOL     OW31441   0.499   2.618   0.926
10181SOL    HW131442   0.529   2.617   1.022
10181SOL    HW231443   0.503   2.525   0.889
10182SOL     OW31444   4.946   0.764   0.470
10182SOL    HW131445   4.931   0.839   0.535
10182SOL    HW231446   4.979   0.684   0.519
10183SOL     OW31447   5.981   2.851   5.999
10183SOL    HW131448   5.928   2.819   6.077
10183SOL    HW231449   5.938   2.818   5.914
10184SOL     OW31450   4.473   2.997   6.564
10184SOL    HW131451   4.391   2.944   6.539
10184SOL    HW231452   4.553   2.956   6.520
10185SOL     OW31453   6.553   5.752   1.912
10185SOL    HW131454   6.509   5.686   1.973
10185SOL    HW231455   6.631   5.794   1.960
10186SOL     OW31456   4.976   3.541   4.430
10186SOL    HW131457   4.969   3.622   4.488
10186SOL    HW231458   5.022   3.468   4.480
10187SOL     OW31459   1.503   3.708   6.533
10187SOL    HW131460   1.557   3.686   6.614
10187SOL    HW231461   1.543   3.666   6.453
10188SOL     OW31462   2.514   5.110   6.416
10188SOL    HW131463   2.458   5.034   6.382
10188SOL    HW231464   2.498   5.121   6.514
10189SOL     OW31465   0.785   1.113   6.157
10189SOL    HW131466   0.744   1.026   6.131
10189SOL    HW231467   0.736   1.188   6.112
10190SOL     OW31468   3.863   2.928   1.447
10190SOL    HW131469   3.916   2.854   1.407
10190SOL    HW231470   3.864   2.921   1.547
10191SOL     OW31471   4.765   5.631   6.575
10191SOL    HW131472   4.692   5.567   6.599
10191SOL    HW231473   4.750   5.718   6.623
10192SOL     OW31474   3.416   1.948   5.328
10192SOL    HW131475   3.361   1.915   5.252
10192SOL    HW231476   3.437   2.045   5.316
10193SOL     OW31477   2.996   3.829   2.739
10193SOL    HW131478   3.053   3.748   2.722
10193SOL    HW231479   3.015   3.864   2.831
10194SOL     OW31480   4.755   1.197   4.268
10194SOL    HW131481   4.844   1.184   4.223
10194SOL    HW231482   4.703   1.268   4.220
10195SOL     OW31483   6.803   6.745   1.567
10195SOL    HW131484   6.857   6.753   1.484
10195SOL    HW231485   6.834   6.811   1.635
10196SOL     OW31486   4.389   2.245   4.046
10196SOL    HW131487   4.329   2.292   4.110
10196SOL    HW231488   4.447   2.311   3.999
10197SOL     OW31489   4.711   1.927   4.191
10197SOL    HW131490   4.677   1.834   4.208
10197SOL    HW231491   4.747   1.965   4.276
10198SOL     OW31492   3.958   7.017   1.417
10198SOL    HW131493   3.870   0.040   1.439
10198SOL    HW231494   4.031   0.054   1.459
10199SOL     OW31495   0.695   2.000   0.019
10199SOL    HW131496   0.732   2.048   6.957
10199SOL    HW231497   0.598   1.980   0.005
10200SOL     OW31498   5.061   3.091   5.564
10200SOL    HW131499   5.109   3.151   5.628
10200SOL    HW231500   4.969   3.127   5.549
10201SOL     OW31501   0.602   6.108   0.734
10201SOL    HW131502   0.651   6.194   0.723
10201SOL    HW231503   0.667   6.035   0.754
10202SOL     OW31504   2.114   4.462   6.938
10202SOL    HW131505   2.019   4.461   6.905
10202SOL    HW231506   2.127   4.540   6.999
10203SOL     OW31507   0.972   2.709   1.879
10203SOL    HW131508   1.026   2.763   1.943
10203SOL    HW231509   0.954   2.763   1.797
10204SOL     OW31510   3.405   5.937   6.745
10204SOL    HW131511   3.484   5.906   6.691
10204SOL    HW231512   3.378   5.864   6.808
10205SOL     OW31513   3.224   0.989   2.802
10205SOL    HW131514   3.294   1.054   2.772
10205SOL    HW231515   3.261   0.896   2.800
10206SOL     OW31516   5.274   6.884   6.542
10206SOL    HW131517   5.259   6.867   6.640
10206SOL    HW231518   5.334   6.814   6.505
10207SOL     OW31519   2.068   1.095   6.755
10207SOL    HW131520   2.160   1.095   6.716
10207SOL    HW231521   2.026   1.185   6.741
10208SOL     OW31522   6.381   4.384   3.792
10208SOL    HW131523   6.480   4.378   3.805
10208SOL    HW231524   6.361   4.458   3.728
10209SOL     OW31525   0.092   0.232   5.885
10209SOL    HW131526   0.183   0.230   5.927
10209SOL    HW231527   0.095   0.288   5.802
10210SOL     OW31528   5.241   6.865   1.414
10210SOL    HW131529   5.335   6.838   1.435
10210SOL    HW231530   5.200   6.909   1.494
10211SOL     OW31531   4.170   6.124   5.033
10211SOL    HW131532   4.101   6.060   4.999
10211SOL    HW231533   4.126   6.197   5.085
10212SOL     OW31534   0.084   0.313   4.887
10212SOL    HW131535   0.036   0.312   4.975
10212SOL    HW231536   0.085   0.221   4.849
10213SOL     OW31537   5.422   2.828   2.350
10213SOL    HW131538   5.435   2.810   2.448
10213SOL    HW231539   5.370   2.913   2.339
10214SOL     OW31540   1.120   1.637   2.241
10214SOL    HW131541   1.036   1.598   2.278
10214SOL    HW231542   1.198   1.580   2.268
10215SOL     OW31543   3.642   3.004   3.931
10215SOL    HW131544   3.575   3.079   3.925
10215SOL    HW231545   3.613   2.941   4.003
10216SOL     OW31546   0.737   6.692   1.126
10216SOL    HW131547   0.660   6.754   1.143
10216SOL    HW231548   0.783   6.671   1.212
10217SOL     OW31549   2.247   1.851   3.147
10217SOL    HW131550   2.338   1.880   3.175
10217SOL    HW231551   2.254   1.779   3.078
10218SOL     OW31552   1.829   0.662   1.896
10218SOL    HW131553   1.804   0.638   1.802
10218SOL    HW231554   1.908   0.723   1.895
10219SOL     OW31555   0.280   2.597   2.502
10219SOL    HW131556   0.273   2.605   2.601
10219SOL    HW231557   0.351   2.658   2.468
10220SOL     OW31558   4.391   1.868   1.307
10220SOL    HW131559   4.356   1.937   1.244
10220SOL    HW231560   4.354   1.778   1.282
10221SOL     OW31561   1.924   3.252   4.283
10221SOL    HW131562   1.987   3.328   4.264
10221SOL    HW231563   1.882   3.222   4.197
10222SOL     OW31564   2.828   3.698   5.644
10222SOL    HW131565   2.767   3.682   5.722
10222SOL    HW231566   2.898   3.764   5.670
10223SOL     OW31567   1.856   6.266   6.573
10223SOL    HW131568   1.928   6.263   6.503
10223SOL    HW231569   1.895   6.302   6.658
10224SOL     OW31570   0.511   1.618   5.142
10224SOL    HW131571   0.606   1.636   5.170
10224SOL    HW231572   0.501   1.523   5.113
10225SOL     OW31573   2.116   6.112   6.118
10225SOL    HW131574   2.118   6.118   6.018
10225SOL    HW231575   2.194   6.058   6.150
10226SOL     OW31576   2.523   0.695   6.527
10226SOL    HW131577   2.508   0.659   6.435
10226SOL    HW231578   2.577   0.779   6.522
10227SOL     OW31579   5.247   4.556   0.607
10227SOL    HW131580   5.200   4.506   0.534
10227SOL    HW231581   5.341   4.523   0.615
10228SOL     OW31582   0.985   5.907   2.118
10228SOL    HW131583   0.948   5.960   2.042
10228SOL    HW231584   0.993   5.811   2.091
10229SOL     OW31585   1.233   1.776   4.274
10229SOL    HW131586   1.230   1.792   4.373
10229SOL    HW231587   1.243   1.863   4.227
10230SOL     OW31588   6.387   6.321   2.701
10230SOL    HW131589   6.301   6.371   2.687
10230SOL    HW231590   6.394   6.248   2.634
10231SOL     OW31591   6.248   5.621   4.937
10231SOL    HW131592   6.321   5.560   4.906
10231SOL    HW231593   6.248   5.704   4.881
10232SOL     OW31594   2.896   0.788   4.648
10232SOL    HW131595   2.903   0.886   4.663
10232SOL    HW231596   2.866   0.743   4.732
10233SOL     OW31597   4.907   3.627   5.307
10233SOL    HW131598   4.861   3.633   5.218
10233SOL    HW231599   4.851   3.572   5.370
10234SOL     OW31600   5.557   0.305   0.277
10234SOL    HW131601   5.552   0.205   0.284
10234SOL    HW231602   5.608   0.341   0.356
10235SOL     OW31603   4.109   3.047   0.196
10235SOL    HW131604   4.071   3.107   0.266
10235SOL    HW231605   4.036   3.015   0.135
10236SOL     OW31606   1.959   0.282   1.946
10236SOL    HW131607   1.916   0.239   1.866
10236SOL    HW231608   1.955   0.218   2.023
10237SOL     OW31609   6.751   4.047   0.279
10237SOL    HW131610   6.801   4.077   0.198
10237SOL    HW231611   6.816   4.037   0.355
10238SOL     OW31612   3.320   3.899   3.403
10238SOL    HW131613   3.306   3.832   3.476
10238SOL    HW231614   3.312   3.991   3.442
10239SOL     OW31615   1.860   3.847   5.745
10239SOL    HW131616   1.890   3.912   5.675
10239SOL    HW231617   1.910   3.865   5.830
10240SOL     OW31618   1.486   4.535   3.401
10240SOL    HW131619   1.464   4.507   3.308
10240SOL    HW231620   1.519   4.457   3.453
10241SOL     OW31621   6.656   0.387   2.314
10241SOL    HW131622   6.713   0.339   2.248
10241SOL    HW231623   6.705   0.465   2.350
10242SOL     OW31624   6.680   1.268   0.081
10242SOL    HW131625   6.619   1.189   0.091
10242SOL    HW231626   6.630   1.343   0.038
10243SOL     OW31627   1.192   4.913   1.736
10243SOL    HW131628   1.172   4.939   1.831
10243SOL    HW231629   1.131   4.838   1.709
10244SOL     OW31630   1.164   4.177   0.294
10244SOL    HW131631   1.249   4.186   0.243
10244SOL    HW231632   1.183   4.143   0.386
10245SOL     OW31633   2.997   4.610   6.928
10245SOL    HW131634   3.085   4.658   6.928
10245SOL    HW231635   2.999   4.537   6.996
10246SOL     OW31636   3.399   4.163   3.812
10246SOL    HW131637   3.370   4.072   3.842
10246SOL    HW231638   3.454   4.206   3.884
10247SOL     OW31639   6.870   5.111   5.856
10247SOL    HW131640   6.807   5.052   5.906
10247SOL    HW231641   6.867   5.203   5.894
10248SOL     OW31642   3.240   6.988   2.423
10248SOL    HW131643   3.149   7.006   2.461
10248SOL    HW231644   3.294   0.054   2.427
10249SOL     OW31645   3.563   0.509   5.869
10249SOL    HW131646   3.611   0.550   5.946
10249SOL    HW231647   3.466   0.535   5.873
10250SOL     OW31648   0.206   2.595   0.906
10250SOL    HW131649   0.296   2.589   0.864
10250SOL    HW231650   0.200   2.679   0.960
10251SOL     OW31651   2.933   1.705   5.185
10251SOL    HW131652   2.859   1.772   5.184
10251SOL    HW231653   2.894   1.613   5.178
10252SOL     OW31654   4.698   4.979   0.237
10252SOL    HW131655   4.775   5.034   0.267
10252SOL    HW231656   4.613   5.027   0.256
10253SOL     OW31657   3.070   5.932   0.045
10253SOL    HW131658   3.093   5.940   6.966
10253SOL    HW231659   3.092   6.017   0.092
10254SOL     OW31660   4.667   1.543   4.821
10254SOL    HW131661   4.617   1.488   4.888
10254SOL    HW231662   4.652   1.506   4.729
10255SOL     OW31663   2.115   6.983   1.189
10255SOL    HW131664   2.171   6.917   1.238
10255SOL    HW231665   2.064   0.021   1.254
10256SOL     OW31666   5.948   1.335   1.780
10256SOL    HW131667   5.982   1.362   1.690
10256SOL    HW231668   6.025   1.321   1.842
10257SOL     OW31669   1.643   5.298   4.902
10257SOL    HW131670   1.716   5.365   4.919
10257SOL    HW231671   1.569   5.312   4.968
10258SOL     OW31672   3.558   0.794   4.493
10258SOL    HW131673   3.647   0.772   4.534
10258SOL    HW231674   3.566   0.796   4.393
10259SOL     OW31675   0.289   4.319   3.309
10259SOL    HW131676   0.384   4.299   3.285
10259SOL    HW231677   0.260   4.401   3.261
10260SOL     OW31678   0.380   0.758   3.248
10260SOL    HW131679   0.364   0.730   3.343
10260SOL    HW231680   0.401   0.855   3.245
10261SOL     OW31681   7.008   5.745   3.088
10261SOL    HW131682   0.043   5.735   3.004
10261SOL    HW231683   6.922   5.695   3.081
10262SOL     OW31684   1.839   0.006   4.256
10262SOL    HW131685   1.762   0.040   4.311
10262SOL    HW231686   1.868   6.935   4.290
10263SOL     OW31687   5.269   0.742   6.378
10263SOL    HW131688   5.262   0.778   6.284
10263SOL    HW231689   5.231   0.809   6.442
10264SOL     OW31690   6.108   2.267   5.771
10264SOL    HW131691   6.083   2.182   5.817
10264SOL    HW231692   6.025   2.318   5.749
10265SOL     OW31693   2.697   2.216   3.182
10265SOL    HW131694   2.742   2.240   3.268
10265SOL    HW231695   2.692   2.298   3.124
10266SOL     OW31696   3.205   3.005   4.794
10266SOL    HW131697   3.253   3.088   4.822
10266SOL    HW231698   3.132   2.984   4.859
10267SOL     OW31699   6.590   1.688   0.216
10267SOL    HW131700   6.575   1.638   0.302
10267SOL    HW231701   6.528   1.654   0.146
10268SOL     OW31702   5.604   5.004   2.210
10268SOL    HW131703   5.546   4.942   2.263
10268SOL    HW231704   5.699   4.975   2.215
10269SOL     OW31705   0.276   2.933   5.941
10269SOL    HW131706   0.345   2.967   6.005
10269SOL    HW231707   0.273   2.992   5.861
10270SOL     OW31708   3.066   4.792   3.096
10270SOL    HW131709   3.056   4.835   3.185
10270SOL    HW231710   3.034   4.697   3.100
10271SOL     OW31711   3.387   2.305   0.013
10271SOL    HW131712   3.397   2.320   6.932
10271SOL    HW231713   3.474   2.273   0.051
10272SOL     OW31714   0.849   0.421   5.135
10272SOL    HW131715   0.808   0.457   5.219
10272SOL    HW231716   0.923   0.358   5.158
10273SOL     OW31717   3.771   5.711   2.812
10273SOL    HW131718   3.798   5.807   2.800
10273SOL    HW231719   3.850   5.652   2.796
10274SOL     OW31720   6.811   5.016   4.230
10274SOL    HW131721   6.849   5.010   4.138
10274SOL    HW231722   6.809   4.925   4.271
10275SOL     OW31723   0.957   6.974   1.743
10275SOL    HW131724   0.982   0.032   1.804
10275SOL    HW231725   0.965   6.888   1.793
10276SOL     OW31726   5.716   5.155   5.296
10276SOL    HW131727   5.676   5.211   5.368
10276SOL    HW231728   5.695   5.059   5.312
10277SOL     OW31729   2.136   5.638   4.465
10277SOL    HW131730   2.096   5.658   4.555
10277SOL    HW231731   2.112   5.545   4.438
10278SOL     OW31732   6.723   0.602   4.892
10278SOL    HW131733   6.698   0.695   4.917
10278SOL    HW231734   6.813   0.602   4.848
10279SOL     OW31735   2.711   5.431   4.336
10279SOL    HW131736   2.613   5.428   4.350
10279SOL    HW231737   2.746   5.522   4.360
10280SOL     OW31738   1.113   4.421   1.376
10280SOL    HW131739   1.014   4.427   1.364
10280SOL    HW231740   1.145   4.329   1.356
10281SOL     OW31741   6.003   1.128   2.782
10281SOL    HW131742   6.039   1.221   2.780
10281SOL    HW231743   6.079   1.063   2.779
10282SOL     OW31744   5.828   4.176   3.917
10282SOL    HW131745   5.824   4.228   4.002
10282SOL    HW231746   5.814   4.079   3.936
10283SOL     OW31747   0.832   3.495   1.169
10283SOL    HW131748   0.916   3.517   1.119
10283SOL    HW231749   0.777   3.578   1.180
10284SOL     OW31750   5.147   2.923   5.247
10284SOL    HW131751   5.111   2.962   5.162
10284SOL    HW231752   5.215   2.984   5.287
10285SOL     OW31753   5.338   0.911   1.147
10285SOL    HW131754   5.422   0.898   1.198
10285SOL    HW231755   5.260   0.913   1.210
10286SOL     OW31756   3.226   1.562   3.732
10286SOL    HW131757   3.181   1.603   3.811
10286SOL    HW231758   3.319   1.535   3.756
10287SOL     OW31759   2.339   6.205   0.946
10287SOL    HW131760   2.316   6.278   0.881
10287SOL    HW231761   2.372   6.125   0.896
10288SOL     OW31762   5.231   5.823   2.764
10288SOL    HW131763   5.328   5.848   2.752
10288SOL    HW231764   5.174   5.895   2.726
10289SOL     OW31765   3.276   0.789   2.096
10289SOL    HW131766   3.359   0.743   2.129
10289SOL    HW231767   3.301   0.862   2.033
10290SOL     OW31768   2.906   3.290   1.502
10290SOL    HW131769   2.838   3.271   1.573
10290SOL    HW231770   2.995   3.256   1.531
10291SOL     OW31771   3.472   1.204   3.431
10291SOL    HW131772   3.473   1.303   3.420
10291SOL    HW231773   3.444   1.181   3.524
10292SOL     OW31774   1.794   0.410   5.049
10292SOL    HW131775   1.810   0.508   5.033
10292SOL    HW231776   1.697   0.389   5.036
10293SOL     OW31777   1.611   5.069   3.358
10293SOL    HW131778   1.656   5.056   3.270
10293SOL    HW231779   1.615   5.165   3.383
10294SOL     OW31780   5.850   3.290   2.675
10294SOL    HW131781   5.766   3.311   2.724
10294SOL    HW231782   5.830   3.279   2.578
10295SOL     OW31783   5.633   5.046   6.145
10295SOL    HW131784   5.565   5.006   6.206
10295SOL    HW231785   5.722   5.004   6.163
10296SOL     OW31786   4.573   2.876   0.342
10296SOL    HW131787   4.591   2.953   0.403
10296SOL    HW231788   4.492   2.896   0.287
10297SOL     OW31789   2.173   6.775   6.534
10297SOL    HW131790   2.262   6.737   6.511
10297SOL    HW231791   2.176   6.875   6.524
10298SOL     OW31792   3.632   5.060   1.919
10298SOL    HW131793   3.582   4.975   1.938
10298SOL    HW231794   3.650   5.108   2.004
10299SOL     OW31795   4.762   5.469   2.497
10299SOL    HW131796   4.718   5.559   2.501
10299SOL    HW231797   4.844   5.470   2.555
10300SOL     OW31798   1.284   4.632   3.561
10300SOL    HW131799   1.361   4.598   3.506
10300SOL    HW231800   1.200   4.629   3.507
10301SOL     OW31801   5.839   2.268   4.276
10301SOL    HW131802   5.921   2.302   4.229
10301SOL    HW231803   5.764   2.258   4.211
10302SOL     OW31804   0.828   5.923   3.652
10302SOL    HW131805   0.851   5.987   3.726
10302SOL    HW231806   0.756   5.962   3.595
10303SOL     OW31807   1.841   5.813   2.492
10303SOL    HW131808   1.780   5.814   2.414
10303SOL    HW231809   1.931   5.846   2.465
10304SOL     OW31810   5.135   0.397   2.362
10304SOL    HW131811   5.102   0.343   2.440
10304SOL    HW231812   5.068   0.469   2.342
10305SOL     OW31813   0.662   4.674   6.630
10305SOL    HW131814   0.610   4.637   6.553
10305SOL    HW231815   0.729   4.606   6.660
10306SOL     OW31816   4.262   6.585   0.153
10306SOL    HW131817   4.178   6.534   0.172
10306SOL    HW231818   4.241   6.683   0.150
10307SOL     OW31819   2.300   2.060   4.366
10307SOL    HW131820   2.231   2.033   4.299
10307SOL    HW231821   2.389   2.067   4.321
10308SOL     OW31822   2.225   4.799   4.581
10308SOL    HW131823   2.184   4.817   4.671
10308SOL    HW231824   2.297   4.731   4.591
10309SOL     OW31825   5.897   1.137   4.417
10309SOL    HW131826   5.843   1.177   4.491
10309SOL    HW231827   5.936   1.051   4.448
10310SOL     OW31828   3.639   3.125   1.813
10310SOL    HW131829   3.652   3.034   1.854
10310SOL    HW231830   3.659   3.195   1.881
10311SOL     OW31831   0.950   6.017   1.225
10311SOL    HW131832   0.947   6.102   1.279
10311SOL    HW231833   0.989   5.944   1.280
10312SOL     OW31834   2.643   6.252   1.629
10312SOL    HW131835   2.586   6.185   1.580
10312SOL    HW231836   2.725   6.270   1.576
10313SOL     OW31837   4.225   0.146   1.260
10313SOL    HW131838   4.151   0.182   1.318
10313SOL    HW231839   4.203   0.162   1.164
10314SOL     OW31840   6.851   0.246   2.209
10314SOL    HW131841   6.947   0.264   2.232
10314SOL    HW231842   6.846   0.165   2.151
10315SOL     OW31843   6.116   5.742   3.993
10315SOL    HW131844   6.167   5.715   3.912
10315SOL    HW231845   6.152   5.694   4.073
10316SOL     OW31846   6.595   2.484   4.874
10316SOL    HW131847   6.687   2.464   4.841
10316SOL    HW231848   6.566   2.412   4.938
10317SOL     OW31849   3.750   6.298   5.627
10317SOL    HW131850   3.779   6.382   5.672
10317SOL    HW231851   3.660   6.311   5.586
10318SOL     OW31852   5.176   6.088   6.562
10318SOL    HW131853   5.173   6.130   6.471
10318SOL    HW231854   5.083   6.068   6.592
10319SOL     OW31855   2.012   2.443   5.613
10319SOL    HW131856   2.011   2.463   5.515
10319SOL    HW231857   1.919   2.419   5.643
10320SOL     OW31858   1.041   0.469   2.400
10320SOL    HW131859   1.084   0.384   2.372
10320SOL    HW231860   0.969   0.493   2.334
10321SOL     OW31861   4.502   0.728   3.090
10321SOL    HW131862   4.506   0.730   3.190
10321SOL    HW231863   4.467   0.639   3.060
10322SOL     OW31864   6.623   5.808   6.424
10322SOL    HW131865   6.573   5.895   6.429
10322SOL    HW231866   6.608   5.767   6.334
10323SOL     OW31867   6.290   3.285   6.199
10323SOL    HW131868   6.222   3.226   6.155
10323SOL    HW231869   6.259   3.380   6.196
10324SOL     OW31870   3.057   3.190   3.247
10324SOL    HW131871   3.050   3.121   3.175
10324SOL    HW231872   3.077   3.279   3.205
10325SOL     OW31873   0.078   3.645   3.145
10325SOL    HW131874   0.122   3.682   3.064
10325SOL    HW231875   6.999   3.627   3.126
10326SOL     OW31876   3.857   3.820   0.271
10326SOL    HW131877   3.910   3.895   0.232
10326SOL    HW231878   3.896   3.732   0.242
10327SOL     OW31879   2.521   1.820   1.872
10327SOL    HW131880   2.500   1.906   1.827
10327SOL    HW231881   2.618   1.819   1.900
10328SOL     OW31882   6.081   3.042   0.847
10328SOL    HW131883   6.080   2.987   0.930
10328SOL    HW231884   6.027   3.125   0.861
10329SOL     OW31885   3.660   0.584   3.839
10329SOL    HW131886   3.757   0.562   3.829
10329SOL    HW231887   3.651   0.676   3.876
10330SOL     OW31888   4.059   5.806   1.680
10330SOL    HW131889   4.080   5.835   1.587
10330SOL    HW231890   3.998   5.726   1.677
10331SOL     OW31891   6.572   0.665   4.111
10331SOL    HW131892   6.611   0.620   4.191
10331SOL    HW231893   6.580   0.604   4.032
10332SOL     OW31894   5.958   1.457   0.430
10332SOL    HW131895   5.869   1.413   0.435
10332SOL    HW231896   6.018   1.405   0.368
10333SOL     OW31897   6.799   4.771   4.318
10333SOL    HW131898   6.858   4.719   4.257
10333SOL    HW231899   6.731   4.710   4.360
10334SOL     OW31900   2.446   5.774   4.158
10334SOL    HW131901   2.491   5.701   4.209
10334SOL    HW231902   2.347   5.769   4.175
10335SOL     OW31903   2.736   4.971   6.774
10335SOL    HW131904   2.824   4.979   6.726
10335SOL    HW231905   2.678   4.904   6.728
10336SOL     OW31906   5.703   0.229   2.870
10336SOL    HW131907   5.747   0.155   2.920
10336SOL    HW231908   5.766   0.306   2.860
10337SOL     OW31909   6.555   6.587   5.866
10337SOL    HW131910   6.652   6.609   5.851
10337SOL    HW231911   6.549   6.495   5.907
10338SOL     OW31912   2.693   6.119   2.398
10338SOL    HW131913   2.610   6.079   2.359
10338SOL    HW231914   2.753   6.150   2.324
10339SOL     OW31915   2.469   5.671   0.100
10339SOL    HW131916   2.561   5.675   0.138
10339SOL    HW231917   2.462   5.594   0.036
10340SOL     OW31918   1.340   5.170   0.723
10340SOL    HW131919   1.253   5.202   0.685
10340SOL    HW231920   1.408   5.243   0.717
10341SOL     OW31921   1.980   3.658   1.864
10341SOL    HW131922   2.043   3.657   1.942
10341SOL    HW231923   2.025   3.616   1.785
10342SOL     OW31924   1.549   5.913   5.756
10342SOL    HW131925   1.580   5.898   5.850
10342SOL    HW231926   1.456   5.880   5.745
10343SOL     OW31927   2.345   4.120   0.705
10343SOL    HW131928   2.395   4.109   0.618
10343SOL    HW231929   2.281   4.196   0.697
10344SOL     OW31930   4.197   3.383   1.816
10344SOL    HW131931   4.247   3.396   1.902
10344SOL    HW231932   4.188   3.471   1.769
10345SOL     OW31933   1.461   0.671   5.886
10345SOL    HW131934   1.389   0.605   5.865
10345SOL    HW231935   1.513   0.691   5.803
10346SOL     OW31936   5.939   1.009   1.319
10346SOL    HW131937   5.862   0.992   1.258
10346SOL    HW231938   5.997   0.928   1.325
10347SOL     OW31939   5.114   2.589   2.524
10347SOL    HW131940   5.149   2.589   2.617
10347SOL    HW231941   5.014   2.598   2.526
10348SOL     OW31942   6.290   1.910   6.919
10348SOL    HW131943   6.284   2.003   6.957
10348SOL    HW231944   6.231   1.849   6.971
10349SOL     OW31945   6.500   1.054   0.089
10349SOL    HW131946   6.557   0.975   0.116
10349SOL    HW231947   6.473   1.045   7.011
10350SOL     OW31948   2.260   6.341   5.504
10350SOL    HW131949   2.257   6.440   5.494
10350SOL    HW231950   2.267   6.299   5.414
10351SOL     OW31951   5.497   5.429   6.205
10351SOL    HW131952   5.430   5.358   6.182
10351SOL    HW231953   5.579   5.386   6.241
10352SOL     OW31954   5.615   1.639   6.608
10352SOL    HW131955   5.606   1.682   6.519
10352SOL    HW231956   5.557   1.687   6.675
10353SOL     OW31957   6.235   2.501   4.458
10353SOL    HW131958   6.143   2.483   4.493
10353SOL    HW231959   6.245   2.463   4.366
10354SOL     OW31960   0.100   2.151   1.642
10354SOL    HW131961   0.123   2.123   1.549
10354SOL    HW231962   0.185   2.166   1.694
10355SOL     OW31963   1.666   0.751   0.741
10355SOL    HW131964   1.596   0.816   0.770
10355SOL    HW231965   1.750   0.768   0.792
10356SOL     OW31966   7.007   3.365   5.450
10356SOL    HW131967   0.047   3.344   5.529
10356SOL    HW231968   6.940   3.291   5.437
10357SOL     OW31969   3.432   2.725   6.041
10357SOL    HW131970   3.407   2.791   5.971
10357SOL    HW231971   3.474   2.645   5.997
10358SOL     OW31972   0.589   2.901   3.863
10358SOL    HW131973   0.547   2.854   3.940
10358SOL    HW231974   0.560   2.857   3.778
10359SOL     OW31975   5.223   1.355   1.849
10359SOL    HW131976   5.316   1.362   1.813
10359SOL    HW231977   5.159   1.394   1.783
10360SOL     OW31978   4.891   5.468   1.883
10360SOL    HW131979   4.908   5.420   1.797
10360SOL    HW231980   4.807   5.521   1.876
10361SOL     OW31981   2.586   1.425   2.651
10361SOL    HW131982   2.499   1.397   2.690
10361SOL    HW231983   2.623   1.351   2.595
10362SOL     OW31984   0.572   5.061   2.741
10362SOL    HW131985   0.653   5.092   2.790
10362SOL    HW231986   0.523   4.994   2.796
10363SOL     OW31987   5.253   3.208   1.595
10363SOL    HW131988   5.230   3.111   1.582
10363SOL    HW231989   5.170   3.262   1.599
10364SOL     OW31990   4.334   4.227   1.440
10364SOL    HW131991   4.388   4.263   1.364
10364SOL    HW231992   4.264   4.164   1.406
10365SOL     OW31993   5.394   4.387   6.619
10365SOL    HW131994   5.410   4.351   6.711
10365SOL    HW231995   5.423   4.482   6.614
10366SOL     OW31996   3.195   6.832   3.612
10366SOL    HW131997   3.268   6.890   3.576
10366SOL    HW231998   3.202   6.740   3.572
10367SOL     OW31999   0.101   1.529   1.752
10367SOL    HW132000   0.020   1.567   1.707
10367SOL    HW232001   0.118   1.437   1.718
10368SOL     OW32002   1.995   1.255   2.410
10368SOL    HW132003   1.908   1.257   2.361
10368SOL    HW232004   1.988   1.312   2.492
10369SOL     OW32005   3.391   6.819   5.845
10369SOL    HW132006   3.390   6.744   5.911
10369SOL    HW232007   3.486   6.841   5.822
10370SOL     OW32008   0.103   0.680   5.325
10370SOL    HW132009   0.021   0.737   5.319
10370SOL    HW232010   0.100   0.610   5.254
10371SOL     OW32011   1.952   6.647   4.566
10371SOL    HW132012   1.991   6.555   4.572
10371SOL    HW232013   1.899   6.666   4.649
10372SOL     OW32014   2.164   1.250   6.994
10372SOL    HW132015   2.260   1.225   7.003
10372SOL    HW232016   2.121   1.192   6.925
10373SOL     OW32017   1.334   6.261   4.904
10373SOL    HW132018   1.330   6.272   5.003
10373SOL    HW232019   1.250   6.298   4.863
10374SOL     OW32020   3.116   0.818   3.842
10374SOL    HW132021   3.182   0.749   3.872
10374SOL    HW232022   3.123   0.899   3.900
10375SOL     OW32023   2.387   2.350   6.056
10375SOL    HW132024   2.413   2.379   5.963
10375SOL    HW232025   2.452   2.387   6.122
10376SOL     OW32026   1.065   6.109   3.507
10376SOL    HW132027   1.160   6.141   3.504
10376SOL    HW232028   1.060   6.027   3.564
10377SOL     OW32029   0.220   0.582   2.231
10377SOL    HW132030   0.223   0.617   2.325
10377SOL    HW232031   0.192   0.655   2.169
10378SOL     OW32032   5.837   5.725   5.525
10378SOL    HW132033   5.874   5.679   5.606
10378SOL    HW232034   5.739   5.708   5.517
10379SOL     OW32035   2.733   6.051   4.080
10379SOL    HW132036   2.827   6.086   4.082
10379SOL    HW232037   2.671   6.120   4.117
10380SOL     OW32038   0.872   2.594   4.707
10380SOL    HW132039   0.911   2.685   4.714
10380SOL    HW232040   0.929   2.529   4.758
10381SOL     OW32041   4.353   4.056   1.143
10381SOL    HW132042   4.288   4.032   1.215
10381SOL    HW232043   4.334   4.000   1.062
10382SOL     OW32044   2.425   5.211   1.845
10382SOL    HW132045   2.449   5.180   1.937
10382SOL    HW232046   2.325   5.223   1.840
10383SOL     OW32047   1.122   3.965   0.757
10383SOL    HW132048   1.133   3.953   0.856
10383SOL    HW232049   1.173   4.046   0.728
10384SOL     OW32050   6.576   0.197   0.895
10384SOL    HW132051   6.544   0.225   0.985
10384SOL    HW232052   6.503   0.151   0.846
10385SOL     OW32053   4.156   6.060   6.153
10385SOL    HW132054   4.187   6.145   6.198
10385SOL    HW232055   4.061   6.043   6.177
10386SOL     OW32056   6.930   1.057   5.741
10386SOL    HW132057   6.901   1.113   5.663
10386SOL    HW232058   6.972   0.973   5.707
10387SOL     OW32059   4.536   1.906   2.676
10387SOL    HW132060   4.596   1.890   2.598
10387SOL    HW232061   4.492   1.820   2.703
10388SOL     OW32062   2.213   5.601   2.028
10388SOL    HW132063   2.232   5.673   1.961
10388SOL    HW232064   2.134   5.627   2.083
10389SOL     OW32065   6.098   5.272   0.448
10389SOL    HW132066   6.173   5.232   0.500
10389SOL    HW232067   6.023   5.207   0.442
10390SOL     OW32068   1.768   3.658   0.892
10390SOL    HW132069   1.675   3.626   0.873
10390SOL    HW232070   1.775   3.688   0.987
10391SOL     OW32071   0.500   6.107   3.031
10391SOL    HW132072   0.429   6.122   2.962
10391SOL    HW232073   0.586   6.146   2.998
10392SOL     OW32074   6.793   4.925   5.356
10392SOL    HW132075   6.859   5.000   5.354
10392SOL    HW232076   6.703   4.961   5.381
10393SOL     OW32077   2.673   2.402   3.736
10393SOL    HW132078   2.628   2.386   3.648
10393SOL    HW232079   2.759   2.350   3.739
10394SOL     OW32080   2.539   5.326   5.190
10394SOL    HW132081   2.497   5.239   5.166
10394SOL    HW232082   2.503   5.398   5.130
10395SOL     OW32083   0.648   0.613   1.895
10395SOL    HW132084   0.572   0.671   1.924
10395SOL    HW232085   0.633   0.583   1.801
10396SOL     OW32086   3.841   1.088   3.390
10396SOL    HW132087   3.756   1.091   3.338
10396SOL    HW232088   3.849   1.171   3.446
10397SOL     OW32089   3.006   1.323   4.560
10397SOL    HW132090   3.020   1.374   4.475
10397SOL    HW232091   3.078   1.347   4.625
10398SOL     OW32092   5.607   2.154   0.467
10398SOL    HW132093   5.540   2.122   0.399
10398SOL    HW232094   5.655   2.075   0.506
10399SOL     OW32095   4.796   2.140   3.748
10399SOL    HW132096   4.893   2.124   3.764
10399SOL    HW232097   4.785   2.213   3.681
10400SOL     OW32098   4.205   5.947   0.154
10400SOL    HW132099   4.161   5.967   0.067
10400SOL    HW232100   4.137   5.942   0.226
10401SOL     OW32101   0.547   6.809   1.945
10401SOL    HW132102   0.559   6.873   2.021
10401SOL    HW232103   0.636   6.790   1.903
10402SOL     OW32104   0.303   1.567   5.480
10402SOL    HW132105   0.249   1.484   5.490
10402SOL    HW232106   0.259   1.629   5.415
10403SOL     OW32107   4.119   1.950   3.018
10403SOL    HW132108   4.121   1.910   2.926
10403SOL    HW232109   4.150   2.045   3.013
10404SOL     OW32110   6.684   6.307   4.499
10404SOL    HW132111   6.777   6.331   4.471
10404SOL    HW232112   6.658   6.220   4.457
10405SOL     OW32113   0.948   5.907   4.888
10405SOL    HW132114   0.851   5.884   4.892
10405SOL    HW232115   0.963   5.976   4.818
10406SOL     OW32116   2.169   3.160   5.113
10406SOL    HW132117   2.236   3.093   5.081
10406SOL    HW232118   2.146   3.141   5.209
10407SOL     OW32119   3.003   6.948   6.495
10407SOL    HW132120   2.939   7.012   6.540
10407SOL    HW232121   3.091   6.994   6.482
10408SOL     OW32122   4.575   0.101   1.481
10408SOL    HW132123   4.557   0.076   1.385
10408SOL    HW232124   4.673   0.116   1.494
10409SOL     OW32125   0.031   4.404   0.792
10409SOL    HW132126   0.122   4.445   0.786
10409SOL    HW232127   7.001   4.441   0.871
10410SOL     OW32128   5.064   2.634   1.909
10410SOL    HW132129   5.138   2.674   1.855
10410SOL    HW232130   5.029   2.703   1.973
10411SOL     OW32131   3.186   6.240   3.754
10411SOL    HW132132   3.110   6.284   3.803
10411SOL    HW232133   3.182   6.141   3.769
10412SOL     OW32134   0.521   1.158   0.813
10412SOL    HW132135   0.558   1.181   0.723
10412SOL    HW232136   0.422   1.145   0.806
10413SOL     OW32137   6.311   2.876   1.988
10413SOL    HW132138   6.408   2.871   2.011
10413SOL    HW232139   6.302   2.894   1.890
10414SOL     OW32140   3.279   4.481   6.244
10414SOL    HW132141   3.276   4.442   6.336
10414SOL    HW232142   3.374   4.490   6.215
10415SOL     OW32143   1.871   4.584   4.338
10415SOL    HW132144   1.882   4.579   4.239
10415SOL    HW232145   1.779   4.618   4.359
10416SOL     OW32146   5.562   6.883   5.313
10416SOL    HW132147   5.605   6.836   5.390
10416SOL    HW232148   5.477   6.836   5.289
10417SOL     OW32149   4.126   4.719   3.719
10417SOL    HW132150   4.036   4.678   3.738
10417SOL    HW232151   4.183   4.710   3.801
10418SOL     OW32152   6.555   4.501   5.651
10418SOL    HW132153   6.578   4.522   5.556
10418SOL    HW232154   6.614   4.429   5.686
10419SOL     OW32155   3.260   6.667   6.044
10419SOL    HW132156   3.296   6.587   6.091
10419SOL    HW232157   3.258   6.650   5.945
10420SOL     OW32158   0.418   3.616   4.240
10420SOL    HW132159   0.476   3.675   4.184
10420SOL    HW232160   0.395   3.533   4.189
10421SOL     OW32161   0.998   3.790   4.023
10421SOL    HW132162   1.065   3.719   4.001
10421SOL    HW232163   1.020   3.829   4.113
10422SOL     OW32164   6.419   3.407   5.666
10422SOL    HW132165   6.352   3.446   5.729
10422SOL    HW232166   6.373   3.342   5.604
10423SOL     OW32167   5.813   4.982   5.649
10423SOL    HW132168   5.869   5.052   5.693
10423SOL    HW232169   5.857   4.954   5.564
10424SOL     OW32170   3.562   3.147   1.032
10424SOL    HW132171   3.616   3.081   0.980
10424SOL    HW232172   3.549   3.230   0.978
10425SOL     OW32173   1.187   6.365   2.554
10425SOL    HW132174   1.195   6.460   2.582
10425SOL    HW232175   1.090   6.342   2.541
10426SOL     OW32176   5.244   4.901   0.031
10426SOL    HW132177   5.235   4.893   6.949
10426SOL    HW232178   5.167   4.855   0.075
10427SOL     OW32179   4.309   1.275   0.609
10427SOL    HW132180   4.277   1.272   0.704
10427SOL    HW232181   4.251   1.215   0.553
10428SOL     OW32182   2.911   1.249   4.168
10428SOL    HW132183   2.886   1.336   4.211
10428SOL    HW232184   2.984   1.206   4.221
10429SOL     OW32185   6.974   4.124   2.387
10429SOL    HW132186   6.961   4.102   2.484
10429SOL    HW232187   6.960   4.222   2.373
10430SOL     OW32188   4.346   6.933   5.355
10430SOL    HW132189   4.305   6.918   5.266
10430SOL    HW232190   4.349   6.847   5.406
10431SOL     OW32191   2.119   6.211   4.185
10431SOL    HW132192   2.177   6.219   4.103
10431SOL    HW232193   2.154   6.138   4.243
10432SOL     OW32194   6.198   0.019   4.624
10432SOL    HW132195   6.123   6.971   4.612
10432SOL    HW232196   6.277   6.991   4.664
10433SOL     OW32197   0.815   5.981   2.795
10433SOL    HW132198   0.737   5.918   2.794
10433SOL    HW232199   0.782   6.075   2.804
10434SOL     OW32200   4.090   6.290   2.657
10434SOL    HW132201   4.110   6.197   2.626
10434SOL    HW232202   4.094   6.352   2.578
10435SOL     OW32203   1.124   1.786   5.468
10435SOL    HW132204   1.033   1.826   5.478
10435SOL    HW232205   1.149   1.784   5.371
10436SOL     OW32206   5.898   4.869   5.390
10436SOL    HW132207   5.992   4.882   5.360
10436SOL    HW232208   5.883   4.772   5.413
10437SOL     OW32209   4.773   4.500   5.909
10437SOL    HW132210   4.839   4.432   5.942
10437SOL    HW232211   4.695   4.505   5.972
10438SOL     OW32212   0.235   6.041   6.753
10438SOL    HW132213   0.205   5.946   6.763
10438SOL    HW232214   0.331   6.049   6.778
10439SOL     OW32215   4.175   1.260   4.948
10439SOL    HW132216   4.100   1.269   5.013
10439SOL    HW232217   4.138   1.251   4.856
10440SOL     OW32218   0.352   6.788   0.827
10440SOL    HW132219   0.431   6.756   0.776
10440SOL    HW232220   0.307   6.862   0.776
10441SOL     OW32221   3.832   1.555   1.872
10441SOL    HW132222   3.813   1.593   1.782
10441SOL    HW232223   3.796   1.462   1.877
10442SOL     OW32224   4.315   6.676   6.566
10442SOL    HW132225   4.275   6.755   6.612
10442SOL    HW232226   4.251   6.642   6.497
10443SOL     OW32227   4.911   3.310   3.737
10443SOL    HW132228   4.999   3.307   3.784
10443SOL    HW232229   4.845   3.359   3.794
10444SOL     OW32230   4.162   5.851   3.215
10444SOL    HW132231   4.180   5.755   3.237
10444SOL    HW232232   4.173   5.865   3.117
10445SOL     OW32233   0.463   4.570   4.126
10445SOL    HW132234   0.492   4.485   4.082
10445SOL    HW232235   0.474   4.562   4.225
10446SOL     OW32236   2.034   3.392   6.668
10446SOL    HW132237   1.962   3.323   6.665
10446SOL    HW232238   2.110   3.358   6.724
10447SOL     OW32239   0.425   0.825   2.942
10447SOL    HW132240   0.364   0.751   2.915
10447SOL    HW232241   0.377   0.885   3.006
10448SOL     OW32242   4.805   0.617   2.685
10448SOL    HW132243   4.866   0.538   2.692
10448SOL    HW232244   4.801   0.664   2.773
10449SOL     OW32245   1.502   4.949   6.070
10449SOL    HW132246   1.584   4.948   6.014
10449SOL    HW232247   1.489   4.858   6.112
10450SOL     OW32248   0.133   1.191   0.376
10450SOL    HW132249   0.204   1.224   0.438
10450SOL    HW232250   0.156   1.100   0.343
10451SOL     OW32251   2.098   5.671   2.762
10451SOL    HW132252   2.106   5.642   2.666
10451SOL    HW232253   2.186   5.706   2.794
10452SOL     OW32254   6.278   3.166   2.063
10452SOL    HW132255   6.299   3.211   1.976
10452SOL    HW232256   6.318   3.075   2.064
10453SOL     OW32257   5.259   6.901   1.154
10453SOL    HW132258   5.251   6.895   1.254
10453SOL    HW232259   5.168   6.912   1.114
10454SOL     OW32260   4.858   3.249   0.362
10454SOL    HW132261   4.815   3.163   0.337
10454SOL    HW232262   4.956   3.245   0.342
10455SOL     OW32263   6.727   6.639   3.439
10455SOL    HW132264   6.627   6.633   3.444
10455SOL    HW232265   6.766   6.549   3.457
10456SOL     OW32266   1.644   5.581   0.467
10456SOL    HW132267   1.654   5.594   0.368
10456SOL    HW232268   1.731   5.601   0.512
10457SOL     OW32269   3.553   2.806   0.995
10457SOL    HW132270   3.465   2.785   0.954
10457SOL    HW232271   3.599   2.876   0.941
10458SOL     OW32272   6.273   0.432   6.419
10458SOL    HW132273   6.279   0.454   6.321
10458SOL    HW232274   6.338   0.359   6.440
10459SOL     OW32275   4.302   6.218   1.792
10459SOL    HW132276   4.339   6.142   1.845
10459SOL    HW232277   4.318   6.203   1.695
10460SOL     OW32278   0.551   3.966   1.824
10460SOL    HW132279   0.478   3.904   1.852
10460SOL    HW232280   0.559   3.966   1.725
10461SOL     OW32281   6.021   5.444   4.914
10461SOL    HW132282   6.109   5.488   4.931
10461SOL    HW232283   5.978   5.485   4.834
10462SOL     OW32284   5.178   1.498   3.373
10462SOL    HW132285   5.157   1.499   3.275
10462SOL    HW232286   5.212   1.588   3.400
10463SOL     OW32287   4.558   3.130   5.702
10463SOL    HW132288   4.497   3.114   5.780
10463SOL    HW232289   4.525   3.079   5.622
10464SOL     OW32290   0.049   6.395   1.312
10464SOL    HW132291   7.001   6.460   1.274
10464SOL    HW232292   0.029   6.304   1.277
10465SOL     OW32293   6.086   6.152   0.439
10465SOL    HW132294   6.155   6.081   0.458
10465SOL    HW232295   6.097   6.227   0.504
10466SOL     OW32296   5.042   5.193   5.560
10466SOL    HW132297   4.968   5.136   5.523
10466SOL    HW232298   5.092   5.236   5.485
10467SOL     OW32299   2.652   1.434   0.091
10467SOL    HW132300   2.582   1.492   0.051
10467SOL    HW232301   2.656   1.450   0.190
10468SOL     OW32302   3.911   5.216   3.022
10468SOL    HW132303   3.900   5.308   2.985
10468SOL    HW232304   3.971   5.220   3.102
10469SOL     OW32305   4.206   4.579   5.389
10469SOL    HW132306   4.199   4.487   5.351
10469SOL    HW232307   4.154   4.585   5.474
10470SOL     OW32308   2.405   2.589   3.443
10470SOL    HW132309   2.386   2.685   3.461
10470SOL    HW232310   2.418   2.541   3.530
10471SOL     OW32311   3.440   1.339   0.968
10471SOL    HW132312   3.387   1.393   0.903
10471SOL    HW232313   3.394   1.252   0.985
10472SOL     OW32314   3.453   5.606   0.536
10472SOL    HW132315   3.520   5.611   0.462
10472SOL    HW232316   3.380   5.672   0.519
10473SOL     OW32317   6.456   6.668   6.945
10473SOL    HW132318   6.391   6.647   6.872
10473SOL    HW232319   6.481   6.584   6.993
10474SOL     OW32320   3.449   1.630   4.038
10474SOL    HW132321   3.381   1.703   4.052
10474SOL    HW232322   3.402   1.543   4.025
10475SOL     OW32323   4.656   6.822   1.175
10475SOL    HW132324   4.599   6.892   1.219
10475SOL    HW232325   4.658   6.740   1.231
10476SOL     OW32326   6.693   6.521   0.281
10476SOL    HW132327   6.769   6.457   0.276
10476SOL    HW232328   6.710   6.597   0.219
10477SOL     OW32329   6.745   1.031   4.677
10477SOL    HW132330   6.802   0.951   4.692
10477SOL    HW232331   6.649   1.008   4.695
10478SOL     OW32332   6.371   0.845   0.902
10478SOL    HW132333   6.302   0.774   0.893
10478SOL    HW232334   6.326   0.935   0.908
10479SOL     OW32335   7.001   2.088   2.561
10479SOL    HW132336   6.948   2.150   2.619
10479SOL    HW232337   6.994   2.116   2.466
10480SOL     OW32338   6.703   0.288   1.880
10480SOL    HW132339   6.679   0.381   1.907
10480SOL    HW232340   6.619   0.235   1.867
10481SOL     OW32341   2.722   6.696   4.174
10481SOL    HW132342   2.665   6.629   4.126
10481SOL    HW232343   2.813   6.699   4.131
10482SOL     OW32344   6.218   4.678   4.178
10482SOL    HW132345   6.257   4.679   4.086
10482SOL    HW232346   6.286   4.710   4.244
10483SOL     OW32347   6.505   4.533   0.112
10483SOL    HW132348   6.436   4.505   0.046
10483SOL    HW232349   6.590   4.557   0.065
10484SOL     OW32350   6.099   1.991   2.145
10484SOL    HW132351   6.047   2.019   2.226
10484SOL    HW232352   6.092   2.062   2.075
10485SOL     OW32353   3.262   3.806   0.820
10485SOL    HW132354   3.271   3.860   0.904
10485SOL    HW232355   3.257   3.868   0.742
10486SOL     OW32356   7.002   0.212   0.406
10486SOL    HW132357   0.078   0.235   0.382
10486SOL    HW232358   6.999   0.119   0.444
10487SOL     OW32359   4.807   1.880   1.546
10487SOL    HW132360   4.852   1.880   1.635
10487SOL    HW232361   4.707   1.881   1.559
10488SOL     OW32362   3.267   1.522   5.527
10488SOL    HW132363   3.230   1.593   5.468
10488SOL    HW232364   3.366   1.528   5.529
10489SOL     OW32365   0.052   0.035   4.858
10489SOL    HW132366   0.112   6.983   4.818
10489SOL    HW232367   6.976   0.020   4.827
10490SOL     OW32368   5.555   1.802   0.651
10490SOL    HW132369   5.638   1.847   0.618
10490SOL    HW232370   5.478   1.825   0.591
10491SOL     OW32371   2.865   2.367   6.258
10491SOL    HW132372   2.893   2.396   6.166
10491SOL    HW232373   2.938   2.313   6.300
10492SOL     OW32374   5.558   5.749   0.904
10492SOL    HW132375   5.617   5.811   0.852
10492SOL    HW232376   5.614   5.692   0.964
10493SOL     OW32377   3.680   0.288   1.448
10493SOL    HW132378   3.626   0.355   1.499
10493SOL    HW232379   3.634   0.199   1.451
10494SOL     OW32380   6.143   4.264   5.724
10494SOL    HW132381   6.199   4.239   5.803
10494SOL    HW232382   6.068   4.199   5.714
10495SOL     OW32383   1.607   6.520   1.528
10495SOL    HW132384   1.548   6.591   1.567
10495SOL    HW232385   1.602   6.524   1.428
10496SOL     OW32386   6.614   3.697   6.682
10496SOL    HW132387   6.667   3.779   6.662
10496SOL    HW232388   6.576   3.660   6.597
10497SOL     OW32389   1.923   0.054   2.131
10497SOL    HW132390   1.837   0.012   2.161
10497SOL    HW232391   1.995   0.034   2.199
10498SOL     OW32392   5.164   5.470   0.874
10498SOL    HW132393   5.067   5.489   0.861
10498SOL    HW232394   5.208   5.550   0.916
10499SOL     OW32395   4.366   6.760   2.146
10499SOL    HW132396   4.301   6.836   2.147
10499SOL    HW232397   4.430   6.772   2.071
10500SOL     OW32398   6.234   1.262   5.810
10500SOL    HW132399   6.236   1.262   5.710
10500SOL    HW232400   6.325   1.242   5.845
10501SOL     OW32401   2.394   5.852   2.024
10501SOL    HW132402   2.476   5.875   2.077
10501SOL    HW232403   2.399   5.897   1.935
10502SOL     OW32404   2.771   1.477   2.104
10502SOL    HW132405   2.694   1.539   2.118
10502SOL    HW232406   2.788   1.465   2.006
10503SOL     OW32407   4.793   2.631   1.150
10503SOL    HW132408   4.778   2.560   1.081
10503SOL    HW232409   4.727   2.620   1.224
10504SOL     OW32410   1.367   2.101   5.816
10504SOL    HW132411   1.296   2.102   5.746
10504SOL    HW232412   1.391   2.007   5.838
10505SOL     OW32413   5.099   5.188   0.695
10505SOL    HW132414   5.131   5.189   0.600
10505SOL    HW232415   5.049   5.272   0.714
10506SOL     OW32416   0.399   4.012   0.263
10506SOL    HW132417   0.448   4.099   0.275
10506SOL    HW232418   0.352   3.989   0.348
10507SOL     OW32419   1.794   6.905   0.806
10507SOL    HW132420   1.824   6.954   0.887
10507SOL    HW232421   1.857   6.831   0.785
10508SOL     OW32422   6.165   5.569   4.267
10508SOL    HW132423   6.260   5.545   4.283
10508SOL    HW232424   6.106   5.504   4.316
10509SOL     OW32425   6.896   4.887   4.936
10509SOL    HW132426   6.890   4.954   4.861
10509SOL    HW232427   6.973   4.910   4.995
10510SOL     OW32428   5.047   5.704   6.596
10510SOL    HW132429   4.976   5.647   6.555
10510SOL    HW232430   5.040   5.700   6.696
10511SOL     OW32431   3.244   1.185   2.537
10511SOL    HW132432   3.171   1.129   2.579
10511SOL    HW232433   3.250   1.272   2.585
10512SOL     OW32434   4.575   0.705   6.398
10512SOL    HW132435   4.604   0.743   6.310
10512SOL    HW232436   4.520   0.623   6.383
10513SOL     OW32437   5.983   2.446   4.567
10513SOL    HW132438   5.933   2.390   4.500
10513SOL    HW232439   5.974   2.404   4.657
10514SOL     OW32440   0.303   3.046   1.556
10514SOL    HW132441   0.359   3.043   1.474
10514SOL    HW232442   0.207   3.053   1.531
10515SOL     OW32443   0.787   3.533   3.841
10515SOL    HW132444   0.733   3.615   3.855
10515SOL    HW232445   0.827   3.535   3.749
10516SOL     OW32446   4.368   1.535   0.473
10516SOL    HW132447   4.269   1.523   0.474
10516SOL    HW232448   4.412   1.447   0.495
10517SOL     OW32449   0.731   3.044   1.633
10517SOL    HW132450   0.715   3.073   1.539
10517SOL    HW232451   0.767   3.121   1.686
10518SOL     OW32452   0.440   6.017   0.536
10518SOL    HW132453   0.366   5.976   0.589
10518SOL    HW232454   0.494   6.077   0.595
10519SOL     OW32455   3.550   3.667   0.821
10519SOL    HW132456   3.630   3.621   0.783
10519SOL    HW232457   3.515   3.733   0.755
10520SOL     OW32458   0.468   2.008   6.210
10520SOL    HW132459   0.558   2.032   6.173
10520SOL    HW232460   0.421   1.946   6.146
10521SOL     OW32461   6.382   5.481   1.733
10521SOL    HW132462   6.289   5.519   1.737
10521SOL    HW232463   6.443   5.545   1.687
10522SOL     OW32464   0.559   0.375   5.080
10522SOL    HW132465   0.641   0.432   5.089
10522SOL    HW232466   0.496   0.419   5.015
10523SOL     OW32467   0.761   4.676   2.737
10523SOL    HW132468   0.705   4.695   2.656
10523SOL    HW232469   0.731   4.733   2.813
10524SOL     OW32470   0.588   6.909   3.658
10524SOL    HW132471   0.586   6.826   3.603
10524SOL    HW232472   0.630   6.889   3.747
10525SOL     OW32473   4.787   0.534   6.191
10525SOL    HW132474   4.811   0.593   6.267
10525SOL    HW232475   4.791   0.586   6.106
10526SOL     OW32476   1.755   6.841   3.400
10526SOL    HW132477   1.845   6.875   3.373
10526SOL    HW232478   1.763   6.747   3.432
10527SOL     OW32479   0.796   1.551   5.192
10527SOL    HW132480   0.788   1.494   5.273
10527SOL    HW232481   0.892   1.559   5.166
10528SOL     OW32482   1.524   3.192   6.177
10528SOL    HW132483   1.615   3.206   6.217
10528SOL    HW232484   1.482   3.111   6.217
10529SOL     OW32485   2.877   6.318   4.074
10529SOL    HW132486   2.783   6.298   4.102
10529SOL    HW232487   2.930   6.349   4.153
10530SOL     OW32488   1.593   6.897   6.384
10530SOL    HW132489   1.573   6.968   6.315
10530SOL    HW232490   1.508   6.864   6.423
10531SOL     OW32491   1.742   2.903   4.533
10531SOL    HW132492   1.820   2.842   4.548
10531SOL    HW232493   1.705   2.931   4.622
10532SOL     OW32494   1.035   6.813   6.173
10532SOL    HW132495   1.022   6.847   6.266
10532SOL    HW232496   1.086   6.727   6.176
10533SOL     OW32497   3.047   6.630   3.232
10533SOL    HW132498   3.129   6.687   3.229
10533SOL    HW232499   3.064   6.545   3.183
10534SOL     OW32500   6.570   5.735   1.629
10534SOL    HW132501   6.540   5.744   1.724
10534SOL    HW232502   6.585   5.826   1.590
10535SOL     OW32503   1.193   2.026   1.867
10535SOL    HW132504   1.107   2.026   1.815
10535SOL    HW232505   1.195   1.947   1.928
10536SOL     OW32506   3.925   1.118   3.894
10536SOL    HW132507   3.991   1.044   3.880
10536SOL    HW232508   3.948   1.194   3.834
10537SOL     OW32509   4.220   5.895   3.839
10537SOL    HW132510   4.245   5.987   3.809
10537SOL    HW232511   4.262   5.827   3.779
10538SOL     OW32512   5.830   3.195   0.374
10538SOL    HW132513   5.887   3.145   0.439
10538SOL    HW232514   5.884   3.220   0.294
10539SOL     OW32515   0.783   4.865   6.938
10539SOL    HW132516   0.743   4.880   6.848
10539SOL    HW232517   0.827   4.775   6.940
10540SOL     OW32518   1.431   2.291   5.996
10540SOL    HW132519   1.403   2.219   5.933
10540SOL    HW232520   1.514   2.262   6.045
10541SOL     OW32521   3.201   3.801   2.008
10541SOL    HW132522   3.180   3.783   1.912
10541SOL    HW232523   3.162   3.729   2.065
10542SOL     OW32524   0.680   0.530   5.655
10542SOL    HW132525   0.600   0.488   5.612
10542SOL    HW232526   0.650   0.588   5.731
10543SOL     OW32527   6.998   1.453   5.261
10543SOL    HW132528   0.052   1.516   5.230
10543SOL    HW232529   0.013   1.404   5.342
10544SOL     OW32530   2.580   6.722   1.986
10544SOL    HW132531   2.638   6.718   1.904
10544SOL    HW232532   2.611   6.655   2.052
10545SOL     OW32533   0.208   1.861   1.183
10545SOL    HW132534   0.145   1.858   1.105
10545SOL    HW232535   0.295   1.817   1.158
10546SOL     OW32536   1.568   0.501   0.879
10546SOL    HW132537   1.614   0.412   0.890
10546SOL    HW232538   1.616   0.555   0.810
10547SOL     OW32539   4.906   3.140   2.972
10547SOL    HW132540   4.975   3.212   2.972
10547SOL    HW232541   4.850   3.147   3.055
10548SOL     OW32542   5.933   4.645   4.174
10548SOL    HW132543   6.030   4.633   4.152
10548SOL    HW232544   5.923   4.705   4.253
10549SOL     OW32545   0.739   0.358   1.898
10549SOL    HW132546   0.662   0.319   1.846
10549SOL    HW232547   0.722   0.455   1.914
10550SOL     OW32548   4.705   6.890   3.668
10550SOL    HW132549   4.610   6.867   3.647
10550SOL    HW232550   4.740   6.829   3.738
10551SOL     OW32551   1.571   2.639   6.853
10551SOL    HW132552   1.527   2.576   6.917
10551SOL    HW232553   1.510   2.654   6.775
10552SOL     OW32554   2.553   0.933   5.740
10552SOL    HW132555   2.585   0.899   5.652
10552SOL    HW232556   2.513   1.023   5.729
10553SOL     OW32557   0.516   4.758   1.624
10553SOL    HW132558   0.451   4.833   1.640
10553SOL    HW232559   0.571   4.779   1.543
10554SOL     OW32560   6.067   4.881   0.548
10554SOL    HW132561   6.143   4.848   0.492
10554SOL    HW232562   6.093   4.876   0.644
10555SOL     OW32563   2.198   2.462   0.158
10555SOL    HW132564   2.160   2.444   0.250
10555SOL    HW232565   2.127   2.501   0.100
10556SOL     OW32566   1.738   1.408   4.940
10556SOL    HW132567   1.699   1.501   4.941
10556SOL    HW232568   1.667   1.342   4.961
10557SOL     OW32569   1.782   3.182   3.312
10557SOL    HW132570   1.785   3.257   3.246
10557SOL    HW232571   1.858   3.119   3.294
10558SOL     OW32572   3.963   0.206   4.191
10558SOL    HW132573   3.916   0.164   4.269
10558SOL    HW232574   4.029   0.141   4.153
10559SOL     OW32575   4.910   0.474   1.988
10559SOL    HW132576   4.949   0.547   1.932
10559SOL    HW232577   4.839   0.426   1.937
10560SOL     OW32578   4.581   6.653   2.604
10560SOL    HW132579   4.670   6.607   2.601
10560SOL    HW232580   4.578   6.724   2.534
10561SOL     OW32581   3.624   4.261   1.687
10561SOL    HW132582   3.714   4.287   1.652
10561SOL    HW232583   3.613   4.162   1.681
10562SOL     OW32584   3.808   5.679   7.008
10562SOL    HW132585   3.902   5.683   6.976
10562SOL    HW232586   3.767   5.592   6.979
10563SOL     OW32587   0.377   1.788   3.292
10563SOL    HW132588   0.352   1.724   3.219
10563SOL    HW232589   0.461   1.755   3.336
10564SOL     OW32590   6.122   6.046   2.743
10564SOL    HW132591   6.129   6.126   2.683
10564SOL    HW232592   6.202   6.041   2.802
10565SOL     OW32593   0.812   6.762   5.588
10565SOL    HW132594   0.768   6.847   5.560
10565SOL    HW232595   0.909   6.765   5.564
10566SOL     OW32596   3.320   1.855   6.740
10566SOL    HW132597   3.312   1.953   6.760
10566SOL    HW232598   3.236   1.808   6.769
10567SOL     OW32599   2.716   1.959   4.978
10567SOL    HW132600   2.751   1.924   5.065
10567SOL    HW232601   2.746   2.054   4.966
10568SOL     OW32602   6.810   3.496   1.747
10568SOL    HW132603   6.897   3.516   1.701
10568SOL    HW232604   6.734   3.532   1.692
10569SOL     OW32605   5.884   1.708   2.594
10569SOL    HW132606   5.833   1.739   2.674
10569SOL    HW232607   5.982   1.712   2.614
10570SOL     OW32608   1.145   4.861   3.150
10570SOL    HW132609   1.218   4.874   3.218
10570SOL    HW232610   1.070   4.924   3.170
10571SOL     OW32611   6.776   4.246   5.230
10571SOL    HW132612   6.715   4.255   5.150
10571SOL    HW232613   6.800   4.337   5.263
10572SOL     OW32614   6.554   3.995   3.388
10572SOL    HW132615   6.608   4.077   3.403
10572SOL    HW232616   6.614   3.918   3.366
10573SOL     OW32617   5.611   0.391   4.879
10573SOL    HW132618   5.610   0.446   4.962
10573SOL    HW232619   5.556   0.308   4.893
10574SOL     OW32620   1.218   1.502   4.211
10574SOL    HW132621   1.118   1.498   4.215
10574SOL    HW232622   1.249   1.594   4.234
10575SOL     OW32623   0.039   1.124   3.915
10575SOL    HW132624   0.007   1.116   4.009
10575SOL    HW232625   0.098   1.204   3.906
10576SOL     OW32626   6.972   5.474   5.105
10576SOL    HW132627   0.043   5.506   5.137
10576SOL    HW232628   6.901   5.539   5.132
10577SOL     OW32629   1.806   4.452   0.302
10577SOL    HW132630   1.817   4.385   0.229
10577SOL    HW232631   1.823   4.544   0.267
10578SOL     OW32632   4.661   1.347   2.770
10578SOL    HW132633   4.660   1.411   2.693
10578SOL    HW232634   4.720   1.383   2.843
10579SOL     OW32635   4.229   2.887   1.702
10579SOL    HW132636   4.135   2.916   1.685
10579SOL    HW232637   4.285   2.968   1.721
10580SOL     OW32638   6.519   0.641   6.395
10580SOL    HW132639   6.479   0.552   6.373
10580SOL    HW232640   6.619   0.634   6.391
10581SOL     OW32641   5.918   0.056   2.686
10581SOL    HW132642   5.890   0.073   2.780
10581SOL    HW232643   5.885   0.130   2.628
10582SOL     OW32644   4.726   4.723   5.761
10582SOL    HW132645   4.721   4.649   5.828
10582SOL    HW232646   4.636   4.737   5.719
10583SOL     OW32647   3.863   1.389   3.530
10583SOL    HW132648   3.909   1.379   3.618
10583SOL    HW232649   3.832   1.484   3.519
10584SOL     OW32650   6.445   0.149   0.301
10584SOL    HW132651   6.416   0.119   0.210
10584SOL    HW232652   6.532   0.199   0.293
10585SOL     OW32653   2.448   1.831   5.478
10585SOL    HW132654   2.466   1.913   5.423
10585SOL    HW232655   2.532   1.778   5.487
10586SOL     OW32656   6.583   5.253   4.850
10586SOL    HW132657   6.560   5.242   4.753
10586SOL    HW232658   6.501   5.278   4.901
10587SOL     OW32659   6.336   4.761   6.938
10587SOL    HW132660   6.245   4.749   6.897
10587SOL    HW232661   6.326   4.797   0.013
10588SOL     OW32662   1.764   3.523   4.549
10588SOL    HW132663   1.782   3.543   4.453
10588SOL    HW232664   1.838   3.466   4.586
10589SOL     OW32665   6.436   1.394   4.460
10589SOL    HW132666   6.450   1.298   4.434
10589SOL    HW232667   6.518   1.429   4.505
10590SOL     OW32668   0.479   0.267   1.112
10590SOL    HW132669   0.578   0.264   1.127
10590SOL    HW232670   0.440   0.178   1.133
10591SOL     OW32671   1.846   1.945   6.963
10591SOL    HW132672   1.870   2.027   6.912
10591SOL    HW232673   1.927   1.889   6.978
10592SOL     OW32674   6.053   3.663   2.716
10592SOL    HW132675   6.010   3.634   2.802
10592SOL    HW232676   6.141   3.707   2.737
10593SOL     OW32677   2.084   6.291   0.365
10593SOL    HW132678   2.087   6.331   0.273
10593SOL    HW232679   2.150   6.216   0.370
10594SOL     OW32680   5.141   1.023   3.103
10594SOL    HW132681   5.067   0.956   3.116
10594SOL    HW232682   5.222   0.977   3.067
10595SOL     OW32683   4.718   6.227   0.099
10595SOL    HW132684   4.722   6.326   0.106
10595SOL    HW232685   4.700   6.200   0.004
10596SOL     OW32686   4.650   0.733   0.312
10596SOL    HW132687   4.718   0.725   0.384
10596SOL    HW232688   4.624   0.642   0.280
10597SOL     OW32689   3.238   1.001   5.635
10597SOL    HW132690   3.262   1.098   5.640
10597SOL    HW232691   3.280   0.961   5.553
10598SOL     OW32692   3.489   2.869   0.154
10598SOL    HW132693   3.459   2.939   0.088
10598SOL    HW232694   3.587   2.881   0.173
10599SOL     OW32695   5.379   3.601   6.121
10599SOL    HW132696   5.463   3.600   6.066
10599SOL    HW232697   5.311   3.540   6.080
10600SOL     OW32698   3.192   2.805   0.416
10600SOL    HW132699   3.238   2.893   0.423
10600SOL    HW232700   3.247   2.743   0.359
10601SOL     OW32701   1.617   4.720   5.256
10601SOL    HW132702   1.563   4.781   5.198
10601SOL    HW232703   1.695   4.685   5.204
10602SOL     OW32704   2.254   0.786   1.960
10602SOL    HW132705   2.184   0.780   1.889
10602SOL    HW232706   2.301   0.698   1.969
10603SOL     OW32707   3.962   0.354   3.038
10603SOL    HW132708   3.938   0.271   3.088
10603SOL    HW232709   4.045   0.394   3.078
10604SOL     OW32710   5.997   5.860   5.080
10604SOL    HW132711   6.061   5.787   5.103
10604SOL    HW232712   5.991   5.869   4.981
10605SOL     OW32713   2.067   6.730   6.790
10605SOL    HW132714   2.078   6.746   6.692
10605SOL    HW232715   1.970   6.728   6.814
10606SOL     OW32716   0.327   0.568   1.791
10606SOL    HW132717   0.376   0.570   1.704
10606SOL    HW232718   0.360   0.642   1.849
10607SOL     OW32719   4.326   5.034   5.646
10607SOL    HW132720   4.403   5.070   5.699
10607SOL    HW232721   4.275   5.110   5.607
10608SOL     OW32722   6.025   3.067   5.610
10608SOL    HW132723   5.961   3.002   5.652
10608SOL    HW232724   5.998   3.083   5.515
10609SOL     OW32725   2.325   6.698   6.902
10609SOL    HW132726   2.318   6.732   6.996
10609SOL    HW232727   2.233   6.687   6.864
10610SOL     OW32728   0.852   2.386   4.543
10610SOL    HW132729   0.943   2.346   4.535
10610SOL    HW232730   0.859   2.477   4.583
10611SOL     OW32731   2.441   4.087   6.719
10611SOL    HW132732   2.482   4.010   6.670
10611SOL    HW232733   2.500   4.167   6.709
10612SOL     OW32734   3.447   1.588   4.646
10612SOL    HW132735   3.461   1.655   4.573
10612SOL    HW232736   3.511   1.512   4.635
10613SOL     OW32737   5.345   5.835   5.438
10613SOL    HW132738   5.270   5.866   5.380
10613SOL    HW232739   5.427   5.820   5.383
10614SOL     OW32740   4.935   1.737   4.595
10614SOL    HW132741   5.026   1.717   4.560
10614SOL    HW232742   4.940   1.761   4.692
10615SOL     OW32743   4.556   0.616   5.711
10615SOL    HW132744   4.523   0.674   5.636
10615SOL    HW232745   4.501   0.533   5.716
10616SOL     OW32746   2.356   6.992   0.063
10616SOL    HW132747   2.409   0.051   0.098
10616SOL    HW232748   2.374   6.911   0.119
10617SOL     OW32749   3.054   3.734   1.391
10617SOL    HW132750   3.124   3.803   1.371
10617SOL    HW232751   3.097   3.646   1.411
10618SOL     OW32752   1.143   3.583   5.624
10618SOL    HW132753   1.227   3.535   5.651
10618SOL    HW232754   1.078   3.517   5.586
10619SOL     OW32755   0.230   3.252   2.678
10619SOL    HW132756   0.153   3.311   2.656
10619SOL    HW232757   0.204   3.156   2.662
10620SOL     OW32758   1.018   5.935   5.146
10620SOL    HW132759   0.967   6.001   5.201
10620SOL    HW232760   1.002   5.953   5.049
10621SOL     OW32761   0.621   5.075   1.648
10621SOL    HW132762   0.649   4.991   1.602
10621SOL    HW232763   0.685   5.149   1.625
10622SOL     OW32764   4.859   2.272   1.686
10622SOL    HW132765   4.859   2.348   1.750
10622SOL    HW232766   4.799   2.199   1.719
10623SOL     OW32767   0.387   4.751   5.456
10623SOL    HW132768   0.381   4.769   5.358
10623SOL    HW232769   0.342   4.665   5.477
10624SOL     OW32770   1.015   2.379   4.825
10624SOL    HW132771   1.057   2.302   4.777
10624SOL    HW232772   0.929   2.349   4.867
10625SOL     OW32773   0.699   4.689   0.974
10625SOL    HW132774   0.704   4.690   0.874
10625SOL    HW232775   0.761   4.758   1.011
10626SOL     OW32776   2.623   2.881   0.259
10626SOL    HW132777   2.594   2.949   0.325
10626SOL    HW232778   2.558   2.805   0.257
10627SOL     OW32779   5.071   0.369   1.003
10627SOL    HW132780   5.017   0.311   0.943
10627SOL    HW232781   5.167   0.341   0.999
10628SOL     OW32782   4.692   6.500   0.120
10628SOL    HW132783   4.617   6.512   0.185
10628SOL    HW232784   4.658   6.519   0.027
10629SOL     OW32785   2.485   4.877   5.078
10629SOL    HW132786   2.505   4.940   5.003
10629SOL    HW232787   2.568   4.828   5.104
10630SOL     OW32788   5.971   1.221   3.805
10630SOL    HW132789   6.048   1.219   3.741
10630SOL    HW232790   5.896   1.165   3.769
10631SOL     OW32791   3.131   5.279   5.425
10631SOL    HW132792   3.099   5.239   5.340
10631SOL    HW232793   3.093   5.228   5.502
10632SOL     OW32794   5.593   1.409   3.375
10632SOL    HW132795   5.533   1.468   3.429
10632SOL    HW232796   5.574   1.313   3.397
10633SOL     OW32797   2.078   2.789   0.788
10633SOL    HW132798   2.053   2.796   0.692
10633SOL    HW232799   2.102   2.695   0.811
10634SOL     OW32800   3.376   4.498   0.358
10634SOL    HW132801   3.342   4.591   0.374
10634SOL    HW232802   3.466   4.488   0.399
10635SOL     OW32803   1.564   3.151   0.725
10635SOL    HW132804   1.538   3.156   0.629
10635SOL    HW232805   1.656   3.189   0.738
10636SOL     OW32806   0.757   2.071   1.274
10636SOL    HW132807   0.804   2.016   1.205
10636SOL    HW232808   0.824   2.122   1.327
10637SOL     OW32809   2.490   4.343   6.004
10637SOL    HW132810   2.449   4.362   6.093
10637SOL    HW232811   2.417   4.337   5.935
10638SOL     OW32812   6.218   5.508   2.498
10638SOL    HW132813   6.139   5.564   2.473
10638SOL    HW232814   6.196   5.452   2.578
10639SOL     OW32815   1.127   3.316   3.439
10639SOL    HW132816   1.135   3.409   3.405
10639SOL    HW232817   1.214   3.288   3.480
10640SOL     OW32818   3.840   0.112   5.062
10640SOL    HW132819   3.841   0.044   4.989
10640SOL    HW232820   3.746   0.137   5.084
10641SOL     OW32821   2.324   2.051   2.106
10641SOL    HW132822   2.333   2.004   2.018
10641SOL    HW232823   2.415   2.071   2.143
10642SOL     OW32824   6.213   2.761   1.446
10642SOL    HW132825   6.247   2.850   1.477
10642SOL    HW232826   6.208   2.699   1.524
10643SOL     OW32827   2.047   5.584   5.177
10643SOL    HW132828   2.084   5.670   5.141
10643SOL    HW232829   1.971   5.604   5.239
10644SOL     OW32830   5.753   2.883   2.627
10644SOL    HW132831   5.769   2.913   2.534
10644SOL    HW232832   5.655   2.885   2.647
10645SOL     OW32833   1.997   2.674   5.037
10645SOL    HW132834   2.048   2.589   5.053
10645SOL    HW232835   2.035   2.721   4.957
10646SOL     OW32836   0.817   0.481   6.791
10646SOL    HW132837   0.875   0.402   6.773
10646SOL    HW232838   0.834   0.516   6.883
10647SOL     OW32839   2.660   5.404   4.877
10647SOL    HW132840   2.657   5.315   4.831
10647SOL    HW232841   2.689   5.392   4.972
10648SOL     OW32842   6.025   3.854   6.240
10648SOL    HW132843   5.957   3.783   6.219
10648SOL    HW232844   5.984   3.923   6.299
10649SOL     OW32845   6.937   4.602   2.359
10649SOL    HW132846   6.949   4.701   2.368
10649SOL    HW232847   6.929   4.561   2.450
10650SOL     OW32848   1.052   0.471   4.133
10650SOL    HW132849   0.953   0.476   4.121
10650SOL    HW232850   1.073   0.440   4.226
10651SOL     OW32851   5.718   6.718   0.060
10651SOL    HW132852   5.632   6.684   0.023
10651SOL    HW232853   5.708   6.735   0.158
10652SOL     OW32854   3.557   0.057   5.671
10652SOL    HW132855   3.582   0.137   5.725
10652SOL    HW232856   3.639   0.018   5.630
10653SOL     OW32857   4.143   4.914   2.933
10653SOL    HW132858   4.177   4.824   2.907
10653SOL    HW232859   4.051   4.906   2.971
10654SOL     OW32860   5.468   0.924   0.656
10654SOL    HW132861   5.498   0.936   0.562
10654SOL    HW232862   5.428   1.009   0.690
10655SOL     OW32863   2.297   5.500   0.968
10655SOL    HW132864   2.244   5.427   0.924
10655SOL    HW232865   2.327   5.471   1.058
10656SOL     OW32866   6.882   2.356   2.333
10656SOL    HW132867   6.912   2.261   2.325
10656SOL    HW232868   6.963   2.416   2.333
10657SOL     OW32869   6.211   0.283   5.727
10657SOL    HW132870   6.277   0.213   5.754
10657SOL    HW232871   6.119   0.253   5.752
10658SOL     OW32872   6.275   4.961   4.702
10658SOL    HW132873   6.262   4.867   4.670
10658SOL    HW232874   6.268   4.963   4.802
10659SOL     OW32875   0.433   5.543   1.136
10659SOL    HW132876   0.335   5.559   1.139
10659SOL    HW232877   0.474   5.567   1.225
10660SOL     OW32878   4.798   4.369   6.268
10660SOL    HW132879   4.804   4.347   6.365
10660SOL    HW232880   4.823   4.288   6.214
10661SOL     OW32881   1.495   6.673   1.749
10661SOL    HW132882   1.524   6.762   1.714
10661SOL    HW232883   1.559   6.643   1.820
10662SOL     OW32884   5.608   6.449   2.940
10662SOL    HW132885   5.523   6.469   2.891
10662SOL    HW232886   5.630   6.524   3.001
10663SOL     OW32887   0.465   1.913   1.972
10663SOL    HW132888   0.473   1.879   2.066
10663SOL    HW232889   0.556   1.919   1.931
10664SOL     OW32890   6.892   4.166   4.869
10664SOL    HW132891   6.846   4.101   4.930
10664SOL    HW232892   6.872   4.142   4.774
10665SOL     OW32893   1.099   1.230   0.567
10665SOL    HW132894   1.140   1.292   0.501
10665SOL    HW232895   1.063   1.149   0.520
10666SOL     OW32896   3.391   3.988   1.870
10666SOL    HW132897   3.326   3.919   1.900
10666SOL    HW232898   3.377   4.008   1.774
10667SOL     OW32899   4.050   3.075   5.688
10667SOL    HW132900   4.096   2.997   5.646
10667SOL    HW232901   3.965   3.094   5.638
10668SOL     OW32902   2.345   0.365   4.949
10668SOL    HW132903   2.280   0.440   4.943
10668SOL    HW232904   2.349   0.318   4.861
10669SOL     OW32905   5.529   6.601   0.832
10669SOL    HW132906   5.486   6.643   0.911
10669SOL    HW232907   5.460   6.557   0.775
10670SOL     OW32908   5.161   3.648   5.153
10670SOL    HW132909   5.176   3.677   5.058
10670SOL    HW232910   5.063   3.634   5.169
10671SOL     OW32911   2.591   2.414   3.021
10671SOL    HW132912   2.532   2.401   2.942
10671SOL    HW232913   2.550   2.483   3.082
10672SOL     OW32914   6.510   2.702   0.782
10672SOL    HW132915   6.558   2.615   0.790
10672SOL    HW232916   6.412   2.685   0.775
10673SOL     OW32917   1.287   1.353   6.092
10673SOL    HW132918   1.327   1.365   6.183
10673SOL    HW232919   1.279   1.442   6.046
10674SOL     OW32920   3.577   4.128   2.006
10674SOL    HW132921   3.602   4.214   1.961
10674SOL    HW232922   3.507   4.081   1.950
10675SOL     OW32923   1.770   6.649   6.782
10675SOL    HW132924   1.748   6.612   6.872
10675SOL    HW232925   1.711   6.607   6.713
10676SOL     OW32926   6.533   6.081   6.340
10676SOL    HW132927   6.485   6.101   6.255
10676SOL    HW232928   6.631   6.096   6.328
10677SOL     OW32929   1.100   0.964   2.234
10677SOL    HW132930   1.126   1.038   2.295
10677SOL    HW232931   1.126   0.876   2.275
10678SOL     OW32932   3.279   5.989   4.146
10678SOL    HW132933   3.354   5.967   4.084
10678SOL    HW232934   3.289   6.084   4.178
10679SOL     OW32935   4.627   5.828   5.920
10679SOL    HW132936   4.645   5.744   5.971
10679SOL    HW232937   4.614   5.904   5.985
10680SOL     OW32938   2.601   2.026   2.835
10680SOL    HW132939   2.655   2.108   2.816
10680SOL    HW232940   2.563   1.991   2.750
10681SOL     OW32941   0.979   3.613   0.062
10681SOL    HW132942   0.947   3.697   0.018
10681SOL    HW232943   0.928   3.599   0.147
10682SOL     OW32944   2.015   1.191   4.847
10682SOL    HW132945   2.055   1.255   4.913
10682SOL    HW232946   2.013   1.234   4.756
10683SOL     OW32947   3.254   1.989   3.439
10683SOL    HW132948   3.216   1.909   3.484
10683SOL    HW232949   3.354   1.985   3.442
10684SOL     OW32950   5.074   4.133   1.036
10684SOL    HW132951   4.980   4.164   1.050
10684SOL    HW232952   5.112   4.177   0.955
10685SOL     OW32953   0.354   5.553   2.527
10685SOL    HW132954   0.440   5.549   2.477
10685SOL    HW232955   0.326   5.460   2.552
10686SOL     OW32956   1.452   5.130   6.456
10686SOL    HW132957   1.548   5.101   6.456
10686SOL    HW232958   1.424   5.156   6.364
10687SOL     OW32959   6.820   5.012   1.791
10687SOL    HW132960   6.767   5.093   1.764
10687SOL    HW232961   6.856   5.025   1.883
10688SOL     OW32962   6.184   4.356   3.077
10688SOL    HW132963   6.244   4.382   3.001
10688SOL    HW232964   6.089   4.375   3.052
10689SOL     OW32965   0.428   6.131   3.296
10689SOL    HW132966   0.374   6.046   3.305
10689SOL    HW232967   0.463   6.139   3.203
10690SOL     OW32968   0.528   6.391   2.868
10690SOL    HW132969   0.467   6.312   2.859
10690SOL    HW232970   0.515   6.432   2.959
10691SOL     OW32971   0.068   2.162   2.009
10691SOL    HW132972   0.105   2.088   2.066
10691SOL    HW232973   0.138   2.193   1.945
10692SOL     OW32974   2.579   5.587   3.250
10692SOL    HW132975   2.593   5.671   3.198
10692SOL    HW232976   2.581   5.509   3.187
10693SOL     OW32977   3.018   0.669   0.122
10693SOL    HW132978   3.086   0.715   0.066
10693SOL    HW232979   3.041   0.572   0.129
10694SOL     OW32980   5.159   6.737   1.759
10694SOL    HW132981   5.256   6.760   1.753
10694SOL    HW232982   5.106   6.822   1.771
10695SOL     OW32983   4.975   2.213   2.687
10695SOL    HW132984   4.908   2.242   2.619
10695SOL    HW232985   5.063   2.195   2.642
10696SOL     OW32986   6.797   3.548   3.930
10696SOL    HW132987   6.858   3.591   3.997
10696SOL    HW232988   6.829   3.570   3.838
10697SOL     OW32989   0.587   6.269   4.452
10697SOL    HW132990   0.526   6.264   4.373
10697SOL    HW232991   0.534   6.294   4.533
10698SOL     OW32992   4.217   5.601   4.785
10698SOL    HW132993   4.190   5.672   4.721
10698SOL    HW232994   4.315   5.581   4.775
10699SOL     OW32995   3.848   2.920   1.790
10699SOL    HW132996   3.883   3.012   1.810
10699SOL    HW232997   3.800   2.884   1.869
10700SOL     OW32998   0.295   6.124   1.042
10700SOL    HW132999   0.296   6.190   0.967
10700SOL    HW233000   0.349   6.159   1.119
10701SOL     OW33001   2.789   5.891   6.999
10701SOL    HW133002   2.750   5.890   0.073
10701SOL    HW233003   2.889   5.882   7.005
10702SOL     OW33004   5.887   2.995   1.846
10702SOL    HW133005   5.933   3.065   1.900
10702SOL    HW233006   5.864   3.033   1.756
10703SOL     OW33007   3.307   3.669   5.040
10703SOL    HW133008   3.219   3.622   5.049
10703SOL    HW233009   3.292   3.761   5.005
10704SOL     OW33010   6.567   5.343   1.448
10704SOL    HW133011   6.556   5.297   1.537
10704SOL    HW233012   6.497   5.414   1.440
10705SOL     OW33013   6.260   4.342   1.998
10705SOL    HW133014   6.235   4.434   1.968
10705SOL    HW233015   6.195   4.311   2.067
10706SOL     OW33016   4.927   6.726   2.422
10706SOL    HW133017   4.971   6.726   2.332
10706SOL    HW233018   4.905   6.820   2.449
10707SOL     OW33019   0.154   6.358   3.729
10707SOL    HW133020   0.186   6.267   3.704
10707SOL    HW233021   0.117   6.404   3.648
10708SOL     OW33022   4.332   0.795   2.567
10708SOL    HW133023   4.376   0.874   2.523
10708SOL    HW233024   4.268   0.753   2.504
10709SOL     OW33025   5.961   6.669   5.425
10709SOL    HW133026   6.030   6.736   5.398
10709SOL    HW233027   5.902   6.709   5.495
10710SOL     OW33028   0.205   6.431   4.820
10710SOL    HW133029   0.192   6.351   4.879
10710SOL    HW233030   0.118   6.455   4.776
10711SOL     OW33031   1.723   5.796   3.515
10711SOL    HW133032   1.808   5.765   3.474
10711SOL    HW233033   1.657   5.819   3.443
10712SOL     OW33034   2.346   0.860   1.358
10712SOL    HW133035   2.383   0.806   1.434
10712SOL    HW233036   2.249   0.842   1.348
10713SOL     OW33037   1.008   3.463   1.382
10713SOL    HW133038   0.926   3.457   1.325
10713SOL    HW233039   0.998   3.537   1.448
10714SOL     OW33040   6.329   3.475   5.369
10714SOL    HW133041   6.352   3.544   5.438
10714SOL    HW233042   6.401   3.405   5.368
10715SOL     OW33043   4.954   6.898   3.051
10715SOL    HW133044   4.954   6.992   3.085
10715SOL    HW233045   5.039   6.880   3.001
10716SOL     OW33046   6.030   3.095   4.630
10716SOL    HW133047   6.033   3.150   4.714
10716SOL    HW233048   5.987   3.147   4.557
10717SOL     OW33049   0.922   2.572   0.742
10717SOL    HW133050   0.879   2.482   0.746
10717SOL    HW233051   0.863   2.639   0.787
10718SOL     OW33052   0.547   3.112   6.629
10718SOL    HW133053   0.502   3.136   6.715
10718SOL    HW233054   0.499   3.156   6.553
10719SOL     OW33055   5.266   5.801   0.080
10719SOL    HW133056   5.285   5.899   0.089
10719SOL    HW233057   5.337   5.749   0.126
10720SOL     OW33058   6.653   2.969   5.657
10720SOL    HW133059   6.670   2.901   5.586
10720SOL    HW233060   6.554   2.983   5.667
10721SOL     OW33061   6.247   4.151   5.319
10721SOL    HW133062   6.273   4.067   5.367
10721SOL    HW233063   6.190   4.128   5.240
10722SOL     OW33064   0.266   3.895   0.480
10722SOL    HW133065   0.250   3.840   0.562
10722SOL    HW233066   0.178   3.924   0.442
10723SOL     OW33067   0.294   3.658   6.181
10723SOL    HW133068   0.323   3.563   6.169
10723SOL    HW233069   0.356   3.704   6.244
10724SOL     OW33070   4.761   0.894   0.089
10724SOL    HW133071   4.712   0.979   0.109
10724SOL    HW233072   4.753   0.831   0.166
10725SOL     OW33073   0.106   5.010   3.831
10725SOL    HW133074   0.190   5.035   3.880
10725SOL    HW233075   0.100   5.063   3.747
10726SOL     OW33076   5.378   6.246   5.766
10726SOL    HW133077   5.345   6.192   5.689
10726SOL    HW233078   5.386   6.187   5.847
10727SOL     OW33079   0.574   5.458   4.381
10727SOL    HW133080   0.609   5.545   4.415
10727SOL    HW233081   0.645   5.413   4.326
10728SOL     OW33082   6.213   6.264   1.658
10728SOL    HW133083   6.249   6.202   1.728
10728SOL    HW233084   6.282   6.332   1.635
10729SOL     OW33085   5.839   0.752   2.890
10729SOL    HW133086   5.890   0.773   2.806
10729SOL    HW233087   5.741   0.759   2.872
10730SOL     OW33088   2.434   0.245   1.018
10730SOL    HW133089   2.447   0.344   1.017
10730SOL    HW233090   2.505   0.201   0.963
10731SOL     OW33091   2.455   5.753   6.811
10731SOL    HW133092   2.553   5.735   6.809
10731SOL    HW233093   2.410   5.687   6.870
10732SOL     OW33094   5.245   5.404   2.830
10732SOL    HW133095   5.164   5.400   2.771
10732SOL    HW233096   5.264   5.499   2.854
10733SOL     OW33097   5.264   2.038   6.785
10733SOL    HW133098   5.285   1.969   6.715
10733SOL    HW233099   5.209   1.996   6.857
10734SOL     OW33100   1.271   0.256   6.903
10734SOL    HW133101   1.258   0.160   6.925
10734SOL    HW233102   1.249   0.312   6.982
10735SOL     OW33103   1.443   4.462   3.118
10735SOL    HW133104   1.529   4.442   3.072
10735SOL    HW233105   1.410   4.552   3.090
10736SOL     OW33106   0.742   0.802   3.467
10736SOL    HW133107   0.783   0.845   3.387
10736SOL    HW233108   0.813   0.755   3.519
10737SOL     OW33109   1.364   1.781   0.361
10737SOL    HW133110   1.458   1.746   0.367
10737SOL    HW233111   1.332   1.808   0.452
10738SOL     OW33112   2.318   0.774   2.654
10738SOL    HW133113   2.390   0.783   2.723
10738SOL    HW233114   2.360   0.756   2.565
10739SOL     OW33115   0.435   1.434   1.539
10739SOL    HW133116   0.376   1.460   1.463
10739SOL    HW233117   0.405   1.480   1.622
10740SOL     OW33118   1.609   4.204   5.875
10740SOL    HW133119   1.689   4.244   5.829
10740SOL    HW233120   1.582   4.120   5.827
10741SOL     OW33121   0.369   0.514   3.104
10741SOL    HW133122   0.383   0.594   3.162
10741SOL    HW233123   0.455   0.465   3.093
10742SOL     OW33124   6.190   0.420   2.008
10742SOL    HW133125   6.247   0.446   1.930
10742SOL    HW233126   6.141   0.335   1.987
10743SOL     OW33127   2.690   1.888   3.896
10743SOL    HW133128   2.730   1.942   3.970
10743SOL    HW233129   2.606   1.932   3.864
10744SOL     OW33130   3.061   1.360   2.722
10744SOL    HW133131   2.976   1.312   2.743
10744SOL    HW233132   3.042   1.433   2.656
10745SOL     OW33133   0.930   5.065   0.809
10745SOL    HW133134   0.889   5.150   0.841
10745SOL    HW233135   1.017   5.086   0.764
10746SOL     OW33136   1.776   3.826   1.932
10746SOL    HW133137   1.836   3.747   1.917
10746SOL    HW233138   1.705   3.829   1.861
10747SOL     OW33139   4.376   1.081   3.449
10747SOL    HW133140   4.457   1.082   3.508
10747SOL    HW233141   4.333   1.171   3.451
10748SOL     OW33142   4.089   0.046   0.737
10748SOL    HW133143   4.052   0.104   0.809
10748SOL    HW233144   4.099   0.100   0.653
10749SOL     OW33145   0.038   4.667   3.569
10749SOL    HW133146   0.063   4.572   3.548
10749SOL    HW233147   0.033   4.679   3.668
10750SOL     OW33148   4.180   5.970   4.300
10750SOL    HW133149   4.103   5.910   4.321
10750SOL    HW233150   4.185   6.043   4.368
10751SOL     OW33151   0.867   3.927   5.603
10751SOL    HW133152   0.895   4.018   5.634
10751SOL    HW233153   0.770   3.929   5.578
10752SOL     OW33154   6.709   3.659   6.184
10752SOL    HW133155   6.715   3.750   6.144
10752SOL    HW233156   6.799   3.630   6.216
10753SOL     OW33157   4.970   0.657   3.739
10753SOL    HW133158   5.056   0.658   3.687
10753SOL    HW233159   4.955   0.565   3.776
10754SOL     OW33160   1.564   1.996   4.001
10754SOL    HW133161   1.598   1.964   4.089
10754SOL    HW233162   1.552   2.095   4.003
10755SOL     OW33163   0.550   2.083   0.586
10755SOL    HW133164   0.539   2.080   0.487
10755SOL    HW233165   0.634   2.132   0.609
10756SOL     OW33166   6.464   3.969   6.919
10756SOL    HW133167   6.404   4.046   6.942
10756SOL    HW233168   6.520   3.947   6.999
10757SOL     OW33169   0.500   3.656   0.463
10757SOL    HW133170   0.548   3.597   0.528
10757SOL    HW233171   0.407   3.673   0.495
10758SOL     OW33172   1.190   6.603   5.359
10758SOL    HW133173   1.159   6.697   5.374
10758SOL    HW233174   1.278   6.589   5.404
10759SOL     OW33175   1.659   3.150   6.977
10759SOL    HW133176   1.649   3.245   7.009
10759SOL    HW233177   1.574   3.101   6.994
10760SOL     OW33178   6.978   0.507   0.456
10760SOL    HW133179   6.982   0.417   0.412
10760SOL    HW233180   0.053   0.538   0.477
10761SOL     OW33181   0.867   1.964   6.246
10761SOL    HW133182   0.822   2.035   6.191
10761SOL    HW233183   0.839   1.874   6.213
10762SOL     OW33184   3.676   2.010   4.746
10762SOL    HW133185   3.749   2.030   4.811
10762SOL    HW233186   3.664   1.911   4.740
10763SOL     OW33187   4.786   6.481   1.160
10763SOL    HW133188   4.858   6.504   1.226
10763SOL    HW233189   4.828   6.458   1.072
10764SOL     OW33190   5.848   1.697   5.728
10764SOL    HW133191   5.750   1.715   5.719
10764SOL    HW233192   5.900   1.781   5.711
10765SOL     OW33193   5.447   3.006   1.218
10765SOL    HW133194   5.411   3.100   1.217
10765SOL    HW233195   5.447   2.971   1.312
10766SOL     OW33196   3.006   3.042   0.683
10766SOL    HW133197   3.102   3.032   0.709
10766SOL    HW233198   2.950   3.055   0.765
10767SOL     OW33199   1.171   0.604   6.769
10767SOL    HW133200   1.172   0.553   6.856
10767SOL    HW233201   1.099   0.673   6.771
10768SOL     OW33202   4.834   5.853   1.482
10768SOL    HW133203   4.880   5.874   1.395
10768SOL    HW233204   4.845   5.930   1.545
10769SOL     OW33205   1.967   5.118   4.949
10769SOL    HW133206   2.020   5.034   4.964
10769SOL    HW233207   1.874   5.104   4.981
10770SOL     OW33208   5.069   0.071   5.019
10770SOL    HW133209   5.070   0.079   4.919
10770SOL    HW233210   4.975   0.079   5.052
10771SOL     OW33211   4.420   0.979   4.761
10771SOL    HW133212   4.483   0.926   4.704
10771SOL    HW233213   4.424   0.945   4.855
10772SOL     OW33214   6.230   6.556   4.354
10772SOL    HW133215   6.322   6.517   4.344
10772SOL    HW233216   6.163   6.482   4.355
10773SOL     OW33217   6.308   5.169   5.999
10773SOL    HW133218   6.327   5.266   5.986
10773SOL    HW233219   6.241   5.158   6.073
10774SOL     OW33220   1.620   1.379   6.269
10774SOL    HW133221   1.653   1.312   6.201
10774SOL    HW233222   1.603   1.466   6.223
10775SOL     OW33223   0.730   3.775   0.755
10775SOL    HW133224   0.679   3.753   0.838
10775SOL    HW233225   0.793   3.700   0.733
10776SOL     OW33226   1.521   6.286   6.893
10776SOL    HW133227   1.540   6.384   6.901
10776SOL    HW233228   1.428   6.268   6.924
10777SOL     OW33229   4.178   6.425   3.862
10777SOL    HW133230   4.217   6.424   3.770
10777SOL    HW233231   4.085   6.463   3.859
10778SOL     OW33232   5.394   6.292   5.342
10778SOL    HW133233   5.382   6.391   5.345
10778SOL    HW233234   5.344   6.254   5.264
10779SOL     OW33235   6.210   4.946   2.830
10779SOL    HW133236   6.149   4.867   2.839
10779SOL    HW233237   6.220   4.990   2.920
10780SOL     OW33238   1.249   6.858   3.400
10780SOL    HW133239   1.277   6.764   3.381
10780SOL    HW233240   1.201   6.862   3.487
10781SOL     OW33241   3.835   1.851   2.868
10781SOL    HW133242   3.738   1.826   2.864
10781SOL    HW233243   3.851   1.928   2.805
10782SOL     OW33244   6.513   1.660   3.453
10782SOL    HW133245   6.588   1.635   3.514
10782SOL    HW233246   6.497   1.759   3.459
10783SOL     OW33247   1.529   3.405   3.251
10783SOL    HW133248   1.464   3.346   3.299
10783SOL    HW233249   1.604   3.429   3.312
10784SOL     OW33250   2.841   0.180   2.840
10784SOL    HW133251   2.743   0.172   2.821
10784SOL    HW233252   2.872   0.272   2.818
10785SOL     OW33253   0.758   4.822   0.736
10785SOL    HW133254   0.792   4.770   0.658
10785SOL    HW233255   0.830   4.883   0.769
10786SOL     OW33256   4.853   3.922   2.485
10786SOL    HW133257   4.866   3.831   2.446
10786SOL    HW233258   4.756   3.945   2.484
10787SOL     OW33259   3.027   2.157   4.455
10787SOL    HW133260   3.022   2.060   4.429
10787SOL    HW233261   2.966   2.174   4.532
10788SOL     OW33262   2.113   4.673   0.278
10788SOL    HW133263   2.017   4.698   0.269
10788SOL    HW233264   2.156   4.673   0.188
10789SOL     OW33265   5.825   2.727   0.303
10789SOL    HW133266   5.878   2.702   0.222
10789SOL    HW233267   5.776   2.813   0.287
10790SOL     OW33268   1.297   0.612   3.461
10790SOL    HW133269   1.209   0.567   3.455
10790SOL    HW233270   1.339   0.616   3.370
10791SOL     OW33271   0.120   0.692   1.080
10791SOL    HW133272   0.111   0.594   1.061
10791SOL    HW233273   0.152   0.740   0.999
10792SOL     OW33274   3.670   3.342   1.954
10792SOL    HW133275   3.672   3.406   1.878
10792SOL    HW233276   3.757   3.346   2.004
10793SOL     OW33277   5.552   2.655   4.359
10793SOL    HW133278   5.510   2.737   4.398
10793SOL    HW233279   5.602   2.680   4.276
10794SOL     OW33280   2.977   3.815   3.480
10794SOL    HW133281   3.062   3.764   3.467
10794SOL    HW233282   2.944   3.848   3.392
10795SOL     OW33283   6.673   3.442   4.202
10795SOL    HW133284   6.683   3.403   4.294
10795SOL    HW233285   6.755   3.425   4.149
10796SOL     OW33286   4.785   6.775   0.078
10796SOL    HW133287   4.815   6.768   7.001
10796SOL    HW233288   4.792   6.686   0.123
10797SOL     OW33289   4.079   2.540   1.177
10797SOL    HW133290   3.994   2.563   1.132
10797SOL    HW233291   4.092   2.441   1.176
10798SOL     OW33292   2.213   6.598   0.930
10798SOL    HW133293   2.243   6.528   0.865
10798SOL    HW233294   2.261   6.684   0.912
10799SOL     OW33295   3.857   0.694   2.438
10799SOL    HW133296   3.902   0.623   2.491
10799SOL    HW233297   3.759   0.694   2.460
10800SOL     OW33298   0.906   0.043   0.155
10800SOL    HW133299   0.895   0.111   0.082
10800SOL    HW233300   0.848   6.982   0.137
10801SOL     OW33301   1.049   6.861   5.398
10801SOL    HW133302   0.986   6.887   5.325
10801SOL    HW233303   1.037   6.923   5.476
10802SOL     OW33304   1.993   3.035   3.866
10802SOL    HW133305   2.076   3.021   3.919
10802SOL    HW233306   2.015   3.037   3.768
10803SOL     OW33307   4.166   4.359   5.686
10803SOL    HW133308   4.199   4.274   5.727
10803SOL    HW233309   4.236   4.396   5.625
10804SOL     OW33310   6.664   4.231   1.429
10804SOL    HW133311   6.596   4.206   1.361
10804SOL    HW233312   6.682   4.329   1.423
10805SOL     OW33313   3.666   0.104   6.719
10805SOL    HW133314   3.639   0.029   6.779
10805SOL    HW233315   3.640   0.192   6.760
10806SOL     OW33316   4.992   4.471   6.132
10806SOL    HW133317   4.921   4.437   6.194
10806SOL    HW233318   5.033   4.394   6.084
10807SOL     OW33319   1.551   6.771   3.139
10807SOL    HW133320   1.453   6.771   3.117
10807SOL    HW233321   1.590   6.859   3.113
10808SOL     OW33322   6.608   4.238   6.614
10808SOL    HW133323   6.659   4.237   6.529
10808SOL    HW233324   6.545   4.316   6.615
10809SOL     OW33325   2.859   6.074   3.481
10809SOL    HW133326   2.857   6.094   3.579
10809SOL    HW233327   2.767   6.084   3.443
10810SOL     OW33328   1.977   0.271   4.850
10810SOL    HW133329   1.914   0.305   4.921
10810SOL    HW233330   2.040   0.205   4.891
10811SOL     OW33331   4.474   4.780   5.598
10811SOL    HW133332   4.411   4.854   5.619
10811SOL    HW233333   4.556   4.817   5.553
10812SOL     OW33334   0.973   3.673   1.835
10812SOL    HW133335   0.878   3.643   1.844
10812SOL    HW233336   0.975   3.772   1.819
10813SOL     OW33337   1.785   5.996   0.150
10813SOL    HW133338   1.825   5.939   0.077
10813SOL    HW233339   1.758   6.084   0.112
10814SOL     OW33340   1.472   6.546   6.618
10814SOL    HW133341   1.561   6.519   6.581
10814SOL    HW233342   1.405   6.474   6.599
10815SOL     OW33343   4.926   4.429   2.937
10815SOL    HW133344   5.016   4.473   2.933
10815SOL    HW233345   4.870   4.459   2.860
10816SOL     OW33346   1.293   1.686   1.471
10816SOL    HW133347   1.233   1.719   1.397
10816SOL    HW233348   1.329   1.765   1.522
10817SOL     OW33349   5.511   6.910   2.464
10817SOL    HW133350   5.512   6.898   2.564
10817SOL    HW233351   5.567   6.988   2.439
10818SOL     OW33352   4.574   4.495   5.353
10818SOL    HW133353   4.499   4.485   5.418
10818SOL    HW233354   4.642   4.424   5.370
10819SOL     OW33355   6.627   4.325   0.277
10819SOL    HW133356   6.663   4.242   0.234
10819SOL    HW233357   6.547   4.356   0.226
10820SOL     OW33358   5.744   5.882   3.924
10820SOL    HW133359   5.771   5.792   3.960
10820SOL    HW233360   5.696   5.933   3.996
10821SOL     OW33361   5.788   6.181   2.037
10821SOL    HW133362   5.695   6.216   2.050
10821SOL    HW233363   5.851   6.259   2.026
10822SOL     OW33364   1.226   3.060   3.194
10822SOL    HW133365   1.239   3.151   3.234
10822SOL    HW233366   1.195   3.070   3.100
10823SOL     OW33367   1.817   5.370   1.998
10823SOL    HW133368   1.792   5.427   2.077
10823SOL    HW233369   1.912   5.339   2.009
10824SOL     OW33370   5.452   0.850   3.923
10824SOL    HW133371   5.359   0.823   3.948
10824SOL    HW233372   5.513   0.772   3.934
10825SOL     OW33373   3.325   0.219   6.679
10825SOL    HW133374   3.396   0.155   6.708
10825SOL    HW233375   3.268   0.177   6.608
10826SOL     OW33376   0.808   3.319   3.274
10826SOL    HW133377   0.791   3.281   3.365
10826SOL    HW233378   0.765   3.409   3.266
10827SOL     OW33379   6.006   4.160   4.473
10827SOL    HW133380   6.103   4.147   4.495
10827SOL    HW233381   5.954   4.173   4.558
10828SOL     OW33382   1.151   4.955   1.992
10828SOL    HW133383   1.239   4.979   2.033
10828SOL    HW233384   1.104   4.889   2.050
10829SOL     OW33385   3.506   2.356   0.845
10829SOL    HW133386   3.455   2.347   0.931
10829SOL    HW233387   3.478   2.440   0.799
10830SOL     OW33388   5.304   1.280   3.481
10830SOL    HW133389   5.288   1.264   3.578
10830SOL    HW233390   5.266   1.369   3.455
10831SOL     OW33391   4.333   5.798   1.677
10831SOL    HW133392   4.235   5.810   1.694
10831SOL    HW233393   4.385   5.861   1.734
10832SOL     OW33394   0.606   2.459   0.649
10832SOL    HW133395   0.526   2.427   0.599
10832SOL    HW233396   0.633   2.549   0.616
10833SOL     OW33397   1.559   1.732   2.647
10833SOL    HW133398   1.484   1.698   2.704
10833SOL    HW233399   1.521   1.789   2.574
10834SOL     OW33400   1.668   2.223   6.107
10834SOL    HW133401   1.696   2.197   6.200
10834SOL    HW233402   1.662   2.141   6.050
10835SOL     OW33403   6.065   2.039   0.346
10835SOL    HW133404   6.038   2.110   0.412
10835SOL    HW233405   6.150   2.066   0.302
10836SOL     OW33406   6.768   1.356   5.174
10836SOL    HW133407   6.860   1.389   5.196
10836SOL    HW233408   6.736   1.402   5.091
10837SOL     OW33409   6.817   4.657   0.566
10837SOL    HW133410   6.800   4.751   0.535
10837SOL    HW233411   6.815   4.653   0.665
10838SOL     OW33412   5.474   6.816   4.727
10838SOL    HW133413   5.552   6.795   4.786
10838SOL    HW233414   5.477   6.913   4.701
10839SOL     OW33415   3.284   3.015   0.850
10839SOL    HW133416   3.325   3.079   0.786
10839SOL    HW233417   3.316   3.036   0.943
10840SOL     OW33418   3.726   5.903   1.602
10840SOL    HW133419   3.652   5.838   1.594
10840SOL    HW233420   3.743   5.923   1.699
10841SOL     OW33421   3.751   6.266   0.242
10841SOL    HW133422   3.783   6.249   0.149
10841SOL    HW233423   3.829   6.282   0.302
10842SOL     OW33424   5.108   3.082   1.202
10842SOL    HW133425   5.067   2.992   1.215
10842SOL    HW233426   5.036   3.151   1.200
10843SOL     OW33427   0.405   2.198   1.529
10843SOL    HW133428   0.381   2.118   1.583
10843SOL    HW233429   0.370   2.280   1.573
10844SOL     OW33430   0.373   6.899   4.290
10844SOL    HW133431   0.394   6.997   4.297
10844SOL    HW233432   0.286   6.887   4.241
10845SOL     OW33433   3.664   0.731   6.447
10845SOL    HW133434   3.684   0.814   6.396
10845SOL    HW233435   3.584   0.746   6.505
10846SOL     OW33436   4.465   3.324   0.796
10846SOL    HW133437   4.401   3.309   0.871
10846SOL    HW233438   4.543   3.262   0.806
10847SOL     OW33439   3.771   3.340   6.551
10847SOL    HW133440   3.787   3.242   6.568
10847SOL    HW233441   3.841   3.376   6.490
10848SOL     OW33442   2.814   2.398   0.009
10848SOL    HW133443   2.816   2.483   0.061
10848SOL    HW233444   2.824   2.320   0.071
10849SOL     OW33445   2.513   4.628   2.899
10849SOL    HW133446   2.476   4.716   2.928
10849SOL    HW233447   2.553   4.637   2.808
10850SOL     OW33448   3.216   5.797   0.270
10850SOL    HW133449   3.210   5.855   0.188
10850SOL    HW233450   3.247   5.852   0.347
10851SOL     OW33451   2.694   3.262   6.954
10851SOL    HW133452   2.655   3.273   0.028
10851SOL    HW233453   2.755   3.182   6.954
10852SOL     OW33454   0.673   6.623   6.514
10852SOL    HW133455   0.600   6.670   6.465
10852SOL    HW233456   0.666   6.643   6.612
10853SOL     OW33457   3.515   2.133   5.829
10853SOL    HW133458   3.564   2.220   5.831
10853SOL    HW233459   3.512   2.100   5.734
10854SOL     OW33460   5.208   6.849   5.736
10854SOL    HW133461   5.242   6.756   5.727
10854SOL    HW233462   5.120   6.857   5.688
10855SOL     OW33463   2.932   6.244   1.756
10855SOL    HW133464   2.988   6.313   1.802
10855SOL    HW233465   2.896   6.281   1.670
10856SOL     OW33466   6.193   1.760   2.318
10856SOL    HW133467   6.183   1.696   2.242
10856SOL    HW233468   6.106   1.805   2.336
10857SOL     OW33469   6.000   3.034   3.086
10857SOL    HW133470   6.067   3.107   3.075
10857SOL    HW233471   5.958   3.015   2.997
10858SOL     OW33472   0.731   2.433   6.549
10858SOL    HW133473   0.692   2.393   6.467
10858SOL    HW233474   0.658   2.471   6.606
10859SOL     OW33475   2.151   3.732   4.071
10859SOL    HW133476   2.127   3.638   4.096
10859SOL    HW233477   2.080   3.770   4.012
10860SOL     OW33478   6.274   0.865   5.997
10860SOL    HW133479   6.368   0.834   5.986
10860SOL    HW233480   6.215   0.786   6.017
10861SOL     OW33481   3.624   3.237   3.242
10861SOL    HW133482   3.711   3.189   3.249
10861SOL    HW233483   3.558   3.197   3.305
10862SOL     OW33484   2.502   2.058   6.633
10862SOL    HW133485   2.564   2.136   6.636
10862SOL    HW233486   2.546   1.981   6.586
10863SOL     OW33487   3.992   0.790   2.782
10863SOL    HW133488   3.981   0.710   2.723
10863SOL    HW233489   3.916   0.794   2.846
10864SOL     OW33490   3.318   5.152   0.780
10864SOL    HW133491   3.328   5.142   0.879
10864SOL    HW233492   3.361   5.238   0.751
10865SOL     OW33493   5.773   1.660   3.493
10865SOL    HW133494   5.730   1.596   3.429
10865SOL    HW233495   5.849   1.706   3.448
10866SOL     OW33496   4.652   5.241   0.505
10866SOL    HW133497   4.587   5.211   0.574
10866SOL    HW233498   4.715   5.166   0.485
10867SOL     OW33499   3.478   4.116   0.234
10867SOL    HW133500   3.453   4.211   0.212
10867SOL    HW233501   3.432   4.054   0.170
10868SOL     OW33502   2.254   2.199   3.777
10868SOL    HW133503   2.180   2.150   3.730
10868SOL    HW233504   2.217   2.247   3.856
10869NA      NA33505   0.338   2.092   6.401
10870NA      NA33506   4.502   4.575   5.144
10871NA      NA33507   2.252   4.233   2.111
10872NA      NA33508   4.950   4.225   3.531
10873NA      NA33509   4.286   2.248   5.130
10874NA      NA33510   3.213   4.490   1.584
10875NA      NA33511   0.458   4.717   6.999
10876NA      NA33512   3.625   3.644   2.696
10877NA      NA33513   5.223   5.029   0.829
10878NA      NA33514   3.374   0.011   5.531
10879NA      NA33515   5.963   5.847   0.889
10880NA      NA33516   2.034   0.777   5.120
10881NA      NA33517   4.060   4.881   1.925
10882NA      NA33518   3.705   3.074   1.355
   7.01790   7.01790   7.01790
