Generated by trjconv : CNT in water t=  86.00000
33518
    1C        C    1   2.837   2.768   4.742
    1C        C    2   2.892   2.718   4.862
    1C        C    3   2.837   2.772   4.979
    1C        C    4   2.849   2.776   4.258
    1C        C    5   2.896   2.722   4.380
    1C        C    6   2.841   2.769   4.501
    1C        C    7   3.008   2.637   4.622
    1C        C    8   2.893   2.718   4.622
    1C        C    9   3.072   2.601   4.743
    1C        C   10   3.008   2.637   4.863
    1C        C   11   3.176   2.493   4.974
    1C        C   12   3.052   2.558   4.971
    1C        C   13   2.848   2.771   3.772
    1C        C   14   2.898   2.716   3.893
    1C        C   15   2.847   2.768   4.014
    1C        C   16   3.016   2.643   4.137
    1C        C   17   2.900   2.723   4.137
    1C        C   18   3.081   2.614   4.259
    1C        C   19   3.016   2.648   4.381
    1C        C   20   3.206   2.552   4.503
    1C        C   21   3.075   2.605   4.502
    1C        C   22   3.273   2.529   4.625
    1C        C   23   3.202   2.542   4.746
    1C        C   24   3.409   2.481   4.863
    1C        C   25   3.266   2.495   4.863
    1C        C   26   3.486   2.476   4.980
    1C        C   27   2.843   2.761   3.280
    1C        C   28   2.898   2.719   3.404
    1C        C   29   2.851   2.769   3.528
    1C        C   30   3.017   2.639   3.649
    1C        C   31   2.903   2.723   3.651
    1C        C   32   3.073   2.595   3.771
    1C        C   33   3.010   2.630   3.892
    1C        C   34   3.204   2.546   4.013
    1C        C   35   3.075   2.603   4.015
    1C        C   36   3.272   2.526   4.135
    1C        C   37   3.208   2.555   4.258
    1C        C   38   3.414   2.509   4.379
    1C        C   39   3.275   2.534   4.381
    1C        C   40   3.485   2.501   4.501
    1C        C   41   3.412   2.501   4.622
    1C        C   42   3.625   2.483   4.745
    1C        C   43   3.483   2.483   4.742
    1C        C   44   3.702   2.486   4.864
    1C        C   45   3.625   2.470   4.980
    1C        C   46   2.831   2.742   2.793
    1C        C   47   2.892   2.704   2.915
    1C        C   48   2.845   2.759   3.036
    1C        C   49   3.012   2.631   3.160
    1C        C   50   2.898   2.715   3.159
    1C        C   51   3.076   2.601   3.283
    1C        C   52   3.015   2.641   3.404
    1C        C   53   3.206   2.548   3.527
    1C        C   54   3.076   2.603   3.526
    1C        C   55   3.276   2.528   3.648
    1C        C   56   3.206   2.548   3.769
    1C        C   57   3.413   2.504   3.892
    1C        C   58   3.274   2.528   3.891
    1C        C   59   3.483   2.498   4.015
    1C        C   60   3.412   2.506   4.136
    1C        C   61   3.626   2.498   4.257
    1C        C   62   3.485   2.496   4.257
    1C        C   63   3.696   2.504   4.379
    1C        C   64   3.626   2.500   4.502
    1C        C   65   3.832   2.543   4.619
    1C        C   66   3.696   2.506   4.625
    1C        C   67   3.900   2.564   4.741
    1C        C   68   3.837   2.527   4.862
    1C        C   69   4.047   2.583   4.973
    1C        C   70   3.921   2.524   4.974
    1C        C   71   2.819   2.727   2.309
    1C        C   72   2.878   2.687   2.431
    1C        C   73   2.821   2.734   2.551
    1C        C   74   3.003   2.621   2.671
    1C        C   75   2.880   2.689   2.672
    1C        C   76   3.067   2.587   2.792
    1C        C   77   3.008   2.624   2.915
    1C        C   78   3.205   2.545   3.038
    1C        C   79   3.073   2.596   3.038
    1C        C   80   3.273   2.522   3.160
    1C        C   81   3.207   2.547   3.282
    1C        C   82   3.411   2.493   3.404
    1C        C   83   3.273   2.524   3.405
    1C        C   84   3.484   2.490   3.525
    1C        C   85   3.414   2.498   3.648
    1C        C   86   3.624   2.491   3.769
    1C        C   87   3.483   2.487   3.771
    1C        C   88   3.696   2.503   3.890
    1C        C   89   3.624   2.496   4.012
    1C        C   90   3.832   2.540   4.132
    1C        C   91   3.695   2.505   4.134
    1C        C   92   3.896   2.571   4.254
    1C        C   93   3.831   2.542   4.376
    1C        C   94   4.023   2.635   4.498
    1C        C   95   3.901   2.564   4.497
    1C        C   96   4.091   2.664   4.618
    1C        C   97   4.030   2.621   4.737
    1C        C   98   4.192   2.760   4.863
    1C        C   99   4.093   2.657   4.860
    1C        C  100   4.207   2.839   4.978
    1C        C  101   2.821   2.729   2.071
    1C        C  102   2.987   2.588   2.186
    1C        C  103   2.870   2.671   2.189
    1C        C  104   3.059   2.570   2.307
    1C        C  105   3.000   2.615   2.428
    1C        C  106   3.194   2.528   2.550
    1C        C  107   3.065   2.585   2.549
    1C        C  108   3.265   2.511   2.671
    1C        C  109   3.198   2.533   2.794
    1C        C  110   3.409   2.499   2.914
    1C        C  111   3.270   2.522   2.915
    1C        C  112   3.480   2.493   3.036
    1C        C  113   3.412   2.500   3.159
    1C        C  114   3.623   2.496   3.276
    1C        C  115   3.482   2.489   3.282
    1C        C  116   3.692   2.501   3.400
    1C        C  117   3.625   2.493   3.524
    1C        C  118   3.830   2.543   3.645
    1C        C  119   3.694   2.504   3.647
    1C        C  120   3.897   2.569   3.767
    1C        C  121   3.832   2.539   3.889
    1C        C  122   4.023   2.633   4.010
    1C        C  123   3.899   2.565   4.010
    1C        C  124   4.085   2.669   4.132
    1C        C  125   4.023   2.632   4.253
    1C        C  126   4.190   2.765   4.372
    1C        C  127   4.081   2.675   4.375
    1C        C  128   4.237   2.816   4.495
    1C        C  129   4.192   2.763   4.619
    1C        C  130   4.319   2.933   4.736
    1C        C  131   4.240   2.815   4.741
    1C        C  132   4.353   2.999   4.856
    1C        C  133   4.283   2.955   4.969
    1C        C  134   3.170   2.466   2.080
    1C        C  135   3.037   2.508   2.078
    1C        C  136   3.257   2.475   2.190
    1C        C  137   3.192   2.520   2.306
    1C        C  138   3.401   2.484   2.426
    1C        C  139   3.262   2.507   2.428
    1C        C  140   3.474   2.476   2.547
    1C        C  141   3.405   2.493   2.669
    1C        C  142   3.618   2.492   2.787
    1C        C  143   3.477   2.488   2.790
    1C        C  144   3.690   2.506   2.908
    1C        C  145   3.621   2.496   3.032
    1C        C  146   3.830   2.537   3.155
    1C        C  147   3.693   2.503   3.153
    1C        C  148   3.896   2.562   3.277
    1C        C  149   3.829   2.536   3.399
    1C        C  150   4.022   2.622   3.519
    1C        C  151   3.895   2.560   3.521
    1C        C  152   4.083   2.663   3.640
    1C        C  153   4.021   2.638   3.764
    1C        C  154   4.189   2.763   3.887
    1C        C  155   4.079   2.674   3.887
    1C        C  156   4.246   2.810   4.007
    1C        C  157   4.196   2.758   4.129
    1C        C  158   4.333   2.921   4.251
    1C        C  159   4.242   2.813   4.250
    1C        C  160   4.366   2.985   4.373
    1C        C  161   4.320   2.930   4.494
    1C        C  162   4.436   3.112   4.614
    1C        C  163   4.362   2.992   4.614
    1C        C  164   4.466   3.178   4.735
    1C        C  165   4.429   3.117   4.857
    1C        C  166   4.511   3.320   4.967
    1C        C  167   4.470   3.187   4.971
    1C        C  168   3.473   2.437   2.071
    1C        C  169   3.397   2.456   2.187
    1C        C  170   3.615   2.464   2.304
    1C        C  171   3.472   2.459   2.306
    1C        C  172   3.685   2.488   2.424
    1C        C  173   3.615   2.488   2.546
    1C        C  174   3.825   2.538   2.662
    1C        C  175   3.689   2.501   2.665
    1C        C  176   3.892   2.557   2.785
    1C        C  177   3.827   2.540   2.909
    1C        C  178   4.022   2.622   3.029
    1C        C  179   3.895   2.559   3.031
    1C        C  180   4.082   2.659   3.152
    1C        C  181   4.022   2.625   3.275
    1C        C  182   4.193   2.749   3.397
    1C        C  183   4.082   2.662   3.398
    1C        C  184   4.244   2.800   3.519
    1C        C  185   4.192   2.753   3.642
    1C        C  186   4.335   2.912   3.761
    1C        C  187   4.243   2.805   3.763
    1C        C  188   4.371   2.975   3.882
    1C        C  189   4.333   2.921   4.007
    1C        C  190   4.437   3.106   4.128
    1C        C  191   4.375   2.979   4.129
    1C        C  192   4.463   3.174   4.249
    1C        C  193   4.430   3.111   4.371
    1C        C  194   4.508   3.312   4.490
    1C        C  195   4.463   3.178   4.492
    1C        C  196   4.523   3.384   4.610
    1C        C  197   4.514   3.312   4.731
    1C        C  198   4.553   3.533   4.848
    1C        C  199   4.533   3.391   4.848
    1C        C  200   4.579   3.619   4.959
    1C        C  201   3.611   2.412   2.070
    1C        C  202   3.821   2.509   2.181
    1C        C  203   3.688   2.457   2.182
    1C        C  204   3.895   2.534   2.300
    1C        C  205   3.824   2.515   2.420
    1C        C  206   4.020   2.612   2.540
    1C        C  207   3.894   2.549   2.539
    1C        C  208   4.079   2.654   2.662
    1C        C  209   4.018   2.622   2.785
    1C        C  210   4.192   2.745   2.906
    1C        C  211   4.080   2.659   2.906
    1C        C  212   4.246   2.792   3.028
    1C        C  213   4.197   2.742   3.150
    1C        C  214   4.326   2.907   3.270
    1C        C  215   4.244   2.793   3.273
    1C        C  216   4.364   2.968   3.392
    1C        C  217   4.330   2.912   3.517
    1C        C  218   4.428   3.101   3.639
    1C        C  219   4.369   2.973   3.638
    1C        C  220   4.459   3.166   3.761
    1C        C  221   4.434   3.101   3.884
    1C        C  222   4.502   3.305   4.002
    1C        C  223   4.463   3.170   4.004
    1C        C  224   4.512   3.378   4.122
    1C        C  225   4.501   3.310   4.246
    1C        C  226   4.516   3.522   4.365
    1C        C  227   4.514   3.381   4.367
    1C        C  228   4.516   3.597   4.485
    1C        C  229   4.530   3.525   4.606
    1C        C  230   4.501   3.740   4.723
    1C        C  231   4.535   3.602   4.725
    1C        C  232   4.494   3.819   4.839
    1C        C  233   4.541   3.754   4.954
    1C        C  234   4.011   2.610   2.061
    1C        C  235   3.892   2.538   2.063
    1C        C  236   4.078   2.647   2.178
    1C        C  237   4.019   2.604   2.299
    1C        C  238   4.198   2.727   2.418
    1C        C  239   4.082   2.645   2.418
    1C        C  240   4.248   2.782   2.539
    1C        C  241   4.192   2.739   2.662
    1C        C  242   4.333   2.901   2.782
    1C        C  243   4.243   2.792   2.783
    1C        C  244   4.373   2.961   2.904
    1C        C  245   4.332   2.904   3.027
    1C        C  246   4.434   3.092   3.147
    1C        C  247   4.369   2.966   3.149
    1C        C  248   4.451   3.159   3.269
    1C        C  249   4.424   3.096   3.393
    1C        C  250   4.484   3.300   3.511
    1C        C  251   4.450   3.163   3.514
    1C        C  252   4.500   3.371   3.632
    1C        C  253   4.494   3.303   3.756
    1C        C  254   4.520   3.513   3.874
    1C        C  255   4.508   3.373   3.878
    1C        C  256   4.521   3.587   3.995
    1C        C  257   4.519   3.519   4.119
    1C        C  258   4.492   3.730   4.239
    1C        C  259   4.515   3.591   4.241
    1C        C  260   4.467   3.801   4.359
    1C        C  261   4.488   3.735   4.482
    1C        C  262   4.426   3.940   4.600
    1C        C  263   4.476   3.808   4.602
    1C        C  264   4.396   4.009   4.719
    1C        C  265   4.432   3.946   4.841
    1C        C  266   4.326   4.134   4.956
    1C        C  267   4.397   4.014   4.958
    1C        C  268   4.253   2.778   2.062
    1C        C  269   4.193   2.729   2.179
    1C        C  270   4.342   2.888   2.297
    1C        C  271   4.253   2.777   2.298
    1C        C  272   4.386   2.946   2.418
    1C        C  273   4.343   2.886   2.539
    1C        C  274   4.449   3.074   2.657
    1C        C  275   4.380   2.951   2.659
    1C        C  276   4.468   3.148   2.776
    1C        C  277   4.436   3.087   2.899
    1C        C  278   4.495   3.289   3.023
    1C        C  279   4.463   3.151   3.022
    1C        C  280   4.504   3.363   3.143
    1C        C  281   4.487   3.296   3.267
    1C        C  282   4.516   3.508   3.383
    1C        C  283   4.500   3.368   3.388
    1C        C  284   4.516   3.579   3.505
    1C        C  285   4.514   3.512   3.629
    1C        C  286   4.486   3.722   3.752
    1C        C  287   4.513   3.583   3.751
    1C        C  288   4.472   3.793   3.873
    1C        C  289   4.494   3.725   3.995
    1C        C  290   4.430   3.929   4.113
    1C        C  291   4.479   3.797   4.115
    1C        C  292   4.393   3.996   4.232
    1C        C  293   4.420   3.934   4.356
    1C        C  294   4.326   4.127   4.477
    1C        C  295   4.392   4.002   4.477
    1C        C  296   4.280   4.184   4.598
    1C        C  297   4.323   4.131   4.721
    1C        C  298   4.194   4.310   4.835
    1C        C  299   4.286   4.201   4.840
    1C        C  300   4.166   4.400   4.943
    1C        C  301   4.342   2.885   2.062
    1C        C  302   4.472   3.065   2.177
    1C        C  303   4.394   2.944   2.177
    1C        C  304   4.477   3.140   2.298
    1C        C  305   4.448   3.073   2.419
    1C        C  306   4.508   3.282   2.533
    1C        C  307   4.474   3.145   2.537
    1C        C  308   4.514   3.355   2.654
    1C        C  309   4.494   3.287   2.777
    1C        C  310   4.524   3.495   2.896
    1C        C  311   4.512   3.355   2.899
    1C        C  312   4.517   3.571   3.014
    1C        C  313   4.512   3.504   3.139
    1C        C  314   4.485   3.716   3.262
    1C        C  315   4.509   3.577   3.260
    1C        C  316   4.468   3.784   3.384
    1C        C  317   4.490   3.718   3.507
    1C        C  318   4.431   3.924   3.623
    1C        C  319   4.475   3.790   3.628
    1C        C  320   4.393   3.987   3.744
    1C        C  321   4.420   3.925   3.868
    1C        C  322   4.319   4.109   3.988
    1C        C  323   4.398   3.992   3.990
    1C        C  324   4.275   4.167   4.109
    1C        C  325   4.319   4.117   4.233
    1C        C  326   4.184   4.282   4.351
    1C        C  327   4.285   4.182   4.354
    1C        C  328   4.134   4.338   4.471
    1C        C  329   4.191   4.294   4.592
    1C        C  330   4.023   4.434   4.710
    1C        C  331   4.138   4.350   4.710
    1C        C  332   3.968   4.492   4.826
    1C        C  333   4.050   4.477   4.939
    1C        C  334   4.553   3.262   2.063
    1C        C  335   4.531   3.124   2.061
    1C        C  336   4.532   3.349   2.172
    1C        C  337   4.505   3.280   2.292
    1C        C  338   4.522   3.494   2.409
    1C        C  339   4.515   3.353   2.412
    1C        C  340   4.521   3.568   2.529
    1C        C  341   4.523   3.496   2.650
    1C        C  342   4.494   3.704   2.771
    1C        C  343   4.521   3.566   2.773
    1C        C  344   4.478   3.778   2.890
    1C        C  345   4.494   3.711   3.013
    1C        C  346   4.420   3.910   3.133
    1C        C  347   4.471   3.778   3.135
    1C        C  348   4.392   3.976   3.254
    1C        C  349   4.427   3.919   3.379
    1C        C  350   4.320   4.102   3.499
    1C        C  351   4.402   3.987   3.500
    1C        C  352   4.276   4.162   3.620
    1C        C  353   4.323   4.109   3.742
    1C        C  354   4.177   4.264   3.866
    1C        C  355   4.275   4.162   3.864
    1C        C  356   4.121   4.314   3.985
    1C        C  357   4.176   4.268   4.107
    1C        C  358   4.009   4.398   4.225
    1C        C  359   4.129   4.324   4.228
    1C        C  360   3.949   4.440   4.346
    1C        C  361   4.014   4.412   4.468
    1C        C  362   3.824   4.511   4.588
    1C        C  363   3.955   4.458   4.588
    1C        C  364   3.759   4.542   4.710
    1C        C  365   3.836   4.542   4.828
    1C        C  366   3.628   4.585   4.946
    1C        C  367   3.767   4.572   4.946
    1C        C  368   4.510   3.561   2.048
    1C        C  369   4.524   3.489   2.167
    1C        C  370   4.503   3.704   2.284
    1C        C  371   4.527   3.565   2.287
    1C        C  372   4.485   3.777   2.404
    1C        C  373   4.497   3.707   2.526
    1C        C  374   4.424   3.905   2.644
    1C        C  375   4.478   3.774   2.649
    1C        C  376   4.390   3.971   2.764
    1C        C  377   4.422   3.908   2.887
    1C        C  378   4.319   4.093   3.010
    1C        C  379   4.392   3.972   3.009
    1C        C  380   4.271   4.150   3.130
    1C        C  381   4.311   4.091   3.252
    1C        C  382   4.169   4.246   3.377
    1C        C  383   4.271   4.148   3.375
    1C        C  384   4.117   4.300   3.497
    1C        C  385   4.175   4.261   3.620
    1C        C  386   4.004   4.383   3.739
    1C        C  387   4.124   4.308   3.743
    1C        C  388   3.941   4.425   3.858
    1C        C  389   4.003   4.391   3.981
    1C        C  390   3.815   4.486   4.105
    1C        C  391   3.945   4.430   4.103
    1C        C  392   3.750   4.516   4.226
    1C        C  393   3.821   4.500   4.347
    1C        C  394   3.613   4.550   4.472
    1C        C  395   3.752   4.524   4.467
    1C        C  396   3.544   4.561   4.594
    1C        C  397   3.621   4.571   4.712
    1C        C  398   3.408   4.545   4.838
    1C        C  399   3.546   4.575   4.832
    1C        C  400   3.339   4.513   4.955
    1C        C  401   4.492   3.699   2.046
    1C        C  402   4.453   3.912   2.165
    1C        C  403   4.490   3.776   2.163
    1C        C  404   4.411   3.976   2.284
    1C        C  405   4.439   3.910   2.406
    1C        C  406   4.327   4.097   2.520
    1C        C  407   4.399   3.975   2.524
    1C        C  408   4.277   4.149   2.641
    1C        C  409   4.316   4.091   2.764
    1C        C  410   4.170   4.242   2.887
    1C        C  411   4.274   4.147   2.887
    1C        C  412   4.117   4.288   3.010
    1C        C  413   4.171   4.250   3.134
    1C        C  414   4.000   4.376   3.252
    1C        C  415   4.116   4.296   3.256
    1C        C  416   3.938   4.412   3.375
    1C        C  417   3.999   4.378   3.497
    1C        C  418   3.806   4.468   3.617
    1C        C  419   3.936   4.412   3.619
    1C        C  420   3.742   4.499   3.739
    1C        C  421   3.812   4.483   3.860
    1C        C  422   3.609   4.534   3.985
    1C        C  423   3.748   4.511   3.983
    1C        C  424   3.537   4.541   4.106
    1C        C  425   3.610   4.537   4.227
    1C        C  426   3.400   4.551   4.354
    1C        C  427   3.541   4.551   4.350
    1C        C  428   3.328   4.547   4.476
    1C        C  429   3.403   4.548   4.596
    1C        C  430   3.194   4.512   4.719
    1C        C  431   3.334   4.534   4.718
    1C        C  432   3.125   4.488   4.841
    1C        C  433   3.201   4.496   4.959
    1C        C  434   4.378   4.116   2.048
    1C        C  435   4.444   3.992   2.050
    1C        C  436   4.296   4.157   2.158
    1C        C  437   4.332   4.094   2.280
    1C        C  438   4.177   4.247   2.397
    1C        C  439   4.283   4.154   2.399
    1C        C  440   4.123   4.292   2.519
    1C        C  441   4.174   4.245   2.642
    1C        C  442   3.997   4.364   2.764
    1C        C  443   4.115   4.286   2.764
    1C        C  444   3.936   4.403   2.885
    1C        C  445   3.998   4.365   3.006
    1C        C  446   3.808   4.459   3.127
    1C        C  447   3.938   4.404   3.128
    1C        C  448   3.743   4.489   3.249
    1C        C  449   3.808   4.467   3.372
    1C        C  450   3.603   4.521   3.494
    1C        C  451   3.741   4.491   3.494
    1C        C  452   3.537   4.536   3.618
    1C        C  453   3.604   4.532   3.742
    1C        C  454   3.394   4.544   3.862
    1C        C  455   3.535   4.545   3.865
    1C        C  456   3.326   4.533   3.985
    1C        C  457   3.396   4.537   4.108
    1C        C  458   3.192   4.500   4.233
    1C        C  459   3.330   4.533   4.233
    1C        C  460   3.124   4.483   4.356
    1C        C  461   3.190   4.515   4.476
    1C        C  462   2.999   4.425   4.600
    1C        C  463   3.123   4.494   4.598
    1C        C  464   2.932   4.393   4.720
    1C        C  465   2.990   4.440   4.841
    1C        C  466   2.801   4.335   4.954
    1C        C  467   2.905   4.429   4.955
    1C        C  468   4.117   4.279   2.037
    1C        C  469   4.182   4.244   2.156
    1C        C  470   3.998   4.364   2.276
    1C        C  471   4.119   4.289   2.275
    1C        C  472   3.936   4.392   2.400
    1C        C  473   4.003   4.367   2.521
    1C        C  474   3.810   4.463   2.642
    1C        C  475   3.939   4.405   2.642
    1C        C  476   3.742   4.491   2.763
    1C        C  477   3.811   4.469   2.884
    1C        C  478   3.603   4.517   3.007
    1C        C  479   3.741   4.486   3.006
    1C        C  480   3.533   4.529   3.128
    1C        C  481   3.606   4.522   3.249
    1C        C  482   3.393   4.533   3.375
    1C        C  483   3.534   4.532   3.371
    1C        C  484   3.323   4.529   3.498
    1C        C  485   3.395   4.539   3.618
    1C        C  486   3.186   4.502   3.743
    1C        C  487   3.323   4.535   3.740
    1C        C  488   3.120   4.481   3.866
    1C        C  489   3.188   4.503   3.987
    1C        C  490   2.999   4.414   4.116
    1C        C  491   3.125   4.478   4.111
    1C        C  492   2.935   4.384   4.238
    1C        C  493   2.994   4.428   4.359
    1C        C  494   2.822   4.302   4.480
    1C        C  495   2.934   4.388   4.481
    1C        C  496   2.769   4.252   4.601
    1C        C  497   2.814   4.312   4.721
    1C        C  498   2.662   4.162   4.843
    1C        C  499   2.749   4.273   4.839
    1C        C  500   2.593   4.114   4.956
    1C        C  501   4.002   4.357   2.038
    1C        C  502   3.807   4.456   2.156
    1C        C  503   3.933   4.393   2.155
    1C        C  504   3.740   4.474   2.279
    1C        C  505   3.805   4.446   2.401
    1C        C  506   3.601   4.509   2.519
    1C        C  507   3.738   4.477   2.522
    1C        C  508   3.530   4.516   2.641
    1C        C  509   3.603   4.511   2.762
    1C        C  510   3.392   4.527   2.885
    1C        C  511   3.534   4.527   2.884
    1C        C  512   3.320   4.527   3.007
    1C        C  513   3.391   4.530   3.129
    1C        C  514   3.186   4.492   3.254
    1C        C  515   3.323   4.526   3.253
    1C        C  516   3.120   4.464   3.376
    1C        C  517   3.186   4.494   3.498
    1C        C  518   2.996   4.408   3.623
    1C        C  519   3.119   4.477   3.621
    1C        C  520   2.938   4.371   3.747
    1C        C  521   2.999   4.407   3.869
    1C        C  522   2.832   4.283   3.992
    1C        C  523   2.943   4.371   3.994
    1C        C  524   2.782   4.237   4.116
    1C        C  525   2.827   4.293   4.238
    1C        C  526   2.690   4.132   4.361
    1C        C  527   2.775   4.245   4.360
    1C        C  528   2.651   4.072   4.483
    1C        C  529   2.687   4.137   4.603
    1C        C  530   2.583   3.957   4.730
    1C        C  531   2.638   4.088   4.726
    1C        C  532   2.537   3.898   4.851
    1C        C  533   2.524   3.993   4.958
    1C        C  534   3.616   4.558   2.040
    1C        C  535   3.746   4.506   2.040
    1C        C  536   3.532   4.537   2.154
    1C        C  537   3.603   4.511   2.274
    1C        C  538   3.390   4.514   2.398
    1C        C  539   3.531   4.515   2.396
    1C        C  540   3.317   4.508   2.519
    1C        C  541   3.389   4.517   2.640
    1C        C  542   3.182   4.489   2.762
    1C        C  543   3.321   4.515   2.764
    1C        C  544   3.118   4.465   2.885
    1C        C  545   3.185   4.485   3.008
    1C        C  546   2.994   4.401   3.131
    1C        C  547   3.122   4.461   3.132
    1C        C  548   2.933   4.367   3.253
    1C        C  549   2.994   4.401   3.376
    1C        C  550   2.825   4.281   3.506
    1C        C  551   2.938   4.367   3.501
    1C        C  552   2.775   4.231   3.628
    1C        C  553   2.829   4.281   3.748
    1C        C  554   2.700   4.114   3.876
    1C        C  555   2.782   4.229   3.871
    1C        C  556   2.661   4.059   4.000
    1C        C  557   2.703   4.120   4.120
    1C        C  558   2.600   3.935   4.243
    1C        C  559   2.657   4.064   4.242
    1C        C  560   2.566   3.874   4.366
    1C        C  561   2.592   3.944   4.486
    1C        C  562   2.529   3.746   4.616
    1C        C  563   2.561   3.884   4.611
    1C        C  564   2.514   3.680   4.739
    1C        C  565   2.513   3.757   4.858
    1C        C  566   2.524   3.543   4.977
    1C        C  567   2.523   3.682   4.976
    1C        C  568   3.326   4.473   2.039
    1C        C  569   3.391   4.515   2.156
    1C        C  570   3.180   4.476   2.278
    1C        C  571   3.317   4.511   2.277
    1C        C  572   3.110   4.456   2.399
    1C        C  573   3.178   4.483   2.520
    1C        C  574   2.982   4.404   2.645
    1C        C  575   3.110   4.464   2.643
    1C        C  576   2.926   4.366   2.769
    1C        C  577   2.993   4.399   2.889
    1C        C  578   2.825   4.268   3.012
    1C        C  579   2.932   4.361   3.010
    1C        C  580   2.779   4.221   3.136
    1C        C  581   2.824   4.277   3.258
    1C        C  582   2.696   4.114   3.381
    1C        C  583   2.778   4.229   3.383
    1C        C  584   2.660   4.055   3.505
    1C        C  585   2.696   4.114   3.628
    1C        C  586   2.596   3.931   3.753
    1C        C  587   2.665   4.055   3.752
    1C        C  588   2.573   3.867   3.877
    1C        C  589   2.601   3.931   3.999
    1C        C  590   2.532   3.732   4.125
    1C        C  591   2.574   3.868   4.122
    1C        C  592   2.520   3.666   4.249
    1C        C  593   2.530   3.737   4.371
    1C        C  594   2.520   3.531   4.497
    1C        C  595   2.524   3.672   4.496
    1C        C  596   2.515   3.461   4.620
    1C        C  597   2.514   3.537   4.739
    1C        C  598   2.532   3.325   4.862
    1C        C  599   2.521   3.465   4.860
    1C        C  600   2.530   3.246   4.978
    1C        C  601   3.192   4.441   2.040
    1C        C  602   2.982   4.388   2.158
    1C        C  603   3.115   4.441   2.157
    1C        C  604   2.919   4.356   2.281
    1C        C  605   2.981   4.398   2.401
    1C        C  606   2.818   4.268   2.526
    1C        C  607   2.921   4.364   2.524
    1C        C  608   2.767   4.217   2.648
    1C        C  609   2.820   4.273   2.767
    1C        C  610   2.688   4.108   2.892
    1C        C  611   2.774   4.220   2.889
    1C        C  612   2.655   4.047   3.015
    1C        C  613   2.695   4.108   3.136
    1C        C  614   2.595   3.925   3.265
    1C        C  615   2.663   4.049   3.261
    1C        C  616   2.568   3.861   3.388
    1C        C  617   2.602   3.926   3.508
    1C        C  618   2.534   3.727   3.634
    1C        C  619   2.572   3.863   3.631
    1C        C  620   2.519   3.661   3.758
    1C        C  621   2.531   3.732   3.880
    1C        C  622   2.504   3.522   4.007
    1C        C  623   2.520   3.663   4.003
    1C        C  624   2.511   3.454   4.130
    1C        C  625   2.511   3.525   4.252
    1C        C  626   2.531   3.316   4.375
    1C        C  627   2.517   3.457   4.376
    1C        C  628   2.548   3.251   4.499
    1C        C  629   2.532   3.321   4.620
    1C        C  630   2.591   3.116   4.742
    1C        C  631   2.550   3.252   4.742
    1C        C  632   2.611   3.045   4.864
    1C        C  633   2.563   3.110   4.982
    1C        C  634   2.779   4.304   2.051
    1C        C  635   2.890   4.389   2.048
    1C        C  636   2.746   4.227   2.163
    1C        C  637   2.807   4.268   2.283
    1C        C  638   2.674   4.106   2.407
    1C        C  639   2.763   4.216   2.407
    1C        C  640   2.641   4.043   2.529
    1C        C  641   2.684   4.103   2.650
    1C        C  642   2.588   3.915   2.776
    1C        C  643   2.645   4.045   2.773
    1C        C  644   2.567   3.851   2.900
    1C        C  645   2.596   3.919   3.020
    1C        C  646   2.532   3.720   3.145
    1C        C  647   2.568   3.857   3.144
    1C        C  648   2.517   3.653   3.268
    1C        C  649   2.530   3.725   3.389
    1C        C  650   2.509   3.517   3.515
    1C        C  651   2.516   3.658   3.513
    1C        C  652   2.516   3.449   3.639
    1C        C  653   2.513   3.520   3.761
    1C        C  654   2.533   3.312   3.883
    1C        C  655   2.508   3.452   3.885
    1C        C  656   2.549   3.247   4.008
    1C        C  657   2.534   3.314   4.131
    1C        C  658   2.602   3.116   4.255
    1C        C  659   2.547   3.246   4.254
    1C        C  660   2.629   3.053   4.379
    1C        C  661   2.594   3.117   4.500
    1C        C  662   2.700   2.931   4.621
    1C        C  663   2.623   3.050   4.621
    1C        C  664   2.739   2.871   4.743
    1C        C  665   2.683   2.921   4.864
    1C        C  666   2.731   2.862   4.981
    1C        C  667   2.673   4.023   2.049
    1C        C  668   2.680   4.102   2.164
    1C        C  669   2.590   3.909   2.288
    1C        C  670   2.645   4.040   2.286
    1C        C  671   2.560   3.842   2.409
    1C        C  672   2.587   3.913   2.528
    1C        C  673   2.524   3.715   2.658
    1C        C  674   2.565   3.850   2.653
    1C        C  675   2.514   3.643   2.780
    1C        C  676   2.532   3.714   2.900
    1C        C  677   2.503   3.508   3.028
    1C        C  678   2.513   3.649   3.024
    1C        C  679   2.503   3.437   3.150
    1C        C  680   2.504   3.512   3.270
    1C        C  681   2.526   3.304   3.397
    1C        C  682   2.505   3.444   3.394
    1C        C  683   2.552   3.240   3.520
    1C        C  684   2.534   3.309   3.641
    1C        C  685   2.602   3.109   3.769
    1C        C  686   2.547   3.239   3.763
    1C        C  687   2.636   3.049   3.892
    1C        C  688   2.599   3.115   4.011
    1C        C  689   2.712   2.935   4.135
    1C        C  690   2.634   3.053   4.133
    1C        C  691   2.753   2.879   4.259
    1C        C  692   2.705   2.934   4.380
    1C        C  693   2.748   2.875   4.501
    1C        C  694   2.624   3.892   2.052
    1C        C  695   2.524   3.702   2.172
    1C        C  696   2.574   3.834   2.169
    1C        C  697   2.503   3.635   2.294
    1C        C  698   2.518   3.707   2.414
    1C        C  699   2.489   3.502   2.538
    1C        C  700   2.503   3.643   2.539
    1C        C  701   2.498   3.433   2.660
    1C        C  702   2.497   3.503   2.783
    1C        C  703   2.525   3.296   2.906
    1C        C  704   2.505   3.435   2.907
    1C        C  705   2.541   3.229   3.030
    1C        C  706   2.526   3.298   3.152
    1C        C  707   2.596   3.101   3.275
    1C        C  708   2.543   3.232   3.276
    1C        C  709   2.630   3.042   3.398
    1C        C  710   2.602   3.108   3.520
    1C        C  711   2.706   2.928   3.646
    1C        C  712   2.634   3.050   3.645
    1C        C  713   2.751   2.873   3.769
    1C        C  714   2.715   2.932   3.892
    1C        C  715   2.757   2.876   4.015
    1C        C  716   2.448   3.496   2.059
    1C        C  717   2.490   3.630   2.057
    1C        C  718   2.464   3.419   2.178
    1C        C  719   2.483   3.494   2.298
    1C        C  720   2.514   3.286   2.424
    1C        C  721   2.484   3.424   2.420
    1C        C  722   2.533   3.216   2.545
    1C        C  723   2.517   3.293   2.663
    1C        C  724   2.588   3.092   2.789
    1C        C  725   2.540   3.225   2.785
    1C        C  726   2.622   3.029   2.911
    1C        C  727   2.590   3.097   3.031
    1C        C  728   2.705   2.919   3.157
    1C        C  729   2.625   3.035   3.153
    1C        C  730   2.750   2.868   3.280
    1C        C  731   2.709   2.925   3.403
    1C        C  732   2.754   2.872   3.526
    1C        C  733   2.485   3.192   2.072
    1C        C  734   2.487   3.278   2.183
    1C        C  735   2.578   3.081   2.303
    1C        C  736   2.526   3.213   2.304
    1C        C  737   2.610   3.015   2.424
    1C        C  738   2.585   3.085   2.544
    1C        C  739   2.693   2.905   2.669
    1C        C  740   2.617   3.025   2.668
    1C        C  741   2.741   2.851   2.790
    1C        C  742   2.701   2.912   2.912
    1C        C  743   2.744   2.858   3.035
    1C        C  744   2.536   3.063   2.071
    1C        C  745   2.680   2.893   2.186
    1C        C  746   2.602   3.010   2.183
    1C        C  747   2.725   2.834   2.306
    1C        C  748   2.679   2.891   2.426
    1C        C  749   2.732   2.844   2.548
    1C        C  750   2.735   2.838   2.069
    1C        C  751   3.643   2.299   1.980
    1C        O  752   3.657   2.181   2.023
    1C        O  753   3.655   2.311   1.841
    1C        C  754   4.628   3.043   1.985
    1C        O  755   4.602   3.011   1.866
    1C        O  756   4.764   3.070   2.006
    1C        C  757   4.434   4.225   1.964
    1C        O  758   4.554   4.260   1.975
    1C        O  759   4.398   4.221   1.829
    1C        C  760   3.594   4.674   1.952
    1C        O  761   3.637   4.786   1.990
    1C        O  762   3.604   4.672   1.812
    1C        C  763   2.895   4.468   1.923
    1C        O  764   2.933   4.408   1.819
    1C        O  765   2.858   4.603   1.929
    1C        C  766   2.320   3.477   1.987
    1C        O  767   2.315   3.480   1.861
    1C        O  768   2.200   3.453   2.055
    1C        C  769   4.678   3.593   5.065
    1C        O  770   4.655   3.580   5.189
    1C        O  771   4.812   3.560   5.037
    1C        C  772   4.279   4.460   5.018
    1C        O  773   4.282   4.467   5.144
    1C        O  774   4.360   4.550   4.947
    1C        C  775   4.147   2.519   5.063
    1C        O  776   4.217   2.423   5.021
    1C        O  777   4.165   2.550   5.198
    1C        C  778   2.874   4.553   5.029
    1C        O  779   2.772   4.624   5.013
    1C        O  780   2.916   4.558   5.163
    1C        C  781   2.476   3.034   5.074
    1C        O  782   2.352   3.029   5.055
    1C        O  783   2.500   2.980   5.200
    1C        C  784   2.396   3.997   5.033
    1C        O  785   2.292   4.007   4.963
    1C        O  786   2.397   4.027   5.170
    1C        C  787   2.951   2.430   1.986
    1C        O  788   2.923   2.463   1.868
    1C        O  789   2.888   2.314   2.030
    1C        C  790   3.183   2.386   5.077
    1C        O  791   3.162   2.262   5.066
    1C        O  792   3.142   2.411   5.208
    1C        H  793   4.268   3.031   5.043
    1C        H  794   4.244   2.781   5.059
    1C        H  795   4.506   3.138   5.059
    1C        H  796   4.564   3.343   5.057
    1C        H  797   4.580   3.820   5.029
    1C        H  798   4.356   3.950   5.033
    1C        H  799   4.304   4.179   5.050
    1C        H  800   4.024   4.541   5.021
    1C        H  801   3.819   4.620   5.026
    1C        H  802   3.587   4.615   5.039
    1C        H  803   3.393   4.497   5.046
    1C        H  804   3.155   4.478   5.054
    1C        H  805   3.902   2.450   5.049
    1C        H  806   3.673   2.442   5.071
    1C        H  807   2.974   2.535   5.041
    1C        H  808   3.433   2.469   5.073
    1C        H  809   2.872   2.749   5.077
    1C        H  810   2.695   2.897   5.075
    1C        H  811   2.465   3.284   5.053
    1C        H  812   2.565   3.502   5.066
    1C        H  813   2.551   3.730   5.067
    1C        H  814   2.554   4.190   5.021
    1C        H  815   2.732   4.335   5.036
    1C        H  816   2.762   2.919   2.003
    1C        H  817   2.831   2.678   1.978
    1C        H  818   3.190   2.398   1.999
    1C        H  819   3.433   2.491   1.987
    1C        H  820   3.887   2.457   1.993
    1C        H  821   4.057   2.619   1.964
    1C        H  822   4.265   2.704   1.987
    1C        H  823   4.339   2.943   1.972
    1C        H  824   4.608   3.304   1.981
    1C        H  825   4.552   3.523   1.957
    1C        H  826   4.508   3.747   1.952
    1C        H  827   3.804   4.516   1.950
    1C        H  828   3.975   4.399   1.943
    1C        H  829   4.153   4.237   1.946
    1C        H  830   4.505   3.969   1.965
    1C        H  831   2.596   3.848   1.958
    1C        H  832   2.732   4.056   1.966
    1C        H  833   2.704   4.319   1.975
    1C        H  834   3.384   4.455   1.950
    1C        H  835   3.163   4.375   1.960
    1C        H  836   2.506   2.998   1.992
    1C        H  837   2.432   3.222   1.984
    1C        H  838   2.496   3.682   1.964
    2V3OU   H29  839   2.808   3.548   1.460
    2V3OU   C27  840   2.785   3.500   1.559
    2V3OU   H27  841   2.720   3.568   1.619
    2V3OU   H28  842   2.724   3.408   1.548
    2V3OU   O11  843   2.909   3.473   1.625
    2V3OU   C15  844   2.916   3.392   1.737
    2V3OU   C13  845   3.048   3.374   1.785
    2V3OU   C14  846   3.074   3.265   1.869
    2V3OU   C16  847   2.968   3.185   1.907
    2V3OU    H6  848   2.988   3.099   1.972
    2V3OU   C12  849   3.210   3.231   1.916
    2V3OU    O2  850   3.231   3.127   1.982
    2V3OU   C10  851   3.322   3.311   1.863
    2V3OU    C8  852   3.454   3.267   1.869
    2V3OU   O10  853   3.487   3.147   1.924
    2V3OU   H26  854   3.400   3.113   1.951
    2V3OU    C6  855   3.561   3.341   1.809
    2V3OU    C5  856   3.536   3.462   1.745
    2V3OU    C4  857   3.701   3.293   1.804
    2V3OU    H4  858   3.722   3.224   1.891
    2V3OU    H5  859   3.712   3.227   1.712
    2V3OU    C2  860   3.815   3.395   1.807
    2V3OU    O6  861   3.802   3.470   1.929
    2V3OU   H21  862   3.762   3.556   1.908
    2V3OU    C3  863   3.781   3.487   1.689
    2V3OU    H2  864   3.857   3.569   1.685
    2V3OU    H3  865   3.778   3.437   1.589
    2V3OU   C25  866   3.949   3.325   1.788
    2V3OU    O7  867   3.995   3.293   1.679
    2V3OU   C26  868   4.030   3.286   1.911
    2V3OU   H22  869   4.066   3.379   1.963
    2V3OU   H23  870   4.120   3.227   1.879
    2V3OU    O8  871   3.959   3.204   2.001
    2V3OU   H24  872   3.928   3.253   2.078
    2V3OU    C1  873   3.647   3.556   1.706
    2V3OU    H1  874   3.623   3.613   1.611
    2V3OU    O3  875   3.658   3.653   1.810
    2V3OU   C19  876   3.619   3.791   1.804
    2V3OU    H9  877   3.524   3.795   1.743
    2V3OU    O4  878   3.714   3.852   1.719
    2V3OU   C20  879   3.848   3.874   1.765
    2V3OU   H10  880   3.899   3.774   1.777
    2V3OU   C24  881   3.611   3.855   1.942
    2V3OU   H16  882   3.546   3.791   2.009
    2V3OU   H17  883   3.562   3.956   1.939
    2V3OU   C23  884   3.751   3.878   1.999
    2V3OU   H15  885   3.798   3.775   2.018
    2V3OU    N1  886   3.734   3.947   2.126
    2V3OU   H19  887   3.808   3.919   2.187
    2V3OU   H20  888   3.650   3.928   2.177
    2V3OU   C21  889   3.848   3.947   1.899
    2V3OU   H11  890   3.946   3.922   1.949
    2V3OU    O5  891   3.829   4.088   1.897
    2V3OU   H18  892   3.781   4.108   1.979
    2V3OU   C22  893   3.917   3.948   1.651
    2V3OU   H12  894   3.863   4.045   1.636
    2V3OU   H13  895   3.906   3.888   1.557
    2V3OU   H14  896   4.025   3.963   1.676
    2V3OU   C11  897   3.156   3.470   1.757
    2V3OU    O1  898   3.136   3.589   1.726
    2V3OU    C9  899   3.294   3.427   1.786
    2V3OU    C7  900   3.399   3.502   1.735
    2V3OU    O9  901   3.381   3.614   1.656
    2V3OU   H25  902   3.285   3.628   1.651
    2V3OU   C17  903   2.811   3.310   1.783
    2V3OU    H7  904   2.710   3.342   1.760
    2V3OU   C18  905   2.834   3.208   1.875
    2V3OU    H8  906   2.756   3.149   1.925
    3SOL     OW  907   1.327   3.276   1.103
    3SOL    HW1  908   1.417   3.316   1.087
    3SOL    HW2  909   1.302   3.288   1.199
    4SOL     OW  910   5.857   0.311   2.088
    4SOL    HW1  911   5.821   0.369   2.016
    4SOL    HW2  912   5.904   0.367   2.156
    5SOL     OW  913   3.666   1.613   1.136
    5SOL    HW1  914   3.614   1.551   1.078
    5SOL    HW2  915   3.747   1.566   1.171
    6SOL     OW  916   2.835   1.754   1.516
    6SOL    HW1  917   2.800   1.834   1.566
    6SOL    HW2  918   2.760   1.694   1.492
    7SOL     OW  919   5.988   1.503   1.975
    7SOL    HW1  920   6.075   1.481   2.020
    7SOL    HW2  921   5.970   1.436   1.903
    8SOL     OW  922   2.775   1.084   4.155
    8SOL    HW1  923   2.689   1.090   4.104
    8SOL    HW2  924   2.787   0.991   4.190
    9SOL     OW  925   1.478   3.802   5.647
    9SOL    HW1  926   1.531   3.723   5.677
    9SOL    HW2  927   1.484   3.874   5.716
   10SOL     OW  928   0.856   4.000   0.091
   10SOL    HW1  929   0.835   4.071   0.158
   10SOL    HW2  930   0.792   4.006   0.014
   11SOL     OW  931   3.920   6.752   0.041
   11SOL    HW1  932   4.012   6.790   0.033
   11SOL    HW2  933   3.893   6.751   0.137
   12SOL     OW  934   5.534   6.215   2.527
   12SOL    HW1  935   5.467   6.289   2.531
   12SOL    HW2  936   5.580   6.207   2.615
   13SOL     OW  937   2.625   6.199   3.245
   13SOL    HW1  938   2.659   6.290   3.219
   13SOL    HW2  939   2.531   6.206   3.276
   14SOL     OW  940   3.582   6.283   0.812
   14SOL    HW1  941   3.589   6.340   0.894
   14SOL    HW2  942   3.604   6.337   0.731
   15SOL     OW  943   1.427   6.780   6.844
   15SOL    HW1  944   1.450   6.692   6.888
   15SOL    HW2  945   1.476   6.853   6.890
   16SOL     OW  946   6.063   2.646   6.165
   16SOL    HW1  947   6.067   2.554   6.126
   16SOL    HW2  948   6.125   2.652   6.243
   17SOL     OW  949   5.079   6.692   4.608
   17SOL    HW1  950   5.075   6.651   4.516
   17SOL    HW2  951   5.019   6.771   4.611
   18SOL     OW  952   2.031   1.682   6.025
   18SOL    HW1  953   2.102   1.661   6.093
   18SOL    HW2  954   2.048   1.772   5.986
   19SOL     OW  955   0.636   6.998   2.486
   19SOL    HW1  956   0.564   6.932   2.463
   19SOL    HW2  957   0.665   6.985   2.580
   20SOL     OW  958   3.362   1.850   3.651
   20SOL    HW1  959   3.444   1.845   3.594
   20SOL    HW2  960   3.318   1.939   3.637
   21SOL     OW  961   2.930   2.077   1.432
   21SOL    HW1  962   2.921   2.005   1.363
   21SOL    HW2  963   2.999   2.143   1.404
   22SOL     OW  964   1.592   6.328   5.864
   22SOL    HW1  965   1.644   6.321   5.949
   22SOL    HW2  966   1.598   6.422   5.829
   23SOL     OW  967   4.051   6.344   4.685
   23SOL    HW1  968   4.102   6.407   4.744
   23SOL    HW2  969   4.011   6.271   4.741
   24SOL     OW  970   4.902   1.156   5.308
   24SOL    HW1  971   4.922   1.239   5.361
   24SOL    HW2  972   4.918   1.174   5.211
   25SOL     OW  973   3.823   5.784   0.311
   25SOL    HW1  974   3.757   5.804   0.383
   25SOL    HW2  975   3.788   5.710   0.253
   26SOL     OW  976   6.411   1.576   2.397
   26SOL    HW1  977   6.364   1.523   2.468
   26SOL    HW2  978   6.508   1.549   2.395
   27SOL     OW  979   5.950   6.774   2.630
   27SOL    HW1  980   6.002   6.835   2.689
   27SOL    HW2  981   6.009   6.737   2.558
   28SOL     OW  982   3.790   0.568   0.179
   28SOL    HW1  983   3.807   0.663   0.205
   28SOL    HW2  984   3.870   0.531   0.132
   29SOL     OW  985   4.368   2.286   1.651
   29SOL    HW1  986   4.426   2.359   1.685
   29SOL    HW2  987   4.422   2.202   1.642
   30SOL     OW  988   3.461   0.936   4.749
   30SOL    HW1  989   3.541   0.975   4.702
   30SOL    HW2  990   3.416   0.870   4.689
   31SOL     OW  991   0.314   0.824   5.005
   31SOL    HW1  992   0.308   0.734   4.961
   31SOL    HW2  993   0.247   0.831   5.079
   32SOL     OW  994   0.037   2.042   1.201
   32SOL    HW1  995   0.040   1.983   1.282
   32SOL    HW2  996   6.998   2.121   1.220
   33SOL     OW  997   2.212   2.580   6.096
   33SOL    HW1  998   2.260   2.666   6.079
   33SOL    HW2  999   2.116   2.598   6.114
   34SOL     OW 1000   1.532   0.303   4.665
   34SOL    HW1 1001   1.574   0.333   4.579
   34SOL    HW2 1002   1.553   0.206   4.680
   35SOL     OW 1003   5.205   1.487   6.594
   35SOL    HW1 1004   5.234   1.396   6.625
   35SOL    HW2 1005   5.271   1.521   6.527
   36SOL     OW 1006   1.692   1.830   5.306
   36SOL    HW1 1007   1.784   1.797   5.286
   36SOL    HW2 1008   1.696   1.894   5.383
   37SOL     OW 1009   3.266   6.908   1.530
   37SOL    HW1 1010   3.189   6.969   1.512
   37SOL    HW2 1011   3.349   6.947   1.490
   38SOL     OW 1012   0.095   6.288   3.474
   38SOL    HW1 1013   0.058   6.374   3.440
   38SOL    HW2 1014   0.192   6.300   3.495
   39SOL     OW 1015   6.680   3.254   5.040
   39SOL    HW1 1016   6.583   3.241   5.063
   39SOL    HW2 1017   6.728   3.293   5.118
   40SOL     OW 1018   6.437   1.162   2.338
   40SOL    HW1 1019   6.522   1.142   2.289
   40SOL    HW2 1020   6.359   1.142   2.279
   41SOL     OW 1021   1.305   6.772   5.450
   41SOL    HW1 1022   1.371   6.804   5.382
   41SOL    HW2 1023   1.289   6.675   5.438
   42SOL     OW 1024   3.568   0.849   0.206
   42SOL    HW1 1025   3.609   0.824   0.294
   42SOL    HW2 1026   3.485   0.795   0.190
   43SOL     OW 1027   5.231   6.386   5.345
   43SOL    HW1 1028   5.313   6.399   5.289
   43SOL    HW2 1029   5.152   6.427   5.299
   44SOL     OW 1030   1.078   2.969   6.305
   44SOL    HW1 1031   1.029   2.974   6.393
   44SOL    HW2 1032   1.091   2.873   6.280
   45SOL     OW 1033   2.482   0.690   1.730
   45SOL    HW1 1034   2.577   0.698   1.760
   45SOL    HW2 1035   2.480   0.660   1.635
   46SOL     OW 1036   1.451   4.206   4.646
   46SOL    HW1 1037   1.512   4.241   4.718
   46SOL    HW2 1038   1.422   4.113   4.670
   47SOL     OW 1039   6.827   4.627   3.640
   47SOL    HW1 1040   6.840   4.542   3.691
   47SOL    HW2 1041   6.899   4.692   3.665
   48SOL     OW 1042   6.917   2.206   5.103
   48SOL    HW1 1043   6.878   2.139   5.040
   48SOL    HW2 1044   6.849   2.277   5.124
   49SOL     OW 1045   4.653   2.519   0.714
   49SOL    HW1 1046   4.667   2.435   0.766
   49SOL    HW2 1047   4.734   2.538   0.659
   50SOL     OW 1048   6.686   4.144   4.294
   50SOL    HW1 1049   6.640   4.140   4.382
   50SOL    HW2 1050   6.781   4.170   4.307
   51SOL     OW 1051   3.435   4.949   2.825
   51SOL    HW1 1052   3.357   4.892   2.795
   51SOL    HW2 1053   3.437   5.033   2.771
   52SOL     OW 1054   2.308   1.677   2.190
   52SOL    HW1 1055   2.362   1.737   2.132
   52SOL    HW2 1056   2.247   1.622   2.133
   53SOL     OW 1057   5.085   0.030   4.273
   53SOL    HW1 1058   5.001   7.001   4.246
   53SOL    HW2 1059   5.113   0.092   4.199
   54SOL     OW 1060   4.023   5.295   5.893
   54SOL    HW1 1061   3.937   5.244   5.890
   54SOL    HW2 1062   4.062   5.299   5.801
   55SOL     OW 1063   3.910   2.412   6.370
   55SOL    HW1 1064   3.921   2.469   6.452
   55SOL    HW2 1065   3.817   2.424   6.333
   56SOL     OW 1066   0.940   0.402   2.504
   56SOL    HW1 1067   0.881   0.480   2.519
   56SOL    HW2 1068   0.986   0.411   2.416
   57SOL     OW 1069   5.689   0.955   0.394
   57SOL    HW1 1070   5.662   1.034   0.338
   57SOL    HW2 1071   5.787   0.959   0.413
   58SOL     OW 1072   0.309   6.122   6.873
   58SOL    HW1 1073   0.219   6.093   6.905
   58SOL    HW2 1074   0.373   6.122   6.950
   59SOL     OW 1075   1.618   0.296   5.746
   59SOL    HW1 1076   1.681   0.229   5.783
   59SOL    HW2 1077   1.563   0.335   5.820
   60SOL     OW 1078   4.513   0.080   5.120
   60SOL    HW1 1079   4.493   0.160   5.176
   60SOL    HW2 1080   4.554   0.009   5.177
   61SOL     OW 1081   4.752   0.234   4.165
   61SOL    HW1 1082   4.820   0.189   4.223
   61SOL    HW2 1083   4.782   0.327   4.146
   62SOL     OW 1084   1.889   0.490   4.343
   62SOL    HW1 1085   1.963   0.490   4.411
   62SOL    HW2 1086   1.889   0.403   4.293
   63SOL     OW 1087   6.900   2.808   3.143
   63SOL    HW1 1088   6.934   2.869   3.215
   63SOL    HW2 1089   6.958   2.816   3.062
   64SOL     OW 1090   6.893   3.530   5.968
   64SOL    HW1 1091   6.925   3.584   6.046
   64SOL    HW2 1092   6.801   3.559   5.943
   65SOL     OW 1093   6.792   4.838   5.747
   65SOL    HW1 1094   6.747   4.888   5.673
   65SOL    HW2 1095   6.871   4.789   5.710
   66SOL     OW 1096   3.292   0.831   0.318
   66SOL    HW1 1097   3.300   0.856   0.222
   66SOL    HW2 1098   3.247   0.741   0.326
   67SOL     OW 1099   5.288   5.788   4.862
   67SOL    HW1 1100   5.265   5.873   4.909
   67SOL    HW2 1101   5.233   5.780   4.779
   68SOL     OW 1102   6.100   2.308   5.823
   68SOL    HW1 1103   6.060   2.367   5.752
   68SOL    HW2 1104   6.059   2.329   5.911
   69SOL     OW 1105   2.900   3.863   6.437
   69SOL    HW1 1106   2.969   3.792   6.421
   69SOL    HW2 1107   2.937   3.952   6.413
   70SOL     OW 1108   6.759   5.414   2.673
   70SOL    HW1 1109   6.807   5.486   2.623
   70SOL    HW2 1110   6.766   5.328   2.622
   71SOL     OW 1111   1.468   2.937   3.006
   71SOL    HW1 1112   1.520   2.852   3.006
   71SOL    HW2 1113   1.464   2.973   2.913
   72SOL     OW 1114   2.756   5.611   3.751
   72SOL    HW1 1115   2.703   5.672   3.811
   72SOL    HW2 1116   2.698   5.536   3.721
   73SOL     OW 1117   4.486   2.249   0.158
   73SOL    HW1 1118   4.426   2.329   0.161
   73SOL    HW2 1119   4.439   2.175   0.110
   74SOL     OW 1120   5.337   5.984   6.441
   74SOL    HW1 1121   5.346   6.011   6.537
   74SOL    HW2 1122   5.399   6.039   6.385
   75SOL     OW 1123   3.939   5.627   5.630
   75SOL    HW1 1124   3.893   5.686   5.563
   75SOL    HW2 1125   3.898   5.536   5.628
   76SOL     OW 1126   2.768   2.592   1.547
   76SOL    HW1 1127   2.861   2.608   1.581
   76SOL    HW2 1128   2.748   2.658   1.474
   77SOL     OW 1129   6.176   5.555   5.632
   77SOL    HW1 1130   6.245   5.483   5.634
   77SOL    HW2 1131   6.212   5.635   5.584
   78SOL     OW 1132   6.607   6.754   5.755
   78SOL    HW1 1133   6.682   6.819   5.762
   78SOL    HW2 1134   6.612   6.689   5.830
   79SOL     OW 1135   2.937   0.104   0.491
   79SOL    HW1 1136   2.954   0.154   0.576
   79SOL    HW2 1137   3.023   0.089   0.443
   80SOL     OW 1138   0.094   1.351   4.262
   80SOL    HW1 1139   0.144   1.419   4.209
   80SOL    HW2 1140   0.018   1.395   4.310
   81SOL     OW 1141   1.755   1.248   2.733
   81SOL    HW1 1142   1.703   1.270   2.816
   81SOL    HW2 1143   1.843   1.208   2.760
   82SOL     OW 1144   6.645   4.438   6.086
   82SOL    HW1 1145   6.725   4.475   6.134
   82SOL    HW2 1146   6.562   4.464   6.135
   83SOL     OW 1147   0.426   6.529   0.353
   83SOL    HW1 1148   0.336   6.567   0.373
   83SOL    HW2 1149   0.494   6.602   0.348
   84SOL     OW 1150   5.346   3.973   1.637
   84SOL    HW1 1151   5.434   3.947   1.599
   84SOL    HW2 1152   5.291   3.891   1.655
   85SOL     OW 1153   1.260   1.953   5.614
   85SOL    HW1 1154   1.317   1.876   5.585
   85SOL    HW2 1155   1.164   1.926   5.612
   86SOL     OW 1156   0.602   0.568   5.594
   86SOL    HW1 1157   0.634   0.663   5.592
   86SOL    HW2 1158   0.657   0.515   5.659
   87SOL     OW 1159   4.798   1.632   0.619
   87SOL    HW1 1160   4.775   1.546   0.572
   87SOL    HW2 1161   4.769   1.709   0.562
   88SOL     OW 1162   5.566   1.329   0.969
   88SOL    HW1 1163   5.651   1.354   1.014
   88SOL    HW2 1164   5.496   1.398   0.989
   89SOL     OW 1165   1.502   2.596   6.272
   89SOL    HW1 1166   1.427   2.614   6.209
   89SOL    HW2 1167   1.543   2.683   6.301
   90SOL     OW 1168   5.124   5.977   4.039
   90SOL    HW1 1169   5.152   6.011   4.129
   90SOL    HW2 1170   5.157   6.040   3.968
   91SOL     OW 1171   5.126   4.547   5.282
   91SOL    HW1 1172   5.095   4.523   5.190
   91SOL    HW2 1173   5.047   4.551   5.344
   92SOL     OW 1174   3.455   4.536   1.213
   92SOL    HW1 1175   3.477   4.634   1.219
   92SOL    HW2 1176   3.487   4.490   1.296
   93SOL     OW 1177   3.536   5.541   6.186
   93SOL    HW1 1178   3.466   5.604   6.152
   93SOL    HW2 1179   3.498   5.486   6.260
   94SOL     OW 1180   3.133   5.901   0.190
   94SOL    HW1 1181   3.165   5.807   0.203
   94SOL    HW2 1182   3.070   5.905   0.113
   95SOL     OW 1183   0.270   0.142   4.008
   95SOL    HW1 1184   0.369   0.136   3.992
   95SOL    HW2 1185   0.249   0.111   4.100
   96SOL     OW 1186   2.292   0.036   5.494
   96SOL    HW1 1187   2.231   0.115   5.497
   96SOL    HW2 1188   2.279   6.998   5.576
   97SOL     OW 1189   6.138   3.276   4.386
   97SOL    HW1 1190   6.066   3.241   4.327
   97SOL    HW2 1191   6.178   3.201   4.439
   98SOL     OW 1192   4.970   2.281   6.109
   98SOL    HW1 1193   4.949   2.322   6.020
   98SOL    HW2 1194   5.039   2.210   6.097
   99SOL     OW 1195   4.272   1.911   0.968
   99SOL    HW1 1196   4.232   1.965   1.043
   99SOL    HW2 1197   4.358   1.953   0.939
  100SOL     OW 1198   0.677   5.947   6.724
  100SOL    HW1 1199   0.593   5.922   6.676
  100SOL    HW2 1200   0.750   5.884   6.697
  101SOL     OW 1201   1.564   6.236   3.658
  101SOL    HW1 1202   1.618   6.183   3.723
  101SOL    HW2 1203   1.520   6.174   3.593
  102SOL     OW 1204   3.604   0.569   3.531
  102SOL    HW1 1205   3.676   0.604   3.592
  102SOL    HW2 1206   3.519   0.619   3.547
  103SOL     OW 1207   3.953   2.526   1.426
  103SOL    HW1 1208   3.898   2.555   1.504
  103SOL    HW2 1209   4.014   2.452   1.453
  104SOL     OW 1210   6.998   5.734   2.212
  104SOL    HW1 1211   0.019   5.820   2.246
  104SOL    HW2 1212   0.008   5.720   2.117
  105SOL     OW 1213   5.489   0.963   6.316
  105SOL    HW1 1214   5.546   1.045   6.319
  105SOL    HW2 1215   5.515   0.901   6.391
  106SOL     OW 1216   2.914   6.380   6.483
  106SOL    HW1 1217   2.946   6.297   6.439
  106SOL    HW2 1218   2.951   6.460   6.437
  107SOL     OW 1219   2.238   2.607   0.682
  107SOL    HW1 1220   2.192   2.597   0.594
  107SOL    HW2 1221   2.188   2.556   0.752
  108SOL     OW 1222   5.061   4.559   6.268
  108SOL    HW1 1223   5.155   4.577   6.240
  108SOL    HW2 1224   5.000   4.572   6.189
  109SOL     OW 1225   6.954   0.502   0.433
  109SOL    HW1 1226   6.973   0.542   0.343
  109SOL    HW2 1227   6.869   0.541   0.469
  110SOL     OW 1228   3.505   5.851   5.358
  110SOL    HW1 1229   3.549   5.873   5.445
  110SOL    HW2 1230   3.411   5.883   5.359
  111SOL     OW 1231   3.918   1.222   3.315
  111SOL    HW1 1232   3.869   1.158   3.256
  111SOL    HW2 1233   4.008   1.240   3.276
  112SOL     OW 1234   6.548   6.277   5.903
  112SOL    HW1 1235   6.612   6.246   5.973
  112SOL    HW2 1236   6.483   6.341   5.944
  113SOL     OW 1237   0.305   4.631   3.505
  113SOL    HW1 1238   0.280   4.699   3.574
  113SOL    HW2 1239   0.393   4.590   3.529
  114SOL     OW 1240   0.618   6.752   0.326
  114SOL    HW1 1241   0.539   6.806   0.355
  114SOL    HW2 1242   0.682   6.810   0.276
  115SOL     OW 1243   5.235   1.514   4.485
  115SOL    HW1 1244   5.182   1.480   4.563
  115SOL    HW2 1245   5.210   1.609   4.466
  116SOL     OW 1246   6.191   4.455   2.082
  116SOL    HW1 1247   6.145   4.371   2.053
  116SOL    HW2 1248   6.183   4.465   2.181
  117SOL     OW 1249   1.646   0.236   6.352
  117SOL    HW1 1250   1.683   0.215   6.443
  117SOL    HW2 1251   1.668   0.162   6.289
  118SOL     OW 1252   0.572   0.641   2.173
  118SOL    HW1 1253   0.564   0.716   2.238
  118SOL    HW2 1254   0.536   0.670   2.084
  119SOL     OW 1255   6.757   2.750   5.673
  119SOL    HW1 1256   6.726   2.845   5.668
  119SOL    HW2 1257   6.694   2.691   5.621
  120SOL     OW 1258   5.902   6.808   0.852
  120SOL    HW1 1259   5.822   6.859   0.822
  120SOL    HW2 1260   5.913   6.726   0.796
  121SOL     OW 1261   2.374   3.532   6.097
  121SOL    HW1 1262   2.356   3.629   6.114
  121SOL    HW2 1263   2.441   3.523   6.023
  122SOL     OW 1264   0.602   3.320   4.500
  122SOL    HW1 1265   0.595   3.397   4.563
  122SOL    HW2 1266   0.691   3.323   4.454
  123SOL     OW 1267   0.509   1.702   1.207
  123SOL    HW1 1268   0.428   1.644   1.209
  123SOL    HW2 1269   0.559   1.687   1.122
  124SOL     OW 1270   4.516   3.124   0.620
  124SOL    HW1 1271   4.452   3.103   0.694
  124SOL    HW2 1272   4.561   3.039   0.591
  125SOL     OW 1273   1.736   2.294   1.950
  125SOL    HW1 1274   1.795   2.368   1.920
  125SOL    HW2 1275   1.771   2.207   1.916
  126SOL     OW 1276   3.044   4.915   1.471
  126SOL    HW1 1277   2.951   4.897   1.502
  126SOL    HW2 1278   3.043   4.939   1.374
  127SOL     OW 1279   6.999   5.720   5.762
  127SOL    HW1 1280   0.032   5.771   5.693
  127SOL    HW2 1281   0.033   5.719   5.847
  128SOL     OW 1282   4.846   2.442   1.551
  128SOL    HW1 1283   4.781   2.373   1.583
  128SOL    HW2 1284   4.836   2.525   1.605
  129SOL     OW 1285   3.293   3.633   6.834
  129SOL    HW1 1286   3.207   3.634   6.784
  129SOL    HW2 1287   3.368   3.653   6.772
  130SOL     OW 1288   1.059   1.052   4.471
  130SOL    HW1 1289   1.132   1.008   4.524
  130SOL    HW2 1290   1.060   1.018   4.377
  131SOL     OW 1291   4.825   1.662   2.979
  131SOL    HW1 1292   4.889   1.693   2.908
  131SOL    HW2 1293   4.845   1.710   3.064
  132SOL     OW 1294   1.323   2.663   1.822
  132SOL    HW1 1295   1.328   2.737   1.754
  132SOL    HW2 1296   1.412   2.618   1.828
  133SOL     OW 1297   6.418   6.026   2.564
  133SOL    HW1 1298   6.446   5.931   2.574
  133SOL    HW2 1299   6.474   6.071   2.495
  134SOL     OW 1300   6.975   3.597   2.971
  134SOL    HW1 1301   6.880   3.570   2.953
  134SOL    HW2 1302   6.976   3.672   3.036
  135SOL     OW 1303   4.844   1.830   3.990
  135SOL    HW1 1304   4.851   1.731   3.981
  135SOL    HW2 1305   4.758   1.854   4.035
  136SOL     OW 1306   5.058   4.057   5.529
  136SOL    HW1 1307   5.143   4.109   5.518
  136SOL    HW2 1308   4.988   4.094   5.468
  137SOL     OW 1309   4.497   0.019   5.935
  137SOL    HW1 1310   4.532   6.955   5.888
  137SOL    HW2 1311   4.486   0.093   5.868
  138SOL     OW 1312   6.932   5.221   4.840
  138SOL    HW1 1313   6.859   5.193   4.778
  138SOL    HW2 1314   7.018   5.176   4.815
  139SOL     OW 1315   2.936   5.012   5.160
  139SOL    HW1 1316   2.979   4.923   5.175
  139SOL    HW2 1317   2.875   5.007   5.081
  140SOL     OW 1318   5.518   5.116   4.627
  140SOL    HW1 1319   5.576   5.043   4.592
  140SOL    HW2 1320   5.570   5.173   4.690
  141SOL     OW 1321   1.414   1.900   4.425
  141SOL    HW1 1322   1.331   1.944   4.459
  141SOL    HW2 1323   1.475   1.880   4.501
  142SOL     OW 1324   1.634   6.097   1.304
  142SOL    HW1 1325   1.537   6.076   1.291
  142SOL    HW2 1326   1.644   6.160   1.381
  143SOL     OW 1327   5.284   4.564   2.472
  143SOL    HW1 1328   5.310   4.581   2.377
  143SOL    HW2 1329   5.187   4.537   2.476
  144SOL     OW 1330   1.772   6.707   6.850
  144SOL    HW1 1331   1.782   6.675   6.944
  144SOL    HW2 1332   1.860   6.741   6.816
  145SOL     OW 1333   0.294   5.871   0.828
  145SOL    HW1 1334   0.383   5.894   0.788
  145SOL    HW2 1335   0.271   5.776   0.805
  146SOL     OW 1336   5.545   6.168   1.046
  146SOL    HW1 1337   5.497   6.135   1.128
  146SOL    HW2 1338   5.478   6.197   0.978
  147SOL     OW 1339   6.938   2.540   0.760
  147SOL    HW1 1340   6.863   2.589   0.806
  147SOL    HW2 1341   7.005   2.606   0.726
  148SOL     OW 1342   1.112   5.232   5.710
  148SOL    HW1 1343   1.117   5.332   5.704
  148SOL    HW2 1344   1.192   5.193   5.665
  149SOL     OW 1345   3.114   1.191   4.535
  149SOL    HW1 1346   3.020   1.191   4.570
  149SOL    HW2 1347   3.128   1.109   4.479
  150SOL     OW 1348   0.193   5.141   6.975
  150SOL    HW1 1349   0.236   5.069   0.012
  150SOL    HW2 1350   0.218   5.130   6.879
  151SOL     OW 1351   4.008   1.638   1.390
  151SOL    HW1 1352   4.053   1.575   1.452
  151SOL    HW2 1353   3.912   1.610   1.379
  152SOL     OW 1354   2.776   0.776   4.509
  152SOL    HW1 1355   2.755   0.806   4.416
  152SOL    HW2 1356   2.874   0.788   4.527
  153SOL     OW 1357   1.932   1.078   2.914
  153SOL    HW1 1358   1.904   1.145   2.982
  153SOL    HW2 1359   1.921   0.986   2.950
  154SOL     OW 1360   6.648   2.178   1.925
  154SOL    HW1 1361   6.591   2.134   1.855
  154SOL    HW2 1362   6.621   2.145   2.015
  155SOL     OW 1363   6.903   0.763   2.598
  155SOL    HW1 1364   6.900   0.757   2.698
  155SOL    HW2 1365   6.998   0.769   2.567
  156SOL     OW 1366   6.110   2.092   0.632
  156SOL    HW1 1367   6.178   2.060   0.699
  156SOL    HW2 1368   6.146   2.080   0.540
  157SOL     OW 1369   6.181   3.411   2.706
  157SOL    HW1 1370   6.245   3.475   2.664
  157SOL    HW2 1371   6.192   3.413   2.806
  158SOL     OW 1372   2.415   0.956   2.797
  158SOL    HW1 1373   2.502   1.003   2.788
  158SOL    HW2 1374   2.346   1.019   2.833
  159SOL     OW 1375   4.822   4.133   1.961
  159SOL    HW1 1376   4.736   4.181   1.944
  159SOL    HW2 1377   4.835   4.123   2.060
  160SOL     OW 1378   6.652   4.063   5.808
  160SOL    HW1 1379   6.704   3.987   5.770
  160SOL    HW2 1380   6.604   4.111   5.735
  161SOL     OW 1381   1.871   4.932   5.216
  161SOL    HW1 1382   1.845   4.939   5.313
  161SOL    HW2 1383   1.806   4.985   5.161
  162SOL     OW 1384   4.470   5.683   1.167
  162SOL    HW1 1385   4.471   5.780   1.189
  162SOL    HW2 1386   4.379   5.646   1.186
  163SOL     OW 1387   4.758   0.312   1.875
  163SOL    HW1 1388   4.713   0.340   1.790
  163SOL    HW2 1389   4.714   0.228   1.908
  164SOL     OW 1390   6.077   3.459   1.202
  164SOL    HW1 1391   6.063   3.450   1.103
  164SOL    HW2 1392   6.022   3.390   1.249
  165SOL     OW 1393   4.854   3.079   6.648
  165SOL    HW1 1394   4.868   3.085   6.747
  165SOL    HW2 1395   4.855   3.170   6.608
  166SOL     OW 1396   0.355   6.785   2.387
  166SOL    HW1 1397   0.272   6.730   2.388
  166SOL    HW2 1398   0.340   6.867   2.332
  167SOL     OW 1399   6.284   2.786   6.903
  167SOL    HW1 1400   6.312   2.793   6.808
  167SOL    HW2 1401   6.326   2.860   6.956
  168SOL     OW 1402   2.201   5.264   1.037
  168SOL    HW1 1403   2.189   5.218   1.125
  168SOL    HW2 1404   2.262   5.342   1.049
  169SOL     OW 1405   2.064   0.150   1.929
  169SOL    HW1 1406   2.052   0.246   1.901
  169SOL    HW2 1407   2.099   0.097   1.853
  170SOL     OW 1408   0.193   1.610   3.523
  170SOL    HW1 1409   0.277   1.657   3.497
  170SOL    HW2 1410   0.179   1.532   3.463
  171SOL     OW 1411   3.830   3.837   0.283
  171SOL    HW1 1412   3.743   3.822   0.238
  171SOL    HW2 1413   3.814   3.859   0.379
  172SOL     OW 1414   6.708   2.381   5.149
  172SOL    HW1 1415   6.713   2.480   5.157
  172SOL    HW2 1416   6.673   2.342   5.235
  173SOL     OW 1417   0.308   6.887   4.957
  173SOL    HW1 1418   0.250   6.840   5.023
  173SOL    HW2 1419   0.262   6.971   4.926
  174SOL     OW 1420   2.472   5.121   3.786
  174SOL    HW1 1421   2.426   5.091   3.703
  174SOL    HW2 1422   2.419   5.093   3.866
  175SOL     OW 1423   1.818   5.874   2.576
  175SOL    HW1 1424   1.889   5.923   2.524
  175SOL    HW2 1425   1.847   5.781   2.593
  176SOL     OW 1426   1.952   4.043   1.022
  176SOL    HW1 1427   1.971   4.112   0.952
  176SOL    HW2 1428   2.038   4.016   1.066
  177SOL     OW 1429   4.897   2.314   2.284
  177SOL    HW1 1430   4.927   2.220   2.304
  177SOL    HW2 1431   4.799   2.314   2.264
  178SOL     OW 1432   5.117   4.892   6.772
  178SOL    HW1 1433   5.121   4.971   6.712
  178SOL    HW2 1434   5.100   4.810   6.718
  179SOL     OW 1435   3.074   0.203   0.718
  179SOL    HW1 1436   3.155   0.154   0.687
  179SOL    HW2 1437   3.099   0.296   0.745
  180SOL     OW 1438   0.424   1.277   6.676
  180SOL    HW1 1439   0.470   1.299   6.589
  180SOL    HW2 1440   0.434   1.354   6.739
  181SOL     OW 1441   3.776   2.840   5.634
  181SOL    HW1 1442   3.861   2.787   5.625
  181SOL    HW2 1443   3.799   2.938   5.635
  182SOL     OW 1444   4.041   2.090   4.834
  182SOL    HW1 1445   4.010   1.999   4.807
  182SOL    HW2 1446   4.036   2.100   4.933
  183SOL     OW 1447   4.897   1.290   1.755
  183SOL    HW1 1448   4.983   1.238   1.752
  183SOL    HW2 1449   4.908   1.368   1.817
  184SOL     OW 1450   0.627   4.984   3.060
  184SOL    HW1 1451   0.652   5.001   3.155
  184SOL    HW2 1452   0.581   4.895   3.053
  185SOL     OW 1453   1.908   3.492   5.952
  185SOL    HW1 1454   1.828   3.466   6.006
  185SOL    HW2 1455   1.980   3.524   6.013
  186SOL     OW 1456   5.459   0.236   3.459
  186SOL    HW1 1457   5.461   0.217   3.361
  186SOL    HW2 1458   5.551   0.256   3.491
  187SOL     OW 1459   5.389   0.810   4.244
  187SOL    HW1 1460   5.335   0.786   4.163
  187SOL    HW2 1461   5.479   0.767   4.239
  188SOL     OW 1462   6.120   2.358   3.410
  188SOL    HW1 1463   6.131   2.431   3.477
  188SOL    HW2 1464   6.059   2.287   3.447
  189SOL     OW 1465   1.857   4.582   2.318
  189SOL    HW1 1466   1.919   4.506   2.298
  189SOL    HW2 1467   1.777   4.547   2.368
  190SOL     OW 1468   3.903   0.851   5.506
  190SOL    HW1 1469   3.804   0.862   5.506
  190SOL    HW2 1470   3.944   0.915   5.440
  191SOL     OW 1471   5.795   5.320   6.596
  191SOL    HW1 1472   5.864   5.321   6.669
  191SOL    HW2 1473   5.704   5.328   6.636
  192SOL     OW 1474   6.808   0.641   1.918
  192SOL    HW1 1475   6.786   0.714   1.983
  192SOL    HW2 1476   6.766   0.555   1.950
  193SOL     OW 1477   5.431   3.959   6.851
  193SOL    HW1 1478   5.510   3.977   6.909
  193SOL    HW2 1479   5.348   3.961   6.906
  194SOL     OW 1480   3.398   0.713   3.626
  194SOL    HW1 1481   3.391   0.803   3.584
  194SOL    HW2 1482   3.323   0.655   3.593
  195SOL     OW 1483   1.246   5.741   3.321
  195SOL    HW1 1484   1.181   5.802   3.276
  195SOL    HW2 1485   1.203   5.652   3.337
  196SOL     OW 1486   1.310   1.819   0.246
  196SOL    HW1 1487   1.218   1.847   0.272
  196SOL    HW2 1488   1.308   1.780   0.154
  197SOL     OW 1489   1.581   0.835   1.063
  197SOL    HW1 1490   1.537   0.800   1.146
  197SOL    HW2 1491   1.678   0.851   1.082
  198SOL     OW 1492   3.464   2.123   3.483
  198SOL    HW1 1493   3.445   2.089   3.391
  198SOL    HW2 1494   3.377   2.135   3.532
  199SOL     OW 1495   1.197   2.622   3.556
  199SOL    HW1 1496   1.150   2.552   3.502
  199SOL    HW2 1497   1.261   2.578   3.619
  200SOL     OW 1498   0.107   2.652   0.420
  200SOL    HW1 1499   0.128   2.729   0.361
  200SOL    HW2 1500   0.094   2.570   0.365
  201SOL     OW 1501   0.464   0.771   6.268
  201SOL    HW1 1502   0.498   0.694   6.215
  201SOL    HW2 1503   0.523   0.785   6.348
  202SOL     OW 1504   4.464   6.893   6.840
  202SOL    HW1 1505   4.447   6.984   6.802
  202SOL    HW2 1506   4.455   6.824   6.768
  203SOL     OW 1507   5.811   2.763   5.583
  203SOL    HW1 1508   5.739   2.827   5.557
  203SOL    HW2 1509   5.813   2.688   5.517
  204SOL     OW 1510   6.492   1.101   5.880
  204SOL    HW1 1511   6.447   1.190   5.891
  204SOL    HW2 1512   6.426   1.035   5.845
  205SOL     OW 1513   0.875   2.821   1.960
  205SOL    HW1 1514   0.898   2.817   1.863
  205SOL    HW2 1515   0.838   2.911   1.982
  206SOL     OW 1516   0.691   2.850   0.697
  206SOL    HW1 1517   0.600   2.876   0.729
  206SOL    HW2 1518   0.704   2.881   0.603
  207SOL     OW 1519   5.156   2.021   3.929
  207SOL    HW1 1520   5.119   2.106   3.967
  207SOL    HW2 1521   5.097   1.989   3.856
  208SOL     OW 1522   1.057   3.967   4.403
  208SOL    HW1 1523   1.138   4.025   4.412
  208SOL    HW2 1524   1.035   3.956   4.306
  209SOL     OW 1525   6.493   4.102   2.590
  209SOL    HW1 1526   6.517   4.028   2.653
  209SOL    HW2 1527   6.558   4.177   2.600
  210SOL     OW 1528   5.357   2.609   0.151
  210SOL    HW1 1529   5.264   2.614   0.187
  210SOL    HW2 1530   5.386   2.513   0.147
  211SOL     OW 1531   0.119   1.012   3.653
  211SOL    HW1 1532   0.187   0.939   3.656
  211SOL    HW2 1533   0.165   1.099   3.636
  212SOL     OW 1534   1.983   3.673   3.316
  212SOL    HW1 1535   2.015   3.693   3.409
  212SOL    HW2 1536   1.931   3.587   3.317
  213SOL     OW 1537   1.844   4.982   1.169
  213SOL    HW1 1538   1.756   4.938   1.154
  213SOL    HW2 1539   1.833   5.057   1.235
  214SOL     OW 1540   4.104   6.088   2.464
  214SOL    HW1 1541   4.019   6.065   2.417
  214SOL    HW2 1542   4.145   6.005   2.501
  215SOL     OW 1543   2.589   4.660   2.194
  215SOL    HW1 1544   2.682   4.648   2.159
  215SOL    HW2 1545   2.564   4.757   2.188
  216SOL     OW 1546   1.454   6.876   2.450
  216SOL    HW1 1547   1.442   6.797   2.390
  216SOL    HW2 1548   1.468   6.958   2.394
  217SOL     OW 1549   1.598   3.961   6.153
  217SOL    HW1 1550   1.511   3.934   6.196
  217SOL    HW2 1551   1.580   4.032   6.084
  218SOL     OW 1552   0.687   2.431   5.172
  218SOL    HW1 1553   0.773   2.454   5.218
  218SOL    HW2 1554   0.692   2.339   5.135
  219SOL     OW 1555   3.966   1.631   0.837
  219SOL    HW1 1556   4.018   1.715   0.823
  219SOL    HW2 1557   3.951   1.616   0.934
  220SOL     OW 1558   3.335   6.777   0.971
  220SOL    HW1 1559   3.278   6.758   0.891
  220SOL    HW2 1560   3.279   6.772   1.054
  221SOL     OW 1561   5.060   5.984   1.373
  221SOL    HW1 1562   5.068   5.923   1.453
  221SOL    HW2 1563   4.969   6.026   1.373
  222SOL     OW 1564   2.336   4.420   6.073
  222SOL    HW1 1565   2.269   4.346   6.085
  222SOL    HW2 1566   2.356   4.432   5.976
  223SOL     OW 1567   6.406   2.286   5.144
  223SOL    HW1 1568   6.410   2.258   5.048
  223SOL    HW2 1569   6.496   2.272   5.187
  224SOL     OW 1570   2.394   1.835   5.923
  224SOL    HW1 1571   2.330   1.853   5.847
  224SOL    HW2 1572   2.434   1.922   5.953
  225SOL     OW 1573   4.618   5.053   6.298
  225SOL    HW1 1574   4.699   5.108   6.278
  225SOL    HW2 1575   4.635   4.957   6.274
  226SOL     OW 1576   1.127   2.086   6.643
  226SOL    HW1 1577   1.142   2.009   6.706
  226SOL    HW2 1578   1.030   2.087   6.616
  227SOL     OW 1579   1.378   3.771   1.890
  227SOL    HW1 1580   1.415   3.679   1.880
  227SOL    HW2 1581   1.279   3.767   1.900
  228SOL     OW 1582   1.812   0.078   2.588
  228SOL    HW1 1583   1.776   0.109   2.500
  228SOL    HW2 1584   1.759   0.119   2.662
  229SOL     OW 1585   5.017   5.393   6.419
  229SOL    HW1 1586   5.112   5.415   6.398
  229SOL    HW2 1587   4.998   5.299   6.392
  230SOL     OW 1588   4.684   5.954   5.448
  230SOL    HW1 1589   4.673   5.994   5.357
  230SOL    HW2 1590   4.648   6.018   5.516
  231SOL     OW 1591   5.099   1.186   0.071
  231SOL    HW1 1592   5.176   1.152   0.016
  231SOL    HW2 1593   5.074   1.278   0.040
  232SOL     OW 1594   1.804   2.757   5.772
  232SOL    HW1 1595   1.849   2.846   5.757
  232SOL    HW2 1596   1.781   2.748   5.869
  233SOL     OW 1597   2.574   1.105   3.174
  233SOL    HW1 1598   2.571   1.021   3.119
  233SOL    HW2 1599   2.481   1.130   3.201
  234SOL     OW 1600   4.651   1.255   6.297
  234SOL    HW1 1601   4.691   1.224   6.383
  234SOL    HW2 1602   4.721   1.252   6.225
  235SOL     OW 1603   4.570   2.623   2.205
  235SOL    HW1 1604   4.638   2.679   2.253
  235SOL    HW2 1605   4.500   2.682   2.165
  236SOL     OW 1606   4.323   4.490   6.245
  236SOL    HW1 1607   4.410   4.442   6.238
  236SOL    HW2 1608   4.339   4.582   6.281
  237SOL     OW 1609   6.227   3.950   2.783
  237SOL    HW1 1610   6.240   4.049   2.789
  237SOL    HW2 1611   6.254   3.907   2.869
  238SOL     OW 1612   6.474   1.495   0.303
  238SOL    HW1 1613   6.447   1.584   0.341
  238SOL    HW2 1614   6.564   1.504   0.260
  239SOL     OW 1615   0.780   3.715   0.225
  239SOL    HW1 1616   0.822   3.792   0.177
  239SOL    HW2 1617   0.809   3.715   0.321
  240SOL     OW 1618   6.244   2.662   3.202
  240SOL    HW1 1619   6.343   2.668   3.191
  240SOL    HW2 1620   6.220   2.679   3.297
  241SOL     OW 1621   2.729   1.406   3.687
  241SOL    HW1 1622   2.674   1.489   3.684
  241SOL    HW2 1623   2.826   1.430   3.681
  242SOL     OW 1624   3.805   3.634   3.567
  242SOL    HW1 1625   3.848   3.547   3.592
  242SOL    HW2 1626   3.817   3.700   3.641
  243SOL     OW 1627   4.582   2.583   6.220
  243SOL    HW1 1628   4.537   2.494   6.226
  243SOL    HW2 1629   4.562   2.637   6.301
  244SOL     OW 1630   6.003   3.894   5.518
  244SOL    HW1 1631   6.032   3.843   5.599
  244SOL    HW2 1632   6.027   3.843   5.436
  245SOL     OW 1633   3.563   2.027   2.427
  245SOL    HW1 1634   3.600   1.986   2.510
  245SOL    HW2 1635   3.636   2.071   2.375
  246SOL     OW 1636   6.196   1.269   3.370
  246SOL    HW1 1637   6.243   1.193   3.414
  246SOL    HW2 1638   6.202   1.350   3.428
  247SOL     OW 1639   2.053   1.249   0.893
  247SOL    HW1 1640   2.108   1.332   0.880
  247SOL    HW2 1641   2.089   1.176   0.835
  248SOL     OW 1642   1.622   1.931   2.006
  248SOL    HW1 1643   1.599   1.867   2.080
  248SOL    HW2 1644   1.569   1.909   1.925
  249SOL     OW 1645   5.718   6.739   5.040
  249SOL    HW1 1646   5.700   6.730   5.138
  249SOL    HW2 1647   5.636   6.774   4.995
  250SOL     OW 1648   3.321   2.530   1.369
  250SOL    HW1 1649   3.371   2.599   1.317
  250SOL    HW2 1650   3.331   2.441   1.326
  251SOL     OW 1651   4.427   3.936   5.820
  251SOL    HW1 1652   4.420   3.910   5.724
  251SOL    HW2 1653   4.394   4.029   5.832
  252SOL     OW 1654   6.201   6.195   5.690
  252SOL    HW1 1655   6.209   6.270   5.625
  252SOL    HW2 1656   6.281   6.135   5.682
  253SOL     OW 1657   4.628   5.561   6.101
  253SOL    HW1 1658   4.703   5.550   6.036
  253SOL    HW2 1659   4.660   5.611   6.181
  254SOL     OW 1660   6.007   2.765   4.434
  254SOL    HW1 1661   5.974   2.720   4.517
  254SOL    HW2 1662   6.106   2.771   4.436
  255SOL     OW 1663   2.140   4.631   5.712
  255SOL    HW1 1664   2.201   4.708   5.733
  255SOL    HW2 1665   2.195   4.549   5.695
  256SOL     OW 1666   5.143   3.061   4.962
  256SOL    HW1 1667   5.224   3.115   4.939
  256SOL    HW2 1668   5.172   2.973   4.999
  257SOL     OW 1669   4.793   6.040   3.091
  257SOL    HW1 1670   4.737   6.010   3.014
  257SOL    HW2 1671   4.869   5.975   3.103
  258SOL     OW 1672   2.366   3.864   5.891
  258SOL    HW1 1673   2.364   3.854   5.990
  258SOL    HW2 1674   2.308   3.795   5.849
  259SOL     OW 1675   3.930   0.055   3.447
  259SOL    HW1 1676   3.871   7.010   3.397
  259SOL    HW2 1677   3.907   0.149   3.423
  260SOL     OW 1678   3.979   5.533   3.169
  260SOL    HW1 1679   4.065   5.540   3.220
  260SOL    HW2 1680   3.903   5.560   3.228
  261SOL     OW 1681   4.463   4.857   0.357
  261SOL    HW1 1682   4.464   4.863   0.456
  261SOL    HW2 1683   4.369   4.857   0.324
  262SOL     OW 1684   2.064   4.250   0.104
  262SOL    HW1 1685   2.051   4.247   0.005
  262SOL    HW2 1686   2.104   4.163   0.134
  263SOL     OW 1687   1.281   6.610   4.050
  263SOL    HW1 1688   1.265   6.517   4.018
  263SOL    HW2 1689   1.372   6.639   4.023
  264SOL     OW 1690   0.187   3.292   6.901
  264SOL    HW1 1691   0.222   3.343   6.823
  264SOL    HW2 1692   0.195   3.347   6.984
  265SOL     OW 1693   6.516   0.371   4.120
  265SOL    HW1 1694   6.438   0.375   4.183
  265SOL    HW2 1695   6.600   0.391   4.170
  266SOL     OW 1696   4.067   1.465   5.366
  266SOL    HW1 1697   4.014   1.418   5.294
  266SOL    HW2 1698   4.015   1.543   5.399
  267SOL     OW 1699   1.381   0.620   5.230
  267SOL    HW1 1700   1.447   0.569   5.176
  267SOL    HW2 1701   1.427   0.660   5.310
  268SOL     OW 1702   3.565   1.353   0.864
  268SOL    HW1 1703   3.469   1.329   0.875
  268SOL    HW2 1704   3.619   1.270   0.853
  269SOL     OW 1705   4.053   2.028   6.993
  269SOL    HW1 1706   3.978   2.093   7.009
  269SOL    HW2 1707   4.026   1.963   6.922
  270SOL     OW 1708   6.757   7.006   0.281
  270SOL    HW1 1709   6.835   6.947   0.297
  270SOL    HW2 1710   6.787   0.073   0.237
  271SOL     OW 1711   0.192   2.582   5.579
  271SOL    HW1 1712   0.192   2.607   5.482
  271SOL    HW2 1713   0.111   2.619   5.624
  272SOL     OW 1714   3.139   6.273   3.776
  272SOL    HW1 1715   3.216   6.287   3.714
  272SOL    HW2 1716   3.070   6.217   3.732
  273SOL     OW 1717   1.696   5.246   5.320
  273SOL    HW1 1718   1.774   5.234   5.259
  273SOL    HW2 1719   1.630   5.172   5.307
  274SOL     OW 1720   4.404   0.942   4.073
  274SOL    HW1 1721   4.422   0.902   4.162
  274SOL    HW2 1722   4.364   0.872   4.013
  275SOL     OW 1723   6.989   6.582   2.553
  275SOL    HW1 1724   6.972   6.492   2.514
  275SOL    HW2 1725   0.020   6.573   2.640
  276SOL     OW 1726   0.259   0.043   4.734
  276SOL    HW1 1727   0.178   0.064   4.680
  276SOL    HW2 1728   0.297   0.127   4.772
  277SOL     OW 1729   2.426   3.303   0.607
  277SOL    HW1 1730   2.385   3.220   0.643
  277SOL    HW2 1731   2.354   3.369   0.585
  278SOL     OW 1732   0.530   2.394   2.427
  278SOL    HW1 1733   0.487   2.463   2.369
  278SOL    HW2 1734   0.472   2.376   2.507
  279SOL     OW 1735   5.746   2.574   4.205
  279SOL    HW1 1736   5.759   2.542   4.299
  279SOL    HW2 1737   5.681   2.650   4.205
  280SOL     OW 1738   1.820   4.325   1.952
  280SOL    HW1 1739   1.841   4.419   1.982
  280SOL    HW2 1740   1.873   4.260   2.006
  281SOL     OW 1741   2.008   3.819   0.645
  281SOL    HW1 1742   2.090   3.785   0.599
  281SOL    HW2 1743   1.963   3.887   0.587
  282SOL     OW 1744   3.362   1.629   6.121
  282SOL    HW1 1745   3.389   1.594   6.031
  282SOL    HW2 1746   3.279   1.684   6.111
  283SOL     OW 1747   4.856   2.974   6.059
  283SOL    HW1 1748   4.819   2.898   6.112
  283SOL    HW2 1749   4.955   2.964   6.051
  284SOL     OW 1750   0.740   3.420   3.811
  284SOL    HW1 1751   0.674   3.461   3.874
  284SOL    HW2 1752   0.833   3.444   3.841
  285SOL     OW 1753   5.587   4.566   4.423
  285SOL    HW1 1754   5.575   4.467   4.418
  285SOL    HW2 1755   5.670   4.587   4.476
  286SOL     OW 1756   3.673   3.692   6.816
  286SOL    HW1 1757   3.663   3.682   6.915
  286SOL    HW2 1758   3.733   3.769   6.797
  287SOL     OW 1759   2.044   3.834   0.272
  287SOL    HW1 1760   2.101   3.913   0.293
  287SOL    HW2 1761   2.090   3.750   0.301
  288SOL     OW 1762   5.190   1.924   6.929
  288SOL    HW1 1763   5.205   1.980   6.848
  288SOL    HW2 1764   5.198   1.827   6.905
  289SOL     OW 1765   2.805   4.867   6.064
  289SOL    HW1 1766   2.903   4.888   6.057
  289SOL    HW2 1767   2.771   4.841   5.973
  290SOL     OW 1768   0.186   1.959   5.597
  290SOL    HW1 1769   0.283   1.940   5.581
  290SOL    HW2 1770   0.164   2.051   5.566
  291SOL     OW 1771   6.948   2.056   3.024
  291SOL    HW1 1772   7.008   2.133   3.001
  291SOL    HW2 1773   6.898   2.028   2.942
  292SOL     OW 1774   2.000   0.336   3.227
  292SOL    HW1 1775   1.927   0.352   3.295
  292SOL    HW2 1776   1.978   0.386   3.143
  293SOL     OW 1777   3.903   5.306   3.816
  293SOL    HW1 1778   3.893   5.315   3.717
  293SOL    HW2 1779   3.818   5.270   3.855
  294SOL     OW 1780   4.525   5.911   6.552
  294SOL    HW1 1781   4.472   5.994   6.569
  294SOL    HW2 1782   4.620   5.936   6.533
  295SOL     OW 1783   5.298   0.522   4.608
  295SOL    HW1 1784   5.393   0.555   4.604
  295SOL    HW2 1785   5.253   0.563   4.688
  296SOL     OW 1786   2.850   2.238   3.967
  296SOL    HW1 1787   2.762   2.193   3.981
  296SOL    HW2 1788   2.868   2.299   4.044
  297SOL     OW 1789   1.327   4.045   3.114
  297SOL    HW1 1790   1.271   4.003   3.185
  297SOL    HW2 1791   1.417   4.068   3.151
  298SOL     OW 1792   6.327   5.284   1.017
  298SOL    HW1 1793   6.274   5.368   1.027
  298SOL    HW2 1794   6.305   5.241   0.929
  299SOL     OW 1795   6.642   2.458   4.416
  299SOL    HW1 1796   6.728   2.493   4.380
  299SOL    HW2 1797   6.658   2.372   4.465
  300SOL     OW 1798   6.049   6.991   2.770
  300SOL    HW1 1799   6.050   0.067   2.736
  300SOL    HW2 1800   6.027   6.991   2.868
  301SOL     OW 1801   5.712   4.052   6.249
  301SOL    HW1 1802   5.630   4.029   6.197
  301SOL    HW2 1803   5.689   4.120   6.319
  302SOL     OW 1804   0.631   6.713   3.396
  302SOL    HW1 1805   0.692   6.668   3.331
  302SOL    HW2 1806   0.604   6.803   3.360
  303SOL     OW 1807   5.286   0.683   3.995
  303SOL    HW1 1808   5.279   0.629   4.079
  303SOL    HW2 1809   5.262   0.625   3.917
  304SOL     OW 1810   3.049   0.117   3.320
  304SOL    HW1 1811   3.031   0.200   3.267
  304SOL    HW2 1812   3.012   0.038   3.273
  305SOL     OW 1813   1.206   3.483   1.282
  305SOL    HW1 1814   1.228   3.580   1.271
  305SOL    HW2 1815   1.119   3.464   1.237
  306SOL     OW 1816   2.217   0.276   3.561
  306SOL    HW1 1817   2.152   0.321   3.623
  306SOL    HW2 1818   2.239   0.339   3.486
  307SOL     OW 1819   3.703   0.439   1.302
  307SOL    HW1 1820   3.733   0.344   1.312
  307SOL    HW2 1821   3.687   0.478   1.392
  308SOL     OW 1822   0.617   5.404   4.296
  308SOL    HW1 1823   0.699   5.439   4.251
  308SOL    HW2 1824   0.589   5.318   4.253
  309SOL     OW 1825   4.287   5.102   5.195
  309SOL    HW1 1826   4.364   5.165   5.189
  309SOL    HW2 1827   4.281   5.047   5.112
  310SOL     OW 1828   0.520   6.833   6.100
  310SOL    HW1 1829   0.516   6.878   6.010
  310SOL    HW2 1830   0.474   6.890   6.168
  311SOL     OW 1831   0.530   0.373   1.044
  311SOL    HW1 1832   0.573   0.461   1.065
  311SOL    HW2 1833   0.529   0.316   1.126
  312SOL     OW 1834   4.236   1.880   4.855
  312SOL    HW1 1835   4.203   1.852   4.946
  312SOL    HW2 1836   4.279   1.970   4.861
  313SOL     OW 1837   1.019   3.863   1.251
  313SOL    HW1 1838   0.981   3.956   1.243
  313SOL    HW2 1839   0.947   3.801   1.282
  314SOL     OW 1840   3.848   6.464   0.820
  314SOL    HW1 1841   3.910   6.540   0.839
  314SOL    HW2 1842   3.834   6.456   0.721
  315SOL     OW 1843   0.833   2.769   3.250
  315SOL    HW1 1844   0.819   2.734   3.343
  315SOL    HW2 1845   0.748   2.762   3.199
  316SOL     OW 1846   2.959   2.244   4.222
  316SOL    HW1 1847   3.054   2.219   4.202
  316SOL    HW2 1848   2.945   2.246   4.321
  317SOL     OW 1849   0.094   1.956   6.635
  317SOL    HW1 1850   0.000   1.991   6.632
  317SOL    HW2 1851   0.125   1.952   6.730
  318SOL     OW 1852   2.421   5.121   0.785
  318SOL    HW1 1853   2.508   5.169   0.769
  318SOL    HW2 1854   2.349   5.189   0.802
  319SOL     OW 1855   1.294   6.700   0.239
  319SOL    HW1 1856   1.299   6.771   0.309
  319SOL    HW2 1857   1.202   6.663   0.235
  320SOL     OW 1858   5.661   3.627   0.614
  320SOL    HW1 1859   5.698   3.711   0.574
  320SOL    HW2 1860   5.722   3.551   0.593
  321SOL     OW 1861   2.024   1.543   0.690
  321SOL    HW1 1862   2.073   1.610   0.635
  321SOL    HW2 1863   1.945   1.509   0.640
  322SOL     OW 1864   3.598   2.884   4.521
  322SOL    HW1 1865   3.537   2.854   4.595
  322SOL    HW2 1866   3.680   2.925   4.561
  323SOL     OW 1867   0.624   4.753   1.746
  323SOL    HW1 1868   0.559   4.749   1.822
  323SOL    HW2 1869   0.693   4.681   1.759
  324SOL     OW 1870   0.750   3.069   4.788
  324SOL    HW1 1871   0.758   3.006   4.711
  324SOL    HW2 1872   0.754   3.163   4.755
  325SOL     OW 1873   2.160   3.057   2.587
  325SOL    HW1 1874   2.145   2.958   2.576
  325SOL    HW2 1875   2.153   3.101   2.498
  326SOL     OW 1876   2.010   4.560   6.268
  326SOL    HW1 1877   2.049   4.533   6.180
  326SOL    HW2 1878   1.916   4.527   6.275
  327SOL     OW 1879   6.369   5.343   5.284
  327SOL    HW1 1880   6.440   5.358   5.352
  327SOL    HW2 1881   6.337   5.248   5.290
  328SOL     OW 1882   3.094   5.774   2.044
  328SOL    HW1 1883   3.109   5.821   1.957
  328SOL    HW2 1884   3.182   5.756   2.088
  329SOL     OW 1885   3.390   3.287   2.577
  329SOL    HW1 1886   3.386   3.188   2.581
  329SOL    HW2 1887   3.356   3.326   2.663
  330SOL     OW 1888   3.702   0.847   1.713
  330SOL    HW1 1889   3.711   0.849   1.813
  330SOL    HW2 1890   3.607   0.866   1.688
  331SOL     OW 1891   4.890   5.122   6.235
  331SOL    HW1 1892   4.893   5.167   6.145
  331SOL    HW2 1893   4.940   5.036   6.230
  332SOL     OW 1894   3.870   1.722   2.952
  332SOL    HW1 1895   3.904   1.738   3.045
  332SOL    HW2 1896   3.842   1.627   2.943
  333SOL     OW 1897   3.716   6.115   6.364
  333SOL    HW1 1898   3.755   6.204   6.341
  333SOL    HW2 1899   3.785   6.044   6.355
  334SOL     OW 1900   4.250   0.067   2.632
  334SOL    HW1 1901   4.305   7.003   2.617
  334SOL    HW2 1902   4.304   0.148   2.610
  335SOL     OW 1903   3.057   6.986   3.553
  335SOL    HW1 1904   3.017   0.013   3.633
  335SOL    HW2 1905   3.033   0.019   3.471
  336SOL     OW 1906   3.004   0.882   4.572
  336SOL    HW1 1907   3.028   0.842   4.660
  336SOL    HW2 1908   2.937   0.955   4.585
  337SOL     OW 1909   6.736   3.936   1.323
  337SOL    HW1 1910   6.793   4.012   1.354
  337SOL    HW2 1911   6.677   3.967   1.248
  338SOL     OW 1912   3.547   2.647   1.263
  338SOL    HW1 1913   3.593   2.601   1.339
  338SOL    HW2 1914   3.586   2.617   1.176
  339SOL     OW 1915   4.135   6.558   3.034
  339SOL    HW1 1916   4.073   6.634   3.051
  339SOL    HW2 1917   4.226   6.594   3.013
  340SOL     OW 1918   4.839   3.920   4.384
  340SOL    HW1 1919   4.882   3.842   4.428
  340SOL    HW2 1920   4.888   3.942   4.299
  341SOL     OW 1921   5.340   5.448   4.798
  341SOL    HW1 1922   5.342   5.485   4.705
  341SOL    HW2 1923   5.414   5.382   4.809
  342SOL     OW 1924   6.321   4.053   0.756
  342SOL    HW1 1925   6.269   4.107   0.821
  342SOL    HW2 1926   6.343   3.965   0.796
  343SOL     OW 1927   3.313   0.476   2.936
  343SOL    HW1 1928   3.276   0.387   2.964
  343SOL    HW2 1929   3.314   0.538   3.015
  344SOL     OW 1930   3.037   5.309   0.347
  344SOL    HW1 1931   3.055   5.314   0.445
  344SOL    HW2 1932   2.940   5.292   0.331
  345SOL     OW 1933   0.550   6.862   5.556
  345SOL    HW1 1934   0.644   6.890   5.576
  345SOL    HW2 1935   0.550   6.791   5.486
  346SOL     OW 1936   1.596   6.957   3.429
  346SOL    HW1 1937   1.519   6.976   3.491
  346SOL    HW2 1938   1.569   6.885   3.365
  347SOL     OW 1939   4.992   6.396   6.342
  347SOL    HW1 1940   5.019   6.488   6.312
  347SOL    HW2 1941   5.065   6.331   6.320
  348SOL     OW 1942   3.687   5.938   2.130
  348SOL    HW1 1943   3.663   6.029   2.097
  348SOL    HW2 1944   3.612   5.874   2.113
  349SOL     OW 1945   1.350   5.265   2.198
  349SOL    HW1 1946   1.308   5.220   2.119
  349SOL    HW2 1947   1.450   5.256   2.192
  350SOL     OW 1948   4.889   3.195   0.998
  350SOL    HW1 1949   4.844   3.262   0.939
  350SOL    HW2 1950   4.836   3.184   1.082
  351SOL     OW 1951   3.318   2.194   0.385
  351SOL    HW1 1952   3.418   2.195   0.384
  351SOL    HW2 1953   3.285   2.144   0.305
  352SOL     OW 1954   3.310   1.181   6.653
  352SOL    HW1 1955   3.350   1.098   6.691
  352SOL    HW2 1956   3.232   1.209   6.710
  353SOL     OW 1957   2.625   6.471   1.023
  353SOL    HW1 1958   2.552   6.502   1.083
  353SOL    HW2 1959   2.669   6.551   0.981
  354SOL     OW 1960   4.402   1.276   1.682
  354SOL    HW1 1961   4.493   1.315   1.666
  354SOL    HW2 1962   4.363   1.316   1.765
  355SOL     OW 1963   0.640   2.355   1.874
  355SOL    HW1 1964   0.631   2.269   1.925
  355SOL    HW2 1965   0.557   2.409   1.885
  356SOL     OW 1966   4.144   5.433   3.427
  356SOL    HW1 1967   4.221   5.395   3.375
  356SOL    HW2 1968   4.145   5.533   3.419
  357SOL     OW 1969   0.709   5.025   5.257
  357SOL    HW1 1970   0.707   5.099   5.190
  357SOL    HW2 1971   0.744   5.059   5.344
  358SOL     OW 1972   5.667   0.747   1.759
  358SOL    HW1 1973   5.626   0.801   1.686
  358SOL    HW2 1974   5.753   0.707   1.728
  359SOL     OW 1975   0.820   1.247   2.108
  359SOL    HW1 1976   0.785   1.327   2.156
  359SOL    HW2 1977   0.776   1.165   2.144
  360SOL     OW 1978   4.036   6.664   0.820
  360SOL    HW1 1979   4.006   6.666   0.724
  360SOL    HW2 1980   4.070   6.755   0.845
  361SOL     OW 1981   4.677   0.537   2.886
  361SOL    HW1 1982   4.617   0.609   2.921
  361SOL    HW2 1983   4.665   0.528   2.787
  362SOL     OW 1984   2.526   3.216   1.114
  362SOL    HW1 1985   2.445   3.274   1.108
  362SOL    HW2 1986   2.517   3.156   1.194
  363SOL     OW 1987   4.631   5.019   4.487
  363SOL    HW1 1988   4.624   5.114   4.457
  363SOL    HW2 1989   4.639   4.959   4.407
  364SOL     OW 1990   1.623   5.293   5.781
  364SOL    HW1 1991   1.565   5.374   5.787
  364SOL    HW2 1992   1.633   5.253   5.872
  365SOL     OW 1993   4.530   6.504   2.740
  365SOL    HW1 1994   4.516   6.500   2.839
  365SOL    HW2 1995   4.589   6.428   2.712
  366SOL     OW 1996   5.663   0.386   6.859
  366SOL    HW1 1997   5.758   0.392   6.889
  366SOL    HW2 1998   5.607   0.349   6.933
  367SOL     OW 1999   5.070   2.842   1.140
  367SOL    HW1 2000   5.121   2.921   1.105
  367SOL    HW2 2001   4.972   2.864   1.139
  368SOL     OW 2002   1.018   4.830   5.257
  368SOL    HW1 2003   1.009   4.919   5.303
  368SOL    HW2 2004   1.113   4.818   5.228
  369SOL     OW 2005   0.647   4.074   1.827
  369SOL    HW1 2006   0.623   4.010   1.753
  369SOL    HW2 2007   0.724   4.038   1.878
  370SOL     OW 2008   3.980   1.163   6.376
  370SOL    HW1 2009   3.993   1.176   6.475
  370SOL    HW2 2010   4.045   1.221   6.326
  371SOL     OW 2011   4.104   2.900   6.496
  371SOL    HW1 2012   4.200   2.904   6.468
  371SOL    HW2 2013   4.074   2.992   6.520
  372SOL     OW 2014   1.407   5.456   5.824
  372SOL    HW1 2015   1.334   5.419   5.768
  372SOL    HW2 2016   1.389   5.553   5.842
  373SOL     OW 2017   6.748   6.761   0.530
  373SOL    HW1 2018   6.679   6.693   0.505
  373SOL    HW2 2019   6.707   6.852   0.528
  374SOL     OW 2020   3.390   0.996   1.651
  374SOL    HW1 2021   3.399   0.973   1.748
  374SOL    HW2 2022   3.434   1.084   1.633
  375SOL     OW 2023   0.182   4.683   2.696
  375SOL    HW1 2024   0.212   4.670   2.791
  375SOL    HW2 2025   0.184   4.780   2.673
  376SOL     OW 2026   2.308   2.404   4.129
  376SOL    HW1 2027   2.320   2.349   4.047
  376SOL    HW2 2028   2.372   2.481   4.127
  377SOL     OW 2029   4.934   1.953   3.745
  377SOL    HW1 2030   4.879   1.905   3.814
  377SOL    HW2 2031   4.988   1.886   3.693
  378SOL     OW 2032   5.051   2.421   4.355
  378SOL    HW1 2033   5.075   2.360   4.431
  378SOL    HW2 2034   5.005   2.368   4.283
  379SOL     OW 2035   6.798   3.665   1.277
  379SOL    HW1 2036   6.867   3.629   1.339
  379SOL    HW2 2037   6.805   3.765   1.272
  380SOL     OW 2038   1.142   2.133   0.241
  380SOL    HW1 2039   1.186   2.223   0.237
  380SOL    HW2 2040   1.114   2.113   0.335
  381SOL     OW 2041   3.098   4.047   0.287
  381SOL    HW1 2042   3.106   3.981   0.211
  381SOL    HW2 2043   3.111   4.139   0.252
  382SOL     OW 2044   2.534   5.766   0.830
  382SOL    HW1 2045   2.623   5.808   0.809
  382SOL    HW2 2046   2.504   5.712   0.751
  383SOL     OW 2047   6.268   2.305   6.452
  383SOL    HW1 2048   6.244   2.226   6.509
  383SOL    HW2 2049   6.302   2.379   6.511
  384SOL     OW 2050   1.903   5.442   4.727
  384SOL    HW1 2051   1.916   5.540   4.739
  384SOL    HW2 2052   1.992   5.398   4.715
  385SOL     OW 2053   5.338   5.659   1.047
  385SOL    HW1 2054   5.248   5.696   1.071
  385SOL    HW2 2055   5.408   5.728   1.064
  386SOL     OW 2056   3.315   6.196   5.439
  386SOL    HW1 2057   3.314   6.167   5.535
  386SOL    HW2 2058   3.408   6.216   5.411
  387SOL     OW 2059   6.998   0.410   5.717
  387SOL    HW1 2060   0.078   0.403   5.731
  387SOL    HW2 2061   6.957   0.465   5.789
  388SOL     OW 2062   6.876   2.025   5.300
  388SOL    HW1 2063   6.942   1.957   5.268
  388SOL    HW2 2064   6.888   2.110   5.249
  389SOL     OW 2065   3.834   4.406   1.432
  389SOL    HW1 2066   3.808   4.311   1.443
  389SOL    HW2 2067   3.831   4.452   1.520
  390SOL     OW 2068   4.350   2.469   0.248
  390SOL    HW1 2069   4.267   2.511   0.284
  390SOL    HW2 2070   4.419   2.465   0.320
  391SOL     OW 2071   3.831   4.081   4.296
  391SOL    HW1 2072   3.860   4.139   4.373
  391SOL    HW2 2073   3.764   4.014   4.328
  392SOL     OW 2074   1.365   3.828   1.556
  392SOL    HW1 2075   1.380   3.851   1.652
  392SOL    HW2 2076   1.431   3.877   1.500
  393SOL     OW 2077   1.176   4.723   1.408
  393SOL    HW1 2078   1.157   4.755   1.501
  393SOL    HW2 2079   1.159   4.625   1.402
  394SOL     OW 2080   6.250   1.295   6.325
  394SOL    HW1 2081   6.341   1.327   6.351
  394SOL    HW2 2082   6.251   1.195   6.314
  395SOL     OW 2083   5.759   5.143   1.002
  395SOL    HW1 2084   5.696   5.109   1.071
  395SOL    HW2 2085   5.719   5.221   0.955
  396SOL     OW 2086   1.572   0.342   1.292
  396SOL    HW1 2087   1.519   0.257   1.301
  396SOL    HW2 2088   1.521   0.418   1.332
  397SOL     OW 2089   4.156   2.126   5.381
  397SOL    HW1 2090   4.248   2.160   5.363
  397SOL    HW2 2091   4.160   2.051   5.447
  398SOL     OW 2092   1.338   0.966   3.524
  398SOL    HW1 2093   1.265   0.948   3.590
  398SOL    HW2 2094   1.417   1.004   3.571
  399SOL     OW 2095   5.466   6.014   4.319
  399SOL    HW1 2096   5.376   6.033   4.279
  399SOL    HW2 2097   5.537   6.025   4.250
  400SOL     OW 2098   5.934   0.133   4.418
  400SOL    HW1 2099   5.848   0.087   4.439
  400SOL    HW2 2100   6.011   0.073   4.440
  401SOL     OW 2101   0.556   5.675   5.824
  401SOL    HW1 2102   0.495   5.738   5.873
  401SOL    HW2 2103   0.552   5.695   5.726
  402SOL     OW 2104   5.821   1.622   3.570
  402SOL    HW1 2105   5.827   1.582   3.661
  402SOL    HW2 2106   5.752   1.694   3.570
  403SOL     OW 2107   3.058   1.084   5.182
  403SOL    HW1 2108   2.969   1.129   5.185
  403SOL    HW2 2109   3.130   1.150   5.206
  404SOL     OW 2110   3.515   5.315   3.053
  404SOL    HW1 2111   3.602   5.280   3.017
  404SOL    HW2 2112   3.526   5.341   3.148
  405SOL     OW 2113   2.231   4.805   4.277
  405SOL    HW1 2114   2.311   4.783   4.221
  405SOL    HW2 2115   2.259   4.867   4.351
  406SOL     OW 2116   0.071   6.552   6.079
  406SOL    HW1 2117   0.003   6.495   6.126
  406SOL    HW2 2118   0.125   6.602   6.147
  407SOL     OW 2119   2.263   2.918   4.245
  407SOL    HW1 2120   2.232   2.840   4.299
  407SOL    HW2 2121   2.245   3.002   4.295
  408SOL     OW 2122   1.903   1.362   3.512
  408SOL    HW1 2123   1.950   1.279   3.481
  408SOL    HW2 2124   1.969   1.435   3.527
  409SOL     OW 2125   0.275   3.525   2.593
  409SOL    HW1 2126   0.308   3.619   2.605
  409SOL    HW2 2127   0.195   3.510   2.651
  410SOL     OW 2128   1.686   1.490   1.576
  410SOL    HW1 2129   1.687   1.533   1.486
  410SOL    HW2 2130   1.720   1.554   1.644
  411SOL     OW 2131   7.009   2.577   1.723
  411SOL    HW1 2132   0.023   2.534   1.807
  411SOL    HW2 2133   0.020   2.673   1.722
  412SOL     OW 2134   1.331   4.902   2.443
  412SOL    HW1 2135   1.288   4.989   2.465
  412SOL    HW2 2136   1.285   4.861   2.364
  413SOL     OW 2137   5.954   6.150   2.350
  413SOL    HW1 2138   6.013   6.197   2.285
  413SOL    HW2 2139   5.861   6.186   2.344
  414SOL     OW 2140   1.840   6.703   2.906
  414SOL    HW1 2141   1.822   6.750   2.820
  414SOL    HW2 2142   1.917   6.641   2.894
  415SOL     OW 2143   6.035   1.039   6.945
  415SOL    HW1 2144   6.087   1.005   0.006
  415SOL    HW2 2145   5.994   1.127   6.968
  416SOL     OW 2146   5.936   3.694   5.770
  416SOL    HW1 2147   5.837   3.691   5.784
  416SOL    HW2 2148   5.971   3.783   5.799
  417SOL     OW 2149   1.904   2.128   6.361
  417SOL    HW1 2150   1.891   2.041   6.408
  417SOL    HW2 2151   1.820   2.150   6.310
  418SOL     OW 2152   3.611   0.448   4.608
  418SOL    HW1 2153   3.676   0.383   4.568
  418SOL    HW2 2154   3.585   0.417   4.699
  419SOL     OW 2155   6.808   0.288   0.512
  419SOL    HW1 2156   6.866   0.356   0.467
  419SOL    HW2 2157   6.861   0.205   0.531
  420SOL     OW 2158   4.015   0.411   0.073
  420SOL    HW1 2159   4.085   0.471   0.112
  420SOL    HW2 2160   4.054   0.321   0.054
  421SOL     OW 2161   4.624   4.268   2.240
  421SOL    HW1 2162   4.603   4.281   2.143
  421SOL    HW2 2163   4.699   4.202   2.250
  422SOL     OW 2164   5.500   2.918   1.950
  422SOL    HW1 2165   5.539   2.838   1.997
  422SOL    HW2 2166   5.453   2.888   1.867
  423SOL     OW 2167   3.010   0.748   6.176
  423SOL    HW1 2168   2.995   0.774   6.081
  423SOL    HW2 2169   3.101   0.778   6.205
  424SOL     OW 2170   1.234   3.609   3.958
  424SOL    HW1 2171   1.331   3.595   3.978
  424SOL    HW2 2172   1.224   3.682   3.891
  425SOL     OW 2173   3.451   1.198   6.967
  425SOL    HW1 2174   3.359   1.194   6.928
  425SOL    HW2 2175   3.500   1.113   6.945
  426SOL     OW 2176   2.963   1.978   4.051
  426SOL    HW1 2177   2.931   2.071   4.031
  426SOL    HW2 2178   3.011   1.978   4.139
  427SOL     OW 2179   4.312   2.314   3.064
  427SOL    HW1 2180   4.277   2.314   3.157
  427SOL    HW2 2181   4.341   2.221   3.039
  428SOL     OW 2182   2.666   1.986   5.910
  428SOL    HW1 2183   2.709   1.959   5.823
  428SOL    HW2 2184   2.734   2.029   5.969
  429SOL     OW 2185   6.643   5.579   4.451
  429SOL    HW1 2186   6.566   5.530   4.410
  429SOL    HW2 2187   6.702   5.515   4.499
  430SOL     OW 2188   1.557   7.001   4.009
  430SOL    HW1 2189   1.552   6.999   4.109
  430SOL    HW2 2190   1.633   6.944   3.977
  431SOL     OW 2191   2.402   1.854   1.970
  431SOL    HW1 2192   2.438   1.893   1.886
  431SOL    HW2 2193   2.303   1.839   1.960
  432SOL     OW 2194   4.670   1.828   1.212
  432SOL    HW1 2195   4.593   1.765   1.210
  432SOL    HW2 2196   4.639   1.920   1.187
  433SOL     OW 2197   1.775   4.662   0.972
  433SOL    HW1 2198   1.732   4.601   0.905
  433SOL    HW2 2199   1.850   4.711   0.928
  434SOL     OW 2200   5.132   4.997   3.533
  434SOL    HW1 2201   5.107   4.989   3.630
  434SOL    HW2 2202   5.208   5.062   3.524
  435SOL     OW 2203   3.652   2.596   5.817
  435SOL    HW1 2204   3.672   2.655   5.896
  435SOL    HW2 2205   3.615   2.509   5.850
  436SOL     OW 2206   5.019   6.603   2.884
  436SOL    HW1 2207   4.988   6.515   2.850
  436SOL    HW2 2208   5.116   6.616   2.861
  437SOL     OW 2209   6.673   0.700   4.733
  437SOL    HW1 2210   6.699   0.762   4.807
  437SOL    HW2 2211   6.589   0.733   4.690
  438SOL     OW 2212   0.879   4.970   2.312
  438SOL    HW1 2213   0.910   5.057   2.274
  438SOL    HW2 2214   0.786   4.951   2.278
  439SOL     OW 2215   0.044   0.739   4.709
  439SOL    HW1 2216   7.012   0.710   4.627
  439SOL    HW2 2217   0.037   0.838   4.719
  440SOL     OW 2218   4.053   1.227   0.504
  440SOL    HW1 2219   4.131   1.287   0.525
  440SOL    HW2 2220   4.005   1.205   0.589
  441SOL     OW 2221   0.664   4.744   2.206
  441SOL    HW1 2222   0.606   4.797   2.143
  441SOL    HW2 2223   0.701   4.665   2.158
  442SOL     OW 2224   4.864   3.127   5.482
  442SOL    HW1 2225   4.923   3.146   5.403
  442SOL    HW2 2226   4.918   3.087   5.556
  443SOL     OW 2227   5.014   2.909   2.360
  443SOL    HW1 2228   5.111   2.899   2.341
  443SOL    HW2 2229   4.962   2.904   2.275
  444SOL     OW 2230   4.602   1.669   1.907
  444SOL    HW1 2231   4.671   1.603   1.878
  444SOL    HW2 2232   4.580   1.730   1.831
  445SOL     OW 2233   1.798   5.006   2.420
  445SOL    HW1 2234   1.851   4.925   2.447
  445SOL    HW2 2235   1.735   5.031   2.494
  446SOL     OW 2236   5.796   0.130   1.777
  446SOL    HW1 2237   5.708   0.178   1.772
  446SOL    HW2 2238   5.824   0.104   1.685
  447SOL     OW 2239   6.003   4.690   1.043
  447SOL    HW1 2240   5.989   4.599   1.081
  447SOL    HW2 2241   6.039   4.682   0.950
  448SOL     OW 2242   3.476   6.516   3.873
  448SOL    HW1 2243   3.428   6.581   3.932
  448SOL    HW2 2244   3.448   6.529   3.778
  449SOL     OW 2245   1.760   4.015   4.793
  449SOL    HW1 2246   1.770   3.944   4.863
  449SOL    HW2 2247   1.684   4.075   4.817
  450SOL     OW 2248   6.649   4.526   3.435
  450SOL    HW1 2249   6.565   4.580   3.432
  450SOL    HW2 2250   6.695   4.541   3.522
  451SOL     OW 2251   0.829   2.016   0.729
  451SOL    HW1 2252   0.871   2.045   0.815
  451SOL    HW2 2253   0.876   1.935   0.695
  452SOL     OW 2254   5.020   5.345   2.807
  452SOL    HW1 2255   5.058   5.367   2.717
  452SOL    HW2 2256   5.048   5.252   2.833
  453SOL     OW 2257   3.365   0.958   6.787
  453SOL    HW1 2258   3.440   0.933   6.849
  453SOL    HW2 2259   3.287   0.897   6.802
  454SOL     OW 2260   6.777   3.263   5.915
  454SOL    HW1 2261   6.774   3.167   5.888
  454SOL    HW2 2262   6.861   3.280   5.967
  455SOL     OW 2263   5.463   4.994   5.927
  455SOL    HW1 2264   5.377   4.944   5.920
  455SOL    HW2 2265   5.452   5.085   5.888
  456SOL     OW 2266   2.666   1.186   2.364
  456SOL    HW1 2267   2.589   1.249   2.353
  456SOL    HW2 2268   2.637   1.109   2.421
  457SOL     OW 2269   2.548   6.537   0.034
  457SOL    HW1 2270   2.474   6.546   6.986
  457SOL    HW2 2271   2.636   6.548   7.006
  458SOL     OW 2272   3.370   1.186   2.796
  458SOL    HW1 2273   3.422   1.100   2.792
  458SOL    HW2 2274   3.281   1.172   2.753
  459SOL     OW 2275   3.238   0.443   3.322
  459SOL    HW1 2276   3.325   0.490   3.308
  459SOL    HW2 2277   3.210   0.453   3.417
  460SOL     OW 2278   0.772   1.755   6.455
  460SOL    HW1 2279   0.818   1.673   6.487
  460SOL    HW2 2280   0.790   1.831   6.518
  461SOL     OW 2281   1.162   5.492   5.347
  461SOL    HW1 2282   1.177   5.506   5.249
  461SOL    HW2 2283   1.063   5.491   5.365
  462SOL     OW 2284   3.520   4.161   4.806
  462SOL    HW1 2285   3.606   4.154   4.857
  462SOL    HW2 2286   3.518   4.090   4.735
  463SOL     OW 2287   5.170   6.065   4.284
  463SOL    HW1 2288   5.182   6.160   4.254
  463SOL    HW2 2289   5.089   6.058   4.341
  464SOL     OW 2290   3.543   5.145   6.426
  464SOL    HW1 2291   3.626   5.137   6.371
  464SOL    HW2 2292   3.488   5.063   6.416
  465SOL     OW 2293   0.596   4.066   0.838
  465SOL    HW1 2294   0.619   4.068   0.935
  465SOL    HW2 2295   0.603   3.973   0.804
  466SOL     OW 2296   4.190   5.260   4.165
  466SOL    HW1 2297   4.173   5.311   4.081
  466SOL    HW2 2298   4.128   5.182   4.170
  467SOL     OW 2299   6.372   0.211   2.644
  467SOL    HW1 2300   6.349   0.300   2.683
  467SOL    HW2 2301   6.426   0.159   2.710
  468SOL     OW 2302   2.614   5.749   6.523
  468SOL    HW1 2303   2.585   5.727   6.616
  468SOL    HW2 2304   2.534   5.760   6.465
  469SOL     OW 2305   2.859   4.851   4.875
  469SOL    HW1 2306   2.808   4.775   4.914
  469SOL    HW2 2307   2.867   4.839   4.776
  470SOL     OW 2308   2.258   4.756   2.380
  470SOL    HW1 2309   2.318   4.689   2.336
  470SOL    HW2 2310   2.310   4.807   2.449
  471SOL     OW 2311   1.634   2.430   4.059
  471SOL    HW1 2312   1.574   2.353   4.036
  471SOL    HW2 2313   1.579   2.509   4.086
  472SOL     OW 2314   5.032   3.525   6.406
  472SOL    HW1 2315   4.993   3.616   6.393
  472SOL    HW2 2316   5.036   3.478   6.318
  473SOL     OW 2317   6.194   3.102   2.338
  473SOL    HW1 2318   6.112   3.154   2.358
  473SOL    HW2 2319   6.181   3.049   2.254
  474SOL     OW 2320   4.719   5.898   4.369
  474SOL    HW1 2321   4.816   5.906   4.391
  474SOL    HW2 2322   4.671   5.853   4.445
  475SOL     OW 2323   5.430   1.827   0.597
  475SOL    HW1 2324   5.374   1.854   0.676
  475SOL    HW2 2325   5.448   1.729   0.601
  476SOL     OW 2326   1.105   4.020   6.925
  476SOL    HW1 2327   1.049   4.013   7.007
  476SOL    HW2 2328   1.201   4.033   6.951
  477SOL     OW 2329   1.758   4.932   3.607
  477SOL    HW1 2330   1.669   4.963   3.641
  477SOL    HW2 2331   1.799   5.004   3.551
  478SOL     OW 2332   5.144   6.229   2.861
  478SOL    HW1 2333   5.080   6.226   2.938
  478SOL    HW2 2334   5.101   6.189   2.780
  479SOL     OW 2335   3.710   4.051   3.270
  479SOL    HW1 2336   3.613   4.041   3.250
  479SOL    HW2 2337   3.760   4.071   3.185
  480SOL     OW 2338   0.961   1.188   2.727
  480SOL    HW1 2339   0.970   1.286   2.711
  480SOL    HW2 2340   0.909   1.146   2.653
  481SOL     OW 2341   7.007   0.207   0.854
  481SOL    HW1 2342   6.958   0.145   0.792
  481SOL    HW2 2343   0.016   0.289   0.804
  482SOL     OW 2344   4.265   4.861   2.302
  482SOL    HW1 2345   4.276   4.855   2.203
  482SOL    HW2 2346   4.173   4.832   2.328
  483SOL     OW 2347   5.809   2.126   4.184
  483SOL    HW1 2348   5.714   2.103   4.205
  483SOL    HW2 2349   5.820   2.135   4.085
  484SOL     OW 2350   2.631   4.591   3.588
  484SOL    HW1 2351   2.565   4.553   3.652
  484SOL    HW2 2352   2.604   4.569   3.494
  485SOL     OW 2353   5.698   3.054   1.607
  485SOL    HW1 2354   5.656   3.143   1.623
  485SOL    HW2 2355   5.705   3.038   1.508
  486SOL     OW 2356   5.857   6.232   5.779
  486SOL    HW1 2357   5.787   6.296   5.746
  486SOL    HW2 2358   5.931   6.229   5.712
  487SOL     OW 2359   0.272   0.161   6.316
  487SOL    HW1 2360   0.208   0.085   6.327
  487SOL    HW2 2361   0.303   0.166   6.221
  488SOL     OW 2362   2.254   5.444   3.504
  488SOL    HW1 2363   2.327   5.492   3.553
  488SOL    HW2 2364   2.265   5.458   3.405
  489SOL     OW 2365   1.947   5.771   5.884
  489SOL    HW1 2366   2.029   5.788   5.828
  489SOL    HW2 2367   1.953   5.680   5.925
  490SOL     OW 2368   0.768   4.042   4.732
  490SOL    HW1 2369   0.675   4.076   4.745
  490SOL    HW2 2370   0.810   4.089   4.654
  491SOL     OW 2371   6.902   2.811   0.549
  491SOL    HW1 2372   6.860   2.837   0.462
  491SOL    HW2 2373   6.982   2.754   0.531
  492SOL     OW 2374   1.273   3.170   5.326
  492SOL    HW1 2375   1.257   3.191   5.230
  492SOL    HW2 2376   1.331   3.090   5.335
  493SOL     OW 2377   1.643   5.054   4.595
  493SOL    HW1 2378   1.695   5.039   4.510
  493SOL    HW2 2379   1.650   5.150   4.621
  494SOL     OW 2380   2.535   6.499   4.172
  494SOL    HW1 2381   2.500   6.548   4.092
  494SOL    HW2 2382   2.467   6.501   4.245
  495SOL     OW 2383   4.006   4.220   6.305
  495SOL    HW1 2384   4.005   4.167   6.390
  495SOL    HW2 2385   3.951   4.173   6.236
  496SOL     OW 2386   4.961   1.625   3.633
  496SOL    HW1 2387   4.942   1.618   3.535
  496SOL    HW2 2388   5.022   1.550   3.660
  497SOL     OW 2389   5.045   1.452   6.948
  497SOL    HW1 2390   4.976   1.520   6.973
  497SOL    HW2 2391   5.131   1.473   6.995
  498SOL     OW 2392   0.183   0.323   1.110
  498SOL    HW1 2393   0.232   0.345   1.194
  498SOL    HW2 2394   0.220   0.238   1.070
  499SOL     OW 2395   2.524   5.815   0.275
  499SOL    HW1 2396   2.572   5.733   0.247
  499SOL    HW2 2397   2.432   5.791   0.308
  500SOL     OW 2398   5.389   1.851   6.513
  500SOL    HW1 2399   5.474   1.798   6.518
  500SOL    HW2 2400   5.370   1.892   6.602
  501SOL     OW 2401   1.200   1.045   4.848
  501SOL    HW1 2402   1.208   1.048   4.748
  501SOL    HW2 2403   1.257   0.971   4.884
  502SOL     OW 2404   2.480   4.240   0.176
  502SOL    HW1 2405   2.543   4.311   0.144
  502SOL    HW2 2406   2.393   4.282   0.201
  503SOL     OW 2407   3.718   5.721   0.780
  503SOL    HW1 2408   3.699   5.666   0.699
  503SOL    HW2 2409   3.783   5.674   0.838
  504SOL     OW 2410   6.458   5.865   1.498
  504SOL    HW1 2411   6.410   5.856   1.585
  504SOL    HW2 2412   6.398   5.908   1.431
  505SOL     OW 2413   5.212   5.871   5.433
  505SOL    HW1 2414   5.260   5.799   5.483
  505SOL    HW2 2415   5.236   5.866   5.336
  506SOL     OW 2416   3.546   4.945   3.232
  506SOL    HW1 2417   3.612   5.019   3.246
  506SOL    HW2 2418   3.477   4.974   3.165
  507SOL     OW 2419   3.056   1.014   1.538
  507SOL    HW1 2420   3.140   1.012   1.485
  507SOL    HW2 2421   3.004   1.096   1.516
  508SOL     OW 2422   0.520   4.728   3.097
  508SOL    HW1 2423   0.566   4.645   3.066
  508SOL    HW2 2424   0.516   4.728   3.197
  509SOL     OW 2425   4.469   6.843   6.359
  509SOL    HW1 2426   4.377   6.830   6.322
  509SOL    HW2 2427   4.532   6.867   6.285
  510SOL     OW 2428   6.445   3.899   0.247
  510SOL    HW1 2429   6.499   3.965   0.196
  510SOL    HW2 2430   6.447   3.923   0.344
  511SOL     OW 2431   0.547   1.662   0.451
  511SOL    HW1 2432   0.487   1.711   0.514
  511SOL    HW2 2433   0.575   1.575   0.493
  512SOL     OW 2434   0.574   2.575   3.890
  512SOL    HW1 2435   0.598   2.672   3.900
  512SOL    HW2 2436   0.655   2.519   3.904
  513SOL     OW 2437   4.945   0.422   3.355
  513SOL    HW1 2438   4.921   0.387   3.265
  513SOL    HW2 2439   4.973   0.518   3.348
  514SOL     OW 2440   5.390   0.983   5.141
  514SOL    HW1 2441   5.487   0.958   5.145
  514SOL    HW2 2442   5.335   0.900   5.138
  515SOL     OW 2443   3.828   0.322   6.533
  515SOL    HW1 2444   3.876   0.324   6.446
  515SOL    HW2 2445   3.885   0.277   6.602
  516SOL     OW 2446   2.095   6.213   2.326
  516SOL    HW1 2447   2.132   6.209   2.233
  516SOL    HW2 2448   2.143   6.147   2.384
  517SOL     OW 2449   2.951   5.485   1.450
  517SOL    HW1 2450   3.032   5.466   1.394
  517SOL    HW2 2451   2.972   5.469   1.546
  518SOL     OW 2452   1.703   4.402   4.564
  518SOL    HW1 2453   1.795   4.372   4.538
  518SOL    HW2 2454   1.669   4.347   4.640
  519SOL     OW 2455   0.060   0.085   2.199
  519SOL    HW1 2456   0.039   0.162   2.260
  519SOL    HW2 2457   0.152   0.050   2.220
  520SOL     OW 2458   2.167   4.237   0.730
  520SOL    HW1 2459   2.215   4.180   0.797
  520SOL    HW2 2460   2.084   4.274   0.771
  521SOL     OW 2461   6.604   6.018   4.807
  521SOL    HW1 2462   6.659   5.974   4.736
  521SOL    HW2 2463   6.532   6.073   4.763
  522SOL     OW 2464   3.825   4.340   0.744
  522SOL    HW1 2465   3.746   4.279   0.744
  522SOL    HW2 2466   3.794   4.435   0.754
  523SOL     OW 2467   0.861   0.210   0.014
  523SOL    HW1 2468   0.930   0.138   0.002
  523SOL    HW2 2469   0.771   0.169   0.023
  524SOL     OW 2470   6.675   1.820   0.478
  524SOL    HW1 2471   6.697   1.915   0.504
  524SOL    HW2 2472   6.691   1.760   0.556
  525SOL     OW 2473   0.696   3.167   3.741
  525SOL    HW1 2474   0.767   3.101   3.766
  525SOL    HW2 2475   0.731   3.260   3.752
  526SOL     OW 2476   3.719   0.110   3.754
  526SOL    HW1 2477   3.771   0.030   3.726
  526SOL    HW2 2478   3.730   0.183   3.686
  527SOL     OW 2479   0.479   1.518   0.973
  527SOL    HW1 2480   0.537   1.461   1.032
  527SOL    HW2 2481   0.533   1.553   0.897
  528SOL     OW 2482   0.092   2.756   4.642
  528SOL    HW1 2483   0.146   2.839   4.632
  528SOL    HW2 2484   7.016   2.779   4.667
  529SOL     OW 2485   1.899   0.050   6.878
  529SOL    HW1 2486   1.826   0.013   6.822
  529SOL    HW2 2487   1.939   6.995   6.933
  530SOL     OW 2488   3.689   4.945   1.088
  530SOL    HW1 2489   3.765   5.007   1.070
  530SOL    HW2 2490   3.722   4.864   1.135
  531SOL     OW 2491   1.348   0.176   0.495
  531SOL    HW1 2492   1.431   0.141   0.538
  531SOL    HW2 2493   1.367   0.200   0.400
  532SOL     OW 2494   1.695   2.151   5.867
  532SOL    HW1 2495   1.614   2.092   5.869
  532SOL    HW2 2496   1.669   2.242   5.835
  533SOL     OW 2497   3.994   0.688   4.091
  533SOL    HW1 2498   3.966   0.636   4.172
  533SOL    HW2 2499   4.012   0.783   4.117
  534SOL     OW 2500   1.735   4.112   1.769
  534SOL    HW1 2501   1.756   4.041   1.837
  534SOL    HW2 2502   1.791   4.192   1.786
  535SOL     OW 2503   4.898   3.182   4.254
  535SOL    HW1 2504   4.945   3.094   4.246
  535SOL    HW2 2505   4.894   3.208   4.351
  536SOL     OW 2506   6.292   6.923   1.880
  536SOL    HW1 2507   6.242   7.009   1.892
  536SOL    HW2 2508   6.388   6.937   1.904
  537SOL     OW 2509   3.125   1.967   3.219
  537SOL    HW1 2510   3.117   1.906   3.298
  537SOL    HW2 2511   3.171   1.918   3.145
  538SOL     OW 2512   3.458   4.976   5.107
  538SOL    HW1 2513   3.361   4.978   5.132
  538SOL    HW2 2514   3.512   4.940   5.183
  539SOL     OW 2515   0.955   0.481   6.766
  539SOL    HW1 2516   0.898   0.534   6.829
  539SOL    HW2 2517   1.026   0.433   6.818
  540SOL     OW 2518   1.434   0.537   4.830
  540SOL    HW1 2519   1.338   0.515   4.844
  540SOL    HW2 2520   1.474   0.471   4.766
  541SOL     OW 2521   4.860   5.893   3.969
  541SOL    HW1 2522   4.948   5.936   3.987
  541SOL    HW2 2523   4.787   5.959   3.986
  542SOL     OW 2524   3.920   6.723   5.166
  542SOL    HW1 2525   3.915   6.626   5.145
  542SOL    HW2 2526   3.931   6.775   5.081
  543SOL     OW 2527   6.515   2.038   3.626
  543SOL    HW1 2528   6.471   1.951   3.605
  543SOL    HW2 2529   6.533   2.088   3.541
  544SOL     OW 2530   1.270   3.413   1.553
  544SOL    HW1 2531   1.339   3.342   1.568
  544SOL    HW2 2532   1.253   3.423   1.455
  545SOL     OW 2533   6.419   6.960   1.118
  545SOL    HW1 2534   6.379   0.001   1.188
  545SOL    HW2 2535   6.353   6.890   1.091
  546SOL     OW 2536   6.960   4.500   2.363
  546SOL    HW1 2537   6.902   4.462   2.435
  546SOL    HW2 2538   0.018   4.549   2.405
  547SOL     OW 2539   5.282   0.419   6.415
  547SOL    HW1 2540   5.223   0.484   6.367
  547SOL    HW2 2541   5.311   0.347   6.352
  548SOL     OW 2542   4.132   2.304   6.790
  548SOL    HW1 2543   4.155   2.210   6.816
  548SOL    HW2 2544   4.143   2.365   6.868
  549SOL     OW 2545   5.525   1.387   1.871
  549SOL    HW1 2546   5.574   1.333   1.940
  549SOL    HW2 2547   5.427   1.373   1.881
  550SOL     OW 2548   0.255   6.048   3.189
  550SOL    HW1 2549   0.337   6.030   3.243
  550SOL    HW2 2550   0.174   6.041   3.247
  551SOL     OW 2551   6.200   0.600   0.557
  551SOL    HW1 2552   6.219   0.504   0.538
  551SOL    HW2 2553   6.140   0.607   0.637
  552SOL     OW 2554   0.508   6.388   5.408
  552SOL    HW1 2555   0.486   6.385   5.311
  552SOL    HW2 2556   0.426   6.373   5.462
  553SOL     OW 2557   3.267   1.487   0.015
  553SOL    HW1 2558   3.213   1.564   0.048
  553SOL    HW2 2559   3.364   1.509   0.022
  554SOL     OW 2560   6.327   6.474   1.080
  554SOL    HW1 2561   6.264   6.424   1.141
  554SOL    HW2 2562   6.291   6.566   1.063
  555SOL     OW 2563   1.819   3.848   5.391
  555SOL    HW1 2564   1.731   3.877   5.352
  555SOL    HW2 2565   1.859   3.777   5.333
  556SOL     OW 2566   6.024   0.159   3.773
  556SOL    HW1 2567   5.940   0.136   3.823
  556SOL    HW2 2568   6.035   0.258   3.770
  557SOL     OW 2569   6.408   4.430   6.826
  557SOL    HW1 2570   6.442   4.503   6.767
  557SOL    HW2 2571   6.412   4.343   6.778
  558SOL     OW 2572   3.341   3.828   2.278
  558SOL    HW1 2573   3.354   3.873   2.366
  558SOL    HW2 2574   3.321   3.896   2.208
  559SOL     OW 2575   6.238   6.936   5.625
  559SOL    HW1 2576   6.197   6.995   5.694
  559SOL    HW2 2577   6.291   6.992   5.561
  560SOL     OW 2578   6.747   3.010   4.205
  560SOL    HW1 2579   6.681   3.004   4.280
  560SOL    HW2 2580   6.733   3.094   4.154
  561SOL     OW 2581   0.675   2.947   0.439
  561SOL    HW1 2582   0.583   2.983   0.425
  561SOL    HW2 2583   0.741   3.005   0.390
  562SOL     OW 2584   4.104   6.836   4.973
  562SOL    HW1 2585   4.155   6.922   4.980
  562SOL    HW2 2586   4.149   6.777   4.907
  563SOL     OW 2587   1.558   0.333   3.745
  563SOL    HW1 2588   1.640   0.302   3.792
  563SOL    HW2 2589   1.480   0.329   3.807
  564SOL     OW 2590   6.191   1.994   6.315
  564SOL    HW1 2591   6.168   2.079   6.268
  564SOL    HW2 2592   6.173   2.004   6.413
  565SOL     OW 2593   3.595   3.487   3.675
  565SOL    HW1 2594   3.689   3.454   3.664
  565SOL    HW2 2595   3.595   3.587   3.677
  566SOL     OW 2596   3.013   0.944   3.954
  566SOL    HW1 2597   2.921   0.911   3.934
  566SOL    HW2 2598   3.013   1.044   3.951
  567SOL     OW 2599   2.583   2.667   5.546
  567SOL    HW1 2600   2.666   2.670   5.603
  567SOL    HW2 2601   2.603   2.709   5.457
  568SOL     OW 2602   0.799   6.585   7.004
  568SOL    HW1 2603   0.792   6.531   6.920
  568SOL    HW2 2604   0.745   6.542   0.058
  569SOL     OW 2605   6.251   3.785   0.070
  569SOL    HW1 2606   6.185   3.859   0.079
  569SOL    HW2 2607   6.309   3.782   0.152
  570SOL     OW 2608   2.695   0.451   6.213
  570SOL    HW1 2609   2.793   0.457   6.198
  570SOL    HW2 2610   2.671   0.358   6.240
  571SOL     OW 2611   1.947   4.313   1.273
  571SOL    HW1 2612   1.878   4.316   1.345
  571SOL    HW2 2613   1.903   4.324   1.184
  572SOL     OW 2614   2.725   0.281   4.423
  572SOL    HW1 2615   2.672   0.358   4.387
  572SOL    HW2 2616   2.685   0.250   4.510
  573SOL     OW 2617   0.381   1.218   5.048
  573SOL    HW1 2618   0.403   1.290   4.983
  573SOL    HW2 2619   0.363   1.258   5.138
  574SOL     OW 2620   2.258   1.658   5.748
  574SOL    HW1 2621   2.300   1.645   5.837
  574SOL    HW2 2622   2.328   1.660   5.677
  575SOL     OW 2623   3.995   3.605   7.013
  575SOL    HW1 2624   3.896   3.590   7.010
  575SOL    HW2 2625   4.016   3.681   0.055
  576SOL     OW 2626   2.121   2.521   2.420
  576SOL    HW1 2627   2.182   2.587   2.375
  576SOL    HW2 2628   2.122   2.537   2.518
  577SOL     OW 2629   0.537   1.023   1.523
  577SOL    HW1 2630   0.494   1.097   1.574
  577SOL    HW2 2631   0.469   0.976   1.467
  578SOL     OW 2632   3.256   6.734   6.296
  578SOL    HW1 2633   3.230   6.736   6.200
  578SOL    HW2 2634   3.288   6.825   6.324
  579SOL     OW 2635   2.028   3.752   1.696
  579SOL    HW1 2636   2.126   3.759   1.717
  579SOL    HW2 2637   2.015   3.743   1.598
  580SOL     OW 2638   4.909   5.687   4.849
  580SOL    HW1 2639   4.915   5.677   4.949
  580SOL    HW2 2640   4.995   5.726   4.815
  581SOL     OW 2641   2.084   2.668   5.104
  581SOL    HW1 2642   2.042   2.604   5.039
  581SOL    HW2 2643   2.126   2.616   5.179
  582SOL     OW 2644   4.900   5.129   4.256
  582SOL    HW1 2645   4.852   5.159   4.338
  582SOL    HW2 2646   4.833   5.110   4.184
  583SOL     OW 2647   3.984   6.047   5.787
  583SOL    HW1 2648   4.075   6.008   5.773
  583SOL    HW2 2649   3.983   6.103   5.869
  584SOL     OW 2650   4.519   0.842   5.465
  584SOL    HW1 2651   4.592   0.900   5.428
  584SOL    HW2 2652   4.441   0.898   5.490
  585SOL     OW 2653   3.360   0.665   1.584
  585SOL    HW1 2654   3.363   0.710   1.674
  585SOL    HW2 2655   3.396   0.573   1.592
  586SOL     OW 2656   3.719   0.844   0.803
  586SOL    HW1 2657   3.778   0.794   0.740
  586SOL    HW2 2658   3.643   0.785   0.832
  587SOL     OW 2659   5.373   2.265   1.756
  587SOL    HW1 2660   5.295   2.281   1.694
  587SOL    HW2 2661   5.410   2.174   1.740
  588SOL     OW 2662   1.719   4.914   3.211
  588SOL    HW1 2663   1.631   4.956   3.234
  588SOL    HW2 2664   1.715   4.879   3.117
  589SOL     OW 2665   3.056   5.344   0.635
  589SOL    HW1 2666   3.131   5.350   0.701
  589SOL    HW2 2667   2.997   5.267   0.660
  590SOL     OW 2668   3.739   2.219   0.552
  590SOL    HW1 2669   3.670   2.268   0.604
  590SOL    HW2 2670   3.764   2.134   0.600
  591SOL     OW 2671   3.263   5.629   4.082
  591SOL    HW1 2672   3.358   5.656   4.100
  591SOL    HW2 2673   3.202   5.690   4.133
  592SOL     OW 2674   3.435   1.775   4.695
  592SOL    HW1 2675   3.460   1.744   4.786
  592SOL    HW2 2676   3.377   1.856   4.701
  593SOL     OW 2677   2.654   2.004   0.002
  593SOL    HW1 2678   2.571   1.959   0.035
  593SOL    HW2 2679   2.647   2.102   0.017
  594SOL     OW 2680   4.860   1.095   2.408
  594SOL    HW1 2681   4.848   1.006   2.364
  594SOL    HW2 2682   4.930   1.148   2.359
  595SOL     OW 2683   5.644   5.542   2.735
  595SOL    HW1 2684   5.722   5.509   2.681
  595SOL    HW2 2685   5.595   5.611   2.682
  596SOL     OW 2686   5.961   4.626   4.285
  596SOL    HW1 2687   5.914   4.684   4.219
  596SOL    HW2 2688   6.037   4.678   4.326
  597SOL     OW 2689   2.930   0.858   7.006
  597SOL    HW1 2690   2.942   0.957   7.017
  597SOL    HW2 2691   2.842   0.841   6.962
  598SOL     OW 2692   3.452   4.147   4.267
  598SOL    HW1 2693   3.366   4.134   4.317
  598SOL    HW2 2694   3.529   4.139   4.330
  599SOL     OW 2695   1.060   5.082   1.348
  599SOL    HW1 2696   1.146   5.095   1.398
  599SOL    HW2 2697   1.078   5.085   1.250
  600SOL     OW 2698   6.496   3.513   5.182
  600SOL    HW1 2699   6.568   3.546   5.120
  600SOL    HW2 2700   6.433   3.587   5.202
  601SOL     OW 2701   1.086   6.273   5.779
  601SOL    HW1 2702   1.172   6.307   5.816
  601SOL    HW2 2703   1.088   6.278   5.680
  602SOL     OW 2704   2.322   0.430   3.375
  602SOL    HW1 2705   2.421   0.429   3.377
  602SOL    HW2 2706   2.289   0.390   3.289
  603SOL     OW 2707   1.535   1.385   4.590
  603SOL    HW1 2708   1.593   1.461   4.562
  603SOL    HW2 2709   1.501   1.336   4.510
  604SOL     OW 2710   6.239   2.436   1.313
  604SOL    HW1 2711   6.281   2.427   1.223
  604SOL    HW2 2712   6.142   2.455   1.303
  605SOL     OW 2713   6.730   6.314   1.516
  605SOL    HW1 2714   6.714   6.236   1.576
  605SOL    HW2 2715   6.690   6.396   1.556
  606SOL     OW 2716   4.051   0.080   4.531
  606SOL    HW1 2717   3.969   0.132   4.506
  606SOL    HW2 2718   4.031   7.000   4.527
  607SOL     OW 2719   1.725   3.340   5.642
  607SOL    HW1 2720   1.680   3.251   5.649
  607SOL    HW2 2721   1.824   3.327   5.646
  608SOL     OW 2722   3.415   0.933   5.821
  608SOL    HW1 2723   3.393   0.909   5.726
  608SOL    HW2 2724   3.379   1.024   5.841
  609SOL     OW 2725   3.080   2.873   1.830
  609SOL    HW1 2726   3.043   2.789   1.789
  609SOL    HW2 2727   3.066   2.950   1.768
  610SOL     OW 2728   4.350   3.371   1.648
  610SOL    HW1 2729   4.330   3.284   1.694
  610SOL    HW2 2730   4.282   3.439   1.675
  611SOL     OW 2731   3.148   0.862   3.185
  611SOL    HW1 2732   3.108   0.904   3.104
  611SOL    HW2 2733   3.203   0.783   3.159
  612SOL     OW 2734   4.169   5.049   4.540
  612SOL    HW1 2735   4.250   5.015   4.588
  612SOL    HW2 2736   4.130   4.975   4.484
  613SOL     OW 2737   3.915   4.686   5.363
  613SOL    HW1 2738   3.832   4.647   5.325
  613SOL    HW2 2739   3.931   4.776   5.322
  614SOL     OW 2740   2.691   5.989   5.946
  614SOL    HW1 2741   2.708   6.046   6.026
  614SOL    HW2 2742   2.738   5.901   5.956
  615SOL     OW 2743   1.140   5.072   2.547
  615SOL    HW1 2744   1.128   5.136   2.471
  615SOL    HW2 2745   1.052   5.034   2.573
  616SOL     OW 2746   6.149   3.114   3.723
  616SOL    HW1 2747   6.184   3.088   3.633
  616SOL    HW2 2748   6.053   3.139   3.715
  617SOL     OW 2749   3.072   6.082   6.041
  617SOL    HW1 2750   3.170   6.073   6.055
  617SOL    HW2 2751   3.028   6.102   6.129
  618SOL     OW 2752   1.516   1.358   2.283
  618SOL    HW1 2753   1.561   1.426   2.341
  618SOL    HW2 2754   1.577   1.281   2.267
  619SOL     OW 2755   0.372   1.511   6.796
  619SOL    HW1 2756   0.336   1.560   6.716
  619SOL    HW2 2757   0.410   1.578   6.861
  620SOL     OW 2758   4.407   3.359   1.352
  620SOL    HW1 2759   4.404   3.358   1.452
  620SOL    HW2 2760   4.356   3.438   1.318
  621SOL     OW 2761   0.524   5.061   0.971
  621SOL    HW1 2762   0.434   5.040   0.933
  621SOL    HW2 2763   0.593   5.002   0.931
  622SOL     OW 2764   0.772   0.738   6.439
  622SOL    HW1 2765   0.812   0.767   6.526
  622SOL    HW2 2766   0.676   0.717   6.452
  623SOL     OW 2767   0.414   4.791   5.796
  623SOL    HW1 2768   0.457   4.803   5.886
  623SOL    HW2 2769   0.480   4.748   5.734
  624SOL     OW 2770   0.742   1.916   1.583
  624SOL    HW1 2771   0.720   1.954   1.673
  624SOL    HW2 2772   0.661   1.872   1.545
  625SOL     OW 2773   1.548   1.350   2.010
  625SOL    HW1 2774   1.533   1.381   2.104
  625SOL    HW2 2775   1.644   1.364   1.985
  626SOL     OW 2776   3.417   0.151   4.311
  626SOL    HW1 2777   3.358   0.076   4.283
  626SOL    HW2 2778   3.495   0.115   4.363
  627SOL     OW 2779   5.063   0.786   0.015
  627SOL    HW1 2780   5.051   0.805   0.112
  627SOL    HW2 2781   5.160   0.776   7.012
  628SOL     OW 2782   5.344   3.990   3.494
  628SOL    HW1 2783   5.352   3.892   3.474
  628SOL    HW2 2784   5.336   4.041   3.408
  629SOL     OW 2785   1.821   6.630   0.438
  629SOL    HW1 2786   1.729   6.637   0.401
  629SOL    HW2 2787   1.817   6.598   0.533
  630SOL     OW 2788   3.117   1.808   1.597
  630SOL    HW1 2789   3.019   1.795   1.581
  630SOL    HW2 2790   3.142   1.903   1.578
  631SOL     OW 2791   2.064   6.609   4.712
  631SOL    HW1 2792   1.982   6.667   4.711
  631SOL    HW2 2793   2.039   6.517   4.683
  632SOL     OW 2794   2.201   0.712   1.183
  632SOL    HW1 2795   2.231   0.787   1.241
  632SOL    HW2 2796   2.101   0.714   1.174
  633SOL     OW 2797   2.145   6.532   5.798
  633SOL    HW1 2798   2.124   6.508   5.892
  633SOL    HW2 2799   2.108   6.462   5.737
  634SOL     OW 2800   3.114   6.085   0.818
  634SOL    HW1 2801   3.021   6.073   0.783
  634SOL    HW2 2802   3.116   6.161   0.882
  635SOL     OW 2803   2.877   0.581   2.680
  635SOL    HW1 2804   2.920   0.518   2.746
  635SOL    HW2 2805   2.947   0.642   2.643
  636SOL     OW 2806   5.007   5.412   0.211
  636SOL    HW1 2807   5.010   5.433   0.309
  636SOL    HW2 2808   5.055   5.483   0.160
  637SOL     OW 2809   5.601   4.671   0.922
  637SOL    HW1 2810   5.620   4.628   1.011
  637SOL    HW2 2811   5.502   4.678   0.910
  638SOL     OW 2812   5.295   1.160   2.410
  638SOL    HW1 2813   5.288   1.119   2.501
  638SOL    HW2 2814   5.384   1.138   2.370
  639SOL     OW 2815   4.537   4.647   2.578
  639SOL    HW1 2816   4.553   4.587   2.499
  639SOL    HW2 2817   4.576   4.604   2.660
  640SOL     OW 2818   2.568   4.030   5.900
  640SOL    HW1 2819   2.578   4.103   5.832
  640SOL    HW2 2820   2.486   3.977   5.880
  641SOL     OW 2821   0.190   5.780   5.333
  641SOL    HW1 2822   0.108   5.725   5.347
  641SOL    HW2 2823   0.271   5.725   5.352
  642SOL     OW 2824   1.736   4.501   5.846
  642SOL    HW1 2825   1.737   4.575   5.778
  642SOL    HW2 2826   1.664   4.519   5.913
  643SOL     OW 2827   5.694   6.201   4.817
  643SOL    HW1 2828   5.759   6.267   4.853
  643SOL    HW2 2829   5.664   6.230   4.726
  644SOL     OW 2830   2.542   6.194   2.283
  644SOL    HW1 2831   2.555   6.182   2.185
  644SOL    HW2 2832   2.542   6.105   2.328
  645SOL     OW 2833   6.098   2.873   3.877
  645SOL    HW1 2834   6.156   2.936   3.825
  645SOL    HW2 2835   6.036   2.924   3.936
  646SOL     OW 2836   1.248   1.854   4.742
  646SOL    HW1 2837   1.247   1.946   4.780
  646SOL    HW2 2838   1.324   1.802   4.780
  647SOL     OW 2839   4.959   3.300   0.056
  647SOL    HW1 2840   5.000   3.390   0.039
  647SOL    HW2 2841   4.968   3.243   6.993
  648SOL     OW 2842   5.104   2.218   3.299
  648SOL    HW1 2843   5.071   2.311   3.282
  648SOL    HW2 2844   5.152   2.216   3.387
  649SOL     OW 2845   4.360   4.544   2.184
  649SOL    HW1 2846   4.438   4.537   2.123
  649SOL    HW2 2847   4.311   4.629   2.166
  650SOL     OW 2848   4.524   3.846   1.133
  650SOL    HW1 2849   4.454   3.781   1.163
  650SOL    HW2 2850   4.600   3.796   1.092
  651SOL     OW 2851   1.166   5.346   6.008
  651SOL    HW1 2852   1.197   5.404   6.083
  651SOL    HW2 2853   1.243   5.290   5.976
  652SOL     OW 2854   4.664   1.538   2.801
  652SOL    HW1 2855   4.698   1.532   2.707
  652SOL    HW2 2856   4.725   1.596   2.855
  653SOL     OW 2857   3.919   5.023   3.441
  653SOL    HW1 2858   3.930   4.924   3.442
  653SOL    HW2 2859   4.003   5.066   3.474
  654SOL     OW 2860   6.601   5.375   0.330
  654SOL    HW1 2861   6.659   5.398   0.252
  654SOL    HW2 2862   6.658   5.336   0.403
  655SOL     OW 2863   7.004   1.278   0.117
  655SOL    HW1 2864   0.063   1.269   0.053
  655SOL    HW2 2865   0.018   1.317   0.203
  656SOL     OW 2866   2.657   6.209   1.722
  656SOL    HW1 2867   2.661   6.109   1.731
  656SOL    HW2 2868   2.749   6.245   1.711
  657SOL     OW 2869   4.045   1.169   6.684
  657SOL    HW1 2870   4.031   1.254   6.735
  657SOL    HW2 2871   4.027   1.091   6.745
  658SOL     OW 2872   3.395   5.170   5.865
  658SOL    HW1 2873   3.416   5.261   5.902
  658SOL    HW2 2874   3.427   5.164   5.771
  659SOL     OW 2875   3.056   0.422   6.872
  659SOL    HW1 2876   3.024   0.452   6.782
  659SOL    HW2 2877   3.048   0.323   6.879
  660SOL     OW 2878   3.758   5.607   3.365
  660SOL    HW1 2879   3.737   5.509   3.368
  660SOL    HW2 2880   3.764   5.643   3.458
  661SOL     OW 2881   5.534   5.750   3.141
  661SOL    HW1 2882   5.504   5.682   3.074
  661SOL    HW2 2883   5.566   5.832   3.093
  662SOL     OW 2884   3.712   1.381   0.606
  662SOL    HW1 2885   3.806   1.354   0.586
  662SOL    HW2 2886   3.657   1.300   0.626
  663SOL     OW 2887   1.994   4.908   4.947
  663SOL    HW1 2888   2.004   4.808   4.942
  663SOL    HW2 2889   1.931   4.932   5.021
  664SOL     OW 2890   5.810   1.370   6.488
  664SOL    HW1 2891   5.773   1.298   6.429
  664SOL    HW2 2892   5.889   1.412   6.444
  665SOL     OW 2893   1.659   4.712   2.122
  665SOL    HW1 2894   1.660   4.809   2.146
  665SOL    HW2 2895   1.752   4.677   2.122
  666SOL     OW 2896   4.141   1.128   1.459
  666SOL    HW1 2897   4.147   1.144   1.360
  666SOL    HW2 2898   4.067   1.065   1.478
  667SOL     OW 2899   0.934   6.311   2.439
  667SOL    HW1 2900   0.897   6.337   2.350
  667SOL    HW2 2901   0.917   6.385   2.504
  668SOL     OW 2902   5.358   3.716   0.424
  668SOL    HW1 2903   5.353   3.754   0.516
  668SOL    HW2 2904   5.266   3.704   0.387
  669SOL     OW 2905   5.149   1.394   2.367
  669SOL    HW1 2906   5.212   1.320   2.388
  669SOL    HW2 2907   5.171   1.474   2.423
  670SOL     OW 2908   3.012   2.213   3.210
  670SOL    HW1 2909   3.062   2.128   3.190
  670SOL    HW2 2910   3.013   2.229   3.308
  671SOL     OW 2911   2.996   0.098   1.566
  671SOL    HW1 2912   2.989   0.141   1.476
  671SOL    HW2 2913   2.938   0.147   1.631
  672SOL     OW 2914   1.565   6.662   2.229
  672SOL    HW1 2915   1.617   6.746   2.220
  672SOL    HW2 2916   1.623   6.592   2.271
  673SOL     OW 2917   5.634   6.491   0.453
  673SOL    HW1 2918   5.709   6.492   0.387
  673SOL    HW2 2919   5.644   6.414   0.515
  674SOL     OW 2920   6.179   0.998   3.759
  674SOL    HW1 2921   6.205   1.042   3.845
  674SOL    HW2 2922   6.208   0.903   3.760
  675SOL     OW 2923   0.329   3.364   2.957
  675SOL    HW1 2924   0.312   3.304   3.035
  675SOL    HW2 2925   0.244   3.378   2.906
  676SOL     OW 2926   2.315   6.680   6.007
  676SOL    HW1 2927   2.399   6.723   5.975
  676SOL    HW2 2928   2.307   6.588   5.967
  677SOL     OW 2929   5.385   1.470   1.325
  677SOL    HW1 2930   5.317   1.407   1.362
  677SOL    HW2 2931   5.377   1.472   1.225
  678SOL     OW 2932   1.284   5.008   3.924
  678SOL    HW1 2933   1.315   4.966   4.010
  678SOL    HW2 2934   1.310   5.104   3.924
  679SOL     OW 2935   4.714   2.092   5.271
  679SOL    HW1 2936   4.707   2.004   5.224
  679SOL    HW2 2937   4.660   2.160   5.223
  680SOL     OW 2938   5.949   6.325   4.187
  680SOL    HW1 2939   5.888   6.265   4.238
  680SOL    HW2 2940   6.018   6.363   4.249
  681SOL     OW 2941   4.733   5.088   2.326
  681SOL    HW1 2942   4.651   5.099   2.269
  681SOL    HW2 2943   4.753   4.990   2.336
  682SOL     OW 2944   0.533   0.967   3.274
  682SOL    HW1 2945   0.517   0.966   3.372
  682SOL    HW2 2946   0.630   0.978   3.255
  683SOL     OW 2947   3.648   3.795   1.440
  683SOL    HW1 2948   3.623   3.822   1.533
  683SOL    HW2 2949   3.669   3.877   1.387
  684SOL     OW 2950   6.359   1.278   6.019
  684SOL    HW1 2951   6.303   1.347   5.974
  684SOL    HW2 2952   6.336   1.274   6.116
  685SOL     OW 2953   3.340   0.675   3.150
  685SOL    HW1 2954   3.381   0.755   3.105
  685SOL    HW2 2955   3.406   0.635   3.214
  686SOL     OW 2956   4.303   0.305   4.812
  686SOL    HW1 2957   4.332   0.279   4.720
  686SOL    HW2 2958   4.290   0.223   4.868
  687SOL     OW 2959   0.933   1.888   3.487
  687SOL    HW1 2960   1.013   1.879   3.548
  687SOL    HW2 2961   0.935   1.976   3.441
  688SOL     OW 2962   6.447   1.359   6.700
  688SOL    HW1 2963   6.400   1.285   6.747
  688SOL    HW2 2964   6.484   1.423   6.768
  689SOL     OW 2965   1.627   5.739   5.542
  689SOL    HW1 2966   1.566   5.749   5.463
  689SOL    HW2 2967   1.721   5.760   5.515
  690SOL     OW 2968   5.501   3.483   2.571
  690SOL    HW1 2969   5.461   3.559   2.520
  690SOL    HW2 2970   5.442   3.403   2.563
  691SOL     OW 2971   5.553   1.676   0.893
  691SOL    HW1 2972   5.497   1.648   0.970
  691SOL    HW2 2973   5.535   1.616   0.815
  692SOL     OW 2974   1.878   0.281   4.615
  692SOL    HW1 2975   1.897   0.374   4.583
  692SOL    HW2 2976   1.832   0.286   4.704
  693SOL     OW 2977   5.607   6.103   3.647
  693SOL    HW1 2978   5.530   6.129   3.589
  693SOL    HW2 2979   5.595   6.009   3.678
  694SOL     OW 2980   4.749   6.299   5.153
  694SOL    HW1 2981   4.774   6.379   5.209
  694SOL    HW2 2982   4.729   6.329   5.060
  695SOL     OW 2983   4.007   0.209   3.818
  695SOL    HW1 2984   3.923   0.170   3.857
  695SOL    HW2 2985   3.983   0.278   3.750
  696SOL     OW 2986   5.328   4.077   3.231
  696SOL    HW1 2987   5.406   4.136   3.210
  696SOL    HW2 2988   5.286   4.045   3.147
  697SOL     OW 2989   1.237   6.395   2.016
  697SOL    HW1 2990   1.334   6.382   2.035
  697SOL    HW2 2991   1.207   6.483   2.053
  698SOL     OW 2992   5.514   6.779   0.050
  698SOL    HW1 2993   5.482   6.850   7.005
  698SOL    HW2 2994   5.588   6.815   0.106
  699SOL     OW 2995   3.081   2.774   1.381
  699SOL    HW1 2996   3.033   2.756   1.467
  699SOL    HW2 2997   3.155   2.839   1.398
  700SOL     OW 2998   3.896   0.570   4.337
  700SOL    HW1 2999   3.863   0.663   4.354
  700SOL    HW2 3000   3.819   0.513   4.308
  701SOL     OW 3001   4.580   5.120   1.555
  701SOL    HW1 3002   4.502   5.117   1.618
  701SOL    HW2 3003   4.553   5.168   1.471
  702SOL     OW 3004   3.505   1.080   4.307
  702SOL    HW1 3005   3.429   1.144   4.289
  702SOL    HW2 3006   3.490   0.996   4.256
  703SOL     OW 3007   3.476   2.049   6.856
  703SOL    HW1 3008   3.501   1.986   6.930
  703SOL    HW2 3009   3.418   2.121   6.893
  704SOL     OW 3010   1.883   2.525   5.384
  704SOL    HW1 3011   1.967   2.475   5.403
  704SOL    HW2 3012   1.848   2.498   5.295
  705SOL     OW 3013   0.031   6.594   5.318
  705SOL    HW1 3014   0.071   6.671   5.269
  705SOL    HW2 3015   6.950   6.592   5.303
  706SOL     OW 3016   4.548   1.250   5.371
  706SOL    HW1 3017   4.615   1.292   5.309
  706SOL    HW2 3018   4.457   1.286   5.350
  707SOL     OW 3019   3.072   5.243   4.362
  707SOL    HW1 3020   3.139   5.279   4.297
  707SOL    HW2 3021   3.087   5.286   4.451
  708SOL     OW 3022   4.424   6.099   3.834
  708SOL    HW1 3023   4.441   6.118   3.737
  708SOL    HW2 3024   4.330   6.070   3.847
  709SOL     OW 3025   2.438   0.150   1.267
  709SOL    HW1 3026   2.383   0.134   1.349
  709SOL    HW2 3027   2.503   0.075   1.255
  710SOL     OW 3028   4.530   2.877   1.657
  710SOL    HW1 3029   4.559   2.912   1.746
  710SOL    HW2 3030   4.485   2.789   1.669
  711SOL     OW 3031   6.988   2.451   6.491
  711SOL    HW1 3032   6.926   2.439   6.413
  711SOL    HW2 3033   6.964   2.535   6.540
  712SOL     OW 3034   5.232   4.187   0.767
  712SOL    HW1 3035   5.248   4.283   0.745
  712SOL    HW2 3036   5.294   4.159   0.841
  713SOL     OW 3037   3.856   2.972   4.897
  713SOL    HW1 3038   3.763   2.966   4.935
  713SOL    HW2 3039   3.920   2.928   4.959
  714SOL     OW 3040   5.065   5.769   2.836
  714SOL    HW1 3041   5.023   5.685   2.869
  714SOL    HW2 3042   5.163   5.755   2.822
  715SOL     OW 3043   6.514   4.902   5.609
  715SOL    HW1 3044   6.514   4.802   5.617
  715SOL    HW2 3045   6.539   4.943   5.697
  716SOL     OW 3046   1.234   1.999   3.022
  716SOL    HW1 3047   1.211   2.096   3.034
  716SOL    HW2 3048   1.320   1.979   3.069
  717SOL     OW 3049   5.362   4.728   4.371
  717SOL    HW1 3050   5.314   4.762   4.453
  717SOL    HW2 3051   5.412   4.645   4.395
  718SOL     OW 3052   5.479   2.143   5.090
  718SOL    HW1 3053   5.565   2.168   5.133
  718SOL    HW2 3054   5.494   2.070   5.024
  719SOL     OW 3055   5.179   6.846   4.028
  719SOL    HW1 3056   5.119   6.777   4.069
  719SOL    HW2 3057   5.189   6.826   3.931
  720SOL     OW 3058   2.547   1.575   0.766
  720SOL    HW1 3059   2.503   1.590   0.854
  720SOL    HW2 3060   2.519   1.647   0.702
  721SOL     OW 3061   0.217   1.912   2.916
  721SOL    HW1 3062   0.147   1.841   2.908
  721SOL    HW2 3063   0.194   1.974   2.991
  722SOL     OW 3064   5.120   6.664   0.675
  722SOL    HW1 3065   5.143   6.690   0.769
  722SOL    HW2 3066   5.141   6.740   0.613
  723SOL     OW 3067   2.597   5.718   3.927
  723SOL    HW1 3068   2.562   5.811   3.942
  723SOL    HW2 3069   2.596   5.668   4.013
  724SOL     OW 3070   1.353   1.539   4.007
  724SOL    HW1 3071   1.435   1.496   3.969
  724SOL    HW2 3072   1.378   1.602   4.080
  725SOL     OW 3073   1.192   3.996   2.900
  725SOL    HW1 3074   1.115   3.962   2.955
  725SOL    HW2 3075   1.268   4.020   2.960
  726SOL     OW 3076   1.473   3.911   1.008
  726SOL    HW1 3077   1.452   3.821   1.046
  726SOL    HW2 3078   1.508   3.901   0.915
  727SOL     OW 3079   3.787   5.616   5.076
  727SOL    HW1 3080   3.713   5.553   5.051
  727SOL    HW2 3081   3.819   5.662   4.994
  728SOL     OW 3082   6.546   3.233   3.699
  728SOL    HW1 3083   6.589   3.323   3.696
  728SOL    HW2 3084   6.467   3.232   3.638
  729SOL     OW 3085   0.327   4.167   0.813
  729SOL    HW1 3086   0.322   4.251   0.867
  729SOL    HW2 3087   0.421   4.134   0.812
  730SOL     OW 3088   4.164   0.685   3.116
  730SOL    HW1 3089   4.195   0.597   3.081
  730SOL    HW2 3090   4.098   0.671   3.190
  731SOL     OW 3091   4.635   4.818   5.530
  731SOL    HW1 3092   4.549   4.869   5.526
  731SOL    HW2 3093   4.653   4.790   5.624
  732SOL     OW 3094   3.680   1.617   5.238
  732SOL    HW1 3095   3.644   1.548   5.301
  732SOL    HW2 3096   3.707   1.698   5.289
  733SOL     OW 3097   5.759   5.759   2.877
  733SOL    HW1 3098   5.740   5.664   2.851
  733SOL    HW2 3099   5.842   5.790   2.829
  734SOL     OW 3100   6.523   6.520   2.243
  734SOL    HW1 3101   6.496   6.456   2.172
  734SOL    HW2 3102   6.448   6.583   2.263
  735SOL     OW 3103   4.681   0.553   2.213
  735SOL    HW1 3104   4.604   0.513   2.163
  735SOL    HW2 3105   4.760   0.563   2.152
  736SOL     OW 3106   2.189   1.283   3.942
  736SOL    HW1 3107   2.161   1.209   3.882
  736SOL    HW2 3108   2.145   1.272   4.031
  737SOL     OW 3109   4.159   0.564   5.841
  737SOL    HW1 3110   4.153   0.467   5.817
  737SOL    HW2 3111   4.255   0.591   5.846
  738SOL     OW 3112   1.657   4.570   0.343
  738SOL    HW1 3113   1.710   4.512   0.282
  738SOL    HW2 3114   1.677   4.547   0.438
  739SOL     OW 3115   3.201   7.010   4.179
  739SOL    HW1 3116   3.169   6.977   4.268
  739SOL    HW2 3117   3.200   6.934   4.113
  740SOL     OW 3118   4.986   3.179   2.730
  740SOL    HW1 3119   4.910   3.115   2.745
  740SOL    HW2 3120   5.001   3.190   2.632
  741SOL     OW 3121   2.286   1.043   3.129
  741SOL    HW1 3122   2.275   0.943   3.135
  741SOL    HW2 3123   2.285   1.070   3.033
  742SOL     OW 3124   2.309   6.976   2.026
  742SOL    HW1 3125   2.340   0.010   1.946
  742SOL    HW2 3126   2.220   6.935   2.007
  743SOL     OW 3127   0.589   6.808   3.043
  743SOL    HW1 3128   0.600   6.898   3.084
  743SOL    HW2 3129   0.671   6.785   2.990
  744SOL     OW 3130   5.164   1.774   0.474
  744SOL    HW1 3131   5.088   1.829   0.507
  744SOL    HW2 3132   5.250   1.820   0.494
  745SOL     OW 3133   2.313   0.057   4.649
  745SOL    HW1 3134   2.275   0.118   4.580
  745SOL    HW2 3135   2.322   0.106   4.736
  746SOL     OW 3136   6.764   4.801   6.000
  746SOL    HW1 3137   6.811   4.875   6.049
  746SOL    HW2 3138   6.775   4.815   5.902
  747SOL     OW 3139   4.875   5.552   2.896
  747SOL    HW1 3140   4.907   5.465   2.858
  747SOL    HW2 3141   4.857   5.616   2.822
  748SOL     OW 3142   5.084   5.128   1.801
  748SOL    HW1 3143   5.173   5.100   1.764
  748SOL    HW2 3144   5.011   5.096   1.741
  749SOL     OW 3145   4.928   3.687   4.117
  749SOL    HW1 3146   4.877   3.750   4.176
  749SOL    HW2 3147   4.944   3.601   4.166
  750SOL     OW 3148   2.336   1.941   2.492
  750SOL    HW1 3149   2.391   2.016   2.529
  750SOL    HW2 3150   2.240   1.967   2.491
  751SOL     OW 3151   3.555   0.546   0.593
  751SOL    HW1 3152   3.481   0.486   0.563
  751SOL    HW2 3153   3.621   0.494   0.647
  752SOL     OW 3154   3.572   2.442   5.538
  752SOL    HW1 3155   3.509   2.367   5.559
  752SOL    HW2 3156   3.649   2.407   5.485
  753SOL     OW 3157   3.852   4.059   4.593
  753SOL    HW1 3158   3.947   4.064   4.626
  753SOL    HW2 3159   3.826   3.963   4.583
  754SOL     OW 3160   5.729   0.683   0.308
  754SOL    HW1 3161   5.707   0.772   0.347
  754SOL    HW2 3162   5.811   0.691   0.250
  755SOL     OW 3163   4.147   4.234   5.299
  755SOL    HW1 3164   4.184   4.325   5.280
  755SOL    HW2 3165   4.108   4.196   5.215
  756SOL     OW 3166   2.241   5.520   6.344
  756SOL    HW1 3167   2.174   5.471   6.287
  756SOL    HW2 3168   2.331   5.478   6.333
  757SOL     OW 3169   2.825   6.080   2.229
  757SOL    HW1 3170   2.772   6.164   2.234
  757SOL    HW2 3171   2.915   6.099   2.189
  758SOL     OW 3172   4.523   0.846   4.291
  758SOL    HW1 3173   4.533   0.747   4.299
  758SOL    HW2 3174   4.597   0.882   4.233
  759SOL     OW 3175   0.618   2.848   3.856
  759SOL    HW1 3176   0.715   2.836   3.877
  759SOL    HW2 3177   0.608   2.887   3.764
  760SOL     OW 3178   6.047   5.450   2.875
  760SOL    HW1 3179   6.044   5.533   2.931
  760SOL    HW2 3180   6.103   5.467   2.794
  761SOL     OW 3181   3.781   4.054   6.177
  761SOL    HW1 3182   3.855   4.040   6.111
  761SOL    HW2 3183   3.702   4.000   6.151
  762SOL     OW 3184   3.222   5.565   3.825
  762SOL    HW1 3185   3.127   5.563   3.793
  762SOL    HW2 3186   3.224   5.595   3.920
  763SOL     OW 3187   5.423   0.807   0.536
  763SOL    HW1 3188   5.501   0.844   0.485
  763SOL    HW2 3189   5.362   0.881   0.563
  764SOL     OW 3190   5.585   0.045   6.108
  764SOL    HW1 3191   5.522   6.991   6.137
  764SOL    HW2 3192   5.543   0.099   6.035
  765SOL     OW 3193   6.610   7.002   0.593
  765SOL    HW1 3194   6.585   0.046   0.667
  765SOL    HW2 3195   6.528   6.972   0.545
  766SOL     OW 3196   2.385   2.046   5.137
  766SOL    HW1 3197   2.447   2.103   5.191
  766SOL    HW2 3198   2.292   2.055   5.172
  767SOL     OW 3199   6.385   5.401   4.673
  767SOL    HW1 3200   6.434   5.403   4.586
  767SOL    HW2 3201   6.424   5.470   4.734
  768SOL     OW 3202   2.078   5.264   2.801
  768SOL    HW1 3203   2.083   5.233   2.706
  768SOL    HW2 3204   2.108   5.190   2.861
  769SOL     OW 3205   2.484   1.767   5.165
  769SOL    HW1 3206   2.443   1.857   5.179
  769SOL    HW2 3207   2.461   1.734   5.073
  770SOL     OW 3208   1.510   4.906   5.898
  770SOL    HW1 3209   1.442   4.851   5.849
  770SOL    HW2 3210   1.540   4.857   5.980
  771SOL     OW 3211   1.611   5.050   2.606
  771SOL    HW1 3212   1.523   5.012   2.634
  771SOL    HW2 3213   1.637   5.124   2.668
  772SOL     OW 3214   5.619   4.362   0.475
  772SOL    HW1 3215   5.541   4.339   0.417
  772SOL    HW2 3216   5.588   4.415   0.554
  773SOL     OW 3217   1.173   3.811   3.769
  773SOL    HW1 3218   1.083   3.785   3.734
  773SOL    HW2 3219   1.178   3.910   3.780
  774SOL     OW 3220   2.598   0.398   3.395
  774SOL    HW1 3221   2.634   0.487   3.368
  774SOL    HW2 3222   2.641   0.370   3.481
  775SOL     OW 3223   1.038   4.082   2.199
  775SOL    HW1 3224   1.114   4.038   2.248
  775SOL    HW2 3225   0.954   4.073   2.254
  776SOL     OW 3226   2.519   5.254   6.431
  776SOL    HW1 3227   2.454   5.247   6.355
  776SOL    HW2 3228   2.611   5.235   6.398
  777SOL     OW 3229   2.227   3.991   6.726
  777SOL    HW1 3230   2.135   3.952   6.716
  777SOL    HW2 3231   2.289   3.921   6.762
  778SOL     OW 3232   2.678   6.261   7.005
  778SOL    HW1 3233   2.589   6.223   6.981
  778SOL    HW2 3234   2.674   6.299   0.079
  779SOL     OW 3235   7.001   2.254   3.333
  779SOL    HW1 3236   0.059   2.316   3.349
  779SOL    HW2 3237   6.971   2.260   3.238
  780SOL     OW 3238   0.499   2.263   4.236
  780SOL    HW1 3239   0.432   2.328   4.273
  780SOL    HW2 3240   0.510   2.278   4.138
  781SOL     OW 3241   0.323   4.584   0.286
  781SOL    HW1 3242   0.401   4.635   0.250
  781SOL    HW2 3243   0.346   4.488   0.295
  782SOL     OW 3244   1.723   3.374   4.866
  782SOL    HW1 3245   1.813   3.379   4.909
  782SOL    HW2 3246   1.694   3.278   4.859
  783SOL     OW 3247   6.727   4.777   6.716
  783SOL    HW1 3248   6.631   4.781   6.742
  783SOL    HW2 3249   6.769   4.694   6.753
  784SOL     OW 3250   2.388   5.963   1.124
  784SOL    HW1 3251   2.392   6.050   1.075
  784SOL    HW2 3252   2.332   5.973   1.206
  785SOL     OW 3253   1.139   0.344   4.074
  785SOL    HW1 3254   1.206   0.415   4.053
  785SOL    HW2 3255   1.103   0.306   3.990
  786SOL     OW 3256   6.282   1.380   4.064
  786SOL    HW1 3257   6.377   1.413   4.067
  786SOL    HW2 3258   6.232   1.427   3.991
  787SOL     OW 3259   2.039   0.176   0.664
  787SOL    HW1 3260   2.116   0.189   0.727
  787SOL    HW2 3261   1.963   0.234   0.691
  788SOL     OW 3262   1.893   2.434   1.384
  788SOL    HW1 3263   1.888   2.360   1.452
  788SOL    HW2 3264   1.900   2.522   1.431
  789SOL     OW 3265   4.573   4.925   2.540
  789SOL    HW1 3266   4.519   4.849   2.575
  789SOL    HW2 3267   4.651   4.889   2.488
  790SOL     OW 3268   0.924   2.178   2.763
  790SOL    HW1 3269   0.875   2.116   2.701
  790SOL    HW2 3270   0.911   2.148   2.858
  791SOL     OW 3271   3.033   5.769   4.254
  791SOL    HW1 3272   2.975   5.851   4.248
  791SOL    HW2 3273   3.009   5.718   4.337
  792SOL     OW 3274   1.672   0.555   0.047
  792SOL    HW1 3275   1.613   0.606   0.109
  792SOL    HW2 3276   1.622   0.479   0.006
  793SOL     OW 3277   2.821   5.980   4.114
  793SOL    HW1 3278   2.839   5.896   4.062
  793SOL    HW2 3279   2.796   6.053   4.051
  794SOL     OW 3280   3.878   3.183   2.457
  794SOL    HW1 3281   3.813   3.222   2.522
  794SOL    HW2 3282   3.875   3.083   2.462
  795SOL     OW 3283   3.592   0.374   6.160
  795SOL    HW1 3284   3.683   0.414   6.152
  795SOL    HW2 3285   3.547   0.409   6.242
  796SOL     OW 3286   0.960   2.926   0.662
  796SOL    HW1 3287   1.028   2.864   0.701
  796SOL    HW2 3288   0.868   2.891   0.680
  797SOL     OW 3289   4.621   0.185   0.821
  797SOL    HW1 3290   4.701   0.128   0.839
  797SOL    HW2 3291   4.545   0.128   0.790
  798SOL     OW 3292   4.677   6.395   0.959
  798SOL    HW1 3293   4.638   6.307   0.934
  798SOL    HW2 3294   4.703   6.394   1.055
  799SOL     OW 3295   2.266   1.918   5.484
  799SOL    HW1 3296   2.241   1.995   5.543
  799SOL    HW2 3297   2.342   1.868   5.525
  800SOL     OW 3298   6.174   3.133   2.769
  800SOL    HW1 3299   6.100   3.126   2.836
  800SOL    HW2 3300   6.188   3.229   2.744
  801SOL     OW 3301   2.267   5.840   6.064
  801SOL    HW1 3302   2.234   5.825   5.971
  801SOL    HW2 3303   2.196   5.816   6.129
  802SOL     OW 3304   5.396   2.599   6.893
  802SOL    HW1 3305   5.340   2.664   6.841
  802SOL    HW2 3306   5.364   2.594   6.987
  803SOL     OW 3307   2.437   1.269   4.695
  803SOL    HW1 3308   2.425   1.339   4.625
  803SOL    HW2 3309   2.358   1.268   4.755
  804SOL     OW 3310   5.352   0.445   3.031
  804SOL    HW1 3311   5.440   0.490   3.049
  804SOL    HW2 3312   5.280   0.514   3.028
  805SOL     OW 3313   3.532   1.290   3.822
  805SOL    HW1 3314   3.613   1.285   3.881
  805SOL    HW2 3315   3.459   1.340   3.869
  806SOL     OW 3316   2.341   6.095   5.404
  806SOL    HW1 3317   2.300   6.155   5.335
  806SOL    HW2 3318   2.380   6.152   5.477
  807SOL     OW 3319   1.367   6.247   6.088
  807SOL    HW1 3320   1.319   6.309   6.025
  807SOL    HW2 3321   1.316   6.162   6.096
  808SOL     OW 3322   5.121   2.906   6.074
  808SOL    HW1 3323   5.186   2.918   5.999
  808SOL    HW2 3324   5.088   2.812   6.074
  809SOL     OW 3325   2.076   4.923   0.172
  809SOL    HW1 3326   1.992   4.953   0.125
  809SOL    HW2 3327   2.066   4.937   0.270
  810SOL     OW 3328   3.523   3.232   6.838
  810SOL    HW1 3329   3.467   3.309   6.870
  810SOL    HW2 3330   3.499   3.210   6.744
  811SOL     OW 3331   6.149   4.958   4.578
  811SOL    HW1 3332   6.165   4.908   4.493
  811SOL    HW2 3333   6.183   5.052   4.568
  812SOL     OW 3334   0.227   3.147   2.060
  812SOL    HW1 3335   0.309   3.089   2.064
  812SOL    HW2 3336   0.163   3.120   2.131
  813SOL     OW 3337   1.385   1.686   5.064
  813SOL    HW1 3338   1.336   1.735   5.136
  813SOL    HW2 3339   1.340   1.599   5.046
  814SOL     OW 3340   0.862   5.321   2.795
  814SOL    HW1 3341   0.807   5.238   2.800
  814SOL    HW2 3342   0.836   5.374   2.714
  815SOL     OW 3343   4.468   1.662   4.841
  815SOL    HW1 3344   4.388   1.714   4.808
  815SOL    HW2 3345   4.459   1.567   4.814
  816SOL     OW 3346   6.275   5.111   6.661
  816SOL    HW1 3347   6.251   5.015   6.646
  816SOL    HW2 3348   6.209   5.170   6.615
  817SOL     OW 3349   0.603   4.492   6.790
  817SOL    HW1 3350   0.566   4.400   6.803
  817SOL    HW2 3351   0.628   4.530   6.878
  818SOL     OW 3352   6.817   1.965   4.917
  818SOL    HW1 3353   6.756   2.037   4.882
  818SOL    HW2 3354   6.883   1.941   4.846
  819SOL     OW 3355   4.856   2.908   1.756
  819SOL    HW1 3356   4.934   2.898   1.818
  819SOL    HW2 3357   4.779   2.950   1.805
  820SOL     OW 3358   2.563   1.454   5.122
  820SOL    HW1 3359   2.560   1.371   5.066
  820SOL    HW2 3360   2.525   1.434   5.213
  821SOL     OW 3361   5.015   3.321   6.204
  821SOL    HW1 3362   5.067   3.238   6.223
  821SOL    HW2 3363   4.928   3.296   6.161
  822SOL     OW 3364   0.329   5.034   3.383
  822SOL    HW1 3365   0.347   4.942   3.349
  822SOL    HW2 3366   0.239   5.064   3.351
  823SOL     OW 3367   1.181   3.358   4.719
  823SOL    HW1 3368   1.223   3.407   4.796
  823SOL    HW2 3369   1.208   3.402   4.633
  824SOL     OW 3370   4.757   0.806   6.533
  824SOL    HW1 3371   4.700   0.865   6.590
  824SOL    HW2 3372   4.796   0.859   6.457
  825SOL     OW 3373   6.043   5.714   0.922
  825SOL    HW1 3374   6.003   5.705   1.013
  825SOL    HW2 3375   6.043   5.625   0.876
  826SOL     OW 3376   3.850   2.180   7.017
  826SOL    HW1 3377   3.786   2.119   0.046
  826SOL    HW2 3378   3.872   2.257   0.059
  827SOL     OW 3379   4.161   3.816   5.640
  827SOL    HW1 3380   4.160   3.831   5.542
  827SOL    HW2 3381   4.077   3.853   5.680
  828SOL     OW 3382   6.873   6.434   6.235
  828SOL    HW1 3383   6.808   6.385   6.178
  828SOL    HW2 3384   6.868   6.400   6.329
  829SOL     OW 3385   3.227   3.713   2.499
  829SOL    HW1 3386   3.128   3.709   2.495
  829SOL    HW2 3387   3.264   3.723   2.406
  830SOL     OW 3388   6.866   4.560   0.293
  830SOL    HW1 3389   6.828   4.539   0.203
  830SOL    HW2 3390   6.830   4.648   0.324
  831SOL     OW 3391   4.767   0.097   1.496
  831SOL    HW1 3392   4.851   0.103   1.551
  831SOL    HW2 3393   4.754   0.183   1.446
  832SOL     OW 3394   2.716   1.349   4.776
  832SOL    HW1 3395   2.650   1.280   4.745
  832SOL    HW2 3396   2.806   1.307   4.788
  833SOL     OW 3397   3.585   2.626   0.128
  833SOL    HW1 3398   3.544   2.697   0.071
  833SOL    HW2 3399   3.624   2.555   0.069
  834SOL     OW 3400   5.975   3.106   0.564
  834SOL    HW1 3401   6.037   3.083   0.639
  834SOL    HW2 3402   5.909   3.031   0.551
  835SOL     OW 3403   0.183   0.046   4.271
  835SOL    HW1 3404   0.155   0.140   4.289
  835SOL    HW2 3405   0.122   7.001   4.320
  836SOL     OW 3406   4.817   0.968   4.922
  836SOL    HW1 3407   4.882   0.892   4.920
  836SOL    HW2 3408   4.757   0.958   5.001
  837SOL     OW 3409   1.394   0.686   0.480
  837SOL    HW1 3410   1.313   0.628   0.485
  837SOL    HW2 3411   1.457   0.664   0.555
  838SOL     OW 3412   1.103   5.533   3.442
  838SOL    HW1 3413   1.022   5.475   3.436
  838SOL    HW2 3414   1.153   5.512   3.526
  839SOL     OW 3415   1.522   1.914   0.390
  839SOL    HW1 3416   1.605   1.924   0.337
  839SOL    HW2 3417   1.462   1.848   0.345
  840SOL     OW 3418   4.876   5.176   0.063
  840SOL    HW1 3419   4.883   5.261   0.115
  840SOL    HW2 3420   4.880   5.195   6.983
  841SOL     OW 3421   2.957   4.859   0.425
  841SOL    HW1 3422   2.875   4.901   0.464
  841SOL    HW2 3423   2.966   4.766   0.461
  842SOL     OW 3424   4.168   5.573   0.538
  842SOL    HW1 3425   4.107   5.516   0.484
  842SOL    HW2 3426   4.185   5.530   0.627
  843SOL     OW 3427   1.019   0.821   2.284
  843SOL    HW1 3428   0.949   0.750   2.275
  843SOL    HW2 3429   1.015   0.881   2.204
  844SOL     OW 3430   6.763   0.594   1.384
  844SOL    HW1 3431   6.772   0.609   1.482
  844SOL    HW2 3432   6.852   0.607   1.340
  845SOL     OW 3433   3.421   1.211   2.483
  845SOL    HW1 3434   3.491   1.150   2.520
  845SOL    HW2 3435   3.464   1.277   2.422
  846SOL     OW 3436   2.942   1.781   0.974
  846SOL    HW1 3437   2.975   1.699   1.021
  846SOL    HW2 3438   3.010   1.809   0.906
  847SOL     OW 3439   2.530   3.845   1.589
  847SOL    HW1 3440   2.521   3.938   1.555
  847SOL    HW2 3441   2.624   3.829   1.620
  848SOL     OW 3442   6.950   5.830   0.303
  848SOL    HW1 3443   0.020   5.875   0.321
  848SOL    HW2 3444   6.966   5.737   0.270
  849SOL     OW 3445   6.300   3.696   6.568
  849SOL    HW1 3446   6.392   3.721   6.538
  849SOL    HW2 3447   6.288   3.597   6.559
  850SOL     OW 3448   1.165   0.438   5.180
  850SOL    HW1 3449   1.203   0.354   5.142
  850SOL    HW2 3450   1.239   0.502   5.201
  851SOL     OW 3451   6.100   3.714   6.191
  851SOL    HW1 3452   6.170   3.730   6.259
  851SOL    HW2 3453   6.011   3.743   6.226
  852SOL     OW 3454   0.356   3.837   2.114
  852SOL    HW1 3455   0.281   3.855   2.051
  852SOL    HW2 3456   0.441   3.825   2.061
  853SOL     OW 3457   2.779   2.446   0.224
  853SOL    HW1 3458   2.785   2.347   0.237
  853SOL    HW2 3459   2.844   2.475   0.154
  854SOL     OW 3460   5.683   5.945   6.145
  854SOL    HW1 3461   5.693   6.033   6.098
  854SOL    HW2 3462   5.748   5.879   6.107
  855SOL     OW 3463   5.348   1.429   0.306
  855SOL    HW1 3464   5.368   1.331   0.315
  855SOL    HW2 3465   5.433   1.482   0.314
  856SOL     OW 3466   1.832   5.155   1.710
  856SOL    HW1 3467   1.919   5.115   1.737
  856SOL    HW2 3468   1.845   5.211   1.628
  857SOL     OW 3469   6.957   5.646   5.316
  857SOL    HW1 3470   6.986   5.558   5.277
  857SOL    HW2 3471   6.883   5.684   5.261
  858SOL     OW 3472   4.507   3.330   0.011
  858SOL    HW1 3473   4.590   3.325   0.066
  858SOL    HW2 3474   4.457   3.414   0.033
  859SOL     OW 3475   4.879   6.628   5.412
  859SOL    HW1 3476   4.916   6.674   5.492
  859SOL    HW2 3477   4.816   6.690   5.364
  860SOL     OW 3478   4.722   3.228   6.167
  860SOL    HW1 3479   4.709   3.284   6.085
  860SOL    HW2 3480   4.746   3.135   6.140
  861SOL     OW 3481   2.028   5.711   1.873
  861SOL    HW1 3482   2.039   5.653   1.792
  861SOL    HW2 3483   2.063   5.802   1.854
  862SOL     OW 3484   0.457   3.787   3.836
  862SOL    HW1 3485   0.447   3.876   3.790
  862SOL    HW2 3486   0.371   3.764   3.883
  863SOL     OW 3487   6.323   0.657   0.845
  863SOL    HW1 3488   6.278   0.721   0.783
  863SOL    HW2 3489   6.383   0.706   0.907
  864SOL     OW 3490   5.544   6.395   4.280
  864SOL    HW1 3491   5.590   6.308   4.268
  864SOL    HW2 3492   5.488   6.415   4.200
  865SOL     OW 3493   1.647   6.023   5.048
  865SOL    HW1 3494   1.563   5.989   5.091
  865SOL    HW2 3495   1.672   5.963   4.973
  866SOL     OW 3496   3.621   6.861   1.854
  866SOL    HW1 3497   3.530   6.896   1.876
  866SOL    HW2 3498   3.612   6.779   1.797
  867SOL     OW 3499   5.490   2.450   6.004
  867SOL    HW1 3500   5.536   2.538   6.020
  867SOL    HW2 3501   5.416   2.440   6.070
  868SOL     OW 3502   0.169   1.859   2.375
  868SOL    HW1 3503   0.224   1.890   2.452
  868SOL    HW2 3504   0.106   1.932   2.348
  869SOL     OW 3505   6.930   3.908   3.644
  869SOL    HW1 3506   6.912   3.973   3.570
  869SOL    HW2 3507   6.894   3.944   3.730
  870SOL     OW 3508   3.568   5.351   2.072
  870SOL    HW1 3509   3.562   5.321   2.167
  870SOL    HW2 3510   3.477   5.375   2.038
  871SOL     OW 3511   4.482   1.622   3.404
  871SOL    HW1 3512   4.443   1.595   3.316
  871SOL    HW2 3513   4.450   1.559   3.475
  872SOL     OW 3514   0.344   2.483   5.015
  872SOL    HW1 3515   0.411   2.497   4.943
  872SOL    HW2 3516   0.257   2.525   4.989
  873SOL     OW 3517   4.631   6.937   6.153
  873SOL    HW1 3518   4.716   6.989   6.166
  873SOL    HW2 3519   4.581   6.975   6.076
  874SOL     OW 3520   4.712   3.896   1.366
  874SOL    HW1 3521   4.677   3.851   1.284
  874SOL    HW2 3522   4.773   3.970   1.340
  875SOL     OW 3523   4.888   5.274   1.441
  875SOL    HW1 3524   4.861   5.358   1.487
  875SOL    HW2 3525   4.922   5.295   1.350
  876SOL     OW 3526   0.109   6.826   1.292
  876SOL    HW1 3527   0.196   6.871   1.312
  876SOL    HW2 3528   0.125   6.750   1.229
  877SOL     OW 3529   2.079   2.884   6.402
  877SOL    HW1 3530   1.998   2.867   6.458
  877SOL    HW2 3531   2.050   2.897   6.307
  878SOL     OW 3532   4.340   6.448   4.271
  878SOL    HW1 3533   4.266   6.501   4.230
  878SOL    HW2 3534   4.310   6.411   4.359
  879SOL     OW 3535   5.798   0.305   0.714
  879SOL    HW1 3536   5.826   0.353   0.797
  879SOL    HW2 3537   5.876   0.257   0.675
  880SOL     OW 3538   2.887   3.474   2.622
  880SOL    HW1 3539   2.931   3.391   2.587
  880SOL    HW2 3540   2.810   3.498   2.563
  881SOL     OW 3541   4.130   1.811   0.513
  881SOL    HW1 3542   4.186   1.730   0.497
  881SOL    HW2 3543   4.126   1.831   0.611
  882SOL     OW 3544   1.177   3.462   4.484
  882SOL    HW1 3545   1.117   3.397   4.436
  882SOL    HW2 3546   1.145   3.555   4.468
  883SOL     OW 3547   2.575   0.218   2.598
  883SOL    HW1 3548   2.500   0.167   2.556
  883SOL    HW2 3549   2.561   0.316   2.582
  884SOL     OW 3550   4.774   3.575   5.648
  884SOL    HW1 3551   4.687   3.625   5.644
  884SOL    HW2 3552   4.806   3.557   5.555
  885SOL     OW 3553   3.744   2.709   6.089
  885SOL    HW1 3554   3.836   2.718   6.125
  885SOL    HW2 3555   3.690   2.650   6.149
  886SOL     OW 3556   3.506   6.926   6.713
  886SOL    HW1 3557   3.565   6.863   6.763
  886SOL    HW2 3558   3.422   6.942   6.767
  887SOL     OW 3559   4.890   1.541   4.325
  887SOL    HW1 3560   4.906   1.514   4.421
  887SOL    HW2 3561   4.847   1.631   4.323
  888SOL     OW 3562   6.766   6.682   2.947
  888SOL    HW1 3563   6.817   6.728   3.019
  888SOL    HW2 3564   6.670   6.674   2.974
  889SOL     OW 3565   0.564   3.295   6.685
  889SOL    HW1 3566   0.552   3.233   6.762
  889SOL    HW2 3567   0.661   3.321   6.677
  890SOL     OW 3568   2.750   5.223   4.122
  890SOL    HW1 3569   2.773   5.198   4.216
  890SOL    HW2 3570   2.660   5.186   4.099
  891SOL     OW 3571   5.230   5.597   1.355
  891SOL    HW1 3572   5.177   5.578   1.438
  891SOL    HW2 3573   5.183   5.667   1.301
  892SOL     OW 3574   2.678   4.515   0.476
  892SOL    HW1 3575   2.731   4.465   0.408
  892SOL    HW2 3576   2.663   4.458   0.556
  893SOL     OW 3577   2.350   6.408   2.576
  893SOL    HW1 3578   2.427   6.434   2.635
  893SOL    HW2 3579   2.384   6.390   2.484
  894SOL     OW 3580   1.095   3.950   0.813
  894SOL    HW1 3581   1.018   3.905   0.860
  894SOL    HW2 3582   1.064   3.986   0.725
  895SOL     OW 3583   0.488   5.768   3.980
  895SOL    HW1 3584   0.445   5.855   4.003
  895SOL    HW2 3585   0.418   5.700   3.958
  896SOL     OW 3586   6.795   6.729   5.485
  896SOL    HW1 3587   6.780   6.792   5.561
  896SOL    HW2 3588   6.761   6.638   5.511
  897SOL     OW 3589   5.301   1.058   6.953
  897SOL    HW1 3590   5.375   1.084   6.892
  897SOL    HW2 3591   5.330   0.982   7.011
  898SOL     OW 3592   4.136   6.143   2.957
  898SOL    HW1 3593   4.224   6.135   2.909
  898SOL    HW2 3594   4.096   6.233   2.937
  899SOL     OW 3595   0.142   4.836   0.346
  899SOL    HW1 3596   0.130   4.857   0.249
  899SOL    HW2 3597   0.208   4.760   0.356
  900SOL     OW 3598   5.099   5.202   0.557
  900SOL    HW1 3599   5.190   5.173   0.585
  900SOL    HW2 3600   5.102   5.234   0.462
  901SOL     OW 3601   1.303   1.097   2.476
  901SOL    HW1 3602   1.398   1.085   2.507
  901SOL    HW2 3603   1.278   1.193   2.483
  902SOL     OW 3604   6.410   3.852   2.090
  902SOL    HW1 3605   6.394   3.820   2.184
  902SOL    HW2 3606   6.468   3.933   2.092
  903SOL     OW 3607   0.138   2.667   0.693
  903SOL    HW1 3608   0.215   2.638   0.749
  903SOL    HW2 3609   0.155   2.643   0.598
  904SOL     OW 3610   2.686   1.596   2.452
  904SOL    HW1 3611   2.673   1.687   2.414
  904SOL    HW2 3612   2.642   1.590   2.542
  905SOL     OW 3613   6.103   3.109   6.409
  905SOL    HW1 3614   6.096   3.204   6.437
  905SOL    HW2 3615   6.011   3.071   6.394
  906SOL     OW 3616   6.243   3.811   6.787
  906SOL    HW1 3617   6.273   3.768   6.702
  906SOL    HW2 3618   6.152   3.776   6.811
  907SOL     OW 3619   5.179   4.023   6.942
  907SOL    HW1 3620   5.121   4.029   6.862
  907SOL    HW2 3621   5.212   4.115   6.966
  908SOL     OW 3622   2.059   4.217   2.499
  908SOL    HW1 3623   2.112   4.161   2.435
  908SOL    HW2 3624   1.989   4.268   2.449
  909SOL     OW 3625   5.127   5.098   6.581
  909SOL    HW1 3626   5.116   5.061   6.489
  909SOL    HW2 3627   5.217   5.142   6.588
  910SOL     OW 3628   2.291   3.616   0.881
  910SOL    HW1 3629   2.296   3.637   0.783
  910SOL    HW2 3630   2.217   3.550   0.898
  911SOL     OW 3631   1.162   5.017   6.345
  911SOL    HW1 3632   1.184   5.027   6.248
  911SOL    HW2 3633   1.124   5.103   6.379
  912SOL     OW 3634   4.863   2.111   2.729
  912SOL    HW1 3635   4.941   2.074   2.679
  912SOL    HW2 3636   4.831   2.194   2.683
  913SOL     OW 3637   4.903   6.890   3.122
  913SOL    HW1 3638   4.849   6.950   3.062
  913SOL    HW2 3639   4.998   6.888   3.091
  914SOL     OW 3640   3.029   6.712   6.995
  914SOL    HW1 3641   3.079   6.777   6.938
  914SOL    HW2 3642   3.092   6.641   0.009
  915SOL     OW 3643   5.798   5.513   0.602
  915SOL    HW1 3644   5.808   5.501   0.503
  915SOL    HW2 3645   5.888   5.531   0.642
  916SOL     OW 3646   0.956   2.166   2.352
  916SOL    HW1 3647   0.937   2.258   2.388
  916SOL    HW2 3648   0.924   2.160   2.258
  917SOL     OW 3649   6.508   6.743   0.861
  917SOL    HW1 3650   6.478   6.693   0.942
  917SOL    HW2 3651   6.568   6.684   0.806
  918SOL     OW 3652   2.057   5.443   0.428
  918SOL    HW1 3653   1.959   5.434   0.448
  918SOL    HW2 3654   2.073   5.530   0.382
  919SOL     OW 3655   5.855   2.305   4.997
  919SOL    HW1 3656   5.801   2.263   4.924
  919SOL    HW2 3657   5.871   2.401   4.975
  920SOL     OW 3658   2.862   4.996   2.184
  920SOL    HW1 3659   2.788   4.943   2.142
  920SOL    HW2 3660   2.842   5.011   2.280
  921SOL     OW 3661   4.828   5.047   5.096
  921SOL    HW1 3662   4.913   4.998   5.076
  921SOL    HW2 3663   4.819   5.123   5.032
  922SOL     OW 3664   3.283   2.932   3.653
  922SOL    HW1 3665   3.294   2.922   3.554
  922SOL    HW2 3666   3.299   3.028   3.678
  923SOL     OW 3667   2.192   3.675   5.189
  923SOL    HW1 3668   2.255   3.622   5.246
  923SOL    HW2 3669   2.237   3.700   5.103
  924SOL     OW 3670   0.269   3.956   2.974
  924SOL    HW1 3671   0.209   3.945   2.895
  924SOL    HW2 3672   0.363   3.935   2.947
  925SOL     OW 3673   6.596   1.739   0.138
  925SOL    HW1 3674   6.514   1.736   0.194
  925SOL    HW2 3675   6.607   1.832   0.101
  926SOL     OW 3676   1.107   1.561   2.045
  926SOL    HW1 3677   1.195   1.521   2.020
  926SOL    HW2 3678   1.111   1.660   2.034
  927SOL     OW 3679   6.158   3.687   3.473
  927SOL    HW1 3680   6.130   3.600   3.512
  927SOL    HW2 3681   6.114   3.762   3.523
  928SOL     OW 3682   2.885   4.647   6.276
  928SOL    HW1 3683   2.835   4.645   6.362
  928SOL    HW2 3684   2.857   4.728   6.223
  929SOL     OW 3685   6.803   1.258   5.210
  929SOL    HW1 3686   6.749   1.326   5.259
  929SOL    HW2 3687   6.760   1.237   5.123
  930SOL     OW 3688   5.897   5.056   5.998
  930SOL    HW1 3689   5.951   5.110   5.932
  930SOL    HW2 3690   5.841   5.118   6.052
  931SOL     OW 3691   6.611   1.831   3.398
  931SOL    HW1 3692   6.666   1.817   3.480
  931SOL    HW2 3693   6.657   1.897   3.339
  932SOL     OW 3694   4.003   0.632   3.310
  932SOL    HW1 3695   3.931   0.699   3.290
  932SOL    HW2 3696   4.039   0.649   3.402
  933SOL     OW 3697   1.009   5.654   1.227
  933SOL    HW1 3698   1.085   5.617   1.281
  933SOL    HW2 3699   0.936   5.586   1.224
  934SOL     OW 3700   1.333   3.945   0.279
  934SOL    HW1 3701   1.243   3.917   0.245
  934SOL    HW2 3702   1.364   4.025   0.228
  935SOL     OW 3703   5.880   3.173   4.296
  935SOL    HW1 3704   5.867   3.103   4.367
  935SOL    HW2 3705   5.807   3.241   4.302
  936SOL     OW 3706   1.730   6.973   5.962
  936SOL    HW1 3707   1.700   6.883   5.932
  936SOL    HW2 3708   1.756   0.010   5.882
  937SOL     OW 3709   4.227   1.574   5.897
  937SOL    HW1 3710   4.184   1.485   5.885
  937SOL    HW2 3711   4.212   1.630   5.816
  938SOL     OW 3712   5.545   5.627   4.160
  938SOL    HW1 3713   5.506   5.535   4.162
  938SOL    HW2 3714   5.514   5.677   4.241
  939SOL     OW 3715   6.946   6.698   5.932
  939SOL    HW1 3716   7.013   6.644   5.983
  939SOL    HW2 3717   6.971   6.795   5.936
  940SOL     OW 3718   1.904   4.684   0.230
  940SOL    HW1 3719   1.924   4.775   0.193
  940SOL    HW2 3720   1.876   4.624   0.155
  941SOL     OW 3721   3.529   0.581   0.053
  941SOL    HW1 3722   3.607   0.558   0.112
  941SOL    HW2 3723   3.562   0.600   6.979
  942SOL     OW 3724   0.049   5.335   0.528
  942SOL    HW1 3725   0.040   5.284   0.443
  942SOL    HW2 3726   0.129   5.394   0.523
  943SOL     OW 3727   3.480   5.736   2.149
  943SOL    HW1 3728   3.493   5.683   2.066
  943SOL    HW2 3729   3.484   5.675   2.228
  944SOL     OW 3730   6.329   6.909   4.142
  944SOL    HW1 3731   6.302   6.824   4.097
  944SOL    HW2 3732   6.426   6.927   4.125
  945SOL     OW 3733   0.977   5.714   0.133
  945SOL    HW1 3734   0.881   5.738   0.144
  945SOL    HW2 3735   1.032   5.798   0.129
  946SOL     OW 3736   4.973   2.877   4.030
  946SOL    HW1 3737   4.875   2.889   4.043
  946SOL    HW2 3738   4.996   2.780   4.039
  947SOL     OW 3739   3.959   3.915   4.093
  947SOL    HW1 3740   3.971   3.966   4.008
  947SOL    HW2 3741   3.959   3.979   4.170
  948SOL     OW 3742   4.546   0.760   2.566
  948SOL    HW1 3743   4.494   0.826   2.620
  948SOL    HW2 3744   4.546   0.788   2.470
  949SOL     OW 3745   2.738   6.682   6.070
  949SOL    HW1 3746   2.764   6.757   6.131
  949SOL    HW2 3747   2.671   6.714   6.004
  950SOL     OW 3748   6.901   0.280   1.780
  950SOL    HW1 3749   6.918   0.279   1.681
  950SOL    HW2 3750   6.906   0.187   1.815
  951SOL     OW 3751   2.336   6.305   3.221
  951SOL    HW1 3752   2.360   6.385   3.166
  951SOL    HW2 3753   2.278   6.333   3.298
  952SOL     OW 3754   2.805   1.405   2.288
  952SOL    HW1 3755   2.734   1.337   2.304
  952SOL    HW2 3756   2.795   1.480   2.354
  953SOL     OW 3757   6.584   4.530   5.819
  953SOL    HW1 3758   6.602   4.485   5.907
  953SOL    HW2 3759   6.591   4.629   5.830
  954SOL     OW 3760   4.316   5.801   2.833
  954SOL    HW1 3761   4.217   5.787   2.845
  954SOL    HW2 3762   4.349   5.741   2.760
  955SOL     OW 3763   1.763   4.773   6.584
  955SOL    HW1 3764   1.704   4.765   6.663
  955SOL    HW2 3765   1.824   4.693   6.580
  956SOL     OW 3766   5.439   0.652   1.303
  956SOL    HW1 3767   5.399   0.689   1.387
  956SOL    HW2 3768   5.485   0.726   1.253
  957SOL     OW 3769   5.511   1.058   3.728
  957SOL    HW1 3770   5.603   1.032   3.760
  957SOL    HW2 3771   5.443   1.023   3.792
  958SOL     OW 3772   5.251   6.926   1.815
  958SOL    HW1 3773   5.185   6.857   1.782
  958SOL    HW2 3774   5.201   7.005   1.851
  959SOL     OW 3775   4.132   6.889   4.155
  959SOL    HW1 3776   4.089   6.980   4.149
  959SOL    HW2 3777   4.066   6.820   4.127
  960SOL     OW 3778   1.724   0.182   6.618
  960SOL    HW1 3779   1.823   0.196   6.623
  960SOL    HW2 3780   1.701   0.092   6.655
  961SOL     OW 3781   3.414   6.740   2.959
  961SOL    HW1 3782   3.324   6.735   3.000
  961SOL    HW2 3783   3.413   6.693   2.870
  962SOL     OW 3784   6.225   0.691   5.047
  962SOL    HW1 3785   6.263   0.599   5.047
  962SOL    HW2 3786   6.229   0.728   5.140
  963SOL     OW 3787   5.324   3.469   1.244
  963SOL    HW1 3788   5.376   3.470   1.159
  963SOL    HW2 3789   5.276   3.381   1.253
  964SOL     OW 3790   4.617   4.664   5.309
  964SOL    HW1 3791   4.622   4.720   5.393
  964SOL    HW2 3792   4.531   4.683   5.262
  965SOL     OW 3793   5.726   2.427   3.419
  965SOL    HW1 3794   5.638   2.378   3.419
  965SOL    HW2 3795   5.757   2.439   3.513
  966SOL     OW 3796   4.448   1.409   4.790
  966SOL    HW1 3797   4.506   1.389   4.711
  966SOL    HW2 3798   4.461   1.338   4.859
  967SOL     OW 3799   4.576   3.773   6.245
  967SOL    HW1 3800   4.517   3.752   6.322
  967SOL    HW2 3801   4.636   3.695   6.227
  968SOL     OW 3802   3.724   0.594   1.525
  968SOL    HW1 3803   3.710   0.502   1.562
  968SOL    HW2 3804   3.723   0.660   1.600
  969SOL     OW 3805   3.096   3.963   6.679
  969SOL    HW1 3806   3.090   3.863   6.683
  969SOL    HW2 3807   3.068   3.994   6.588
  970SOL     OW 3808   5.454   6.796   6.133
  970SOL    HW1 3809   5.543   6.756   6.153
  970SOL    HW2 3810   5.404   6.810   6.219
  971SOL     OW 3811   5.239   3.736   3.169
  971SOL    HW1 3812   5.258   3.646   3.130
  971SOL    HW2 3813   5.196   3.795   3.101
  972SOL     OW 3814   0.119   3.037   0.636
  972SOL    HW1 3815   0.080   3.125   0.610
  972SOL    HW2 3816   0.046   2.972   0.655
  973SOL     OW 3817   0.136   2.851   6.154
  973SOL    HW1 3818   0.109   2.947   6.150
  973SOL    HW2 3819   0.234   2.843   6.133
  974SOL     OW 3820   6.816   5.105   2.951
  974SOL    HW1 3821   6.861   5.194   2.945
  974SOL    HW2 3822   6.773   5.097   3.041
  975SOL     OW 3823   3.148   0.808   1.977
  975SOL    HW1 3824   3.087   0.833   1.902
  975SOL    HW2 3825   3.187   0.890   2.018
  976SOL     OW 3826   6.813   3.146   3.066
  976SOL    HW1 3827   6.859   3.087   3.133
  976SOL    HW2 3828   6.714   3.134   3.073
  977SOL     OW 3829   6.639   0.612   2.208
  977SOL    HW1 3830   6.636   0.640   2.304
  977SOL    HW2 3831   6.585   0.529   2.197
  978SOL     OW 3832   5.293   3.392   1.874
  978SOL    HW1 3833   5.358   3.328   1.915
  978SOL    HW2 3834   5.275   3.365   1.779
  979SOL     OW 3835   0.463   4.300   6.998
  979SOL    HW1 3836   0.509   4.364   0.043
  979SOL    HW2 3837   0.384   4.260   0.025
  980SOL     OW 3838   3.327   1.525   4.533
  980SOL    HW1 3839   3.357   1.584   4.608
  980SOL    HW2 3840   3.242   1.479   4.559
  981SOL     OW 3841   0.015   0.050   5.268
  981SOL    HW1 3842   6.961   7.009   5.304
  981SOL    HW2 3843   7.012   0.146   5.288
  982SOL     OW 3844   6.039   1.262   5.507
  982SOL    HW1 3845   6.097   1.259   5.588
  982SOL    HW2 3846   6.046   1.352   5.464
  983SOL     OW 3847   0.376   4.747   4.187
  983SOL    HW1 3848   0.330   4.765   4.100
  983SOL    HW2 3849   0.313   4.696   4.247
  984SOL     OW 3850   0.331   3.504   3.663
  984SOL    HW1 3851   0.241   3.465   3.647
  984SOL    HW2 3852   0.323   3.589   3.715
  985SOL     OW 3853   6.356   4.810   5.295
  985SOL    HW1 3854   6.450   4.796   5.326
  985SOL    HW2 3855   6.314   4.882   5.349
  986SOL     OW 3856   5.131   5.054   1.406
  986SOL    HW1 3857   5.121   5.154   1.412
  986SOL    HW2 3858   5.228   5.030   1.406
  987SOL     OW 3859   4.746   4.160   4.469
  987SOL    HW1 3860   4.745   4.205   4.380
  987SOL    HW2 3861   4.766   4.063   4.457
  988SOL     OW 3862   2.568   4.412   1.713
  988SOL    HW1 3863   2.612   4.501   1.704
  988SOL    HW2 3864   2.638   4.342   1.726
  989SOL     OW 3865   1.133   1.528   0.624
  989SOL    HW1 3866   1.203   1.514   0.553
  989SOL    HW2 3867   1.077   1.446   0.632
  990SOL     OW 3868   3.654   0.321   4.192
  990SOL    HW1 3869   3.585   0.261   4.151
  990SOL    HW2 3870   3.701   0.372   4.120
  991SOL     OW 3871   6.810   5.176   3.506
  991SOL    HW1 3872   6.820   5.100   3.571
  991SOL    HW2 3873   6.757   5.249   3.548
  992SOL     OW 3874   6.987   2.301   0.513
  992SOL    HW1 3875   6.983   2.280   0.611
  992SOL    HW2 3876   0.065   2.314   0.486
  993SOL     OW 3877   1.513   5.064   6.691
  993SOL    HW1 3878   1.511   4.981   6.746
  993SOL    HW2 3879   1.427   5.114   6.701
  994SOL     OW 3880   3.669   6.412   7.008
  994SOL    HW1 3881   3.628   6.322   6.998
  994SOL    HW2 3882   3.667   6.460   6.920
  995SOL     OW 3883   6.214   4.343   5.843
  995SOL    HW1 3884   6.240   4.246   5.838
  995SOL    HW2 3885   6.132   4.352   5.900
  996SOL     OW 3886   3.550   5.737   4.790
  996SOL    HW1 3887   3.452   5.750   4.777
  996SOL    HW2 3888   3.594   5.826   4.803
  997SOL     OW 3889   1.627   6.315   3.145
  997SOL    HW1 3890   1.584   6.283   3.229
  997SOL    HW2 3891   1.557   6.354   3.084
  998SOL     OW 3892   5.427   0.686   6.223
  998SOL    HW1 3893   5.444   0.780   6.195
  998SOL    HW2 3894   5.329   0.669   6.226
  999SOL     OW 3895   4.821   3.890   2.631
  999SOL    HW1 3896   4.725   3.869   2.615
  999SOL    HW2 3897   4.861   3.929   2.548
 1000SOL     OW 3898   4.913   2.238   1.205
 1000SOL    HW1 3899   4.971   2.290   1.269
 1000SOL    HW2 3900   4.831   2.206   1.254
 1001SOL     OW 3901   2.870   6.963   2.329
 1001SOL    HW1 3902   2.869   0.038   2.364
 1001SOL    HW2 3903   2.796   6.951   2.263
 1002SOL     OW 3904   5.301   2.590   0.917
 1002SOL    HW1 3905   5.342   2.679   0.937
 1002SOL    HW2 3906   5.239   2.598   0.840
 1003SOL     OW 3907   0.635   0.633   3.334
 1003SOL    HW1 3908   0.663   0.694   3.409
 1003SOL    HW2 3909   0.684   0.658   3.251
 1004SOL     OW 3910   5.467   1.631   3.766
 1004SOL    HW1 3911   5.396   1.686   3.811
 1004SOL    HW2 3912   5.464   1.537   3.801
 1005SOL     OW 3913   1.149   4.834   1.989
 1005SOL    HW1 3914   1.130   4.829   2.087
 1005SOL    HW2 3915   1.124   4.747   1.947
 1006SOL     OW 3916   2.528   3.779   1.012
 1006SOL    HW1 3917   2.613   3.728   0.999
 1006SOL    HW2 3918   2.452   3.727   0.972
 1007SOL     OW 3919   4.524   0.878   6.722
 1007SOL    HW1 3920   4.549   0.970   6.753
 1007SOL    HW2 3921   4.438   0.882   6.672
 1008SOL     OW 3922   0.243   4.898   5.600
 1008SOL    HW1 3923   0.284   4.989   5.594
 1008SOL    HW2 3924   0.286   4.847   5.674
 1009SOL     OW 3925   0.346   5.489   5.850
 1009SOL    HW1 3926   0.329   5.471   5.753
 1009SOL    HW2 3927   0.417   5.559   5.858
 1010SOL     OW 3928   2.834   2.830   1.159
 1010SOL    HW1 3929   2.918   2.791   1.196
 1010SOL    HW2 3930   2.830   2.814   1.060
 1011SOL     OW 3931   6.939   5.231   2.319
 1011SOL    HW1 3932   6.967   5.206   2.226
 1011SOL    HW2 3933   6.927   5.330   2.324
 1012SOL     OW 3934   4.733   6.859   3.342
 1012SOL    HW1 3935   4.773   6.889   3.256
 1012SOL    HW2 3936   4.667   6.927   3.374
 1013SOL     OW 3937   0.170   6.578   6.429
 1013SOL    HW1 3938   0.266   6.592   6.454
 1013SOL    HW2 3939   0.119   6.545   6.508
 1014SOL     OW 3940   1.168   4.381   5.431
 1014SOL    HW1 3941   1.163   4.418   5.338
 1014SOL    HW2 3942   1.242   4.314   5.436
 1015SOL     OW 3943   2.973   6.354   6.745
 1015SOL    HW1 3944   2.958   6.386   6.651
 1015SOL    HW2 3945   2.938   6.422   6.809
 1016SOL     OW 3946   6.217   4.003   1.654
 1016SOL    HW1 3947   6.272   4.074   1.697
 1016SOL    HW2 3948   6.271   3.920   1.645
 1017SOL     OW 3949   2.128   1.531   2.050
 1017SOL    HW1 3950   2.139   1.454   1.988
 1017SOL    HW2 3951   2.125   1.616   1.997
 1018SOL     OW 3952   6.369   6.368   4.311
 1018SOL    HW1 3953   6.452   6.365   4.366
 1018SOL    HW2 3954   6.369   6.293   4.245
 1019SOL     OW 3955   6.370   4.411   0.995
 1019SOL    HW1 3956   6.350   4.394   0.898
 1019SOL    HW2 3957   6.352   4.508   1.015
 1020SOL     OW 3958   5.825   1.285   1.059
 1020SOL    HW1 3959   5.894   1.308   0.990
 1020SOL    HW2 3960   5.839   1.191   1.090
 1021SOL     OW 3961   0.469   6.692   0.862
 1021SOL    HW1 3962   0.563   6.716   0.839
 1021SOL    HW2 3963   0.445   6.605   0.821
 1022SOL     OW 3964   2.819   5.697   0.051
 1022SOL    HW1 3965   2.876   5.770   0.014
 1022SOL    HW2 3966   2.870   5.611   0.050
 1023SOL     OW 3967   0.788   1.019   3.209
 1023SOL    HW1 3968   0.870   0.982   3.164
 1023SOL    HW2 3969   0.812   1.103   3.257
 1024SOL     OW 3970   1.694   1.579   4.442
 1024SOL    HW1 3971   1.639   1.567   4.359
 1024SOL    HW2 3972   1.753   1.659   4.432
 1025SOL     OW 3973   4.524   3.870   0.135
 1025SOL    HW1 3974   4.431   3.902   0.114
 1025SOL    HW2 3975   4.577   3.946   0.172
 1026SOL     OW 3976   3.165   2.292   1.393
 1026SOL    HW1 3977   3.234   2.263   1.327
 1026SOL    HW2 3978   3.211   2.319   1.478
 1027SOL     OW 3979   1.052   6.734   1.023
 1027SOL    HW1 3980   1.107   6.818   1.021
 1027SOL    HW2 3981   1.034   6.705   0.929
 1028SOL     OW 3982   1.360   6.001   2.103
 1028SOL    HW1 3983   1.442   6.006   2.047
 1028SOL    HW2 3984   1.375   6.050   2.189
 1029SOL     OW 3985   0.780   1.015   5.795
 1029SOL    HW1 3986   0.855   1.029   5.860
 1029SOL    HW2 3987   0.723   1.098   5.792
 1030SOL     OW 3988   3.175   3.206   1.443
 1030SOL    HW1 3989   3.253   3.179   1.500
 1030SOL    HW2 3990   3.176   3.154   1.358
 1031SOL     OW 3991   3.993   3.069   0.879
 1031SOL    HW1 3992   3.896   3.055   0.902
 1031SOL    HW2 3993   4.018   3.164   0.896
 1032SOL     OW 3994   2.269   1.782   6.326
 1032SOL    HW1 3995   2.181   1.793   6.371
 1032SOL    HW2 3996   2.321   1.709   6.371
 1033SOL     OW 3997   0.564   6.433   1.950
 1033SOL    HW1 3998   0.570   6.341   1.989
 1033SOL    HW2 3999   0.592   6.500   2.019
 1034SOL     OW 4000   2.900   0.569   4.100
 1034SOL    HW1 4001   2.909   0.495   4.034
 1034SOL    HW2 4002   2.963   0.643   4.076
 1035SOL     OW 4003   1.540   1.587   6.425
 1035SOL    HW1 4004   1.592   1.640   6.492
 1035SOL    HW2 4005   1.552   1.490   6.444
 1036SOL     OW 4006   4.914   1.371   1.045
 1036SOL    HW1 4007   4.915   1.456   0.993
 1036SOL    HW2 4008   4.941   1.295   0.986
 1037SOL     OW 4009   1.457   3.034   1.937
 1037SOL    HW1 4010   1.426   3.073   2.024
 1037SOL    HW2 4011   1.529   2.967   1.955
 1038SOL     OW 4012   2.610   5.949   0.047
 1038SOL    HW1 4013   2.694   5.898   0.028
 1038SOL    HW2 4014   2.571   5.918   0.134
 1039SOL     OW 4015   3.286   2.940   2.907
 1039SOL    HW1 4016   3.227   2.868   2.943
 1039SOL    HW2 4017   3.334   2.985   2.983
 1040SOL     OW 4018   3.664   1.878   3.136
 1040SOL    HW1 4019   3.637   1.797   3.084
 1040SOL    HW2 4020   3.651   1.960   3.079
 1041SOL     OW 4021   6.844   5.671   6.203
 1041SOL    HW1 4022   6.806   5.763   6.208
 1041SOL    HW2 4023   6.770   5.604   6.203
 1042SOL     OW 4024   5.166   4.473   2.881
 1042SOL    HW1 4025   5.259   4.462   2.917
 1042SOL    HW2 4026   5.167   4.464   2.782
 1043SOL     OW 4027   2.972   1.959   3.527
 1043SOL    HW1 4028   3.003   1.878   3.477
 1043SOL    HW2 4029   2.961   1.937   3.624
 1044SOL     OW 4030   5.649   4.985   1.508
 1044SOL    HW1 4031   5.702   4.901   1.494
 1044SOL    HW2 4032   5.710   5.064   1.506
 1045SOL     OW 4033   2.177   0.608   2.362
 1045SOL    HW1 4034   2.079   0.623   2.369
 1045SOL    HW2 4035   2.203   0.529   2.417
 1046SOL     OW 4036   3.188   1.608   0.959
 1046SOL    HW1 4037   3.176   1.535   0.892
 1046SOL    HW2 4038   3.211   1.569   1.048
 1047SOL     OW 4039   3.875   6.128   3.878
 1047SOL    HW1 4040   3.923   6.182   3.808
 1047SOL    HW2 4041   3.880   6.031   3.853
 1048SOL     OW 4042   1.509   6.036   2.569
 1048SOL    HW1 4043   1.424   6.010   2.615
 1048SOL    HW2 4044   1.587   6.018   2.630
 1049SOL     OW 4045   4.043   5.975   5.085
 1049SOL    HW1 4046   4.036   5.958   5.183
 1049SOL    HW2 4047   4.059   5.889   5.037
 1050SOL     OW 4048   3.219   5.560   2.869
 1050SOL    HW1 4049   3.310   5.568   2.909
 1050SOL    HW2 4050   3.173   5.480   2.909
 1051SOL     OW 4051   1.030   0.603   6.340
 1051SOL    HW1 4052   0.943   0.652   6.350
 1051SOL    HW2 4053   1.013   0.517   6.291
 1052SOL     OW 4054   3.171   1.137   0.233
 1052SOL    HW1 4055   3.200   1.131   0.329
 1052SOL    HW2 4056   3.251   1.123   0.174
 1053SOL     OW 4057   5.350   2.654   3.551
 1053SOL    HW1 4058   5.324   2.679   3.458
 1053SOL    HW2 4059   5.321   2.726   3.614
 1054SOL     OW 4060   3.507   4.897   6.327
 1054SOL    HW1 4061   3.505   4.814   6.382
 1054SOL    HW2 4062   3.531   4.874   6.233
 1055SOL     OW 4063   5.148   5.772   6.373
 1055SOL    HW1 4064   5.076   5.767   6.442
 1055SOL    HW2 4065   5.223   5.829   6.409
 1056SOL     OW 4066   3.030   3.858   0.084
 1056SOL    HW1 4067   3.037   3.759   0.097
 1056SOL    HW2 4068   2.965   3.877   0.011
 1057SOL     OW 4069   2.939   2.218   1.042
 1057SOL    HW1 4070   2.878   2.140   1.031
 1057SOL    HW2 4071   3.034   2.188   1.028
 1058SOL     OW 4072   2.866   2.259   2.638
 1058SOL    HW1 4073   2.838   2.304   2.554
 1058SOL    HW2 4074   2.956   2.217   2.625
 1059SOL     OW 4075   2.240   6.797   1.797
 1059SOL    HW1 4076   2.178   6.847   1.737
 1059SOL    HW2 4077   2.189   6.759   1.874
 1060SOL     OW 4078   6.040   6.709   5.261
 1060SOL    HW1 4079   6.021   6.731   5.357
 1060SOL    HW2 4080   6.002   6.619   5.240
 1061SOL     OW 4081   6.973   3.752   6.165
 1061SOL    HW1 4082   6.897   3.810   6.135
 1061SOL    HW2 4083   6.978   3.754   6.265
 1062SOL     OW 4084   3.799   6.677   4.645
 1062SOL    HW1 4085   3.735   6.630   4.584
 1062SOL    HW2 4086   3.756   6.689   4.735
 1063SOL     OW 4087   3.293   6.810   5.611
 1063SOL    HW1 4088   3.372   6.815   5.672
 1063SOL    HW2 4089   3.245   6.898   5.612
 1064SOL     OW 4090   1.692   3.647   0.415
 1064SOL    HW1 4091   1.616   3.618   0.357
 1064SOL    HW2 4092   1.675   3.740   0.449
 1065SOL     OW 4093   4.710   0.679   4.663
 1065SOL    HW1 4094   4.775   0.615   4.623
 1065SOL    HW2 4095   4.629   0.629   4.695
 1066SOL     OW 4096   5.406   6.677   2.012
 1066SOL    HW1 4097   5.455   6.750   2.061
 1066SOL    HW2 4098   5.398   6.597   2.071
 1067SOL     OW 4099   2.888   1.914   0.152
 1067SOL    HW1 4100   2.810   1.951   0.100
 1067SOL    HW2 4101   2.861   1.829   0.196
 1068SOL     OW 4102   6.741   3.401   1.732
 1068SOL    HW1 4103   6.725   3.500   1.734
 1068SOL    HW2 4104   6.818   3.379   1.792
 1069SOL     OW 4105   6.558   3.650   1.969
 1069SOL    HW1 4106   6.532   3.739   2.007
 1069SOL    HW2 4107   6.579   3.587   2.044
 1070SOL     OW 4108   1.150   6.661   2.168
 1070SOL    HW1 4109   1.226   6.634   2.227
 1070SOL    HW2 4110   1.156   6.758   2.149
 1071SOL     OW 4111   0.158   3.235   5.614
 1071SOL    HW1 4112   0.137   3.181   5.696
 1071SOL    HW2 4113   0.248   3.278   5.625
 1072SOL     OW 4114   1.736   1.566   2.089
 1072SOL    HW1 4115   1.676   1.640   2.120
 1072SOL    HW2 4116   1.818   1.564   2.145
 1073SOL     OW 4117   4.482   2.445   3.502
 1073SOL    HW1 4118   4.388   2.418   3.482
 1073SOL    HW2 4119   4.537   2.442   3.418
 1074SOL     OW 4120   2.699   4.638   1.728
 1074SOL    HW1 4121   2.768   4.618   1.798
 1074SOL    HW2 4122   2.634   4.705   1.764
 1075SOL     OW 4123   5.940   4.137   5.411
 1075SOL    HW1 4124   6.019   4.161   5.353
 1075SOL    HW2 4125   5.960   4.052   5.459
 1076SOL     OW 4126   2.094   4.472   5.022
 1076SOL    HW1 4127   2.128   4.493   4.930
 1076SOL    HW2 4128   2.164   4.424   5.074
 1077SOL     OW 4129   0.247   6.989   0.160
 1077SOL    HW1 4130   0.222   6.909   0.104
 1077SOL    HW2 4131   0.329   0.014   0.122
 1078SOL     OW 4132   6.250   6.975   4.400
 1078SOL    HW1 4133   6.162   6.948   4.439
 1078SOL    HW2 4134   6.257   6.939   4.306
 1079SOL     OW 4135   0.787   0.191   1.835
 1079SOL    HW1 4136   0.727   0.135   1.893
 1079SOL    HW2 4137   0.881   0.157   1.840
 1080SOL     OW 4138   3.211   6.064   6.467
 1080SOL    HW1 4139   3.230   6.156   6.501
 1080SOL    HW2 4140   3.292   6.030   6.419
 1081SOL     OW 4141   6.771   5.836   4.354
 1081SOL    HW1 4142   6.726   5.747   4.351
 1081SOL    HW2 4143   6.706   5.907   4.326
 1082SOL     OW 4144   4.616   6.507   6.392
 1082SOL    HW1 4145   4.679   6.455   6.449
 1082SOL    HW2 4146   4.658   6.596   6.369
 1083SOL     OW 4147   5.297   4.221   1.673
 1083SOL    HW1 4148   5.267   4.233   1.768
 1083SOL    HW2 4149   5.304   4.123   1.654
 1084SOL     OW 4150   6.369   0.471   5.141
 1084SOL    HW1 4151   6.456   0.492   5.184
 1084SOL    HW2 4152   6.380   0.393   5.079
 1085SOL     OW 4153   1.357   3.903   4.348
 1085SOL    HW1 4154   1.323   3.997   4.340
 1085SOL    HW2 4155   1.454   3.901   4.325
 1086SOL     OW 4156   6.008   5.275   0.932
 1086SOL    HW1 4157   5.915   5.246   0.906
 1086SOL    HW2 4158   6.014   5.282   1.031
 1087SOL     OW 4159   3.295   0.546   5.616
 1087SOL    HW1 4160   3.224   0.487   5.578
 1087SOL    HW2 4161   3.377   0.491   5.633
 1088SOL     OW 4162   6.455   4.987   3.484
 1088SOL    HW1 4163   6.533   4.944   3.529
 1088SOL    HW2 4164   6.423   5.064   3.540
 1089SOL     OW 4165   6.562   4.540   4.480
 1089SOL    HW1 4166   6.645   4.577   4.520
 1089SOL    HW2 4167   6.563   4.554   4.381
 1090SOL     OW 4168   5.404   1.956   5.335
 1090SOL    HW1 4169   5.433   2.022   5.265
 1090SOL    HW2 4170   5.307   1.934   5.321
 1091SOL     OW 4171   2.159   2.501   2.692
 1091SOL    HW1 4172   2.229   2.477   2.760
 1091SOL    HW2 4173   2.068   2.483   2.730
 1092SOL     OW 4174   0.417   5.609   1.098
 1092SOL    HW1 4175   0.327   5.590   1.059
 1092SOL    HW2 4176   0.483   5.541   1.064
 1093SOL     OW 4177   2.056   0.359   2.718
 1093SOL    HW1 4178   1.979   0.389   2.662
 1093SOL    HW2 4179   2.026   0.349   2.813
 1094SOL     OW 4180   0.752   0.329   3.176
 1094SOL    HW1 4181   0.729   0.357   3.269
 1094SOL    HW2 4182   0.842   0.365   3.151
 1095SOL     OW 4183   5.206   3.413   0.503
 1095SOL    HW1 4184   5.295   3.455   0.488
 1095SOL    HW2 4185   5.214   3.314   0.492
 1096SOL     OW 4186   2.647   5.944   1.308
 1096SOL    HW1 4187   2.578   5.873   1.322
 1096SOL    HW2 4188   2.602   6.032   1.295
 1097SOL     OW 4189   3.295   5.431   4.614
 1097SOL    HW1 4190   3.297   5.344   4.663
 1097SOL    HW2 4191   3.386   5.452   4.579
 1098SOL     OW 4192   6.142   4.698   0.760
 1098SOL    HW1 4193   6.225   4.752   0.746
 1098SOL    HW2 4194   6.088   4.698   0.676
 1099SOL     OW 4195   4.391   6.703   5.702
 1099SOL    HW1 4196   4.314   6.759   5.735
 1099SOL    HW2 4197   4.360   6.648   5.624
 1100SOL     OW 4198   3.185   1.674   4.355
 1100SOL    HW1 4199   3.108   1.610   4.358
 1100SOL    HW2 4200   3.264   1.632   4.400
 1101SOL     OW 4201   6.157   2.951   6.613
 1101SOL    HW1 4202   6.175   2.981   6.707
 1101SOL    HW2 4203   6.169   3.028   6.550
 1102SOL     OW 4204   2.711   1.217   3.472
 1102SOL    HW1 4205   2.719   1.239   3.569
 1102SOL    HW2 4206   2.659   1.289   3.426
 1103SOL     OW 4207   2.624   6.718   0.340
 1103SOL    HW1 4208   2.644   6.727   0.242
 1103SOL    HW2 4209   2.633   6.808   0.384
 1104SOL     OW 4210   0.711   3.010   4.092
 1104SOL    HW1 4211   0.691   3.050   4.003
 1104SOL    HW2 4212   0.804   3.034   4.119
 1105SOL     OW 4213   5.370   1.214   5.542
 1105SOL    HW1 4214   5.427   1.171   5.613
 1105SOL    HW2 4215   5.299   1.269   5.586
 1106SOL     OW 4216   0.007   1.766   0.542
 1106SOL    HW1 4217   0.106   1.768   0.540
 1106SOL    HW2 4218   6.989   1.779   0.449
 1107SOL     OW 4219   1.010   1.190   6.595
 1107SOL    HW1 4220   0.924   1.229   6.562
 1107SOL    HW2 4221   0.995   1.096   6.625
 1108SOL     OW 4222   2.599   6.675   3.350
 1108SOL    HW1 4223   2.681   6.621   3.331
 1108SOL    HW2 4224   2.569   6.721   3.266
 1109SOL     OW 4225   4.486   2.015   4.642
 1109SOL    HW1 4226   4.409   1.956   4.619
 1109SOL    HW2 4227   4.457   2.111   4.637
 1110SOL     OW 4228   2.749   0.664   2.445
 1110SOL    HW1 4229   2.676   0.626   2.388
 1110SOL    HW2 4230   2.781   0.594   2.508
 1111SOL     OW 4231   5.872   4.029   6.673
 1111SOL    HW1 4232   5.783   3.987   6.655
 1111SOL    HW2 4233   5.907   4.071   6.590
 1112SOL     OW 4234   5.263   0.330   2.381
 1112SOL    HW1 4235   5.341   0.358   2.325
 1112SOL    HW2 4236   5.295   0.268   2.453
 1113SOL     OW 4237   5.458   4.385   2.641
 1113SOL    HW1 4238   5.404   4.425   2.567
 1113SOL    HW2 4239   5.525   4.322   2.602
 1114SOL     OW 4240   3.752   3.862   5.374
 1114SOL    HW1 4241   3.751   3.855   5.473
 1114SOL    HW2 4242   3.819   3.798   5.336
 1115SOL     OW 4243   3.049   4.498   5.653
 1115SOL    HW1 4244   3.124   4.550   5.694
 1115SOL    HW2 4245   3.058   4.498   5.554
 1116SOL     OW 4246   4.464   6.756   6.616
 1116SOL    HW1 4247   4.473   6.777   6.518
 1116SOL    HW2 4248   4.406   6.675   6.627
 1117SOL     OW 4249   1.604   2.368   1.608
 1117SOL    HW1 4250   1.574   2.277   1.578
 1117SOL    HW2 4251   1.604   2.430   1.530
 1118SOL     OW 4252   3.806   4.716   0.521
 1118SOL    HW1 4253   3.793   4.799   0.574
 1118SOL    HW2 4254   3.846   4.738   0.432
 1119SOL     OW 4255   2.812   5.116   4.363
 1119SOL    HW1 4256   2.911   5.131   4.359
 1119SOL    HW2 4257   2.776   5.150   4.450
 1120SOL     OW 4258   6.668   4.018   0.788
 1120SOL    HW1 4259   6.620   3.947   0.736
 1120SOL    HW2 4260   6.714   3.976   0.866
 1121SOL     OW 4261   6.756   4.550   4.051
 1121SOL    HW1 4262   6.754   4.529   3.953
 1121SOL    HW2 4263   6.849   4.540   4.086
 1122SOL     OW 4264   5.768   2.875   1.784
 1122SOL    HW1 4265   5.681   2.842   1.819
 1122SOL    HW2 4266   5.752   2.945   1.715
 1123SOL     OW 4267   3.859   1.438   3.096
 1123SOL    HW1 4268   3.954   1.454   3.121
 1123SOL    HW2 4269   3.852   1.353   3.043
 1124SOL     OW 4270   2.424   2.668   4.394
 1124SOL    HW1 4271   2.480   2.747   4.420
 1124SOL    HW2 4272   2.425   2.657   4.295
 1125SOL     OW 4273   2.205   4.144   3.734
 1125SOL    HW1 4274   2.241   4.185   3.818
 1125SOL    HW2 4275   2.122   4.092   3.754
 1126SOL     OW 4276   3.735   5.107   4.756
 1126SOL    HW1 4277   3.638   5.085   4.768
 1126SOL    HW2 4278   3.760   5.185   4.813
 1127SOL     OW 4279   5.906   0.111   2.462
 1127SOL    HW1 4280   5.908   0.207   2.487
 1127SOL    HW2 4281   5.864   0.057   2.535
 1128SOL     OW 4282   5.157   1.456   4.026
 1128SOL    HW1 4283   5.197   1.545   4.009
 1128SOL    HW2 4284   5.179   1.427   4.119
 1129SOL     OW 4285   1.601   0.884   0.612
 1129SOL    HW1 4286   1.535   0.897   0.538
 1129SOL    HW2 4287   1.553   0.852   0.694
 1130SOL     OW 4288   1.810   4.586   1.928
 1130SOL    HW1 4289   1.842   4.541   1.845
 1130SOL    HW2 4290   1.746   4.659   1.904
 1131SOL     OW 4291   0.939   5.204   4.445
 1131SOL    HW1 4292   0.971   5.256   4.524
 1131SOL    HW2 4293   1.015   5.191   4.381
 1132SOL     OW 4294   2.145   1.287   2.606
 1132SOL    HW1 4295   2.153   1.194   2.643
 1132SOL    HW2 4296   2.233   1.316   2.569
 1133SOL     OW 4297   0.807   6.856   5.350
 1133SOL    HW1 4298   0.710   6.871   5.329
 1133SOL    HW2 4299   0.863   6.910   5.287
 1134SOL     OW 4300   3.503   0.152   1.523
 1134SOL    HW1 4301   3.545   0.109   1.603
 1134SOL    HW2 4302   3.551   0.122   1.441
 1135SOL     OW 4303   1.883   5.478   3.276
 1135SOL    HW1 4304   1.958   5.414   3.258
 1135SOL    HW2 4305   1.809   5.431   3.323
 1136SOL     OW 4306   1.509   5.768   1.509
 1136SOL    HW1 4307   1.560   5.729   1.433
 1136SOL    HW2 4308   1.573   5.805   1.577
 1137SOL     OW 4309   0.876   5.396   5.378
 1137SOL    HW1 4310   0.821   5.471   5.414
 1137SOL    HW2 4311   0.862   5.314   5.434
 1138SOL     OW 4312   1.816   3.311   4.556
 1138SOL    HW1 4313   1.783   3.345   4.468
 1138SOL    HW2 4314   1.763   3.231   4.583
 1139SOL     OW 4315   2.953   5.356   4.856
 1139SOL    HW1 4316   2.948   5.382   4.760
 1139SOL    HW2 4317   3.047   5.331   4.879
 1140SOL     OW 4318   1.466   1.584   0.898
 1140SOL    HW1 4319   1.375   1.542   0.893
 1140SOL    HW2 4320   1.519   1.557   0.818
 1141SOL     OW 4321   6.919   4.544   6.135
 1141SOL    HW1 4322   6.929   4.604   6.055
 1141SOL    HW2 4323   6.917   4.599   6.218
 1142SOL     OW 4324   2.347   6.422   2.296
 1142SOL    HW1 4325   2.406   6.342   2.283
 1142SOL    HW2 4326   2.263   6.410   2.242
 1143SOL     OW 4327   0.942   3.947   1.680
 1143SOL    HW1 4328   1.001   3.999   1.618
 1143SOL    HW2 4329   0.980   3.949   1.772
 1144SOL     OW 4330   5.577   4.449   1.190
 1144SOL    HW1 4331   5.676   4.445   1.183
 1144SOL    HW2 4332   5.547   4.405   1.275
 1145SOL     OW 4333   5.976   0.625   1.138
 1145SOL    HW1 4334   5.994   0.566   1.216
 1145SOL    HW2 4335   5.903   0.585   1.082
 1146SOL     OW 4336   0.689   1.100   1.205
 1146SOL    HW1 4337   0.781   1.094   1.167
 1146SOL    HW2 4338   0.680   1.034   1.280
 1147SOL     OW 4339   2.642   6.551   1.436
 1147SOL    HW1 4340   2.693   6.603   1.504
 1147SOL    HW2 4341   2.596   6.475   1.481
 1148SOL     OW 4342   4.600   5.310   3.352
 1148SOL    HW1 4343   4.670   5.260   3.301
 1148SOL    HW2 4344   4.643   5.383   3.405
 1149SOL     OW 4345   4.421   3.096   1.300
 1149SOL    HW1 4346   4.430   3.194   1.319
 1149SOL    HW2 4347   4.327   3.076   1.273
 1150SOL     OW 4348   1.713   4.154   0.266
 1150SOL    HW1 4349   1.750   4.236   0.221
 1150SOL    HW2 4350   1.651   4.107   0.204
 1151SOL     OW 4351   6.101   5.713   4.116
 1151SOL    HW1 4352   6.044   5.637   4.149
 1151SOL    HW2 4353   6.082   5.795   4.170
 1152SOL     OW 4354   4.056   6.139   6.536
 1152SOL    HW1 4355   4.007   6.083   6.603
 1152SOL    HW2 4356   4.090   6.081   6.463
 1153SOL     OW 4357   5.894   0.067   1.525
 1153SOL    HW1 4358   5.906   0.150   1.469
 1153SOL    HW2 4359   5.875   7.007   1.465
 1154SOL     OW 4360   2.021   2.753   1.121
 1154SOL    HW1 4361   2.065   2.815   1.058
 1154SOL    HW2 4362   2.065   2.759   1.211
 1155SOL     OW 4363   2.718   6.707   4.267
 1155SOL    HW1 4364   2.670   6.643   4.206
 1155SOL    HW2 4365   2.807   6.730   4.227
 1156SOL     OW 4366   2.548   1.627   3.681
 1156SOL    HW1 4367   2.527   1.657   3.775
 1156SOL    HW2 4368   2.551   1.707   3.621
 1157SOL     OW 4369   3.695   0.563   6.810
 1157SOL    HW1 4370   3.665   0.566   6.715
 1157SOL    HW2 4371   3.789   0.529   6.815
 1158SOL     OW 4372   5.779   4.899   3.331
 1158SOL    HW1 4373   5.760   4.956   3.251
 1158SOL    HW2 4374   5.702   4.838   3.348
 1159SOL     OW 4375   6.332   5.682   1.284
 1159SOL    HW1 4376   6.402   5.658   1.351
 1159SOL    HW2 4377   6.353   5.772   1.245
 1160SOL     OW 4378   5.198   1.582   0.742
 1160SOL    HW1 4379   5.170   1.537   0.657
 1160SOL    HW2 4380   5.199   1.681   0.728
 1161SOL     OW 4381   0.671   5.257   0.785
 1161SOL    HW1 4382   0.600   5.218   0.844
 1161SOL    HW2 4383   0.723   5.183   0.742
 1162SOL     OW 4384   2.594   2.156   4.757
 1162SOL    HW1 4385   2.613   2.221   4.684
 1162SOL    HW2 4386   2.513   2.102   4.735
 1163SOL     OW 4387   5.481   3.196   1.972
 1163SOL    HW1 4388   5.488   3.104   1.932
 1163SOL    HW2 4389   5.477   3.189   2.071
 1164SOL     OW 4390   4.612   1.823   5.482
 1164SOL    HW1 4391   4.550   1.883   5.433
 1164SOL    HW2 4392   4.688   1.877   5.518
 1165SOL     OW 4393   4.108   6.462   3.676
 1165SOL    HW1 4394   4.019   6.496   3.707
 1165SOL    HW2 4395   4.181   6.500   3.733
 1166SOL     OW 4396   2.777   4.644   6.517
 1166SOL    HW1 4397   2.828   4.654   6.602
 1166SOL    HW2 4398   2.686   4.684   6.528
 1167SOL     OW 4399   5.485   4.984   2.680
 1167SOL    HW1 4400   5.556   4.988   2.750
 1167SOL    HW2 4401   5.445   4.892   2.678
 1168SOL     OW 4402   6.343   1.094   3.543
 1168SOL    HW1 4403   6.281   1.061   3.614
 1168SOL    HW2 4404   6.390   1.016   3.501
 1169SOL     OW 4405   5.619   1.390   5.461
 1169SOL    HW1 4406   5.533   1.342   5.477
 1169SOL    HW2 4407   5.661   1.355   5.378
 1170SOL     OW 4408   5.080   6.545   4.377
 1170SOL    HW1 4409   5.030   6.520   4.294
 1170SOL    HW2 4410   5.145   6.473   4.400
 1171SOL     OW 4411   0.633   6.951   1.447
 1171SOL    HW1 4412   0.656   6.934   1.351
 1171SOL    HW2 4413   0.652   6.870   1.501
 1172SOL     OW 4414   6.933   3.492   6.604
 1172SOL    HW1 4415   6.925   3.568   6.540
 1172SOL    HW2 4416   7.016   3.440   6.582
 1173SOL     OW 4417   3.777   1.721   0.553
 1173SOL    HW1 4418   3.822   1.784   0.489
 1173SOL    HW2 4419   3.837   1.705   0.631
 1174SOL     OW 4420   2.587   3.423   0.833
 1174SOL    HW1 4421   2.520   3.383   0.771
 1174SOL    HW2 4422   2.638   3.351   0.880
 1175SOL     OW 4423   3.015   3.195   4.084
 1175SOL    HW1 4424   2.970   3.256   4.019
 1175SOL    HW2 4425   3.053   3.116   4.036
 1176SOL     OW 4426   5.600   3.663   6.130
 1176SOL    HW1 4427   5.511   3.708   6.127
 1176SOL    HW2 4428   5.661   3.714   6.192
 1177SOL     OW 4429   6.961   2.002   4.682
 1177SOL    HW1 4430   6.993   1.909   4.699
 1177SOL    HW2 4431   0.006   2.048   4.620
 1178SOL     OW 4432   3.364   5.507   0.346
 1178SOL    HW1 4433   3.425   5.434   0.374
 1178SOL    HW2 4434   3.352   5.505   0.247
 1179SOL     OW 4435   1.751   5.668   0.357
 1179SOL    HW1 4436   1.690   5.649   0.279
 1179SOL    HW2 4437   1.776   5.764   0.356
 1180SOL     OW 4438   3.181   5.695   0.520
 1180SOL    HW1 4439   3.232   5.633   0.460
 1180SOL    HW2 4440   3.084   5.691   0.497
 1181SOL     OW 4441   0.506   5.931   0.646
 1181SOL    HW1 4442   0.526   5.834   0.651
 1181SOL    HW2 4443   0.550   5.971   0.566
 1182SOL     OW 4444   4.629   4.700   2.875
 1182SOL    HW1 4445   4.665   4.727   2.965
 1182SOL    HW2 4446   4.529   4.698   2.880
 1183SOL     OW 4447   2.271   3.241   5.690
 1183SOL    HW1 4448   2.295   3.148   5.661
 1183SOL    HW2 4449   2.172   3.254   5.682
 1184SOL     OW 4450   0.933   7.011   5.967
 1184SOL    HW1 4451   0.947   7.001   6.066
 1184SOL    HW2 4452   0.883   6.932   5.932
 1185SOL     OW 4453   0.121   1.316   6.663
 1185SOL    HW1 4454   0.211   1.278   6.641
 1185SOL    HW2 4455   0.117   1.338   6.760
 1186SOL     OW 4456   5.571   6.340   5.088
 1186SOL    HW1 4457   5.559   6.244   5.114
 1186SOL    HW2 4458   5.529   6.398   5.158
 1187SOL     OW 4459   5.639   0.491   6.283
 1187SOL    HW1 4460   5.557   0.548   6.270
 1187SOL    HW2 4461   5.640   0.455   6.376
 1188SOL     OW 4462   2.716   6.536   5.699
 1188SOL    HW1 4463   2.729   6.510   5.795
 1188SOL    HW2 4464   2.630   6.587   5.690
 1189SOL     OW 4465   5.841   3.089   3.353
 1189SOL    HW1 4466   5.796   3.079   3.442
 1189SOL    HW2 4467   5.778   3.133   3.289
 1190SOL     OW 4468   1.808   6.216   2.776
 1190SOL    HW1 4469   1.753   6.292   2.743
 1190SOL    HW2 4470   1.749   6.141   2.804
 1191SOL     OW 4471   4.294   5.568   2.297
 1191SOL    HW1 4472   4.322   5.643   2.238
 1191SOL    HW2 4473   4.373   5.533   2.347
 1192SOL     OW 4474   5.307   6.243   4.066
 1192SOL    HW1 4475   5.278   6.337   4.086
 1192SOL    HW2 4476   5.293   6.224   3.969
 1193SOL     OW 4477   6.147   5.301   4.097
 1193SOL    HW1 4478   6.176   5.380   4.042
 1193SOL    HW2 4479   6.048   5.300   4.104
 1194SOL     OW 4480   4.005   0.900   1.316
 1194SOL    HW1 4481   3.975   0.819   1.267
 1194SOL    HW2 4482   3.975   0.895   1.411
 1195SOL     OW 4483   5.476   2.224   3.199
 1195SOL    HW1 4484   5.563   2.220   3.150
 1195SOL    HW2 4485   5.493   2.242   3.296
 1196SOL     OW 4486   5.971   6.696   4.942
 1196SOL    HW1 4487   5.882   6.713   4.983
 1196SOL    HW2 4488   6.041   6.746   4.992
 1197SOL     OW 4489   2.496   6.358   0.245
 1197SOL    HW1 4490   2.519   6.420   0.170
 1197SOL    HW2 4491   2.495   6.409   0.331
 1198SOL     OW 4492   1.686   2.692   0.471
 1198SOL    HW1 4493   1.732   2.781   0.475
 1198SOL    HW2 4494   1.651   2.668   0.561
 1199SOL     OW 4495   5.100   4.234   2.275
 1199SOL    HW1 4496   5.114   4.175   2.354
 1199SOL    HW2 4497   5.189   4.252   2.231
 1200SOL     OW 4498   3.283   3.854   1.866
 1200SOL    HW1 4499   3.302   3.769   1.916
 1200SOL    HW2 4500   3.217   3.909   1.918
 1201SOL     OW 4501   1.610   1.850   4.624
 1201SOL    HW1 4502   1.640   1.774   4.681
 1201SOL    HW2 4503   1.573   1.923   4.682
 1202SOL     OW 4504   0.464   5.528   6.532
 1202SOL    HW1 4505   0.462   5.559   6.628
 1202SOL    HW2 4506   0.377   5.483   6.510
 1203SOL     OW 4507   4.436   5.697   5.920
 1203SOL    HW1 4508   4.472   5.652   6.002
 1203SOL    HW2 4509   4.340   5.672   5.908
 1204SOL     OW 4510   1.870   0.050   2.122
 1204SOL    HW1 4511   1.923   0.075   2.203
 1204SOL    HW2 4512   1.927   0.061   2.040
 1205SOL     OW 4513   5.096   4.457   2.009
 1205SOL    HW1 4514   5.116   4.471   1.912
 1205SOL    HW2 4515   5.094   4.358   2.028
 1206SOL     OW 4516   3.188   3.717   5.437
 1206SOL    HW1 4517   3.196   3.729   5.338
 1206SOL    HW2 4518   3.279   3.701   5.476
 1207SOL     OW 4519   2.083   6.504   1.663
 1207SOL    HW1 4520   1.992   6.475   1.633
 1207SOL    HW2 4521   2.081   6.521   1.762
 1208SOL     OW 4522   3.340   3.925   6.296
 1208SOL    HW1 4523   3.265   3.904   6.233
 1208SOL    HW2 4524   3.414   3.971   6.246
 1209SOL     OW 4525   4.047   6.628   5.678
 1209SOL    HW1 4526   4.021   6.684   5.756
 1209SOL    HW2 4527   4.047   6.685   5.595
 1210SOL     OW 4528   3.276   1.246   3.431
 1210SOL    HW1 4529   3.302   1.333   3.472
 1210SOL    HW2 4530   3.318   1.238   3.341
 1211SOL     OW 4531   1.060   3.883   0.264
 1211SOL    HW1 4532   0.973   3.910   0.221
 1211SOL    HW2 4533   1.042   3.850   0.357
 1212SOL     OW 4534   1.095   6.468   6.951
 1212SOL    HW1 4535   1.076   6.459   6.853
 1212SOL    HW2 4536   1.119   6.379   6.988
 1213SOL     OW 4537   5.273   3.220   0.753
 1213SOL    HW1 4538   5.336   3.297   0.743
 1213SOL    HW2 4539   5.238   3.194   0.662
 1214SOL     OW 4540   0.314   2.317   1.697
 1214SOL    HW1 4541   0.337   2.336   1.602
 1214SOL    HW2 4542   0.257   2.235   1.702
 1215SOL     OW 4543   1.341   5.270   4.595
 1215SOL    HW1 4544   1.344   5.171   4.611
 1215SOL    HW2 4545   1.305   5.288   4.504
 1216SOL     OW 4546   4.347   6.662   6.986
 1216SOL    HW1 4547   4.439   6.699   7.002
 1216SOL    HW2 4548   4.336   6.577   0.020
 1217SOL     OW 4549   2.638   4.422   0.044
 1217SOL    HW1 4550   2.688   4.506   0.068
 1217SOL    HW2 4551   2.677   4.384   6.978
 1218SOL     OW 4552   1.727   4.669   3.769
 1218SOL    HW1 4553   1.745   4.649   3.672
 1218SOL    HW2 4554   1.642   4.720   3.777
 1219SOL     OW 4555   4.398   6.054   2.917
 1219SOL    HW1 4556   4.356   5.967   2.891
 1219SOL    HW2 4557   4.494   6.055   2.891
 1220SOL     OW 4558   1.317   4.642   2.775
 1220SOL    HW1 4559   1.369   4.583   2.713
 1220SOL    HW2 4560   1.240   4.590   2.814
 1221SOL     OW 4561   5.852   3.816   6.293
 1221SOL    HW1 4562   5.815   3.901   6.255
 1221SOL    HW2 4563   5.886   3.833   6.385
 1222SOL     OW 4564   6.705   6.427   6.904
 1222SOL    HW1 4565   6.695   6.460   6.810
 1222SOL    HW2 4566   6.788   6.372   6.911
 1223SOL     OW 4567   3.385   6.390   0.183
 1223SOL    HW1 4568   3.415   6.322   0.250
 1223SOL    HW2 4569   3.421   6.367   0.093
 1224SOL     OW 4570   3.098   0.356   2.298
 1224SOL    HW1 4571   3.055   0.307   2.374
 1224SOL    HW2 4572   3.052   0.332   2.212
 1225SOL     OW 4573   2.399   4.160   6.931
 1225SOL    HW1 4574   2.358   4.073   6.958
 1225SOL    HW2 4575   2.431   4.209   7.012
 1226SOL     OW 4576   1.928   4.275   0.834
 1226SOL    HW1 4577   1.889   4.277   0.926
 1226SOL    HW2 4578   1.856   4.293   0.767
 1227SOL     OW 4579   0.152   3.390   6.557
 1227SOL    HW1 4580   0.203   3.387   6.471
 1227SOL    HW2 4581   0.216   3.389   6.633
 1228SOL     OW 4582   3.909   1.552   5.712
 1228SOL    HW1 4583   3.881   1.457   5.728
 1228SOL    HW2 4584   3.937   1.563   5.617
 1229SOL     OW 4585   3.804   4.456   6.345
 1229SOL    HW1 4586   3.870   4.382   6.357
 1229SOL    HW2 4587   3.712   4.419   6.347
 1230SOL     OW 4588   4.440   6.410   3.402
 1230SOL    HW1 4589   4.503   6.481   3.432
 1230SOL    HW2 4590   4.470   6.373   3.314
 1231SOL     OW 4591   1.682   4.394   4.219
 1231SOL    HW1 4592   1.776   4.359   4.216
 1231SOL    HW2 4593   1.680   4.487   4.183
 1232SOL     OW 4594   1.871   2.306   4.343
 1232SOL    HW1 4595   1.918   2.334   4.260
 1232SOL    HW2 4596   1.931   2.320   4.422
 1233SOL     OW 4597   0.862   3.363   4.417
 1233SOL    HW1 4598   0.878   3.455   4.381
 1233SOL    HW2 4599   0.924   3.299   4.373
 1234SOL     OW 4600   6.318   4.301   4.440
 1234SOL    HW1 4601   6.305   4.309   4.341
 1234SOL    HW2 4602   6.302   4.390   4.482
 1235SOL     OW 4603   6.440   5.908   4.282
 1235SOL    HW1 4604   6.457   5.884   4.377
 1235SOL    HW2 4605   6.515   5.963   4.246
 1236SOL     OW 4606   5.281   0.608   0.238
 1236SOL    HW1 4607   5.356   0.576   0.296
 1236SOL    HW2 4608   5.217   0.662   0.293
 1237SOL     OW 4609   2.993   4.492   0.048
 1237SOL    HW1 4610   2.920   4.502   6.997
 1237SOL    HW2 4611   3.080   4.477   0.001
 1238SOL     OW 4612   1.822   1.641   1.355
 1238SOL    HW1 4613   1.829   1.625   1.257
 1238SOL    HW2 4614   1.843   1.737   1.375
 1239SOL     OW 4615   0.032   6.566   6.685
 1239SOL    HW1 4616   6.996   6.527   6.760
 1239SOL    HW2 4617   7.015   6.657   6.662
 1240SOL     OW 4618   4.796   5.991   1.757
 1240SOL    HW1 4619   4.875   6.039   1.795
 1240SOL    HW2 4620   4.716   6.052   1.758
 1241SOL     OW 4621   6.363   3.110   3.514
 1241SOL    HW1 4622   6.364   3.198   3.467
 1241SOL    HW2 4623   6.443   3.057   3.487
 1242SOL     OW 4624   2.365   3.905   0.022
 1242SOL    HW1 4625   2.364   3.839   0.096
 1242SOL    HW2 4626   2.393   3.860   6.955
 1243SOL     OW 4627   2.744   5.361   5.326
 1243SOL    HW1 4628   2.713   5.455   5.319
 1243SOL    HW2 4629   2.810   5.353   5.401
 1244SOL     OW 4630   0.775   0.754   3.547
 1244SOL    HW1 4631   0.752   0.705   3.631
 1244SOL    HW2 4632   0.732   0.844   3.548
 1245SOL     OW 4633   3.029   3.314   6.652
 1245SOL    HW1 4634   3.102   3.246   6.659
 1245SOL    HW2 4635   3.005   3.346   6.744
 1246SOL     OW 4636   1.195   6.292   2.518
 1246SOL    HW1 4637   1.119   6.345   2.481
 1246SOL    HW2 4638   1.188   6.197   2.488
 1247SOL     OW 4639   1.739   6.597   6.518
 1247SOL    HW1 4640   1.699   6.686   6.492
 1247SOL    HW2 4641   1.838   6.604   6.518
 1248SOL     OW 4642   1.723   5.513   3.592
 1248SOL    HW1 4643   1.759   5.552   3.676
 1248SOL    HW2 4644   1.792   5.519   3.519
 1249SOL     OW 4645   6.288   3.249   3.151
 1249SOL    HW1 4646   6.361   3.260   3.219
 1249SOL    HW2 4647   6.223   3.180   3.184
 1250SOL     OW 4648   0.808   5.055   4.730
 1250SOL    HW1 4649   0.768   4.980   4.676
 1250SOL    HW2 4650   0.808   5.030   4.827
 1251SOL     OW 4651   3.769   0.284   5.202
 1251SOL    HW1 4652   3.859   0.255   5.172
 1251SOL    HW2 4653   3.708   0.294   5.123
 1252SOL     OW 4654   3.663   3.378   6.214
 1252SOL    HW1 4655   3.626   3.468   6.238
 1252SOL    HW2 4656   3.591   3.310   6.219
 1253SOL     OW 4657   3.935   5.998   2.751
 1253SOL    HW1 4658   4.007   6.066   2.738
 1253SOL    HW2 4659   3.977   5.910   2.775
 1254SOL     OW 4660   0.031   1.716   2.816
 1254SOL    HW1 4661   0.028   1.621   2.847
 1254SOL    HW2 4662   6.956   1.746   2.793
 1255SOL     OW 4663   6.050   6.770   6.884
 1255SOL    HW1 4664   6.101   6.705   6.941
 1255SOL    HW2 4665   6.026   6.727   6.797
 1256SOL     OW 4666   4.625   1.188   3.748
 1256SOL    HW1 4667   4.677   1.165   3.831
 1256SOL    HW2 4668   4.667   1.142   3.669
 1257SOL     OW 4669   5.990   1.892   4.127
 1257SOL    HW1 4670   6.028   1.961   4.065
 1257SOL    HW2 4671   5.899   1.866   4.096
 1258SOL     OW 4672   0.031   6.643   3.582
 1258SOL    HW1 4673   0.072   6.651   3.491
 1258SOL    HW2 4674   0.103   6.629   3.650
 1259SOL     OW 4675   4.350   2.383   5.291
 1259SOL    HW1 4676   4.352   2.460   5.355
 1259SOL    HW2 4677   4.308   2.413   5.204
 1260SOL     OW 4678   1.207   0.829   6.434
 1260SOL    HW1 4679   1.162   0.746   6.402
 1260SOL    HW2 4680   1.164   0.908   6.391
 1261SOL     OW 4681   6.498   4.181   0.954
 1261SOL    HW1 4682   6.509   4.171   0.855
 1261SOL    HW2 4683   6.435   4.256   0.973
 1262SOL     OW 4684   5.426   6.007   2.171
 1262SOL    HW1 4685   5.422   5.992   2.270
 1262SOL    HW2 4686   5.412   5.920   2.123
 1263SOL     OW 4687   1.028   2.142   3.320
 1263SOL    HW1 4688   1.071   2.208   3.258
 1263SOL    HW2 4689   0.929   2.158   3.321
 1264SOL     OW 4690   0.942   2.421   5.317
 1264SOL    HW1 4691   1.010   2.453   5.250
 1264SOL    HW2 4692   0.965   2.329   5.347
 1265SOL     OW 4693   5.801   6.409   5.242
 1265SOL    HW1 4694   5.728   6.377   5.181
 1265SOL    HW2 4695   5.777   6.386   5.336
 1266SOL     OW 4696   1.867   1.241   4.760
 1266SOL    HW1 4697   1.865   1.332   4.718
 1266SOL    HW2 4698   1.874   1.250   4.860
 1267SOL     OW 4699   3.536   0.539   3.249
 1267SOL    HW1 4700   3.566   0.539   3.345
 1267SOL    HW2 4701   3.565   0.454   3.206
 1268SOL     OW 4702   4.328   2.750   5.581
 1268SOL    HW1 4703   4.338   2.651   5.588
 1268SOL    HW2 4704   4.413   2.794   5.612
 1269SOL     OW 4705   6.175   1.998   4.289
 1269SOL    HW1 4706   6.135   2.070   4.345
 1269SOL    HW2 4707   6.106   1.928   4.271
 1270SOL     OW 4708   6.486   5.749   2.655
 1270SOL    HW1 4709   6.502   5.695   2.572
 1270SOL    HW2 4710   6.567   5.744   2.713
 1271SOL     OW 4711   1.808   1.421   1.095
 1271SOL    HW1 4712   1.908   1.422   1.096
 1271SOL    HW2 4713   1.776   1.343   1.041
 1272SOL     OW 4714   6.199   3.651   5.959
 1272SOL    HW1 4715   6.154   3.668   6.047
 1272SOL    HW2 4716   6.129   3.641   5.888
 1273SOL     OW 4717   0.990   4.730   4.932
 1273SOL    HW1 4718   0.915   4.663   4.932
 1273SOL    HW2 4719   1.059   4.702   4.998
 1274SOL     OW 4720   6.957   5.408   3.151
 1274SOL    HW1 4721   6.911   5.422   3.063
 1274SOL    HW2 4722   0.035   5.435   3.143
 1275SOL     OW 4723   1.899   1.406   3.004
 1275SOL    HW1 4724   1.865   1.326   3.053
 1275SOL    HW2 4725   1.969   1.451   3.059
 1276SOL     OW 4726   5.441   5.029   4.295
 1276SOL    HW1 4727   5.413   5.007   4.388
 1276SOL    HW2 4728   5.379   5.097   4.256
 1277SOL     OW 4729   1.161   6.189   0.320
 1277SOL    HW1 4730   1.184   6.185   0.417
 1277SOL    HW2 4731   1.239   6.226   0.268
 1278SOL     OW 4732   1.059   6.052   2.809
 1278SOL    HW1 4733   0.973   6.067   2.857
 1278SOL    HW2 4734   1.046   6.069   2.711
 1279SOL     OW 4735   2.535   2.699   1.707
 1279SOL    HW1 4736   2.594   2.654   1.774
 1279SOL    HW2 4737   2.553   2.661   1.616
 1280SOL     OW 4738   2.302   2.321   3.852
 1280SOL    HW1 4739   2.289   2.222   3.843
 1280SOL    HW2 4740   2.228   2.369   3.804
 1281SOL     OW 4741   4.826   6.231   4.866
 1281SOL    HW1 4742   4.925   6.247   4.858
 1281SOL    HW2 4743   4.777   6.316   4.846
 1282SOL     OW 4744   6.911   2.591   1.187
 1282SOL    HW1 4745   6.919   2.654   1.264
 1282SOL    HW2 4746   6.985   2.523   1.191
 1283SOL     OW 4747   0.296   2.988   4.960
 1283SOL    HW1 4748   0.201   2.975   4.989
 1283SOL    HW2 4749   0.340   3.056   5.018
 1284SOL     OW 4750   3.948   2.170   1.679
 1284SOL    HW1 4751   3.901   2.104   1.621
 1284SOL    HW2 4752   3.941   2.141   1.774
 1285SOL     OW 4753   4.280   1.011   5.464
 1285SOL    HW1 4754   4.273   1.102   5.505
 1285SOL    HW2 4755   4.263   1.018   5.366
 1286SOL     OW 4756   5.563   2.741   1.544
 1286SOL    HW1 4757   5.643   2.797   1.520
 1286SOL    HW2 4758   5.539   2.684   1.465
 1287SOL     OW 4759   6.754   5.092   4.625
 1287SOL    HW1 4760   6.695   5.041   4.563
 1287SOL    HW2 4761   6.785   5.176   4.581
 1288SOL     OW 4762   4.621   4.353   0.009
 1288SOL    HW1 4763   4.531   4.343   6.985
 1288SOL    HW2 4764   4.690   4.361   6.955
 1289SOL     OW 4765   6.934   0.231   1.504
 1289SOL    HW1 4766   6.925   0.240   1.405
 1289SOL    HW2 4767   7.016   0.177   1.525
 1290SOL     OW 4768   1.603   6.544   5.684
 1290SOL    HW1 4769   1.589   6.641   5.661
 1290SOL    HW2 4770   1.568   6.487   5.610
 1291SOL     OW 4771   6.402   4.577   3.066
 1291SOL    HW1 4772   6.355   4.661   3.042
 1291SOL    HW2 4773   6.501   4.594   3.072
 1292SOL     OW 4774   0.751   6.706   1.848
 1292SOL    HW1 4775   0.692   6.657   1.912
 1292SOL    HW2 4776   0.838   6.658   1.841
 1293SOL     OW 4777   4.352   1.268   7.017
 1293SOL    HW1 4778   4.396   1.266   0.089
 1293SOL    HW2 4779   4.253   1.273   0.011
 1294SOL     OW 4780   1.840   4.330   5.005
 1294SOL    HW1 4781   1.918   4.271   4.989
 1294SOL    HW2 4782   1.871   4.424   5.020
 1295SOL     OW 4783   6.136   4.384   0.797
 1295SOL    HW1 4784   6.127   4.315   0.725
 1295SOL    HW2 4785   6.093   4.469   0.768
 1296SOL     OW 4786   5.497   0.229   5.915
 1296SOL    HW1 4787   5.481   0.313   5.863
 1296SOL    HW2 4788   5.460   0.151   5.864
 1297SOL     OW 4789   0.607   0.436   1.919
 1297SOL    HW1 4790   0.542   0.405   1.988
 1297SOL    HW2 4791   0.696   0.394   1.936
 1298SOL     OW 4792   4.883   6.890   2.485
 1298SOL    HW1 4793   4.815   6.819   2.472
 1298SOL    HW2 4794   4.965   6.851   2.526
 1299SOL     OW 4795   0.777   3.780   4.658
 1299SOL    HW1 4796   0.755   3.875   4.682
 1299SOL    HW2 4797   0.874   3.773   4.635
 1300SOL     OW 4798   0.988   4.818   1.684
 1300SOL    HW1 4799   0.975   4.899   1.741
 1300SOL    HW2 4800   0.944   4.832   1.596
 1301SOL     OW 4801   0.606   0.379   0.550
 1301SOL    HW1 4802   0.526   0.428   0.516
 1301SOL    HW2 4803   0.627   0.302   0.490
 1302SOL     OW 4804   5.803   0.055   4.950
 1302SOL    HW1 4805   5.719   0.000   4.942
 1302SOL    HW2 4806   5.786   0.132   5.011
 1303SOL     OW 4807   3.686   6.258   1.842
 1303SOL    HW1 4808   3.713   6.189   1.776
 1303SOL    HW2 4809   3.754   6.263   1.916
 1304SOL     OW 4810   0.727   1.131   0.783
 1304SOL    HW1 4811   0.755   1.224   0.808
 1304SOL    HW2 4812   0.787   1.065   0.827
 1305SOL     OW 4813   4.708   3.317   6.445
 1305SOL    HW1 4814   4.799   3.318   6.487
 1305SOL    HW2 4815   4.714   3.275   6.354
 1306SOL     OW 4816   2.937   5.511   4.319
 1306SOL    HW1 4817   2.949   5.413   4.303
 1306SOL    HW2 4818   3.026   5.554   4.332
 1307SOL     OW 4819   2.712   2.043   3.390
 1307SOL    HW1 4820   2.810   2.043   3.412
 1307SOL    HW2 4821   2.694   1.977   3.317
 1308SOL     OW 4822   0.779   4.248   6.138
 1308SOL    HW1 4823   0.851   4.236   6.070
 1308SOL    HW2 4824   0.694   4.206   6.105
 1309SOL     OW 4825   5.838   4.577   6.539
 1309SOL    HW1 4826   5.805   4.490   6.503
 1309SOL    HW2 4827   5.841   4.572   6.639
 1310SOL     OW 4828   1.560   3.982   3.384
 1310SOL    HW1 4829   1.479   4.030   3.416
 1310SOL    HW2 4830   1.642   4.023   3.425
 1311SOL     OW 4831   6.112   5.513   0.742
 1311SOL    HW1 4832   6.097   5.422   0.781
 1311SOL    HW2 4833   6.194   5.511   0.686
 1312SOL     OW 4834   2.406   0.981   5.982
 1312SOL    HW1 4835   2.492   0.964   5.934
 1312SOL    HW2 4836   2.375   0.896   6.024
 1313SOL     OW 4837   6.576   6.129   2.371
 1313SOL    HW1 4838   6.594   6.223   2.402
 1313SOL    HW2 4839   6.643   6.067   2.410
 1314SOL     OW 4840   2.440   1.610   4.939
 1314SOL    HW1 4841   2.348   1.572   4.927
 1314SOL    HW2 4842   2.482   1.569   5.020
 1315SOL     OW 4843   6.071   1.605   3.446
 1315SOL    HW1 4844   6.117   1.694   3.435
 1315SOL    HW2 4845   5.977   1.620   3.475
 1316SOL     OW 4846   4.629   0.448   6.412
 1316SOL    HW1 4847   4.560   0.375   6.408
 1316SOL    HW2 4848   4.647   0.471   6.508
 1317SOL     OW 4849   3.255   3.576   6.005
 1317SOL    HW1 4850   3.164   3.564   5.965
 1317SOL    HW2 4851   3.267   3.512   6.081
 1318SOL     OW 4852   2.201   2.313   6.083
 1318SOL    HW1 4853   2.141   2.277   6.012
 1318SOL    HW2 4854   2.207   2.413   6.075
 1319SOL     OW 4855   6.853   6.982   0.960
 1319SOL    HW1 4856   6.903   0.020   1.027
 1319SOL    HW2 4857   6.773   0.014   0.928
 1320SOL     OW 4858   3.444   3.255   5.651
 1320SOL    HW1 4859   3.362   3.242   5.707
 1320SOL    HW2 4860   3.526   3.240   5.706
 1321SOL     OW 4861   6.273   2.732   0.495
 1321SOL    HW1 4862   6.334   2.705   0.569
 1321SOL    HW2 4863   6.317   2.804   0.440
 1322SOL     OW 4864   3.394   2.003   0.604
 1322SOL    HW1 4865   3.398   2.019   0.702
 1322SOL    HW2 4866   3.347   2.080   0.560
 1323SOL     OW 4867   3.319   0.102   0.625
 1323SOL    HW1 4868   3.322   0.005   0.601
 1323SOL    HW2 4869   3.364   0.116   0.714
 1324SOL     OW 4870   1.631   3.559   0.095
 1324SOL    HW1 4871   1.602   3.466   0.072
 1324SOL    HW2 4872   1.731   3.564   0.091
 1325SOL     OW 4873   2.998   5.793   5.668
 1325SOL    HW1 4874   3.026   5.757   5.579
 1325SOL    HW2 4875   2.918   5.743   5.701
 1326SOL     OW 4876   4.924   2.847   3.608
 1326SOL    HW1 4877   4.845   2.786   3.600
 1326SOL    HW2 4878   4.894   2.942   3.603
 1327SOL     OW 4879   5.470   5.629   2.130
 1327SOL    HW1 4880   5.506   5.557   2.070
 1327SOL    HW2 4881   5.435   5.587   2.215
 1328SOL     OW 4882   2.130   2.911   4.962
 1328SOL    HW1 4883   2.154   2.814   4.953
 1328SOL    HW2 4884   2.209   2.962   4.994
 1329SOL     OW 4885   1.290   3.033   3.829
 1329SOL    HW1 4886   1.239   3.105   3.782
 1329SOL    HW2 4887   1.301   2.955   3.768
 1330SOL     OW 4888   6.555   2.827   1.854
 1330SOL    HW1 4889   6.489   2.752   1.844
 1330SOL    HW2 4890   6.635   2.794   1.904
 1331SOL     OW 4891   4.631   1.908   3.688
 1331SOL    HW1 4892   4.533   1.905   3.670
 1331SOL    HW2 4893   4.664   2.001   3.679
 1332SOL     OW 4894   1.572   6.439   0.117
 1332SOL    HW1 4895   1.513   6.481   0.048
 1332SOL    HW2 4896   1.666   6.434   0.081
 1333SOL     OW 4897   4.042   3.839   3.542
 1333SOL    HW1 4898   3.973   3.898   3.584
 1333SOL    HW2 4899   4.033   3.843   3.442
 1334SOL     OW 4900   6.878   3.742   2.064
 1334SOL    HW1 4901   6.834   3.652   2.057
 1334SOL    HW2 4902   6.863   3.779   2.155
 1335SOL     OW 4903   1.102   3.590   2.607
 1335SOL    HW1 4904   1.008   3.601   2.574
 1335SOL    HW2 4905   1.166   3.606   2.532
 1336SOL     OW 4906   2.660   0.309   5.364
 1336SOL    HW1 4907   2.736   0.373   5.375
 1336SOL    HW2 4908   2.687   0.237   5.300
 1337SOL     OW 4909   6.623   1.043   3.319
 1337SOL    HW1 4910   6.573   1.129   3.306
 1337SOL    HW2 4911   6.599   1.004   3.408
 1338SOL     OW 4912   6.471   3.982   5.192
 1338SOL    HW1 4913   6.544   4.043   5.222
 1338SOL    HW2 4914   6.509   3.910   5.134
 1339SOL     OW 4915   7.016   0.105   6.937
 1339SOL    HW1 4916   0.005   0.005   6.930
 1339SOL    HW2 4917   0.071   0.138   6.997
 1340SOL     OW 4918   4.159   2.754   1.600
 1340SOL    HW1 4919   4.068   2.713   1.608
 1340SOL    HW2 4920   4.161   2.841   1.649
 1341SOL     OW 4921   4.960   6.258   0.266
 1341SOL    HW1 4922   4.981   6.331   0.330
 1341SOL    HW2 4923   4.864   6.264   0.239
 1342SOL     OW 4924   2.846   6.684   1.615
 1342SOL    HW1 4925   2.882   6.703   1.524
 1342SOL    HW2 4926   2.904   6.617   1.661
 1343SOL     OW 4927   5.863   5.792   3.152
 1343SOL    HW1 4928   5.831   5.803   3.058
 1343SOL    HW2 4929   5.812   5.719   3.197
 1344SOL     OW 4930   0.675   0.394   4.853
 1344SOL    HW1 4931   0.764   0.426   4.885
 1344SOL    HW2 4932   0.617   0.472   4.832
 1345SOL     OW 4933   0.189   6.273   0.187
 1345SOL    HW1 4934   0.147   6.359   0.213
 1345SOL    HW2 4935   0.149   6.241   0.101
 1346SOL     OW 4936   2.924   5.690   5.249
 1346SOL    HW1 4937   2.832   5.653   5.239
 1346SOL    HW2 4938   2.942   5.757   5.177
 1347SOL     OW 4939   1.330   7.000   6.068
 1347SOL    HW1 4940   1.357   6.938   5.995
 1347SOL    HW2 4941   1.253   0.038   6.036
 1348SOL     OW 4942   1.062   6.175   5.526
 1348SOL    HW1 4943   1.106   6.085   5.531
 1348SOL    HW2 4944   0.974   6.166   5.479
 1349SOL     OW 4945   4.926   3.344   3.999
 1349SOL    HW1 4946   4.929   3.293   4.085
 1349SOL    HW2 4947   4.840   3.395   3.994
 1350SOL     OW 4948   4.263   3.948   0.040
 1350SOL    HW1 4949   4.207   3.881   0.089
 1350SOL    HW2 4950   4.241   4.040   0.073
 1351SOL     OW 4951   6.978   2.729   5.335
 1351SOL    HW1 4952   0.057   2.754   5.339
 1351SOL    HW2 4953   6.951   2.688   5.422
 1352SOL     OW 4954   6.672   0.374   1.887
 1352SOL    HW1 4955   6.759   0.356   1.841
 1352SOL    HW2 4956   6.597   0.336   1.832
 1353SOL     OW 4957   0.514   0.933   0.808
 1353SOL    HW1 4958   0.575   1.012   0.815
 1353SOL    HW2 4959   0.545   0.873   0.734
 1354SOL     OW 4960   5.102   5.064   2.840
 1354SOL    HW1 4961   5.172   5.016   2.789
 1354SOL    HW2 4962   5.018   5.010   2.841
 1355SOL     OW 4963   5.999   3.448   6.224
 1355SOL    HW1 4964   6.054   3.401   6.155
 1355SOL    HW2 4965   6.024   3.544   6.226
 1356SOL     OW 4966   3.004   3.449   0.746
 1356SOL    HW1 4967   3.013   3.476   0.841
 1356SOL    HW2 4968   3.087   3.473   0.696
 1357SOL     OW 4969   0.344   3.714   5.093
 1357SOL    HW1 4970   0.318   3.619   5.077
 1357SOL    HW2 4971   0.410   3.719   5.168
 1358SOL     OW 4972   1.598   6.546   6.729
 1358SOL    HW1 4973   1.654   6.601   6.791
 1358SOL    HW2 4974   1.624   6.567   6.635
 1359SOL     OW 4975   0.056   4.566   1.979
 1359SOL    HW1 4976   0.077   4.634   1.908
 1359SOL    HW2 4977   7.011   4.606   2.046
 1360SOL     OW 4978   2.435   2.432   0.158
 1360SOL    HW1 4979   2.399   2.523   0.178
 1360SOL    HW2 4980   2.420   2.411   0.061
 1361SOL     OW 4981   0.087   5.093   5.132
 1361SOL    HW1 4982   0.066   5.028   5.058
 1361SOL    HW2 4983   0.099   5.043   5.218
 1362SOL     OW 4984   3.009   3.115   2.946
 1362SOL    HW1 4985   3.008   3.214   2.934
 1362SOL    HW2 4986   3.002   3.071   2.856
 1363SOL     OW 4987   1.247   6.068   4.144
 1363SOL    HW1 4988   1.189   6.005   4.195
 1363SOL    HW2 4989   1.305   6.016   4.081
 1364SOL     OW 4990   4.120   4.008   0.909
 1364SOL    HW1 4991   4.210   3.966   0.903
 1364SOL    HW2 4992   4.097   4.026   1.004
 1365SOL     OW 4993   0.534   3.115   6.883
 1365SOL    HW1 4994   0.440   3.082   6.889
 1365SOL    HW2 4995   0.586   3.079   6.961
 1366SOL     OW 4996   3.435   0.095   5.114
 1366SOL    HW1 4997   3.488   0.111   5.031
 1366SOL    HW2 4998   3.453   0.168   5.180
 1367SOL     OW 4999   2.206   1.115   2.871
 1367SOL    HW1 5000   2.107   1.103   2.883
 1367SOL    HW2 5001   2.228   1.212   2.876
 1368SOL     OW 5002   5.482   6.487   3.474
 1368SOL    HW1 5003   5.446   6.506   3.383
 1368SOL    HW2 5004   5.499   6.573   3.522
 1369SOL     OW 5005   1.534   1.143   3.202
 1369SOL    HW1 5006   1.437   1.117   3.206
 1369SOL    HW2 5007   1.542   1.238   3.171
 1370SOL     OW 5008   2.493   0.600   1.479
 1370SOL    HW1 5009   2.538   0.527   1.429
 1370SOL    HW2 5010   2.515   0.688   1.437
 1371SOL     OW 5011   3.899   0.648   6.575
 1371SOL    HW1 5012   3.800   0.655   6.590
 1371SOL    HW2 5013   3.938   0.584   6.641
 1372SOL     OW 5014   3.036   2.064   2.023
 1372SOL    HW1 5015   3.006   1.994   2.087
 1372SOL    HW2 5016   2.985   2.149   2.040
 1373SOL     OW 5017   1.219   6.238   0.884
 1373SOL    HW1 5018   1.191   6.334   0.880
 1373SOL    HW2 5019   1.289   6.221   0.814
 1374SOL     OW 5020   5.108   2.808   0.110
 1374SOL    HW1 5021   5.009   2.815   0.101
 1374SOL    HW2 5022   5.148   2.900   0.111
 1375SOL     OW 5023   0.331   4.192   5.191
 1375SOL    HW1 5024   0.380   4.105   5.194
 1375SOL    HW2 5025   0.366   4.252   5.264
 1376SOL     OW 5026   4.696   1.455   2.548
 1376SOL    HW1 5027   4.676   1.425   2.455
 1376SOL    HW2 5028   4.617   1.436   2.606
 1377SOL     OW 5029   0.632   5.769   4.683
 1377SOL    HW1 5030   0.629   5.782   4.584
 1377SOL    HW2 5031   0.608   5.674   4.705
 1378SOL     OW 5032   2.118   2.007   6.719
 1378SOL    HW1 5033   2.078   1.951   6.646
 1378SOL    HW2 5034   2.174   2.079   6.678
 1379SOL     OW 5035   3.837   6.039   1.083
 1379SOL    HW1 5036   3.741   6.022   1.059
 1379SOL    HW2 5037   3.884   6.076   1.003
 1380SOL     OW 5038   6.531   6.513   2.948
 1380SOL    HW1 5039   6.505   6.450   2.875
 1380SOL    HW2 5040   6.453   6.526   3.010
 1381SOL     OW 5041   6.151   0.570   1.561
 1381SOL    HW1 5042   6.147   0.638   1.635
 1381SOL    HW2 5043   6.107   0.486   1.592
 1382SOL     OW 5044   0.197   4.991   6.377
 1382SOL    HW1 5045   0.251   5.073   6.355
 1382SOL    HW2 5046   0.201   4.973   6.475
 1383SOL     OW 5047   2.392   0.026   0.310
 1383SOL    HW1 5048   2.483   0.019   0.269
 1383SOL    HW2 5049   2.391   6.994   0.396
 1384SOL     OW 5050   2.569   2.033   2.126
 1384SOL    HW1 5051   2.617   2.098   2.067
 1384SOL    HW2 5052   2.521   1.966   2.070
 1385SOL     OW 5053   5.370   2.921   3.106
 1385SOL    HW1 5054   5.358   2.913   3.007
 1385SOL    HW2 5055   5.287   2.960   3.146
 1386SOL     OW 5056   2.464   2.641   4.104
 1386SOL    HW1 5057   2.432   2.716   4.047
 1386SOL    HW2 5058   2.560   2.622   4.083
 1387SOL     OW 5059   2.238   0.467   4.759
 1387SOL    HW1 5060   2.325   0.515   4.771
 1387SOL    HW2 5061   2.250   0.370   4.780
 1388SOL     OW 5062   5.866   1.271   4.790
 1388SOL    HW1 5063   5.918   1.340   4.840
 1388SOL    HW2 5064   5.916   1.185   4.789
 1389SOL     OW 5065   6.276   1.081   3.990
 1389SOL    HW1 5066   6.207   1.055   4.058
 1389SOL    HW2 5067   6.321   1.165   4.019
 1390SOL     OW 5068   4.436   2.458   2.019
 1390SOL    HW1 5069   4.415   2.377   2.075
 1390SOL    HW2 5070   4.514   2.506   2.059
 1391SOL     OW 5071   5.604   1.569   4.656
 1391SOL    HW1 5072   5.649   1.656   4.676
 1391SOL    HW2 5073   5.672   1.502   4.627
 1392SOL     OW 5074   4.615   5.940   5.887
 1392SOL    HW1 5075   4.549   5.885   5.938
 1392SOL    HW2 5076   4.686   5.880   5.849
 1393SOL     OW 5077   4.760   0.403   6.845
 1393SOL    HW1 5078   4.748   0.494   6.805
 1393SOL    HW2 5079   4.736   0.333   6.777
 1394SOL     OW 5080   4.302   0.750   3.888
 1394SOL    HW1 5081   4.357   0.667   3.881
 1394SOL    HW2 5082   4.206   0.727   3.870
 1395SOL     OW 5083   1.263   5.528   2.145
 1395SOL    HW1 5084   1.316   5.444   2.155
 1395SOL    HW2 5085   1.319   5.599   2.104
 1396SOL     OW 5086   1.572   0.964   3.705
 1396SOL    HW1 5087   1.512   0.893   3.741
 1396SOL    HW2 5088   1.650   0.976   3.767
 1397SOL     OW 5089   0.489   5.455   4.755
 1397SOL    HW1 5090   0.391   5.438   4.742
 1397SOL    HW2 5091   0.541   5.398   4.691
 1398SOL     OW 5092   2.038   6.450   6.960
 1398SOL    HW1 5093   2.096   6.519   7.004
 1398SOL    HW2 5094   2.040   6.464   6.861
 1399SOL     OW 5095   3.942   0.168   0.421
 1399SOL    HW1 5096   4.001   0.101   0.467
 1399SOL    HW2 5097   3.930   0.142   0.325
 1400SOL     OW 5098   0.522   1.014   4.933
 1400SOL    HW1 5099   0.443   0.952   4.936
 1400SOL    HW2 5100   0.493   1.106   4.961
 1401SOL     OW 5101   5.742   0.372   2.905
 1401SOL    HW1 5102   5.710   0.415   2.820
 1401SOL    HW2 5103   5.696   0.414   2.983
 1402SOL     OW 5104   6.929   4.665   2.664
 1402SOL    HW1 5105   6.914   4.593   2.733
 1402SOL    HW2 5106   0.009   4.684   2.657
 1403SOL     OW 5107   3.029   2.981   6.519
 1403SOL    HW1 5108   2.997   2.907   6.579
 1403SOL    HW2 5109   3.080   3.048   6.573
 1404SOL     OW 5110   4.309   6.139   0.513
 1404SOL    HW1 5111   4.226   6.108   0.466
 1404SOL    HW2 5112   4.372   6.181   0.448
 1405SOL     OW 5113   0.824   3.921   0.700
 1405SOL    HW1 5114   0.795   3.884   0.788
 1405SOL    HW2 5115   0.774   4.006   0.681
 1406SOL     OW 5116   1.978   3.320   0.474
 1406SOL    HW1 5117   1.907   3.305   0.405
 1406SOL    HW2 5118   1.935   3.347   0.560
 1407SOL     OW 5119   0.504   3.062   1.369
 1407SOL    HW1 5120   0.570   3.095   1.437
 1407SOL    HW2 5121   0.412   3.074   1.404
 1408SOL     OW 5122   5.679   6.668   1.015
 1408SOL    HW1 5123   5.745   6.595   0.998
 1408SOL    HW2 5124   5.589   6.640   0.982
 1409SOL     OW 5125   6.206   1.477   5.912
 1409SOL    HW1 5126   6.114   1.513   5.898
 1409SOL    HW2 5127   6.253   1.532   5.980
 1410SOL     OW 5128   3.357   0.288   6.839
 1410SOL    HW1 5129   3.351   0.353   6.916
 1410SOL    HW2 5130   3.452   0.258   6.829
 1411SOL     OW 5131   3.420   4.543   6.858
 1411SOL    HW1 5132   3.359   4.582   6.788
 1411SOL    HW2 5133   3.370   4.475   6.912
 1412SOL     OW 5134   2.500   2.053   0.532
 1412SOL    HW1 5135   2.551   2.102   0.602
 1412SOL    HW2 5136   2.407   2.034   0.565
 1413SOL     OW 5137   2.210   1.763   5.263
 1413SOL    HW1 5138   2.214   1.845   5.320
 1413SOL    HW2 5139   2.270   1.693   5.301
 1414SOL     OW 5140   0.488   4.620   2.388
 1414SOL    HW1 5141   0.546   4.560   2.443
 1414SOL    HW2 5142   0.545   4.667   2.319
 1415SOL     OW 5143   2.807   1.544   4.954
 1415SOL    HW1 5144   2.743   1.592   5.014
 1415SOL    HW2 5145   2.760   1.466   4.912
 1416SOL     OW 5146   4.573   0.262   4.907
 1416SOL    HW1 5147   4.571   0.195   4.981
 1416SOL    HW2 5148   4.479   0.280   4.876
 1417SOL     OW 5149   3.638   3.532   4.703
 1417SOL    HW1 5150   3.712   3.479   4.744
 1417SOL    HW2 5151   3.568   3.550   4.772
 1418SOL     OW 5152   3.568   3.884   6.145
 1418SOL    HW1 5153   3.519   3.875   6.058
 1418SOL    HW2 5154   3.640   3.815   6.149
 1419SOL     OW 5155   1.859   6.233   1.961
 1419SOL    HW1 5156   1.791   6.185   1.905
 1419SOL    HW2 5157   1.943   6.180   1.963
 1420SOL     OW 5158   2.714   6.431   2.258
 1420SOL    HW1 5159   2.807   6.405   2.281
 1420SOL    HW2 5160   2.654   6.352   2.269
 1421SOL     OW 5161   1.592   5.059   6.327
 1421SOL    HW1 5162   1.612   5.102   6.415
 1421SOL    HW2 5163   1.554   4.968   6.344
 1422SOL     OW 5164   1.594   2.872   6.305
 1422SOL    HW1 5165   1.591   2.971   6.299
 1422SOL    HW2 5166   1.625   2.845   6.396
 1423SOL     OW 5167   4.393   0.599   5.334
 1423SOL    HW1 5168   4.449   0.678   5.359
 1423SOL    HW2 5169   4.409   0.577   5.237
 1424SOL     OW 5170   6.491   3.169   1.282
 1424SOL    HW1 5171   6.565   3.118   1.328
 1424SOL    HW2 5172   6.486   3.141   1.187
 1425SOL     OW 5173   5.553   6.974   3.842
 1425SOL    HW1 5174   5.538   6.876   3.858
 1425SOL    HW2 5175   5.494   0.009   3.903
 1426SOL     OW 5176   4.145   0.751   6.930
 1426SOL    HW1 5177   4.129   0.771   6.834
 1426SOL    HW2 5178   4.200   0.824   6.971
 1427SOL     OW 5179   1.825   0.304   3.976
 1427SOL    HW1 5180   1.783   0.236   3.916
 1427SOL    HW2 5181   1.864   0.259   4.056
 1428SOL     OW 5182   1.380   3.483   4.179
 1428SOL    HW1 5183   1.326   3.558   4.217
 1428SOL    HW2 5184   1.416   3.427   4.253
 1429SOL     OW 5185   6.203   0.508   2.310
 1429SOL    HW1 5186   6.206   0.408   2.318
 1429SOL    HW2 5187   6.275   0.548   2.365
 1430SOL     OW 5188   2.132   3.790   4.600
 1430SOL    HW1 5189   2.123   3.734   4.518
 1430SOL    HW2 5190   2.065   3.864   4.598
 1431SOL     OW 5191   2.948   1.419   0.187
 1431SOL    HW1 5192   3.020   1.350   0.181
 1431SOL    HW2 5193   2.858   1.375   0.185
 1432SOL     OW 5194   3.816   0.243   2.122
 1432SOL    HW1 5195   3.780   0.155   2.153
 1432SOL    HW2 5196   3.788   0.315   2.187
 1433SOL     OW 5197   2.898   1.329   4.223
 1433SOL    HW1 5198   2.858   1.394   4.160
 1433SOL    HW2 5199   2.842   1.246   4.226
 1434SOL     OW 5200   5.480   4.075   0.374
 1434SOL    HW1 5201   5.492   4.095   0.472
 1434SOL    HW2 5202   5.527   3.989   0.352
 1435SOL     OW 5203   1.382   0.035   3.774
 1435SOL    HW1 5204   1.473   0.036   3.815
 1435SOL    HW2 5205   1.319   7.003   3.834
 1436SOL     OW 5206   5.574   1.272   0.680
 1436SOL    HW1 5207   5.560   1.281   0.778
 1436SOL    HW2 5208   5.661   1.315   0.654
 1437SOL     OW 5209   3.862   1.087   0.690
 1437SOL    HW1 5210   3.886   0.993   0.716
 1437SOL    HW2 5211   3.882   1.149   0.765
 1438SOL     OW 5212   2.485   0.468   2.585
 1438SOL    HW1 5213   2.400   0.420   2.563
 1438SOL    HW2 5214   2.465   0.564   2.605
 1439SOL     OW 5215   6.961   5.041   0.029
 1439SOL    HW1 5216   6.918   5.005   6.965
 1439SOL    HW2 5217   0.029   5.087   0.004
 1440SOL     OW 5218   3.479   2.976   2.727
 1440SOL    HW1 5219   3.410   2.933   2.786
 1440SOL    HW2 5220   3.510   2.911   2.659
 1441SOL     OW 5221   6.426   2.276   4.874
 1441SOL    HW1 5222   6.392   2.182   4.865
 1441SOL    HW2 5223   6.360   2.339   4.834
 1442SOL     OW 5224   5.141   0.104   0.166
 1442SOL    HW1 5225   5.085   0.177   0.126
 1442SOL    HW2 5226   5.137   0.023   0.107
 1443SOL     OW 5227   1.497   2.765   3.431
 1443SOL    HW1 5228   1.428   2.825   3.473
 1443SOL    HW2 5229   1.538   2.707   3.501
 1444SOL     OW 5230   5.061   0.205   4.993
 1444SOL    HW1 5231   5.005   0.194   4.912
 1444SOL    HW2 5232   5.002   0.210   5.074
 1445SOL     OW 5233   6.521   2.300   0.072
 1445SOL    HW1 5234   6.560   2.274   0.161
 1445SOL    HW2 5235   6.472   2.387   0.081
 1446SOL     OW 5236   3.766   6.832   0.883
 1446SOL    HW1 5237   3.790   6.795   0.793
 1446SOL    HW2 5238   3.788   6.929   0.886
 1447SOL     OW 5239   6.017   1.429   4.943
 1447SOL    HW1 5240   6.058   1.506   4.895
 1447SOL    HW2 5241   6.046   1.430   5.039
 1448SOL     OW 5242   4.906   0.652   6.784
 1448SOL    HW1 5243   4.889   0.700   6.698
 1448SOL    HW2 5244   4.960   0.710   6.845
 1449SOL     OW 5245   5.000   5.922   0.917
 1449SOL    HW1 5246   4.924   5.870   0.876
 1449SOL    HW2 5247   5.078   5.922   0.854
 1450SOL     OW 5248   5.916   2.179   3.505
 1450SOL    HW1 5249   5.892   2.084   3.484
 1450SOL    HW2 5250   5.844   2.220   3.560
 1451SOL     OW 5251   2.028   6.673   1.950
 1451SOL    HW1 5252   1.974   6.712   2.024
 1451SOL    HW2 5253   2.001   6.714   1.863
 1452SOL     OW 5254   4.127   0.476   5.150
 1452SOL    HW1 5255   4.131   0.421   5.234
 1452SOL    HW2 5256   4.117   0.573   5.175
 1453SOL     OW 5257   4.488   4.538   4.307
 1453SOL    HW1 5258   4.428   4.617   4.293
 1453SOL    HW2 5259   4.438   4.468   4.359
 1454SOL     OW 5260   4.677   4.711   0.839
 1454SOL    HW1 5261   4.722   4.622   0.828
 1454SOL    HW2 5262   4.739   4.784   0.810
 1455SOL     OW 5263   2.544   2.023   1.777
 1455SOL    HW1 5264   2.525   2.008   1.680
 1455SOL    HW2 5265   2.633   2.066   1.788
 1456SOL     OW 5266   6.100   5.468   4.624
 1456SOL    HW1 5267   6.189   5.427   4.643
 1456SOL    HW2 5268   6.031   5.397   4.615
 1457SOL     OW 5269   2.053   0.022   3.481
 1457SOL    HW1 5270   2.063   6.960   3.540
 1457SOL    HW2 5271   2.135   0.079   3.488
 1458SOL     OW 5272   0.108   6.030   0.041
 1458SOL    HW1 5273   0.114   6.000   0.136
 1458SOL    HW2 5274   0.038   5.976   7.012
 1459SOL     OW 5275   2.448   7.014   0.868
 1459SOL    HW1 5276   2.371   0.058   0.856
 1459SOL    HW2 5277   2.426   6.946   0.938
 1460SOL     OW 5278   1.071   0.018   7.013
 1460SOL    HW1 5279   1.030   6.945   7.008
 1460SOL    HW2 5280   1.151   0.022   6.952
 1461SOL     OW 5281   4.552   5.546   2.384
 1461SOL    HW1 5282   4.633   5.588   2.425
 1461SOL    HW2 5283   4.579   5.466   2.331
 1462SOL     OW 5284   5.136   0.392   5.304
 1462SOL    HW1 5285   5.191   0.475   5.316
 1462SOL    HW2 5286   5.061   0.411   5.241
 1463SOL     OW 5287   0.509   1.318   5.546
 1463SOL    HW1 5288   0.588   1.258   5.559
 1463SOL    HW2 5289   0.449   1.279   5.475
 1464SOL     OW 5290   0.050   0.947   1.727
 1464SOL    HW1 5291   6.999   0.875   1.731
 1464SOL    HW2 5292   0.120   0.922   1.660
 1465SOL     OW 5293   0.917   0.267   4.564
 1465SOL    HW1 5294   0.955   0.255   4.472
 1465SOL    HW2 5295   0.884   0.360   4.575
 1466SOL     OW 5296   5.290   5.138   4.773
 1466SOL    HW1 5297   5.205   5.147   4.720
 1466SOL    HW2 5298   5.365   5.116   4.711
 1467SOL     OW 5299   5.718   3.572   3.294
 1467SOL    HW1 5300   5.644   3.635   3.270
 1467SOL    HW2 5301   5.745   3.586   3.389
 1468SOL     OW 5302   5.707   6.791   2.430
 1468SOL    HW1 5303   5.780   6.753   2.487
 1468SOL    HW2 5304   5.744   6.813   2.340
 1469SOL     OW 5305   0.560   0.818   2.362
 1469SOL    HW1 5306   0.461   0.835   2.357
 1469SOL    HW2 5307   0.587   0.811   2.458
 1470SOL     OW 5308   6.848   0.980   3.126
 1470SOL    HW1 5309   6.864   1.004   3.222
 1470SOL    HW2 5310   6.787   1.048   3.085
 1471SOL     OW 5311   6.335   0.520   1.129
 1471SOL    HW1 5312   6.304   0.538   1.036
 1471SOL    HW2 5313   6.400   0.444   1.128
 1472SOL     OW 5314   4.308   5.536   5.124
 1472SOL    HW1 5315   4.295   5.437   5.114
 1472SOL    HW2 5316   4.387   5.554   5.183
 1473SOL     OW 5317   5.661   3.978   3.319
 1473SOL    HW1 5318   5.684   3.980   3.417
 1473SOL    HW2 5319   5.658   4.072   3.284
 1474SOL     OW 5320   4.701   4.851   4.293
 1474SOL    HW1 5321   4.762   4.792   4.345
 1474SOL    HW2 5322   4.710   4.831   4.195
 1475SOL     OW 5323   6.515   0.865   3.488
 1475SOL    HW1 5324   6.497   0.829   3.580
 1475SOL    HW2 5325   6.473   0.806   3.420
 1476SOL     OW 5326   6.366   2.264   1.483
 1476SOL    HW1 5327   6.311   2.315   1.417
 1476SOL    HW2 5328   6.404   2.328   1.550
 1477SOL     OW 5329   2.562   5.932   3.605
 1477SOL    HW1 5330   2.468   5.905   3.587
 1477SOL    HW2 5331   2.621   5.901   3.530
 1478SOL     OW 5332   0.145   4.599   1.424
 1478SOL    HW1 5333   0.097   4.601   1.337
 1478SOL    HW2 5334   0.213   4.526   1.423
 1479SOL     OW 5335   0.762   4.994   0.736
 1479SOL    HW1 5336   0.728   4.941   0.659
 1479SOL    HW2 5337   0.755   4.940   0.820
 1480SOL     OW 5338   2.991   1.009   0.370
 1480SOL    HW1 5339   3.045   1.069   0.311
 1480SOL    HW2 5340   2.995   0.915   0.335
 1481SOL     OW 5341   0.027   2.617   6.061
 1481SOL    HW1 5342   0.100   2.617   6.129
 1481SOL    HW2 5343   7.009   2.709   6.050
 1482SOL     OW 5344   5.380   1.034   6.603
 1482SOL    HW1 5345   5.303   1.098   6.598
 1482SOL    HW2 5346   5.455   1.068   6.546
 1483SOL     OW 5347   6.418   2.593   6.451
 1483SOL    HW1 5348   6.500   2.636   6.489
 1483SOL    HW2 5349   6.343   2.602   6.515
 1484SOL     OW 5350   6.933   6.983   2.906
 1484SOL    HW1 5351   6.855   0.020   2.934
 1484SOL    HW2 5352   6.902   6.898   2.862
 1485SOL     OW 5353   5.663   2.447   3.922
 1485SOL    HW1 5354   5.669   2.524   3.986
 1485SOL    HW2 5355   5.611   2.373   3.965
 1486SOL     OW 5356   5.534   2.640   1.991
 1486SOL    HW1 5357   5.562   2.544   1.991
 1486SOL    HW2 5358   5.476   2.658   1.912
 1487SOL     OW 5359   6.263   1.278   5.722
 1487SOL    HW1 5360   6.243   1.195   5.775
 1487SOL    HW2 5361   6.220   1.357   5.767
 1488SOL     OW 5362   4.812   1.824   3.217
 1488SOL    HW1 5363   4.724   1.841   3.261
 1488SOL    HW2 5364   4.860   1.752   3.267
 1489SOL     OW 5365   4.101   5.399   4.895
 1489SOL    HW1 5366   4.093   5.300   4.909
 1489SOL    HW2 5367   4.149   5.417   4.809
 1490SOL     OW 5368   2.403   2.665   1.285
 1490SOL    HW1 5369   2.372   2.574   1.311
 1490SOL    HW2 5370   2.324   2.723   1.264
 1491SOL     OW 5371   6.651   2.210   5.367
 1491SOL    HW1 5372   6.657   2.229   5.465
 1491SOL    HW2 5373   6.704   2.128   5.346
 1492SOL     OW 5374   5.980   2.968   2.178
 1492SOL    HW1 5375   5.926   3.009   2.251
 1492SOL    HW2 5376   5.960   3.014   2.091
 1493SOL     OW 5377   6.099   1.677   4.815
 1493SOL    HW1 5378   6.088   1.710   4.909
 1493SOL    HW2 5379   6.011   1.683   4.767
 1494SOL     OW 5380   5.671   2.016   4.547
 1494SOL    HW1 5381   5.725   1.946   4.503
 1494SOL    HW2 5382   5.607   2.056   4.481
 1495SOL     OW 5383   0.990   3.002   3.031
 1495SOL    HW1 5384   0.903   2.957   3.053
 1495SOL    HW2 5385   1.032   2.957   2.953
 1496SOL     OW 5386   0.962   0.525   3.090
 1496SOL    HW1 5387   1.027   0.499   3.161
 1496SOL    HW2 5388   0.919   0.611   3.115
 1497SOL     OW 5389   5.098   4.410   5.662
 1497SOL    HW1 5390   5.035   4.337   5.636
 1497SOL    HW2 5391   5.186   4.396   5.616
 1498SOL     OW 5392   2.052   5.713   0.288
 1498SOL    HW1 5393   2.092   5.787   0.233
 1498SOL    HW2 5394   1.957   5.735   0.310
 1499SOL     OW 5395   0.644   4.570   4.726
 1499SOL    HW1 5396   0.741   4.556   4.707
 1499SOL    HW2 5397   0.633   4.642   4.795
 1500SOL     OW 5398   4.570   6.661   5.315
 1500SOL    HW1 5399   4.532   6.623   5.230
 1500SOL    HW2 5400   4.497   6.668   5.383
 1501SOL     OW 5401   4.338   0.333   7.010
 1501SOL    HW1 5402   4.385   0.382   0.066
 1501SOL    HW2 5403   4.302   0.399   6.944
 1502SOL     OW 5404   0.048   6.264   6.639
 1502SOL    HW1 5405   0.075   6.175   6.603
 1502SOL    HW2 5406   0.130   6.315   6.667
 1503SOL     OW 5407   3.351   4.456   5.401
 1503SOL    HW1 5408   3.397   4.368   5.411
 1503SOL    HW2 5409   3.256   4.447   5.428
 1504SOL     OW 5410   2.772   6.387   4.305
 1504SOL    HW1 5411   2.821   6.435   4.377
 1504SOL    HW2 5412   2.687   6.435   4.284
 1505SOL     OW 5413   5.102   5.668   2.231
 1505SOL    HW1 5414   5.052   5.583   2.216
 1505SOL    HW2 5415   5.078   5.734   2.160
 1506SOL     OW 5416   1.088   6.655   2.893
 1506SOL    HW1 5417   1.064   6.562   2.865
 1506SOL    HW2 5418   1.145   6.698   2.823
 1507SOL     OW 5419   2.868   2.005   6.376
 1507SOL    HW1 5420   2.947   2.015   6.437
 1507SOL    HW2 5421   2.896   1.959   6.292
 1508SOL     OW 5422   4.158   0.338   0.560
 1508SOL    HW1 5423   4.179   0.313   0.465
 1508SOL    HW2 5424   4.060   0.354   0.570
 1509SOL     OW 5425   5.302   1.458   0.028
 1509SOL    HW1 5426   5.380   1.400   0.003
 1509SOL    HW2 5427   5.290   1.457   0.127
 1510SOL     OW 5428   0.468   1.984   3.506
 1510SOL    HW1 5429   0.376   2.014   3.532
 1510SOL    HW2 5430   0.507   1.926   3.578
 1511SOL     OW 5431   2.106   2.853   0.505
 1511SOL    HW1 5432   2.041   2.819   0.574
 1511SOL    HW2 5433   2.128   2.780   0.441
 1512SOL     OW 5434   6.018   0.795   2.612
 1512SOL    HW1 5435   5.924   0.789   2.577
 1512SOL    HW2 5436   6.016   0.823   2.708
 1513SOL     OW 5437   3.581   0.982   2.543
 1513SOL    HW1 5438   3.596   0.912   2.473
 1513SOL    HW2 5439   3.660   1.043   2.546
 1514SOL     OW 5440   5.092   1.276   6.345
 1514SOL    HW1 5441   5.072   1.362   6.298
 1514SOL    HW2 5442   5.140   1.215   6.283
 1515SOL     OW 5443   6.307   5.495   5.060
 1515SOL    HW1 5444   6.400   5.518   5.030
 1515SOL    HW2 5445   6.312   5.433   5.138
 1516SOL     OW 5446   0.272   1.002   1.076
 1516SOL    HW1 5447   0.213   0.979   0.999
 1516SOL    HW2 5448   0.220   1.055   1.143
 1517SOL     OW 5449   3.496   5.189   3.637
 1517SOL    HW1 5450   3.468   5.107   3.587
 1517SOL    HW2 5451   3.475   5.177   3.734
 1518SOL     OW 5452   0.711   4.857   0.983
 1518SOL    HW1 5453   0.734   4.761   0.997
 1518SOL    HW2 5454   0.767   4.914   1.044
 1519SOL     OW 5455   0.156   4.053   1.523
 1519SOL    HW1 5456   0.100   4.042   1.605
 1519SOL    HW2 5457   0.245   4.092   1.549
 1520SOL     OW 5458   1.590   2.816   2.486
 1520SOL    HW1 5459   1.668   2.872   2.460
 1520SOL    HW2 5460   1.589   2.804   2.585
 1521SOL     OW 5461   2.773   4.227   5.351
 1521SOL    HW1 5462   2.765   4.327   5.344
 1521SOL    HW2 5463   2.870   4.202   5.347
 1522SOL     OW 5464   1.249   2.664   6.135
 1522SOL    HW1 5465   1.200   2.596   6.081
 1522SOL    HW2 5466   1.191   2.695   6.210
 1523SOL     OW 5467   6.633   1.349   0.698
 1523SOL    HW1 5468   6.559   1.322   0.636
 1523SOL    HW2 5469   6.611   1.319   0.791
 1524SOL     OW 5470   6.217   0.745   3.458
 1524SOL    HW1 5471   6.218   0.648   3.434
 1524SOL    HW2 5472   6.129   0.768   3.499
 1525SOL     OW 5473   4.653   1.588   5.743
 1525SOL    HW1 5474   4.616   1.681   5.739
 1525SOL    HW2 5475   4.630   1.547   5.832
 1526SOL     OW 5476   6.902   1.793   6.993
 1526SOL    HW1 5477   6.954   1.710   6.973
 1526SOL    HW2 5478   6.885   1.798   0.074
 1527SOL     OW 5479   2.919   1.343   5.633
 1527SOL    HW1 5480   2.932   1.387   5.545
 1527SOL    HW2 5481   2.826   1.361   5.667
 1528SOL     OW 5482   4.906   5.541   4.218
 1528SOL    HW1 5483   4.841   5.572   4.288
 1528SOL    HW2 5484   4.862   5.471   4.161
 1529SOL     OW 5485   3.011   0.872   5.025
 1529SOL    HW1 5486   2.919   0.878   4.984
 1529SOL    HW2 5487   3.023   0.946   5.091
 1530SOL     OW 5488   3.148   6.912   2.304
 1530SOL    HW1 5489   3.054   6.902   2.272
 1530SOL    HW2 5490   3.193   6.822   2.304
 1531SOL     OW 5491   5.944   0.351   6.232
 1531SOL    HW1 5492   5.911   0.397   6.149
 1531SOL    HW2 5493   5.877   0.284   6.262
 1532SOL     OW 5494   3.286   2.552   5.405
 1532SOL    HW1 5495   3.252   2.521   5.316
 1532SOL    HW2 5496   3.371   2.505   5.426
 1533SOL     OW 5497   5.472   2.881   6.844
 1533SOL    HW1 5498   5.518   2.813   6.901
 1533SOL    HW2 5499   5.373   2.871   6.852
 1534SOL     OW 5500   6.667   0.040   1.846
 1534SOL    HW1 5501   6.688   0.063   1.751
 1534SOL    HW2 5502   6.752   0.040   1.900
 1535SOL     OW 5503   4.814   4.548   3.931
 1535SOL    HW1 5504   4.839   4.454   3.910
 1535SOL    HW2 5505   4.770   4.589   3.851
 1536SOL     OW 5506   3.129   5.333   3.361
 1536SOL    HW1 5507   3.189   5.334   3.441
 1536SOL    HW2 5508   3.178   5.293   3.284
 1537SOL     OW 5509   2.362   5.558   4.221
 1537SOL    HW1 5510   2.459   5.577   4.232
 1537SOL    HW2 5511   2.320   5.545   4.311
 1538SOL     OW 5512   3.272   4.889   6.460
 1538SOL    HW1 5513   3.344   4.917   6.396
 1538SOL    HW2 5514   3.184   4.923   6.427
 1539SOL     OW 5515   3.683   5.266   1.622
 1539SOL    HW1 5516   3.604   5.326   1.611
 1539SOL    HW2 5517   3.727   5.283   1.710
 1540SOL     OW 5518   6.056   0.465   5.535
 1540SOL    HW1 5519   6.090   0.485   5.443
 1540SOL    HW2 5520   6.108   0.518   5.602
 1541SOL     OW 5521   4.625   1.615   0.905
 1541SOL    HW1 5522   4.704   1.595   0.847
 1541SOL    HW2 5523   4.553   1.658   0.850
 1542SOL     OW 5524   1.162   6.503   0.889
 1542SOL    HW1 5525   1.147   6.578   0.953
 1542SOL    HW2 5526   1.259   6.499   0.864
 1543SOL     OW 5527   3.506   4.088   3.657
 1543SOL    HW1 5528   3.605   4.088   3.671
 1543SOL    HW2 5529   3.461   4.126   3.738
 1544SOL     OW 5530   3.672   3.799   2.892
 1544SOL    HW1 5531   3.624   3.755   2.968
 1544SOL    HW2 5532   3.683   3.897   2.911
 1545SOL     OW 5533   6.873   0.083   4.167
 1545SOL    HW1 5534   6.790   0.049   4.122
 1545SOL    HW2 5535   6.941   0.010   4.170
 1546SOL     OW 5536   6.475   6.922   6.286
 1546SOL    HW1 5537   6.449   6.839   6.335
 1546SOL    HW2 5538   6.403   6.991   6.296
 1547SOL     OW 5539   3.517   6.187   0.022
 1547SOL    HW1 5540   3.423   6.154   0.009
 1547SOL    HW2 5541   3.541   6.182   0.119
 1548SOL     OW 5542   5.972   4.079   4.291
 1548SOL    HW1 5543   5.987   4.176   4.271
 1548SOL    HW2 5544   5.880   4.066   4.327
 1549SOL     OW 5545   6.407   2.196   0.529
 1549SOL    HW1 5546   6.474   2.252   0.480
 1549SOL    HW2 5547   6.344   2.154   0.464
 1550SOL     OW 5548   2.349   5.678   2.362
 1550SOL    HW1 5549   2.371   5.614   2.435
 1550SOL    HW2 5550   2.430   5.693   2.305
 1551SOL     OW 5551   0.647   3.663   1.122
 1551SOL    HW1 5552   0.572   3.610   1.161
 1551SOL    HW2 5553   0.670   3.626   1.031
 1552SOL     OW 5554   0.748   6.719   1.576
 1552SOL    HW1 5555   0.833   6.764   1.551
 1552SOL    HW2 5556   0.745   6.706   1.675
 1553SOL     OW 5557   5.635   1.630   6.090
 1553SOL    HW1 5558   5.688   1.637   6.174
 1553SOL    HW2 5559   5.688   1.668   6.014
 1554SOL     OW 5560   2.499   2.023   1.306
 1554SOL    HW1 5561   2.430   2.080   1.261
 1554SOL    HW2 5562   2.579   2.079   1.329
 1555SOL     OW 5563   3.811   0.818   6.872
 1555SOL    HW1 5564   3.765   0.732   6.851
 1555SOL    HW2 5565   3.904   0.815   6.837
 1556SOL     OW 5566   4.191   2.016   6.563
 1556SOL    HW1 5567   4.108   2.040   6.512
 1556SOL    HW2 5568   4.229   1.931   6.526
 1557SOL     OW 5569   1.738   3.373   0.311
 1557SOL    HW1 5570   1.793   3.457   0.308
 1557SOL    HW2 5571   1.650   3.392   0.354
 1558SOL     OW 5572   5.168   3.080   6.277
 1558SOL    HW1 5573   5.154   3.013   6.203
 1558SOL    HW2 5574   5.164   3.033   6.365
 1559SOL     OW 5575   3.507   5.953   3.060
 1559SOL    HW1 5576   3.560   5.983   2.980
 1559SOL    HW2 5577   3.415   5.928   3.031
 1560SOL     OW 5578   3.716   2.422   1.341
 1560SOL    HW1 5579   3.810   2.456   1.350
 1560SOL    HW2 5580   3.692   2.368   1.421
 1561SOL     OW 5581   5.966   6.712   1.146
 1561SOL    HW1 5582   5.939   6.741   1.055
 1561SOL    HW2 5583   5.967   6.612   1.151
 1562SOL     OW 5584   3.287   0.581   2.692
 1562SOL    HW1 5585   3.203   0.631   2.671
 1562SOL    HW2 5586   3.288   0.557   2.789
 1563SOL     OW 5587   2.303   2.033   3.867
 1563SOL    HW1 5588   2.291   2.012   3.965
 1563SOL    HW2 5589   2.392   2.000   3.837
 1564SOL     OW 5590   0.404   0.990   3.037
 1564SOL    HW1 5591   0.452   0.957   3.119
 1564SOL    HW2 5592   0.306   0.978   3.049
 1565SOL     OW 5593   3.991   1.414   4.417
 1565SOL    HW1 5594   4.082   1.377   4.437
 1565SOL    HW2 5595   3.986   1.508   4.450
 1566SOL     OW 5596   6.031   4.142   3.717
 1566SOL    HW1 5597   6.060   4.235   3.692
 1566SOL    HW2 5598   6.066   4.077   3.650
 1567SOL     OW 5599   5.297   0.394   5.021
 1567SOL    HW1 5600   5.237   0.319   4.992
 1567SOL    HW2 5601   5.261   0.434   5.106
 1568SOL     OW 5602   2.805   4.859   1.569
 1568SOL    HW1 5603   2.795   4.779   1.628
 1568SOL    HW2 5604   2.807   4.829   1.473
 1569SOL     OW 5605   3.083   0.877   2.906
 1569SOL    HW1 5606   2.997   0.925   2.921
 1569SOL    HW2 5607   3.101   0.869   2.808
 1570SOL     OW 5608   2.360   6.081   6.194
 1570SOL    HW1 5609   2.391   6.058   6.287
 1570SOL    HW2 5610   2.385   6.007   6.131
 1571SOL     OW 5611   0.020   3.529   3.992
 1571SOL    HW1 5612   6.969   3.478   4.044
 1571SOL    HW2 5613   6.991   3.594   3.932
 1572SOL     OW 5614   3.010   5.696   2.667
 1572SOL    HW1 5615   2.949   5.627   2.628
 1572SOL    HW2 5616   3.003   5.695   2.767
 1573SOL     OW 5617   5.140   6.038   0.241
 1573SOL    HW1 5618   5.087   6.117   0.269
 1573SOL    HW2 5619   5.207   6.015   0.312
 1574SOL     OW 5620   0.784   4.635   2.891
 1574SOL    HW1 5621   0.705   4.671   2.843
 1574SOL    HW2 5622   0.756   4.555   2.944
 1575SOL     OW 5623   6.981   2.730   0.142
 1575SOL    HW1 5624   7.000   2.651   0.084
 1575SOL    HW2 5625   6.905   2.708   0.205
 1576SOL     OW 5626   1.824   6.052   1.622
 1576SOL    HW1 5627   1.915   6.030   1.656
 1576SOL    HW2 5628   1.772   6.099   1.693
 1577SOL     OW 5629   4.018   5.733   4.505
 1577SOL    HW1 5630   3.925   5.731   4.468
 1577SOL    HW2 5631   4.081   5.689   4.441
 1578SOL     OW 5632   5.185   1.207   1.829
 1578SOL    HW1 5633   5.186   1.274   1.903
 1578SOL    HW2 5634   5.234   1.244   1.750
 1579SOL     OW 5635   1.389   2.698   2.121
 1579SOL    HW1 5636   1.338   2.731   2.042
 1579SOL    HW2 5637   1.366   2.754   2.201
 1580SOL     OW 5638   2.948   3.717   2.709
 1580SOL    HW1 5639   2.909   3.629   2.684
 1580SOL    HW2 5640   2.963   3.720   2.808
 1581SOL     OW 5641   6.247   4.509   5.346
 1581SOL    HW1 5642   6.299   4.592   5.370
 1581SOL    HW2 5643   6.149   4.530   5.349
 1582SOL     OW 5644   4.568   5.704   5.173
 1582SOL    HW1 5645   4.623   5.620   5.175
 1582SOL    HW2 5646   4.621   5.778   5.132
 1583SOL     OW 5647   1.253   5.461   5.089
 1583SOL    HW1 5648   1.341   5.457   5.136
 1583SOL    HW2 5649   1.242   5.380   5.031
 1584SOL     OW 5650   6.770   3.792   0.339
 1584SOL    HW1 5651   6.703   3.735   0.290
 1584SOL    HW2 5652   6.744   3.888   0.333
 1585SOL     OW 5653   4.369   6.773   3.611
 1585SOL    HW1 5654   4.349   6.776   3.709
 1585SOL    HW2 5655   4.291   6.736   3.561
 1586SOL     OW 5656   3.585   6.289   3.224
 1586SOL    HW1 5657   3.664   6.319   3.170
 1586SOL    HW2 5658   3.550   6.203   3.186
 1587SOL     OW 5659   2.667   6.514   6.469
 1587SOL    HW1 5660   2.753   6.463   6.469
 1587SOL    HW2 5661   2.630   6.515   6.562
 1588SOL     OW 5662   6.580   1.611   3.652
 1588SOL    HW1 5663   6.496   1.661   3.630
 1588SOL    HW2 5664   6.557   1.517   3.676
 1589SOL     OW 5665   6.620   4.252   4.046
 1589SOL    HW1 5666   6.534   4.296   4.072
 1589SOL    HW2 5667   6.660   4.208   4.126
 1590SOL     OW 5668   6.795   1.777   3.611
 1590SOL    HW1 5669   6.876   1.721   3.624
 1590SOL    HW2 5670   6.716   1.734   3.654
 1591SOL     OW 5671   1.718   6.402   1.234
 1591SOL    HW1 5672   1.796   6.344   1.252
 1591SOL    HW2 5673   1.749   6.493   1.206
 1592SOL     OW 5674   0.298   3.442   6.310
 1592SOL    HW1 5675   0.328   3.526   6.355
 1592SOL    HW2 5676   0.327   3.442   6.215
 1593SOL     OW 5677   3.641   6.803   6.926
 1593SOL    HW1 5678   3.578   6.765   6.994
 1593SOL    HW2 5679   3.735   6.793   6.957
 1594SOL     OW 5680   5.677   1.000   2.615
 1594SOL    HW1 5681   5.614   0.996   2.693
 1594SOL    HW2 5682   5.676   0.913   2.567
 1595SOL     OW 5683   0.570   3.422   7.013
 1595SOL    HW1 5684   0.651   3.475   6.987
 1595SOL    HW2 5685   0.521   3.393   6.931
 1596SOL     OW 5686   4.758   4.709   3.120
 1596SOL    HW1 5687   4.720   4.778   3.181
 1596SOL    HW2 5688   4.853   4.732   3.098
 1597SOL     OW 5689   3.861   6.086   0.087
 1597SOL    HW1 5690   3.889   6.022   0.159
 1597SOL    HW2 5691   3.793   6.043   0.028
 1598SOL     OW 5692   0.970   4.588   6.247
 1598SOL    HW1 5693   1.052   4.578   6.191
 1598SOL    HW2 5694   0.968   4.516   6.316
 1599SOL     OW 5695   4.333   5.138   3.050
 1599SOL    HW1 5696   4.432   5.150   3.039
 1599SOL    HW2 5697   4.285   5.188   2.977
 1600SOL     OW 5698   3.949   0.493   1.897
 1600SOL    HW1 5699   3.922   0.557   1.968
 1600SOL    HW2 5700   4.001   0.417   1.938
 1601SOL     OW 5701   6.259   0.893   4.829
 1601SOL    HW1 5702   6.251   0.815   4.891
 1601SOL    HW2 5703   6.355   0.919   4.819
 1602SOL     OW 5704   4.106   6.061   4.110
 1602SOL    HW1 5705   4.056   6.086   4.194
 1602SOL    HW2 5706   4.175   6.130   4.090
 1603SOL     OW 5707   2.911   4.740   2.956
 1603SOL    HW1 5708   2.843   4.740   2.882
 1603SOL    HW2 5709   2.903   4.655   3.008
 1604SOL     OW 5710   4.421   5.224   2.555
 1604SOL    HW1 5711   4.384   5.316   2.569
 1604SOL    HW2 5712   4.521   5.229   2.556
 1605SOL     OW 5713   4.911   4.848   0.777
 1605SOL    HW1 5714   4.914   4.884   0.684
 1605SOL    HW2 5715   4.985   4.887   0.831
 1606SOL     OW 5716   3.095   6.093   4.424
 1606SOL    HW1 5717   3.187   6.100   4.464
 1606SOL    HW2 5718   3.085   6.003   4.381
 1607SOL     OW 5719   4.413   5.204   3.528
 1607SOL    HW1 5720   4.480   5.230   3.598
 1607SOL    HW2 5721   4.442   5.240   3.439
 1608SOL     OW 5722   5.319   1.949   3.619
 1608SOL    HW1 5723   5.262   1.884   3.670
 1608SOL    HW2 5724   5.347   1.907   3.533
 1609SOL     OW 5725   2.535   6.900   1.354
 1609SOL    HW1 5726   2.534   6.809   1.394
 1609SOL    HW2 5727   2.612   6.952   1.390
 1610SOL     OW 5728   5.391   0.167   1.160
 1610SOL    HW1 5729   5.389   0.206   1.067
 1610SOL    HW2 5730   5.396   0.067   1.153
 1611SOL     OW 5731   1.397   4.480   0.307
 1611SOL    HW1 5732   1.333   4.491   0.384
 1611SOL    HW2 5733   1.467   4.552   0.311
 1612SOL     OW 5734   4.760   0.409   2.433
 1612SOL    HW1 5735   4.720   0.449   2.350
 1612SOL    HW2 5736   4.860   0.415   2.428
 1613SOL     OW 5737   6.421   5.512   2.251
 1613SOL    HW1 5738   6.430   5.606   2.285
 1613SOL    HW2 5739   6.438   5.448   2.326
 1614SOL     OW 5740   6.410   1.590   6.113
 1614SOL    HW1 5741   6.363   1.630   6.192
 1614SOL    HW2 5742   6.463   1.511   6.142
 1615SOL     OW 5743   0.198   3.863   6.099
 1615SOL    HW1 5744   0.223   3.868   6.003
 1615SOL    HW2 5745   0.122   3.798   6.111
 1616SOL     OW 5746   0.859   0.498   3.769
 1616SOL    HW1 5747   0.792   0.571   3.780
 1616SOL    HW2 5748   0.844   0.428   3.838
 1617SOL     OW 5749   6.128   6.030   3.511
 1617SOL    HW1 5750   6.161   6.018   3.417
 1617SOL    HW2 5751   6.204   6.016   3.575
 1618SOL     OW 5752   3.440   5.575   3.273
 1618SOL    HW1 5753   3.378   5.640   3.229
 1618SOL    HW2 5754   3.475   5.614   3.359
 1619SOL     OW 5755   0.873   4.323   0.114
 1619SOL    HW1 5756   0.972   4.334   0.123
 1619SOL    HW2 5757   0.827   4.405   0.147
 1620SOL     OW 5758   3.555   5.763   4.430
 1620SOL    HW1 5759   3.644   5.804   4.410
 1620SOL    HW2 5760   3.569   5.678   4.481
 1621SOL     OW 5761   4.883   5.639   0.599
 1621SOL    HW1 5762   4.936   5.556   0.616
 1621SOL    HW2 5763   4.799   5.616   0.550
 1622SOL     OW 5764   6.563   4.353   4.714
 1622SOL    HW1 5765   6.651   4.378   4.676
 1622SOL    HW2 5766   6.492   4.412   4.677
 1623SOL     OW 5767   0.146   1.579   3.112
 1623SOL    HW1 5768   0.070   1.621   3.161
 1623SOL    HW2 5769   0.227   1.638   3.117
 1624SOL     OW 5770   3.941   3.099   0.568
 1624SOL    HW1 5771   3.866   3.039   0.592
 1624SOL    HW2 5772   3.970   3.081   0.474
 1625SOL     OW 5773   0.641   6.911   1.178
 1625SOL    HW1 5774   0.680   6.950   1.095
 1625SOL    HW2 5775   0.577   6.839   1.154
 1626SOL     OW 5776   2.749   1.759   1.813
 1626SOL    HW1 5777   2.687   1.836   1.829
 1626SOL    HW2 5778   2.830   1.791   1.764
 1627SOL     OW 5779   3.703   1.931   5.725
 1627SOL    HW1 5780   3.624   1.978   5.765
 1627SOL    HW2 5781   3.773   1.918   5.796
 1628SOL     OW 5782   5.578   6.757   1.299
 1628SOL    HW1 5783   5.573   6.661   1.326
 1628SOL    HW2 5784   5.645   6.768   1.226
 1629SOL     OW 5785   1.784   0.132   3.500
 1629SOL    HW1 5786   1.867   0.076   3.501
 1629SOL    HW2 5787   1.713   0.083   3.449
 1630SOL     OW 5788   0.723   3.577   6.353
 1630SOL    HW1 5789   0.764   3.598   6.442
 1630SOL    HW2 5790   0.658   3.649   6.328
 1631SOL     OW 5791   6.575   3.662   0.219
 1631SOL    HW1 5792   6.508   3.595   0.186
 1631SOL    HW2 5793   6.536   3.754   0.215
 1632SOL     OW 5794   6.784   5.796   2.489
 1632SOL    HW1 5795   6.725   5.763   2.416
 1632SOL    HW2 5796   6.799   5.895   2.478
 1633SOL     OW 5797   5.309   3.843   5.191
 1633SOL    HW1 5798   5.352   3.835   5.281
 1633SOL    HW2 5799   5.370   3.892   5.129
 1634SOL     OW 5800   6.716   1.717   5.301
 1634SOL    HW1 5801   6.633   1.771   5.293
 1634SOL    HW2 5802   6.782   1.747   5.232
 1635SOL     OW 5803   3.362   6.388   3.340
 1635SOL    HW1 5804   3.447   6.348   3.308
 1635SOL    HW2 5805   3.285   6.331   3.311
 1636SOL     OW 5806   6.151   6.332   1.215
 1636SOL    HW1 5807   6.076   6.379   1.169
 1636SOL    HW2 5808   6.119   6.296   1.302
 1637SOL     OW 5809   0.989   0.892   3.124
 1637SOL    HW1 5810   0.962   0.873   3.029
 1637SOL    HW2 5811   1.083   0.926   3.125
 1638SOL     OW 5812   5.988   2.700   2.119
 1638SOL    HW1 5813   6.018   2.795   2.111
 1638SOL    HW2 5814   5.892   2.698   2.149
 1639SOL     OW 5815   5.120   2.634   2.223
 1639SOL    HW1 5816   5.106   2.730   2.246
 1639SOL    HW2 5817   5.097   2.577   2.301
 1640SOL     OW 5818   6.067   0.059   6.628
 1640SOL    HW1 5819   6.005   0.060   6.706
 1640SOL    HW2 5820   6.047   0.136   6.567
 1641SOL     OW 5821   6.167   2.238   2.951
 1641SOL    HW1 5822   6.145   2.289   3.034
 1641SOL    HW2 5823   6.226   2.160   2.974
 1642SOL     OW 5824   6.999   3.116   6.687
 1642SOL    HW1 5825   6.994   3.199   6.743
 1642SOL    HW2 5826   0.051   3.127   6.616
 1643SOL     OW 5827   2.398   5.635   3.734
 1643SOL    HW1 5828   2.440   5.667   3.649
 1643SOL    HW2 5829   2.450   5.669   3.812
 1644SOL     OW 5830   6.164   2.436   1.835
 1644SOL    HW1 5831   6.172   2.412   1.931
 1644SOL    HW2 5832   6.171   2.353   1.779
 1645SOL     OW 5833   2.366   0.423   5.704
 1645SOL    HW1 5834   2.396   0.503   5.652
 1645SOL    HW2 5835   2.271   0.436   5.733
 1646SOL     OW 5836   1.288   4.626   0.529
 1646SOL    HW1 5837   1.223   4.635   0.604
 1646SOL    HW2 5838   1.319   4.716   0.500
 1647SOL     OW 5839   5.229   3.131   4.320
 1647SOL    HW1 5840   5.302   3.068   4.294
 1647SOL    HW2 5841   5.141   3.085   4.310
 1648SOL     OW 5842   5.467   6.237   1.550
 1648SOL    HW1 5843   5.525   6.157   1.533
 1648SOL    HW2 5844   5.381   6.228   1.500
 1649SOL     OW 5845   3.580   1.478   3.115
 1649SOL    HW1 5846   3.679   1.463   3.119
 1649SOL    HW2 5847   3.534   1.408   3.170
 1650SOL     OW 5848   3.024   4.140   6.064
 1650SOL    HW1 5849   3.029   4.139   5.964
 1650SOL    HW2 5850   2.932   4.167   6.092
 1651SOL     OW 5851   0.807   2.745   4.017
 1651SOL    HW1 5852   0.797   2.840   4.047
 1651SOL    HW2 5853   0.795   2.684   4.096
 1652SOL     OW 5854   0.677   3.144   1.649
 1652SOL    HW1 5855   0.643   3.182   1.735
 1652SOL    HW2 5856   0.705   3.219   1.589
 1653SOL     OW 5857   0.224   4.925   2.598
 1653SOL    HW1 5858   0.161   4.997   2.625
 1653SOL    HW2 5859   0.195   4.886   2.511
 1654SOL     OW 5860   0.388   3.255   2.356
 1654SOL    HW1 5861   0.348   3.167   2.330
 1654SOL    HW2 5862   0.403   3.257   2.455
 1655SOL     OW 5863   6.923   0.437   5.056
 1655SOL    HW1 5864   6.878   0.420   5.143
 1655SOL    HW2 5865   6.976   0.356   5.030
 1656SOL     OW 5866   1.870   4.226   3.009
 1656SOL    HW1 5867   1.909   4.134   3.007
 1656SOL    HW2 5868   1.869   4.259   3.103
 1657SOL     OW 5869   0.296   6.642   5.852
 1657SOL    HW1 5870   0.308   6.639   5.951
 1657SOL    HW2 5871   0.366   6.585   5.809
 1658SOL     OW 5872   5.381   6.450   6.326
 1658SOL    HW1 5873   5.357   6.470   6.231
 1658SOL    HW2 5874   5.431   6.528   6.365
 1659SOL     OW 5875   4.175   6.841   6.209
 1659SOL    HW1 5876   4.076   6.834   6.198
 1659SOL    HW2 5877   4.217   6.751   6.200
 1660SOL     OW 5878   2.303   0.923   1.861
 1660SOL    HW1 5879   2.351   0.881   1.938
 1660SOL    HW2 5880   2.329   0.876   1.776
 1661SOL     OW 5881   4.874   4.174   2.771
 1661SOL    HW1 5882   4.813   4.208   2.699
 1661SOL    HW2 5883   4.819   4.149   2.851
 1662SOL     OW 5884   0.796   2.123   3.845
 1662SOL    HW1 5885   0.829   2.028   3.846
 1662SOL    HW2 5886   0.871   2.184   3.819
 1663SOL     OW 5887   5.353   4.707   0.587
 1663SOL    HW1 5888   5.313   4.785   0.635
 1663SOL    HW2 5889   5.438   4.735   0.543
 1664SOL     OW 5890   0.772   0.356   6.321
 1664SOL    HW1 5891   0.773   0.364   6.421
 1664SOL    HW2 5892   0.723   0.273   6.295
 1665SOL     OW 5893   2.862   4.187   0.078
 1665SOL    HW1 5894   2.918   4.269   0.064
 1665SOL    HW2 5895   2.816   4.193   0.166
 1666SOL     OW 5896   5.115   6.551   5.896
 1666SOL    HW1 5897   5.016   6.561   5.903
 1666SOL    HW2 5898   5.153   6.632   5.851
 1667SOL     OW 5899   0.034   6.395   1.270
 1667SOL    HW1 5900   0.013   6.444   1.354
 1667SOL    HW2 5901   6.980   6.328   1.251
 1668SOL     OW 5902   5.909   3.788   2.265
 1668SOL    HW1 5903   5.876   3.856   2.200
 1668SOL    HW2 5904   5.894   3.822   2.358
 1669SOL     OW 5905   6.805   3.599   5.347
 1669SOL    HW1 5906   6.892   3.622   5.393
 1669SOL    HW2 5907   6.729   3.627   5.406
 1670SOL     OW 5908   2.510   4.760   5.746
 1670SOL    HW1 5909   2.598   4.795   5.778
 1670SOL    HW2 5910   2.441   4.775   5.816
 1671SOL     OW 5911   6.282   2.300   0.877
 1671SOL    HW1 5912   6.281   2.359   0.958
 1671SOL    HW2 5913   6.369   2.311   0.829
 1672SOL     OW 5914   0.718   2.689   0.943
 1672SOL    HW1 5915   0.618   2.691   0.948
 1672SOL    HW2 5916   0.747   2.705   0.848
 1673SOL     OW 5917   1.671   0.177   4.382
 1673SOL    HW1 5918   1.696   0.204   4.475
 1673SOL    HW2 5919   1.597   0.236   4.349
 1674SOL     OW 5920   4.669   1.895   2.781
 1674SOL    HW1 5921   4.676   1.995   2.774
 1674SOL    HW2 5922   4.620   1.872   2.866
 1675SOL     OW 5923   4.998   0.553   1.585
 1675SOL    HW1 5924   4.928   0.540   1.655
 1675SOL    HW2 5925   5.002   0.472   1.526
 1676SOL     OW 5926   1.161   2.482   2.875
 1676SOL    HW1 5927   1.088   2.482   2.807
 1676SOL    HW2 5928   1.145   2.554   2.942
 1677SOL     OW 5929   3.333   2.877   3.390
 1677SOL    HW1 5930   3.403   2.831   3.335
 1677SOL    HW2 5931   3.289   2.948   3.335
 1678SOL     OW 5932   1.354   0.474   0.761
 1678SOL    HW1 5933   1.442   0.484   0.714
 1678SOL    HW2 5934   1.321   0.380   0.748
 1679SOL     OW 5935   0.227   1.985   6.877
 1679SOL    HW1 5936   0.323   1.956   6.884
 1679SOL    HW2 5937   0.199   2.027   6.963
 1680SOL     OW 5938   5.587   2.639   3.310
 1680SOL    HW1 5939   5.492   2.609   3.298
 1680SOL    HW2 5940   5.641   2.564   3.348
 1681SOL     OW 5941   2.810   6.453   4.586
 1681SOL    HW1 5942   2.905   6.476   4.606
 1681SOL    HW2 5943   2.759   6.537   4.566
 1682SOL     OW 5944   3.772   0.493   4.010
 1682SOL    HW1 5945   3.832   0.556   3.962
 1682SOL    HW2 5946   3.692   0.472   3.953
 1683SOL     OW 5947   6.287   3.821   3.016
 1683SOL    HW1 5948   6.355   3.748   3.029
 1683SOL    HW2 5949   6.208   3.804   3.075
 1684SOL     OW 5950   2.331   5.037   2.019
 1684SOL    HW1 5951   2.408   5.076   1.969
 1684SOL    HW2 5952   2.308   4.948   1.980
 1685SOL     OW 5953   0.069   1.024   5.555
 1685SOL    HW1 5954   0.026   0.935   5.572
 1685SOL    HW2 5955   0.154   1.010   5.505
 1686SOL     OW 5956   4.702   5.211   2.560
 1686SOL    HW1 5957   4.706   5.144   2.634
 1686SOL    HW2 5958   4.714   5.165   2.473
 1687SOL     OW 5959   5.075   4.550   1.090
 1687SOL    HW1 5960   5.061   4.451   1.091
 1687SOL    HW2 5961   4.987   4.597   1.086
 1688SOL     OW 5962   1.172   0.858   2.514
 1688SOL    HW1 5963   1.220   0.946   2.506
 1688SOL    HW2 5964   1.126   0.837   2.428
 1689SOL     OW 5965   4.394   0.611   1.592
 1689SOL    HW1 5966   4.340   0.685   1.550
 1689SOL    HW2 5967   4.455   0.571   1.524
 1690SOL     OW 5968   0.150   5.353   3.475
 1690SOL    HW1 5969   0.137   5.304   3.561
 1690SOL    HW2 5970   0.123   5.295   3.399
 1691SOL     OW 5971   4.374   2.658   5.327
 1691SOL    HW1 5972   4.350   2.719   5.403
 1691SOL    HW2 5973   4.290   2.625   5.283
 1692SOL     OW 5974   5.007   4.642   1.497
 1692SOL    HW1 5975   4.925   4.698   1.484
 1692SOL    HW2 5976   5.084   4.701   1.523
 1693SOL     OW 5977   5.814   6.738   5.753
 1693SOL    HW1 5978   5.852   6.819   5.797
 1693SOL    HW2 5979   5.830   6.658   5.811
 1694SOL     OW 5980   4.671   1.779   6.293
 1694SOL    HW1 5981   4.699   1.808   6.201
 1694SOL    HW2 5982   4.647   1.859   6.348
 1695SOL     OW 5983   3.289   0.557   6.667
 1695SOL    HW1 5984   3.300   0.467   6.626
 1695SOL    HW2 5985   3.232   0.550   6.749
 1696SOL     OW 5986   5.036   6.181   0.658
 1696SOL    HW1 5987   5.079   6.093   0.678
 1696SOL    HW2 5988   5.103   6.255   0.669
 1697SOL     OW 5989   4.860   2.846   2.123
 1697SOL    HW1 5990   4.894   2.762   2.082
 1697SOL    HW2 5991   4.841   2.913   2.051
 1698SOL     OW 5992   4.482   1.024   1.477
 1698SOL    HW1 5993   4.412   1.058   1.539
 1698SOL    HW2 5994   4.563   1.083   1.482
 1699SOL     OW 5995   2.219   0.202   0.092
 1699SOL    HW1 5996   2.172   0.194   0.004
 1699SOL    HW2 5997   2.254   0.112   0.119
 1700SOL     OW 5998   5.238   2.702   2.902
 1700SOL    HW1 5999   5.194   2.617   2.874
 1700SOL    HW2 6000   5.306   2.728   2.833
 1701SOL     OW 6001   7.008   6.278   5.441
 1701SOL    HW1 6002   6.971   6.197   5.486
 1701SOL    HW2 6003   6.934   6.329   5.398
 1702SOL     OW 6004   2.605   2.281   7.007
 1702SOL    HW1 6005   2.635   2.363   0.038
 1702SOL    HW2 6006   2.512   2.294   6.973
 1703SOL     OW 6007   1.356   1.791   1.818
 1703SOL    HW1 6008   1.321   1.697   1.821
 1703SOL    HW2 6009   1.330   1.839   1.901
 1704SOL     OW 6010   3.534   2.297   0.691
 1704SOL    HW1 6011   3.463   2.345   0.639
 1704SOL    HW2 6012   3.493   2.231   0.753
 1705SOL     OW 6013   4.555   2.773   0.770
 1705SOL    HW1 6014   4.606   2.832   0.707
 1705SOL    HW2 6015   4.593   2.681   0.767
 1706SOL     OW 6016   5.708   2.670   6.425
 1706SOL    HW1 6017   5.716   2.595   6.360
 1706SOL    HW2 6018   5.793   2.724   6.424
 1707SOL     OW 6019   4.561   1.735   2.196
 1707SOL    HW1 6020   4.577   1.703   2.103
 1707SOL    HW2 6021   4.532   1.659   2.253
 1708SOL     OW 6022   3.236   4.876   2.371
 1708SOL    HW1 6023   3.175   4.879   2.292
 1708SOL    HW2 6024   3.330   4.858   2.341
 1709SOL     OW 6025   5.005   5.476   0.807
 1709SOL    HW1 6026   4.975   5.516   0.894
 1709SOL    HW2 6027   5.100   5.447   0.815
 1710SOL     OW 6028   4.900   4.601   2.762
 1710SOL    HW1 6029   4.977   4.602   2.826
 1710SOL    HW2 6030   4.815   4.619   2.812
 1711SOL     OW 6031   3.925   4.567   6.805
 1711SOL    HW1 6032   3.970   4.636   6.862
 1711SOL    HW2 6033   3.826   4.577   6.812
 1712SOL     OW 6034   0.888   1.699   1.833
 1712SOL    HW1 6035   0.855   1.622   1.780
 1712SOL    HW2 6036   0.955   1.751   1.780
 1713SOL     OW 6037   3.750   1.185   3.026
 1713SOL    HW1 6038   3.816   1.117   3.057
 1713SOL    HW2 6039   3.658   1.147   3.030
 1714SOL     OW 6040   3.134   3.723   0.648
 1714SOL    HW1 6041   3.204   3.652   0.659
 1714SOL    HW2 6042   3.165   3.808   0.690
 1715SOL     OW 6043   2.464   6.591   2.096
 1715SOL    HW1 6044   2.389   6.657   2.101
 1715SOL    HW2 6045   2.465   6.535   2.179
 1716SOL     OW 6046   4.219   1.176   3.179
 1716SOL    HW1 6047   4.226   1.082   3.146
 1716SOL    HW2 6048   4.300   1.199   3.233
 1717SOL     OW 6049   3.150   6.018   4.784
 1717SOL    HW1 6050   3.216   5.972   4.725
 1717SOL    HW2 6051   3.085   6.070   4.729
 1718SOL     OW 6052   1.544   3.001   1.512
 1718SOL    HW1 6053   1.574   2.982   1.418
 1718SOL    HW2 6054   1.611   2.963   1.576
 1719SOL     OW 6055   0.817   5.548   2.611
 1719SOL    HW1 6056   0.898   5.526   2.556
 1719SOL    HW2 6057   0.844   5.610   2.685
 1720SOL     OW 6058   0.506   3.369   5.368
 1720SOL    HW1 6059   0.454   3.285   5.355
 1720SOL    HW2 6060   0.594   3.360   5.322
 1721SOL     OW 6061   1.905   2.778   0.212
 1721SOL    HW1 6062   1.904   2.821   0.302
 1721SOL    HW2 6063   1.848   2.696   0.214
 1722SOL     OW 6064   2.631   2.305   4.287
 1722SOL    HW1 6065   2.718   2.268   4.319
 1722SOL    HW2 6066   2.591   2.365   4.356
 1723SOL     OW 6067   5.856   4.436   1.147
 1723SOL    HW1 6068   5.876   4.373   1.223
 1723SOL    HW2 6069   5.890   4.397   1.062
 1724SOL     OW 6070   5.584   2.846   0.999
 1724SOL    HW1 6071   5.649   2.802   0.938
 1724SOL    HW2 6072   5.617   2.937   1.024
 1725SOL     OW 6073   1.784   6.189   6.044
 1725SOL    HW1 6074   1.741   6.248   6.112
 1725SOL    HW2 6075   1.747   6.096   6.052
 1726SOL     OW 6076   5.217   3.986   2.983
 1726SOL    HW1 6077   5.191   3.902   2.935
 1726SOL    HW2 6078   5.150   4.058   2.964
 1727SOL     OW 6079   3.259   4.082   3.153
 1727SOL    HW1 6080   3.288   4.155   3.091
 1727SOL    HW2 6081   3.306   4.093   3.241
 1728SOL     OW 6082   5.480   2.728   4.174
 1728SOL    HW1 6083   5.508   2.808   4.227
 1728SOL    HW2 6084   5.400   2.685   4.216
 1729SOL     OW 6085   1.360   3.128   3.164
 1729SOL    HW1 6086   1.409   3.045   3.136
 1729SOL    HW2 6087   1.377   3.201   3.098
 1730SOL     OW 6088   1.935   5.637   4.314
 1730SOL    HW1 6089   1.984   5.551   4.327
 1730SOL    HW2 6090   1.901   5.670   4.402
 1731SOL     OW 6091   5.827   5.231   3.792
 1731SOL    HW1 6092   5.794   5.220   3.886
 1731SOL    HW2 6093   5.774   5.172   3.731
 1732SOL     OW 6094   2.556   3.532   5.508
 1732SOL    HW1 6095   2.481   3.514   5.445
 1732SOL    HW2 6096   2.545   3.623   5.548
 1733SOL     OW 6097   1.949   3.038   5.704
 1733SOL    HW1 6098   1.993   3.006   5.620
 1733SOL    HW2 6099   1.958   3.138   5.711
 1734SOL     OW 6100   6.495   3.104   0.971
 1734SOL    HW1 6101   6.427   3.134   0.904
 1734SOL    HW2 6102   6.587   3.117   0.934
 1735SOL     OW 6103   3.617   5.279   6.687
 1735SOL    HW1 6104   3.636   5.376   6.668
 1735SOL    HW2 6105   3.594   5.232   6.602
 1736SOL     OW 6106   4.881   2.178   6.912
 1736SOL    HW1 6107   4.857   2.258   6.856
 1736SOL    HW2 6108   4.804   2.114   6.914
 1737SOL     OW 6109   3.842   1.267   5.672
 1737SOL    HW1 6110   3.747   1.235   5.672
 1737SOL    HW2 6111   3.899   1.198   5.717
 1738SOL     OW 6112   1.873   2.904   3.670
 1738SOL    HW1 6113   1.830   2.871   3.586
 1738SOL    HW2 6114   1.868   3.004   3.673
 1739SOL     OW 6115   5.498   0.224   3.199
 1739SOL    HW1 6116   5.503   0.314   3.156
 1739SOL    HW2 6117   5.540   0.156   3.138
 1740SOL     OW 6118   5.934   3.142   4.698
 1740SOL    HW1 6119   5.938   3.241   4.711
 1740SOL    HW2 6120   5.887   3.100   4.776
 1741SOL     OW 6121   0.195   1.954   4.921
 1741SOL    HW1 6122   0.165   1.860   4.935
 1741SOL    HW2 6123   0.278   1.955   4.864
 1742SOL     OW 6124   6.440   6.663   6.735
 1742SOL    HW1 6125   6.465   6.717   6.815
 1742SOL    HW2 6126   6.518   6.607   6.707
 1743SOL     OW 6127   1.303   1.801   2.121
 1743SOL    HW1 6128   1.225   1.799   2.184
 1743SOL    HW2 6129   1.386   1.772   2.170
 1744SOL     OW 6130   3.615   1.988   5.267
 1744SOL    HW1 6131   3.526   2.013   5.228
 1744SOL    HW2 6132   3.684   2.054   5.238
 1745SOL     OW 6133   5.865   6.816   1.392
 1745SOL    HW1 6134   5.806   6.745   1.433
 1745SOL    HW2 6135   5.895   6.786   1.302
 1746SOL     OW 6136   2.687   4.730   3.215
 1746SOL    HW1 6137   2.711   4.698   3.123
 1746SOL    HW2 6138   2.664   4.651   3.273
 1747SOL     OW 6139   4.000   0.173   2.707
 1747SOL    HW1 6140   4.084   0.126   2.681
 1747SOL    HW2 6141   3.936   0.172   2.629
 1748SOL     OW 6142   0.158   2.598   4.852
 1748SOL    HW1 6143   0.086   2.625   4.916
 1748SOL    HW2 6144   0.131   2.621   4.759
 1749SOL     OW 6145   0.218   5.166   1.577
 1749SOL    HW1 6146   0.142   5.150   1.513
 1749SOL    HW2 6147   0.295   5.108   1.551
 1750SOL     OW 6148   3.210   0.402   0.113
 1750SOL    HW1 6149   3.251   0.462   0.182
 1750SOL    HW2 6150   3.148   0.455   0.055
 1751SOL     OW 6151   5.802   2.985   4.869
 1751SOL    HW1 6152   5.770   3.057   4.930
 1751SOL    HW2 6153   5.759   2.898   4.895
 1752SOL     OW 6154   7.007   1.067   2.338
 1752SOL    HW1 6155   7.015   0.997   2.266
 1752SOL    HW2 6156   6.933   1.042   2.400
 1753SOL     OW 6157   5.862   1.571   1.614
 1753SOL    HW1 6158   5.805   1.630   1.671
 1753SOL    HW2 6159   5.866   1.607   1.521
 1754SOL     OW 6160   3.129   5.602   3.404
 1754SOL    HW1 6161   3.089   5.620   3.494
 1754SOL    HW2 6162   3.149   5.505   3.395
 1755SOL     OW 6163   6.421   6.667   5.238
 1755SOL    HW1 6164   6.488   6.733   5.205
 1755SOL    HW2 6165   6.418   6.669   5.338
 1756SOL     OW 6166   4.743   6.001   0.379
 1756SOL    HW1 6167   4.671   5.937   0.403
 1756SOL    HW2 6168   4.794   5.967   0.300
 1757SOL     OW 6169   2.612   4.779   5.168
 1757SOL    HW1 6170   2.689   4.726   5.134
 1757SOL    HW2 6171   2.571   4.732   5.246
 1758SOL     OW 6172   1.328   5.889   3.955
 1758SOL    HW1 6173   1.338   5.795   3.921
 1758SOL    HW2 6174   1.417   5.933   3.959
 1759SOL     OW 6175   0.978   6.155   6.952
 1759SOL    HW1 6176   0.881   6.179   6.944
 1759SOL    HW2 6177   1.015   6.136   6.862
 1760SOL     OW 6178   6.888   1.366   4.663
 1760SOL    HW1 6179   6.963   1.346   4.726
 1760SOL    HW2 6180   6.913   1.444   4.605
 1761SOL     OW 6181   5.453   1.048   2.854
 1761SOL    HW1 6182   5.451   1.128   2.914
 1761SOL    HW2 6183   5.381   1.056   2.785
 1762SOL     OW 6184   0.736   1.473   5.703
 1762SOL    HW1 6185   0.768   1.529   5.779
 1762SOL    HW2 6186   0.728   1.529   5.620
 1763SOL     OW 6187   1.305   4.736   3.713
 1763SOL    HW1 6188   1.355   4.732   3.626
 1763SOL    HW2 6189   1.369   4.755   3.787
 1764SOL     OW 6190   1.523   5.867   3.265
 1764SOL    HW1 6191   1.493   5.948   3.216
 1764SOL    HW2 6192   1.446   5.828   3.316
 1765SOL     OW 6193   5.575   3.806   2.115
 1765SOL    HW1 6194   5.620   3.717   2.126
 1765SOL    HW2 6195   5.572   3.830   2.018
 1766SOL     OW 6196   4.179   4.789   3.809
 1766SOL    HW1 6197   4.195   4.765   3.713
 1766SOL    HW2 6198   4.099   4.849   3.816
 1767SOL     OW 6199   0.519   5.027   2.356
 1767SOL    HW1 6200   0.592   5.094   2.368
 1767SOL    HW2 6201   0.508   4.974   2.439
 1768SOL     OW 6202   5.535   4.893   2.009
 1768SOL    HW1 6203   5.582   4.839   2.079
 1768SOL    HW2 6204   5.539   4.845   1.922
 1769SOL     OW 6205   5.351   0.307   0.913
 1769SOL    HW1 6206   5.430   0.250   0.889
 1769SOL    HW2 6207   5.383   0.397   0.943
 1770SOL     OW 6208   1.768   5.066   0.297
 1770SOL    HW1 6209   1.836   5.030   0.360
 1770SOL    HW2 6210   1.810   5.134   0.237
 1771SOL     OW 6211   2.051   3.085   5.950
 1771SOL    HW1 6212   2.086   3.175   5.926
 1771SOL    HW2 6213   2.018   3.039   5.868
 1772SOL     OW 6214   2.168   4.035   2.323
 1772SOL    HW1 6215   2.155   3.936   2.313
 1772SOL    HW2 6216   2.259   4.060   2.290
 1773SOL     OW 6217   2.084   6.119   6.251
 1773SOL    HW1 6218   2.181   6.120   6.224
 1773SOL    HW2 6219   2.038   6.041   6.208
 1774SOL     OW 6220   5.556   5.831   1.088
 1774SOL    HW1 6221   5.631   5.857   1.027
 1774SOL    HW2 6222   5.512   5.914   1.123
 1775SOL     OW 6223   1.941   5.405   1.018
 1775SOL    HW1 6224   2.020   5.347   1.040
 1775SOL    HW2 6225   1.858   5.350   1.024
 1776SOL     OW 6226   4.585   2.833   5.898
 1776SOL    HW1 6227   4.544   2.902   5.958
 1776SOL    HW2 6228   4.576   2.861   5.803
 1777SOL     OW 6229   4.533   6.242   0.383
 1777SOL    HW1 6230   4.555   6.170   0.317
 1777SOL    HW2 6231   4.611   6.255   0.445
 1778SOL     OW 6232   6.319   0.200   4.524
 1778SOL    HW1 6233   6.295   0.124   4.464
 1778SOL    HW2 6234   6.331   0.284   4.470
 1779SOL     OW 6235   5.717   0.485   4.124
 1779SOL    HW1 6236   5.800   0.434   4.147
 1779SOL    HW2 6237   5.646   0.466   4.191
 1780SOL     OW 6238   2.254   5.450   5.492
 1780SOL    HW1 6239   2.329   5.405   5.443
 1780SOL    HW2 6240   2.289   5.529   5.542
 1781SOL     OW 6241   4.397   0.403   5.585
 1781SOL    HW1 6242   4.406   0.491   5.632
 1781SOL    HW2 6243   4.332   0.413   5.509
 1782SOL     OW 6244   5.532   1.761   2.437
 1782SOL    HW1 6245   5.554   1.842   2.491
 1782SOL    HW2 6246   5.598   1.689   2.457
 1783SOL     OW 6247   1.849   4.031   7.001
 1783SOL    HW1 6248   1.806   3.994   0.065
 1783SOL    HW2 6249   1.804   4.117   6.975
 1784SOL     OW 6250   2.858   0.186   2.039
 1784SOL    HW1 6251   2.948   0.206   2.000
 1784SOL    HW2 6252   2.819   0.269   2.078
 1785SOL     OW 6253   1.419   6.446   4.840
 1785SOL    HW1 6254   1.367   6.404   4.914
 1785SOL    HW2 6255   1.379   6.535   4.818
 1786SOL     OW 6256   0.983   6.537   1.405
 1786SOL    HW1 6257   0.971   6.625   1.357
 1786SOL    HW2 6258   1.078   6.507   1.395
 1787SOL     OW 6259   2.070   2.953   5.489
 1787SOL    HW1 6260   2.149   2.978   5.434
 1787SOL    HW2 6261   2.001   2.909   5.431
 1788SOL     OW 6262   4.490   3.354   0.783
 1788SOL    HW1 6263   4.500   3.297   0.701
 1788SOL    HW2 6264   4.404   3.330   0.829
 1789SOL     OW 6265   6.553   3.511   2.459
 1789SOL    HW1 6266   6.612   3.432   2.438
 1789SOL    HW2 6267   6.464   3.498   2.416
 1790SOL     OW 6268   1.535   2.033   4.877
 1790SOL    HW1 6269   1.475   2.051   4.955
 1790SOL    HW2 6270   1.625   2.004   4.910
 1791SOL     OW 6271   5.007   0.434   3.987
 1791SOL    HW1 6272   5.043   0.508   3.931
 1791SOL    HW2 6273   4.917   0.459   4.022
 1792SOL     OW 6274   0.630   2.032   6.814
 1792SOL    HW1 6275   0.653   2.106   6.752
 1792SOL    HW2 6276   0.582   1.960   6.763
 1793SOL     OW 6277   6.564   0.875   5.562
 1793SOL    HW1 6278   6.662   0.854   5.564
 1793SOL    HW2 6279   6.543   0.924   5.478
 1794SOL     OW 6280   0.497   0.817   6.536
 1794SOL    HW1 6281   0.553   0.899   6.550
 1794SOL    HW2 6282   0.401   0.839   6.553
 1795SOL     OW 6283   5.301   4.690   0.937
 1795SOL    HW1 6284   5.327   4.601   0.976
 1795SOL    HW2 6285   5.223   4.727   0.988
 1796SOL     OW 6286   6.866   0.044   0.663
 1796SOL    HW1 6287   6.778   0.013   0.628
 1796SOL    HW2 6288   6.915   6.984   0.704
 1797SOL     OW 6289   2.549   5.453   5.719
 1797SOL    HW1 6290   2.631   5.432   5.772
 1797SOL    HW2 6291   2.501   5.368   5.698
 1798SOL     OW 6292   2.140   3.940   5.220
 1798SOL    HW1 6293   2.157   3.844   5.202
 1798SOL    HW2 6294   2.218   3.995   5.189
 1799SOL     OW 6295   3.042   1.290   1.486
 1799SOL    HW1 6296   3.102   1.357   1.527
 1799SOL    HW2 6297   3.070   1.273   1.391
 1800SOL     OW 6298   6.122   2.859   5.479
 1800SOL    HW1 6299   6.204   2.915   5.476
 1800SOL    HW2 6300   6.147   2.762   5.469
 1801SOL     OW 6301   0.465   0.403   3.193
 1801SOL    HW1 6302   0.528   0.466   3.238
 1801SOL    HW2 6303   0.468   0.314   3.239
 1802SOL     OW 6304   6.457   5.071   4.160
 1802SOL    HW1 6305   6.441   5.059   4.258
 1802SOL    HW2 6306   6.394   5.012   4.108
 1803SOL     OW 6307   0.121   0.351   3.591
 1803SOL    HW1 6308   0.185   0.294   3.642
 1803SOL    HW2 6309   0.170   0.401   3.520
 1804SOL     OW 6310   1.974   2.683   6.158
 1804SOL    HW1 6311   1.884   2.645   6.141
 1804SOL    HW2 6312   1.977   2.779   6.127
 1805SOL     OW 6313   6.405   4.793   0.796
 1805SOL    HW1 6314   6.497   4.756   0.808
 1805SOL    HW2 6315   6.401   4.845   0.712
 1806SOL     OW 6316   6.957   1.204   0.838
 1806SOL    HW1 6317   7.001   1.236   0.922
 1806SOL    HW2 6318   6.981   1.265   0.763
 1807SOL     OW 6319   6.490   2.709   2.839
 1807SOL    HW1 6320   6.429   2.754   2.774
 1807SOL    HW2 6321   6.471   2.611   2.842
 1808SOL     OW 6322   5.466   1.431   6.212
 1808SOL    HW1 6323   5.483   1.440   6.310
 1808SOL    HW2 6324   5.498   1.513   6.165
 1809SOL     OW 6325   5.125   0.155   5.423
 1809SOL    HW1 6326   5.142   0.239   5.372
 1809SOL    HW2 6327   5.168   0.162   5.513
 1810SOL     OW 6328   1.284   0.514   3.853
 1810SOL    HW1 6329   1.211   0.581   3.857
 1810SOL    HW2 6330   1.248   0.426   3.820
 1811SOL     OW 6331   3.511   5.932   1.665
 1811SOL    HW1 6332   3.575   5.867   1.624
 1811SOL    HW2 6333   3.491   6.004   1.599
 1812SOL     OW 6334   4.404   6.146   6.637
 1812SOL    HW1 6335   4.337   6.206   6.592
 1812SOL    HW2 6336   4.476   6.201   6.678
 1813SOL     OW 6337   4.923   3.897   2.372
 1813SOL    HW1 6338   4.892   3.822   2.314
 1813SOL    HW2 6339   5.023   3.892   2.383
 1814SOL     OW 6340   6.456   6.145   0.265
 1814SOL    HW1 6341   6.434   6.048   0.277
 1814SOL    HW2 6342   6.540   6.167   0.314
 1815SOL     OW 6343   5.828   6.159   1.411
 1815SOL    HW1 6344   5.902   6.114   1.460
 1815SOL    HW2 6345   5.758   6.092   1.386
 1816SOL     OW 6346   4.287   4.749   5.448
 1816SOL    HW1 6347   4.336   4.712   5.527
 1816SOL    HW2 6348   4.299   4.848   5.445
 1817SOL     OW 6349   0.251   2.678   3.373
 1817SOL    HW1 6350   0.266   2.743   3.447
 1817SOL    HW2 6351   0.333   2.622   3.359
 1818SOL     OW 6352   2.708   1.297   0.650
 1818SOL    HW1 6353   2.635   1.241   0.612
 1818SOL    HW2 6354   2.767   1.329   0.576
 1819SOL     OW 6355   1.726   4.090   2.600
 1819SOL    HW1 6356   1.789   4.087   2.677
 1819SOL    HW2 6357   1.746   4.015   2.537
 1820SOL     OW 6358   3.140   0.213   4.395
 1820SOL    HW1 6359   3.145   0.113   4.404
 1820SOL    HW2 6360   3.223   0.247   4.349
 1821SOL     OW 6361   3.598   1.855   2.718
 1821SOL    HW1 6362   3.504   1.867   2.687
 1821SOL    HW2 6363   3.603   1.778   2.782
 1822SOL     OW 6364   0.739   3.873   3.068
 1822SOL    HW1 6365   0.691   3.880   3.156
 1822SOL    HW2 6366   0.700   3.799   3.014
 1823SOL     OW 6367   4.115   6.946   2.880
 1823SOL    HW1 6368   4.164   7.001   2.813
 1823SOL    HW2 6369   4.181   6.898   2.939
 1824SOL     OW 6370   4.397   3.104   1.699
 1824SOL    HW1 6371   4.433   3.030   1.643
 1824SOL    HW2 6372   4.446   3.108   1.786
 1825SOL     OW 6373   0.817   3.055   5.841
 1825SOL    HW1 6374   0.829   3.138   5.786
 1825SOL    HW2 6375   0.842   3.074   5.936
 1826SOL     OW 6376   3.466   2.303   1.249
 1826SOL    HW1 6377   3.543   2.366   1.247
 1826SOL    HW2 6378   3.499   2.210   1.233
 1827SOL     OW 6379   5.479   5.050   0.794
 1827SOL    HW1 6380   5.433   5.009   0.873
 1827SOL    HW2 6381   5.566   5.089   0.823
 1828SOL     OW 6382   1.400   4.032   4.999
 1828SOL    HW1 6383   1.484   4.069   5.039
 1828SOL    HW2 6384   1.342   3.993   5.071
 1829SOL     OW 6385   3.758   6.567   2.079
 1829SOL    HW1 6386   3.747   6.576   1.980
 1829SOL    HW2 6387   3.814   6.642   2.113
 1830SOL     OW 6388   4.494   1.109   6.136
 1830SOL    HW1 6389   4.554   1.164   6.194
 1830SOL    HW2 6390   4.502   1.140   6.041
 1831SOL     OW 6391   3.254   4.561   0.570
 1831SOL    HW1 6392   3.290   4.647   0.607
 1831SOL    HW2 6393   3.322   4.489   0.581
 1832SOL     OW 6394   2.513   3.228   6.427
 1832SOL    HW1 6395   2.508   3.321   6.392
 1832SOL    HW2 6396   2.601   3.215   6.475
 1833SOL     OW 6397   5.737   1.150   0.181
 1833SOL    HW1 6398   5.775   1.074   0.129
 1833SOL    HW2 6399   5.811   1.212   0.209
 1834SOL     OW 6400   0.836   3.385   5.946
 1834SOL    HW1 6401   0.875   3.355   6.033
 1834SOL    HW2 6402   0.737   3.374   5.948
 1835SOL     OW 6403   6.891   6.193   1.197
 1835SOL    HW1 6404   6.794   6.215   1.193
 1835SOL    HW2 6405   6.904   6.095   1.181
 1836SOL     OW 6406   5.080   1.976   2.635
 1836SOL    HW1 6407   5.173   1.984   2.672
 1836SOL    HW2 6408   5.085   1.947   2.539
 1837SOL     OW 6409   3.038   2.100   7.009
 1837SOL    HW1 6410   3.027   2.060   6.918
 1837SOL    HW2 6411   2.988   2.045   0.057
 1838SOL     OW 6412   4.866   1.146   1.379
 1838SOL    HW1 6413   4.965   1.153   1.392
 1838SOL    HW2 6414   4.847   1.115   1.286
 1839SOL     OW 6415   6.197   0.350   0.362
 1839SOL    HW1 6416   6.246   0.265   0.343
 1839SOL    HW2 6417   6.244   0.427   0.317
 1840SOL     OW 6418   4.264   6.315   4.496
 1840SOL    HW1 6419   4.181   6.306   4.553
 1840SOL    HW2 6420   4.298   6.225   4.471
 1841SOL     OW 6421   1.160   0.853   1.835
 1841SOL    HW1 6422   1.134   0.907   1.915
 1841SOL    HW2 6423   1.158   0.755   1.859
 1842SOL     OW 6424   0.699   5.106   1.425
 1842SOL    HW1 6425   0.682   5.184   1.484
 1842SOL    HW2 6426   0.719   5.025   1.481
 1843SOL     OW 6427   2.679   0.753   6.919
 1843SOL    HW1 6428   2.605   0.785   6.979
 1843SOL    HW2 6429   2.669   0.655   6.903
 1844SOL     OW 6430   5.506   2.859   6.345
 1844SOL    HW1 6431   5.565   2.801   6.401
 1844SOL    HW2 6432   5.508   2.952   6.381
 1845SOL     OW 6433   0.955   2.507   3.370
 1845SOL    HW1 6434   0.878   2.546   3.420
 1845SOL    HW2 6435   0.971   2.559   3.286
 1846SOL     OW 6436   2.618   1.594   1.611
 1846SOL    HW1 6437   2.678   1.649   1.670
 1846SOL    HW2 6438   2.629   1.497   1.634
 1847SOL     OW 6439   1.978   5.495   5.983
 1847SOL    HW1 6440   1.914   5.549   6.038
 1847SOL    HW2 6441   1.997   5.409   6.030
 1848SOL     OW 6442   3.704   6.869   3.392
 1848SOL    HW1 6443   3.646   6.882   3.473
 1848SOL    HW2 6444   3.740   6.776   3.392
 1849SOL     OW 6445   4.754   2.736   2.359
 1849SOL    HW1 6446   4.829   2.671   2.366
 1849SOL    HW2 6447   4.782   2.814   2.303
 1850SOL     OW 6448   4.191   2.183   0.638
 1850SOL    HW1 6449   4.135   2.217   0.562
 1850SOL    HW2 6450   4.206   2.255   0.705
 1851SOL     OW 6451   6.967   4.789   4.443
 1851SOL    HW1 6452   0.047   4.781   4.428
 1851SOL    HW2 6453   6.944   4.885   4.461
 1852SOL     OW 6454   0.727   0.415   2.922
 1852SOL    HW1 6455   0.752   0.510   2.939
 1852SOL    HW2 6456   0.715   0.367   3.009
 1853SOL     OW 6457   0.596   2.273   5.637
 1853SOL    HW1 6458   0.533   2.344   5.670
 1853SOL    HW2 6459   0.619   2.211   5.712
 1854SOL     OW 6460   0.522   6.970   3.303
 1854SOL    HW1 6461   0.431   6.961   3.263
 1854SOL    HW2 6462   0.571   0.027   3.258
 1855SOL     OW 6463   5.885   2.691   4.667
 1855SOL    HW1 6464   5.933   2.699   4.754
 1855SOL    HW2 6465   5.788   2.673   4.684
 1856SOL     OW 6466   4.484   3.457   0.322
 1856SOL    HW1 6467   4.458   3.366   0.353
 1856SOL    HW2 6468   4.416   3.524   0.352
 1857SOL     OW 6469   3.695   1.078   6.639
 1857SOL    HW1 6470   3.634   1.001   6.618
 1857SOL    HW2 6471   3.654   1.163   6.605
 1858SOL     OW 6472   4.930   2.187   4.219
 1858SOL    HW1 6473   4.901   2.098   4.255
 1858SOL    HW2 6474   5.017   2.176   4.170
 1859SOL     OW 6475   0.106   0.718   4.280
 1859SOL    HW1 6476   0.135   0.641   4.224
 1859SOL    HW2 6477   0.122   0.698   4.377
 1860SOL     OW 6478   2.838   1.190   6.591
 1860SOL    HW1 6479   2.771   1.141   6.647
 1860SOL    HW2 6480   2.872   1.130   6.519
 1861SOL     OW 6481   6.131   6.546   4.770
 1861SOL    HW1 6482   6.069   6.612   4.814
 1861SOL    HW2 6483   6.078   6.484   4.713
 1862SOL     OW 6484   3.194   5.694   5.835
 1862SOL    HW1 6485   3.277   5.747   5.815
 1862SOL    HW2 6486   3.118   5.731   5.782
 1863SOL     OW 6487   6.530   1.748   0.818
 1863SOL    HW1 6488   6.531   1.836   0.770
 1863SOL    HW2 6489   6.601   1.689   0.781
 1864SOL     OW 6490   3.151   5.904   1.782
 1864SOL    HW1 6491   3.057   5.875   1.769
 1864SOL    HW2 6492   3.184   5.949   1.699
 1865SOL     OW 6493   6.398   2.795   5.870
 1865SOL    HW1 6494   6.409   2.704   5.909
 1865SOL    HW2 6495   6.400   2.789   5.770
 1866SOL     OW 6496   0.818   5.597   3.759
 1866SOL    HW1 6497   0.762   5.536   3.703
 1866SOL    HW2 6498   0.838   5.680   3.708
 1867SOL     OW 6499   0.579   2.245   1.473
 1867SOL    HW1 6500   0.493   2.294   1.486
 1867SOL    HW2 6501   0.563   2.164   1.417
 1868SOL     OW 6502   6.004   3.566   6.647
 1868SOL    HW1 6503   6.089   3.522   6.619
 1868SOL    HW2 6504   5.927   3.526   6.598
 1869SOL     OW 6505   5.097   0.869   4.918
 1869SOL    HW1 6506   5.081   0.808   4.996
 1869SOL    HW2 6507   5.148   0.949   4.950
 1870SOL     OW 6508   6.458   0.356   5.925
 1870SOL    HW1 6509   6.514   0.438   5.914
 1870SOL    HW2 6510   6.370   0.380   5.965
 1871SOL     OW 6511   0.646   6.410   6.723
 1871SOL    HW1 6512   0.716   6.440   6.658
 1871SOL    HW2 6513   0.579   6.483   6.736
 1872SOL     OW 6514   2.661   2.997   1.534
 1872SOL    HW1 6515   2.756   3.025   1.547
 1872SOL    HW2 6516   2.657   2.900   1.512
 1873SOL     OW 6517   6.356   1.508   1.141
 1873SOL    HW1 6518   6.268   1.497   1.187
 1873SOL    HW2 6519   6.428   1.466   1.198
 1874SOL     OW 6520   1.196   5.584   0.037
 1874SOL    HW1 6521   1.267   5.600   0.106
 1874SOL    HW2 6522   1.113   5.633   0.062
 1875SOL     OW 6523   0.327   5.959   2.131
 1875SOL    HW1 6524   0.413   5.938   2.178
 1875SOL    HW2 6525   0.257   5.981   2.198
 1876SOL     OW 6526   0.371   4.817   0.538
 1876SOL    HW1 6527   0.324   4.730   0.530
 1876SOL    HW2 6528   0.304   4.891   0.544
 1877SOL     OW 6529   1.382   2.099   2.225
 1877SOL    HW1 6530   1.467   2.151   2.214
 1877SOL    HW2 6531   1.329   2.103   2.140
 1878SOL     OW 6532   5.594   4.055   4.167
 1878SOL    HW1 6533   5.503   4.037   4.204
 1878SOL    HW2 6534   5.596   4.147   4.128
 1879SOL     OW 6535   4.620   6.230   4.621
 1879SOL    HW1 6536   4.618   6.210   4.523
 1879SOL    HW2 6537   4.669   6.157   4.668
 1880SOL     OW 6538   0.398   1.311   4.410
 1880SOL    HW1 6539   0.300   1.315   4.426
 1880SOL    HW2 6540   0.424   1.374   4.337
 1881SOL     OW 6541   2.195   1.041   3.771
 1881SOL    HW1 6542   2.278   1.088   3.740
 1881SOL    HW2 6543   2.215   0.944   3.783
 1882SOL     OW 6544   2.230   5.270   0.319
 1882SOL    HW1 6545   2.228   5.194   0.384
 1882SOL    HW2 6546   2.179   5.348   0.356
 1883SOL     OW 6547   2.537   2.426   3.029
 1883SOL    HW1 6548   2.620   2.407   2.976
 1883SOL    HW2 6549   2.536   2.367   3.110
 1884SOL     OW 6550   4.546   1.287   0.633
 1884SOL    HW1 6551   4.575   1.213   0.693
 1884SOL    HW2 6552   4.621   1.310   0.570
 1885SOL     OW 6553   0.306   1.742   0.639
 1885SOL    HW1 6554   0.249   1.727   0.720
 1885SOL    HW2 6555   0.387   1.795   0.665
 1886SOL     OW 6556   3.202   2.830   5.846
 1886SOL    HW1 6557   3.231   2.839   5.941
 1886SOL    HW2 6558   3.141   2.751   5.836
 1887SOL     OW 6559   0.737   6.363   5.003
 1887SOL    HW1 6560   0.833   6.382   4.984
 1887SOL    HW2 6561   0.730   6.278   5.056
 1888SOL     OW 6562   1.707   1.993   5.504
 1888SOL    HW1 6563   1.668   1.974   5.594
 1888SOL    HW2 6564   1.668   2.078   5.469
 1889SOL     OW 6565   2.642   3.282   0.443
 1889SOL    HW1 6566   2.571   3.238   0.497
 1889SOL    HW2 6567   2.625   3.268   0.346
 1890SOL     OW 6568   6.250   6.033   6.720
 1890SOL    HW1 6569   6.162   6.075   6.698
 1890SOL    HW2 6570   6.324   6.085   6.678
 1891SOL     OW 6571   5.580   3.695   6.771
 1891SOL    HW1 6572   5.669   3.738   6.756
 1891SOL    HW2 6573   5.517   3.762   6.811
 1892SOL     OW 6574   4.316   0.213   2.222
 1892SOL    HW1 6575   4.258   0.245   2.148
 1892SOL    HW2 6576   4.334   0.115   2.210
 1893SOL     OW 6577   2.902   0.879   5.560
 1893SOL    HW1 6578   2.983   0.878   5.501
 1893SOL    HW2 6579   2.835   0.944   5.523
 1894SOL     OW 6580   4.939   3.875   1.150
 1894SOL    HW1 6581   4.868   3.804   1.151
 1894SOL    HW2 6582   4.993   3.870   1.234
 1895SOL     OW 6583   4.128   6.158   3.228
 1895SOL    HW1 6584   4.132   6.158   3.128
 1895SOL    HW2 6585   4.112   6.251   3.260
 1896SOL     OW 6586   6.294   1.924   5.885
 1896SOL    HW1 6587   6.350   1.874   5.819
 1896SOL    HW2 6588   6.239   1.860   5.939
 1897SOL     OW 6589   5.922   4.774   3.522
 1897SOL    HW1 6590   5.902   4.800   3.428
 1897SOL    HW2 6591   6.017   4.793   3.543
 1898SOL     OW 6592   5.454   6.526   6.980
 1898SOL    HW1 6593   5.443   6.533   6.881
 1898SOL    HW2 6594   5.464   6.618   0.000
 1899SOL     OW 6595   1.573   2.415   3.127
 1899SOL    HW1 6596   1.635   2.374   3.193
 1899SOL    HW2 6597   1.596   2.382   3.035
 1900SOL     OW 6598   2.892   6.367   1.893
 1900SOL    HW1 6599   2.832   6.427   1.946
 1900SOL    HW2 6600   2.917   6.288   1.949
 1901SOL     OW 6601   1.188   0.938   5.970
 1901SOL    HW1 6602   1.267   0.899   6.017
 1901SOL    HW2 6603   1.145   0.868   5.913
 1902SOL     OW 6604   1.394   2.404   5.311
 1902SOL    HW1 6605   1.305   2.388   5.270
 1902SOL    HW2 6606   1.415   2.502   5.311
 1903SOL     OW 6607   0.031   4.659   3.877
 1903SOL    HW1 6608   0.092   4.581   3.890
 1903SOL    HW2 6609   0.059   4.709   3.795
 1904SOL     OW 6610   0.719   0.258   4.229
 1904SOL    HW1 6611   0.728   0.171   4.181
 1904SOL    HW2 6612   0.634   0.258   4.282
 1905SOL     OW 6613   6.503   3.001   4.347
 1905SOL    HW1 6614   6.455   3.088   4.341
 1905SOL    HW2 6615   6.448   2.936   4.400
 1906SOL     OW 6616   2.818   5.918   6.578
 1906SOL    HW1 6617   2.827   5.950   6.672
 1906SOL    HW2 6618   2.742   5.853   6.571
 1907SOL     OW 6619   4.869   6.221   3.871
 1907SOL    HW1 6620   4.925   6.187   3.795
 1907SOL    HW2 6621   4.881   6.320   3.880
 1908SOL     OW 6622   4.525   6.745   0.504
 1908SOL    HW1 6623   4.582   6.769   0.582
 1908SOL    HW2 6624   4.431   6.731   0.535
 1909SOL     OW 6625   4.461   5.088   4.038
 1909SOL    HW1 6626   4.397   5.010   4.039
 1909SOL    HW2 6627   4.411   5.172   4.054
 1910SOL     OW 6628   5.142   3.556   5.086
 1910SOL    HW1 6629   5.123   3.467   5.043
 1910SOL    HW2 6630   5.118   3.629   5.023
 1911SOL     OW 6631   0.427   3.609   5.864
 1911SOL    HW1 6632   0.498   3.605   5.794
 1911SOL    HW2 6633   0.387   3.700   5.865
 1912SOL     OW 6634   2.651   5.628   3.191
 1912SOL    HW1 6635   2.634   5.684   3.272
 1912SOL    HW2 6636   2.654   5.687   3.110
 1913SOL     OW 6637   1.496   4.675   5.226
 1913SOL    HW1 6638   1.579   4.663   5.171
 1913SOL    HW2 6639   1.516   4.736   5.303
 1914SOL     OW 6640   4.652   1.241   5.631
 1914SOL    HW1 6641   4.567   1.293   5.639
 1914SOL    HW2 6642   4.660   1.207   5.537
 1915SOL     OW 6643   3.073   0.607   5.165
 1915SOL    HW1 6644   3.074   0.656   5.078
 1915SOL    HW2 6645   3.150   0.544   5.168
 1916SOL     OW 6646   4.229   6.322   2.370
 1916SOL    HW1 6647   4.234   6.402   2.429
 1916SOL    HW2 6648   4.182   6.248   2.418
 1917SOL     OW 6649   3.365   3.427   4.685
 1917SOL    HW1 6650   3.434   3.494   4.659
 1917SOL    HW2 6651   3.407   3.337   4.695
 1918SOL     OW 6652   6.608   6.450   5.180
 1918SOL    HW1 6653   6.675   6.486   5.116
 1918SOL    HW2 6654   6.518   6.449   5.137
 1919SOL     OW 6655   6.452   0.141   2.048
 1919SOL    HW1 6656   6.488   0.132   1.955
 1919SOL    HW2 6657   6.489   0.224   2.090
 1920SOL     OW 6658   6.410   6.160   4.697
 1920SOL    HW1 6659   6.332   6.109   4.662
 1920SOL    HW2 6660   6.380   6.220   4.771
 1921SOL     OW 6661   1.319   0.016   6.876
 1921SOL    HW1 6662   1.353   6.940   6.870
 1921SOL    HW2 6663   1.391   0.079   6.848
 1922SOL     OW 6664   3.719   3.894   1.028
 1922SOL    HW1 6665   3.702   3.796   1.040
 1922SOL    HW2 6666   3.732   3.914   0.931
 1923SOL     OW 6667   2.144   2.796   0.057
 1923SOL    HW1 6668   2.093   2.765   0.138
 1923SOL    HW2 6669   2.239   2.768   0.065
 1924SOL     OW 6670   0.403   4.138   1.670
 1924SOL    HW1 6671   0.466   4.211   1.698
 1924SOL    HW2 6672   0.366   4.093   1.751
 1925SOL     OW 6673   3.901   4.052   0.550
 1925SOL    HW1 6674   3.849   4.050   0.465
 1925SOL    HW2 6675   3.975   4.119   0.542
 1926SOL     OW 6676   0.693   0.392   3.426
 1926SOL    HW1 6677   0.618   0.355   3.480
 1926SOL    HW2 6678   0.682   0.491   3.416
 1927SOL     OW 6679   4.263   3.821   0.619
 1927SOL    HW1 6680   4.259   3.920   0.633
 1927SOL    HW2 6681   4.278   3.776   0.707
 1928SOL     OW 6682   0.293   5.477   5.141
 1928SOL    HW1 6683   0.372   5.507   5.088
 1928SOL    HW2 6684   0.214   5.534   5.119
 1929SOL     OW 6685   1.672   5.983   2.779
 1929SOL    HW1 6686   1.714   5.971   2.869
 1929SOL    HW2 6687   1.720   5.927   2.712
 1930SOL     OW 6688   6.842   5.045   6.810
 1930SOL    HW1 6689   6.756   4.998   6.789
 1930SOL    HW2 6690   6.887   5.070   6.725
 1931SOL     OW 6691   0.570   1.719   5.091
 1931SOL    HW1 6692   0.643   1.786   5.085
 1931SOL    HW2 6693   0.524   1.727   5.179
 1932SOL     OW 6694   5.895   3.103   2.900
 1932SOL    HW1 6695   5.807   3.058   2.884
 1932SOL    HW2 6696   5.923   3.089   2.994
 1933SOL     OW 6697   2.059   4.709   0.721
 1933SOL    HW1 6698   2.002   4.686   0.642
 1933SOL    HW2 6699   2.012   4.777   0.777
 1934SOL     OW 6700   0.002   6.225   4.375
 1934SOL    HW1 6701   0.040   6.316   4.392
 1934SOL    HW2 6702   0.047   6.184   4.296
 1935SOL     OW 6703   2.500   0.717   3.441
 1935SOL    HW1 6704   2.482   0.668   3.526
 1935SOL    HW2 6705   2.420   0.772   3.417
 1936SOL     OW 6706   6.904   6.032   5.528
 1936SOL    HW1 6707   6.877   6.102   5.593
 1936SOL    HW2 6708   6.838   5.957   5.528
 1937SOL     OW 6709   4.536   0.747   3.008
 1937SOL    HW1 6710   4.479   0.797   2.943
 1937SOL    HW2 6711   4.477   0.708   3.080
 1938SOL     OW 6712   5.136   0.673   4.401
 1938SOL    HW1 6713   5.153   0.769   4.380
 1938SOL    HW2 6714   5.159   0.655   4.496
 1939SOL     OW 6715   2.696   0.312   3.660
 1939SOL    HW1 6716   2.609   0.263   3.650
 1939SOL    HW2 6717   2.705   0.345   3.754
 1940SOL     OW 6718   6.608   5.341   6.470
 1940SOL    HW1 6719   6.628   5.255   6.424
 1940SOL    HW2 6720   6.550   5.322   6.550
 1941SOL     OW 6721   5.684   4.916   2.868
 1941SOL    HW1 6722   5.613   4.908   2.938
 1941SOL    HW2 6723   5.765   4.960   2.907
 1942SOL     OW 6724   6.374   4.180   3.127
 1942SOL    HW1 6725   6.359   4.096   3.180
 1942SOL    HW2 6726   6.462   4.220   3.152
 1943SOL     OW 6727   2.890   5.801   1.782
 1943SOL    HW1 6728   2.869   5.891   1.821
 1943SOL    HW2 6729   2.887   5.732   1.854
 1944SOL     OW 6730   6.925   6.718   2.073
 1944SOL    HW1 6731   6.936   6.687   1.979
 1944SOL    HW2 6732   6.828   6.732   2.093
 1945SOL     OW 6733   3.111   4.851   3.755
 1945SOL    HW1 6734   3.054   4.793   3.813
 1945SOL    HW2 6735   3.152   4.924   3.809
 1946SOL     OW 6736   1.963   6.914   0.179
 1946SOL    HW1 6737   2.039   6.930   0.117
 1946SOL    HW2 6738   1.972   6.973   0.259
 1947SOL     OW 6739   5.587   6.690   3.898
 1947SOL    HW1 6740   5.672   6.669   3.947
 1947SOL    HW2 6741   5.510   6.646   3.943
 1948SOL     OW 6742   0.043   3.930   5.358
 1948SOL    HW1 6743   0.028   3.897   5.265
 1948SOL    HW2 6744   0.014   3.860   5.423
 1949SOL     OW 6745   5.466   4.099   6.411
 1949SOL    HW1 6746   5.453   4.198   6.414
 1949SOL    HW2 6747   5.381   4.053   6.437
 1950SOL     OW 6748   2.924   4.999   1.023
 1950SOL    HW1 6749   2.877   5.065   1.082
 1950SOL    HW2 6750   2.888   4.907   1.039
 1951SOL     OW 6751   7.017   3.140   0.149
 1951SOL    HW1 6752   7.014   3.238   0.166
 1951SOL    HW2 6753   6.926   3.108   0.123
 1952SOL     OW 6754   3.367   2.845   5.026
 1952SOL    HW1 6755   3.343   2.819   5.120
 1952SOL    HW2 6756   3.345   2.769   4.964
 1953SOL     OW 6757   7.001   3.171   5.053
 1953SOL    HW1 6758   6.927   3.236   5.073
 1953SOL    HW2 6759   0.071   3.219   5.060
 1954SOL     OW 6760   2.530   2.493   3.783
 1954SOL    HW1 6761   2.475   2.411   3.800
 1954SOL    HW2 6762   2.588   2.510   3.863
 1955SOL     OW 6763   6.408   5.439   1.920
 1955SOL    HW1 6764   6.341   5.481   1.982
 1955SOL    HW2 6765   6.360   5.397   1.843
 1956SOL     OW 6766   5.360   6.457   2.507
 1956SOL    HW1 6767   5.264   6.472   2.485
 1956SOL    HW2 6768   5.392   6.531   2.567
 1957SOL     OW 6769   1.022   6.613   5.521
 1957SOL    HW1 6770   1.112   6.571   5.506
 1957SOL    HW2 6771   0.974   6.564   5.594
 1958SOL     OW 6772   4.347   3.058   5.863
 1958SOL    HW1 6773   4.361   3.073   5.961
 1958SOL    HW2 6774   4.261   3.010   5.848
 1959SOL     OW 6775   2.243   2.032   0.137
 1959SOL    HW1 6776   2.337   2.038   0.171
 1959SOL    HW2 6777   2.223   2.113   0.081
 1960SOL     OW 6778   5.097   6.550   2.460
 1960SOL    HW1 6779   5.088   6.568   2.362
 1960SOL    HW2 6780   5.099   6.637   2.510
 1961SOL     OW 6781   5.707   5.205   5.131
 1961SOL    HW1 6782   5.642   5.135   5.158
 1961SOL    HW2 6783   5.727   5.264   5.209
 1962SOL     OW 6784   6.568   6.885   3.344
 1962SOL    HW1 6785   6.480   6.841   3.364
 1962SOL    HW2 6786   6.609   6.918   3.429
 1963SOL     OW 6787   2.669   0.313   3.145
 1963SOL    HW1 6788   2.629   0.337   3.233
 1963SOL    HW2 6789   2.763   0.346   3.141
 1964SOL     OW 6790   5.825   4.002   2.111
 1964SOL    HW1 6791   5.878   4.074   2.157
 1964SOL    HW2 6792   5.823   4.021   2.013
 1965SOL     OW 6793   2.115   5.115   3.829
 1965SOL    HW1 6794   2.115   5.026   3.784
 1965SOL    HW2 6795   2.054   5.177   3.779
 1966SOL     OW 6796   6.309   6.476   6.254
 1966SOL    HW1 6797   6.311   6.462   6.155
 1966SOL    HW2 6798   6.245   6.549   6.276
 1967SOL     OW 6799   4.951   3.488   4.607
 1967SOL    HW1 6800   4.952   3.588   4.604
 1967SOL    HW2 6801   4.955   3.458   4.702
 1968SOL     OW 6802   3.809   5.370   5.607
 1968SOL    HW1 6803   3.835   5.296   5.668
 1968SOL    HW2 6804   3.836   5.348   5.513
 1969SOL     OW 6805   6.550   2.085   1.679
 1969SOL    HW1 6806   6.468   2.035   1.707
 1969SOL    HW2 6807   6.524   2.168   1.630
 1970SOL     OW 6808   2.129   6.352   3.428
 1970SOL    HW1 6809   2.082   6.268   3.456
 1970SOL    HW2 6810   2.074   6.398   3.358
 1971SOL     OW 6811   0.173   0.665   6.021
 1971SOL    HW1 6812   0.168   0.626   5.929
 1971SOL    HW2 6813   0.227   0.604   6.079
 1972SOL     OW 6814   1.408   5.529   4.028
 1972SOL    HW1 6815   1.412   5.544   4.127
 1972SOL    HW2 6816   1.500   5.532   3.990
 1973SOL     OW 6817   2.618   2.764   6.934
 1973SOL    HW1 6818   2.676   2.698   6.887
 1973SOL    HW2 6819   2.523   2.732   6.933
 1974SOL     OW 6820   5.670   0.044   4.536
 1974SOL    HW1 6821   5.624   6.975   4.558
 1974SOL    HW2 6822   5.615   0.095   4.471
 1975SOL     OW 6823   2.804   0.790   3.781
 1975SOL    HW1 6824   2.875   0.734   3.737
 1975SOL    HW2 6825   2.800   0.879   3.737
 1976SOL     OW 6826   0.003   4.414   6.983
 1976SOL    HW1 6827   6.964   4.419   0.048
 1976SOL    HW2 6828   7.017   4.322   6.945
 1977SOL     OW 6829   2.658   2.429   4.996
 1977SOL    HW1 6830   2.697   2.512   4.956
 1977SOL    HW2 6831   2.648   2.442   5.095
 1978SOL     OW 6832   6.754   1.527   4.874
 1978SOL    HW1 6833   6.678   1.581   4.912
 1978SOL    HW2 6834   6.721   1.471   4.799
 1979SOL     OW 6835   5.795   4.432   2.801
 1979SOL    HW1 6836   5.758   4.340   2.817
 1979SOL    HW2 6837   5.823   4.440   2.705
 1980SOL     OW 6838   3.754   0.819   1.181
 1980SOL    HW1 6839   3.797   0.728   1.180
 1980SOL    HW2 6840   3.655   0.808   1.187
 1981SOL     OW 6841   4.819   3.254   1.803
 1981SOL    HW1 6842   4.780   3.181   1.860
 1981SOL    HW2 6843   4.751   3.283   1.736
 1982SOL     OW 6844   5.902   0.107   5.503
 1982SOL    HW1 6845   5.805   0.120   5.524
 1982SOL    HW2 6846   5.910   0.053   5.419
 1983SOL     OW 6847   0.750   4.242   2.423
 1983SOL    HW1 6848   0.761   4.145   2.402
 1983SOL    HW2 6849   0.794   4.297   2.352
 1984SOL     OW 6850   4.617   1.248   5.928
 1984SOL    HW1 6851   4.625   1.227   5.831
 1984SOL    HW2 6852   4.638   1.344   5.944
 1985SOL     OW 6853   1.691   0.228   1.057
 1985SOL    HW1 6854   1.653   0.296   1.119
 1985SOL    HW2 6855   1.618   0.188   1.002
 1986SOL     OW 6856   0.657   2.277   6.244
 1986SOL    HW1 6857   0.641   2.179   6.257
 1986SOL    HW2 6858   0.678   2.319   6.332
 1987SOL     OW 6859   2.611   3.915   0.183
 1987SOL    HW1 6860   2.563   3.989   0.136
 1987SOL    HW2 6861   2.681   3.954   0.243
 1988SOL     OW 6862   4.719   3.290   0.225
 1988SOL    HW1 6863   4.701   3.369   0.285
 1988SOL    HW2 6864   4.807   3.303   0.180
 1989SOL     OW 6865   2.611   0.459   4.241
 1989SOL    HW1 6866   2.698   0.475   4.194
 1989SOL    HW2 6867   2.583   0.543   4.287
 1990SOL     OW 6868   2.372   1.334   2.840
 1990SOL    HW1 6869   2.392   1.391   2.920
 1990SOL    HW2 6870   2.457   1.297   2.803
 1991SOL     OW 6871   4.340   5.404   3.882
 1991SOL    HW1 6872   4.339   5.328   3.817
 1991SOL    HW2 6873   4.249   5.415   3.922
 1992SOL     OW 6874   2.258   6.488   5.252
 1992SOL    HW1 6875   2.174   6.541   5.241
 1992SOL    HW2 6876   2.262   6.450   5.344
 1993SOL     OW 6877   2.918   3.239   4.346
 1993SOL    HW1 6878   2.955   3.222   4.255
 1993SOL    HW2 6879   2.828   3.196   4.355
 1994SOL     OW 6880   6.172   2.449   2.114
 1994SOL    HW1 6881   6.124   2.537   2.115
 1994SOL    HW2 6882   6.144   2.395   2.193
 1995SOL     OW 6883   4.757   2.543   1.147
 1995SOL    HW1 6884   4.773   2.445   1.136
 1995SOL    HW2 6885   4.671   2.568   1.103
 1996SOL     OW 6886   2.898   3.979   5.886
 1996SOL    HW1 6887   2.839   3.943   5.814
 1996SOL    HW2 6888   2.843   4.024   5.956
 1997SOL     OW 6889   5.407   0.106   4.030
 1997SOL    HW1 6890   5.323   0.155   4.052
 1997SOL    HW2 6891   5.413   0.024   4.088
 1998SOL     OW 6892   2.661   5.007   5.010
 1998SOL    HW1 6893   2.654   4.937   5.081
 1998SOL    HW2 6894   2.695   4.964   4.926
 1999SOL     OW 6895   1.750   0.920   2.134
 1999SOL    HW1 6896   1.822   0.928   2.065
 1999SOL    HW2 6897   1.665   0.958   2.099
 2000SOL     OW 6898   4.197   1.774   4.500
 2000SOL    HW1 6899   4.101   1.747   4.492
 2000SOL    HW2 6900   4.207   1.871   4.477
 2001SOL     OW 6901   2.391   3.488   0.386
 2001SOL    HW1 6902   2.452   3.470   0.463
 2001SOL    HW2 6903   2.382   3.404   0.331
 2002SOL     OW 6904   2.108   5.260   4.749
 2002SOL    HW1 6905   2.029   5.205   4.778
 2002SOL    HW2 6906   2.130   5.238   4.654
 2003SOL     OW 6907   6.051   4.566   3.198
 2003SOL    HW1 6908   6.029   4.505   3.122
 2003SOL    HW2 6909   6.068   4.658   3.163
 2004SOL     OW 6910   3.283   0.516   6.110
 2004SOL    HW1 6911   3.338   0.563   6.041
 2004SOL    HW2 6912   3.195   0.563   6.121
 2005SOL     OW 6913   2.902   6.567   5.328
 2005SOL    HW1 6914   2.982   6.543   5.383
 2005SOL    HW2 6915   2.826   6.507   5.351
 2006SOL     OW 6916   4.090   5.721   3.594
 2006SOL    HW1 6917   4.026   5.644   3.600
 2006SOL    HW2 6918   4.126   5.727   3.500
 2007SOL     OW 6919   6.486   5.131   0.247
 2007SOL    HW1 6920   6.511   5.217   0.292
 2007SOL    HW2 6921   6.563   5.098   0.193
 2008SOL     OW 6922   6.583   6.252   4.503
 2008SOL    HW1 6923   6.661   6.264   4.564
 2008SOL    HW2 6924   6.500   6.237   4.557
 2009SOL     OW 6925   0.331   0.687   0.949
 2009SOL    HW1 6926   0.305   0.777   0.983
 2009SOL    HW2 6927   0.390   0.642   1.016
 2010SOL     OW 6928   0.983   6.907   0.739
 2010SOL    HW1 6929   1.061   6.918   0.801
 2010SOL    HW2 6930   0.955   6.996   0.705
 2011SOL     OW 6931   6.928   2.646   5.011
 2011SOL    HW1 6932   6.968   2.737   4.996
 2011SOL    HW2 6933   6.865   2.651   5.089
 2012SOL     OW 6934   0.316   3.817   1.038
 2012SOL    HW1 6935   0.384   3.744   1.042
 2012SOL    HW2 6936   0.275   3.819   0.947
 2013SOL     OW 6937   4.594   1.155   2.296
 2013SOL    HW1 6938   4.682   1.165   2.342
 2013SOL    HW2 6939   4.594   1.209   2.211
 2014SOL     OW 6940   2.716   5.388   3.435
 2014SOL    HW1 6941   2.777   5.309   3.427
 2014SOL    HW2 6942   2.639   5.376   3.372
 2015SOL     OW 6943   3.109   6.695   6.689
 2015SOL    HW1 6944   3.122   6.781   6.738
 2015SOL    HW2 6945   3.012   6.683   6.669
 2016SOL     OW 6946   6.215   4.872   3.532
 2016SOL    HW1 6947   6.177   4.948   3.586
 2016SOL    HW2 6948   6.304   4.898   3.495
 2017SOL     OW 6949   2.638   5.497   1.777
 2017SOL    HW1 6950   2.682   5.505   1.867
 2017SOL    HW2 6951   2.702   5.524   1.706
 2018SOL     OW 6952   0.475   4.712   6.180
 2018SOL    HW1 6953   0.382   4.692   6.212
 2018SOL    HW2 6954   0.538   4.643   6.215
 2019SOL     OW 6955   5.556   1.771   3.145
 2019SOL    HW1 6956   5.559   1.836   3.070
 2019SOL    HW2 6957   5.647   1.760   3.184
 2020SOL     OW 6958   2.226   5.490   2.946
 2020SOL    HW1 6959   2.185   5.418   2.890
 2020SOL    HW2 6960   2.285   5.548   2.890
 2021SOL     OW 6961   1.340   6.967   1.413
 2021SOL    HW1 6962   1.368   7.010   1.327
 2021SOL    HW2 6963   1.241   6.953   1.413
 2022SOL     OW 6964   2.609   4.418   1.066
 2022SOL    HW1 6965   2.646   4.334   1.106
 2022SOL    HW2 6966   2.519   4.437   1.105
 2023SOL     OW 6967   6.714   1.526   6.292
 2023SOL    HW1 6968   6.786   1.521   6.361
 2023SOL    HW2 6969   6.734   1.600   6.228
 2024SOL     OW 6970   6.079   0.435   3.266
 2024SOL    HW1 6971   6.067   0.513   3.204
 2024SOL    HW2 6972   6.124   0.360   3.217
 2025SOL     OW 6973   6.645   0.808   0.419
 2025SOL    HW1 6974   6.628   0.740   0.490
 2025SOL    HW2 6975   6.563   0.863   0.404
 2026SOL     OW 6976   1.434   1.751   5.495
 2026SOL    HW1 6977   1.510   1.791   5.445
 2026SOL    HW2 6978   1.364   1.720   5.431
 2027SOL     OW 6979   0.463   1.406   2.415
 2027SOL    HW1 6980   0.366   1.424   2.395
 2027SOL    HW2 6981   0.506   1.490   2.449
 2028SOL     OW 6982   3.786   3.725   6.256
 2028SOL    HW1 6983   3.838   3.667   6.194
 2028SOL    HW2 6984   3.835   3.811   6.270
 2029SOL     OW 6985   1.469   0.396   0.277
 2029SOL    HW1 6986   1.466   0.496   0.269
 2029SOL    HW2 6987   1.561   0.368   0.306
 2030SOL     OW 6988   1.325   1.436   2.883
 2030SOL    HW1 6989   1.392   1.399   2.947
 2030SOL    HW2 6990   1.309   1.533   2.904
 2031SOL     OW 6991   5.045   6.992   2.784
 2031SOL    HW1 6992   5.075   6.997   2.689
 2031SOL    HW2 6993   4.961   6.938   2.789
 2032SOL     OW 6994   5.344   6.651   1.622
 2032SOL    HW1 6995   5.311   6.640   1.528
 2032SOL    HW2 6996   5.357   6.560   1.664
 2033SOL     OW 6997   0.242   4.877   6.618
 2033SOL    HW1 6998   0.307   4.828   6.560
 2033SOL    HW2 6999   0.255   4.848   6.713
 2034SOL     OW 7000   2.985   6.926   3.138
 2034SOL    HW1 7001   3.005   6.926   3.040
 2034SOL    HW2 7002   2.888   6.907   3.152
 2035SOL     OW 7003   1.045   3.247   1.668
 2035SOL    HW1 7004   1.065   3.298   1.751
 2035SOL    HW2 7005   1.020   3.311   1.595
 2036SOL     OW 7006   1.163   4.351   0.423
 2036SOL    HW1 7007   1.095   4.279   0.432
 2036SOL    HW2 7008   1.229   4.344   0.498
 2037SOL     OW 7009   6.969   0.996   6.194
 2037SOL    HW1 7010   7.014   1.016   6.281
 2037SOL    HW2 7011   0.006   1.031   6.118
 2038SOL     OW 7012   0.951   0.032   4.735
 2038SOL    HW1 7013   0.950   0.105   4.665
 2038SOL    HW2 7014   0.915   6.966   4.695
 2039SOL     OW 7015   0.906   5.241   2.117
 2039SOL    HW1 7016   0.843   5.173   2.080
 2039SOL    HW2 7017   0.946   5.294   2.042
 2040SOL     OW 7018   3.699   3.651   4.448
 2040SOL    HW1 7019   3.666   3.599   4.527
 2040SOL    HW2 7020   3.667   3.608   4.364
 2041SOL     OW 7021   6.191   4.020   6.568
 2041SOL    HW1 7022   6.120   4.040   6.636
 2041SOL    HW2 7023   6.265   4.086   6.578
 2042SOL     OW 7024   3.723   5.572   0.176
 2042SOL    HW1 7025   3.640   5.530   0.141
 2042SOL    HW2 7026   3.793   5.502   0.188
 2043SOL     OW 7027   4.521   4.459   2.381
 2043SOL    HW1 7028   4.446   4.500   2.329
 2043SOL    HW2 7029   4.551   4.375   2.336
 2044SOL     OW 7030   6.290   0.916   2.044
 2044SOL    HW1 7031   6.252   0.824   2.032
 2044SOL    HW2 7032   6.249   0.959   2.125
 2045SOL     OW 7033   2.009   5.251   6.103
 2045SOL    HW1 7034   2.008   5.165   6.052
 2045SOL    HW2 7035   2.008   5.231   6.201
 2046SOL     OW 7036   5.964   0.717   4.940
 2046SOL    HW1 7037   5.928   0.624   4.931
 2046SOL    HW2 7038   6.048   0.716   4.993
 2047SOL     OW 7039   5.811   3.186   0.031
 2047SOL    HW1 7040   5.801   3.197   6.949
 2047SOL    HW2 7041   5.891   3.130   0.051
 2048SOL     OW 7042   4.149   6.973   5.765
 2048SOL    HW1 7043   4.189   7.007   5.681
 2048SOL    HW2 7044   4.189   0.002   5.844
 2049SOL     OW 7045   4.707   6.485   0.649
 2049SOL    HW1 7046   4.616   6.454   0.680
 2049SOL    HW2 7047   4.755   6.408   0.607
 2050SOL     OW 7048   5.231   1.714   4.032
 2050SOL    HW1 7049   5.154   1.739   4.091
 2050SOL    HW2 7050   5.316   1.723   4.082
 2051SOL     OW 7051   1.893   5.085   0.693
 2051SOL    HW1 7052   1.819   5.123   0.637
 2051SOL    HW2 7053   1.856   5.058   0.782
 2052SOL     OW 7054   1.315   3.042   0.720
 2052SOL    HW1 7055   1.297   2.989   0.803
 2052SOL    HW2 7056   1.385   3.111   0.739
 2053SOL     OW 7057   5.321   0.779   0.904
 2053SOL    HW1 7058   5.358   0.740   0.820
 2053SOL    HW2 7059   5.349   0.875   0.913
 2054SOL     OW 7060   6.490   3.278   1.775
 2054SOL    HW1 7061   6.446   3.352   1.726
 2054SOL    HW2 7062   6.588   3.279   1.757
 2055SOL     OW 7063   6.613   2.271   3.972
 2055SOL    HW1 7064   6.625   2.184   3.924
 2055SOL    HW2 7065   6.604   2.254   4.070
 2056SOL     OW 7066   1.353   0.641   2.517
 2056SOL    HW1 7067   1.356   0.585   2.434
 2056SOL    HW2 7068   1.316   0.731   2.495
 2057SOL     OW 7069   6.681   2.508   4.100
 2057SOL    HW1 7070   6.661   2.548   4.190
 2057SOL    HW2 7071   6.659   2.410   4.103
 2058SOL     OW 7072   6.859   2.450   1.514
 2058SOL    HW1 7073   6.897   2.482   1.600
 2058SOL    HW2 7074   6.923   2.388   1.469
 2059SOL     OW 7075   1.665   1.328   6.488
 2059SOL    HW1 7076   1.690   1.234   6.468
 2059SOL    HW2 7077   1.679   1.346   6.586
 2060SOL     OW 7078   0.354   5.261   2.318
 2060SOL    HW1 7079   0.334   5.267   2.416
 2060SOL    HW2 7080   0.444   5.218   2.306
 2061SOL     OW 7081   6.820   1.281   2.058
 2061SOL    HW1 7082   6.816   1.381   2.058
 2061SOL    HW2 7083   6.886   1.251   1.990
 2062SOL     OW 7084   4.488   0.489   3.354
 2062SOL    HW1 7085   4.450   0.573   3.315
 2062SOL    HW2 7086   4.438   0.465   3.436
 2063SOL     OW 7087   2.587   1.762   0.501
 2063SOL    HW1 7088   2.617   1.726   0.413
 2063SOL    HW2 7089   2.498   1.807   0.490
 2064SOL     OW 7090   0.861   2.180   0.158
 2064SOL    HW1 7091   0.841   2.271   0.193
 2064SOL    HW2 7092   0.932   2.137   0.213
 2065SOL     OW 7093   6.303   2.746   2.123
 2065SOL    HW1 7094   6.291   2.844   2.112
 2065SOL    HW2 7095   6.398   2.727   2.149
 2066SOL     OW 7096   2.337   6.241   3.709
 2066SOL    HW1 7097   2.348   6.297   3.626
 2066SOL    HW2 7098   2.279   6.290   3.774
 2067SOL     OW 7099   0.172   0.079   1.017
 2067SOL    HW1 7100   0.209   0.008   0.958
 2067SOL    HW2 7101   0.101   0.130   0.969
 2068SOL     OW 7102   1.939   1.698   5.212
 2068SOL    HW1 7103   1.937   1.701   5.112
 2068SOL    HW2 7104   2.031   1.720   5.244
 2069SOL     OW 7105   0.408   1.875   1.779
 2069SOL    HW1 7106   0.501   1.854   1.809
 2069SOL    HW2 7107   0.348   1.881   1.859
 2070SOL     OW 7108   0.594   1.005   2.841
 2070SOL    HW1 7109   0.535   0.994   2.921
 2070SOL    HW2 7110   0.603   1.102   2.820
 2071SOL     OW 7111   1.433   6.016   4.414
 2071SOL    HW1 7112   1.365   6.007   4.486
 2071SOL    HW2 7113   1.388   6.014   4.325
 2072SOL     OW 7114   5.123   4.958   2.269
 2072SOL    HW1 7115   5.170   4.991   2.188
 2072SOL    HW2 7116   5.088   4.865   2.251
 2073SOL     OW 7117   3.156   0.021   5.478
 2073SOL    HW1 7118   3.168   0.032   5.380
 2073SOL    HW2 7119   3.085   6.971   5.496
 2074SOL     OW 7120   5.913   2.077   1.468
 2074SOL    HW1 7121   5.920   1.982   1.436
 2074SOL    HW2 7122   5.931   2.139   1.392
 2075SOL     OW 7123   4.699   3.586   6.073
 2075SOL    HW1 7124   4.661   3.521   6.007
 2075SOL    HW2 7125   4.796   3.566   6.088
 2076SOL     OW 7126   4.759   0.309   1.336
 2076SOL    HW1 7127   4.727   0.371   1.264
 2076SOL    HW2 7128   4.850   0.336   1.366
 2077SOL     OW 7129   5.585   1.787   3.560
 2077SOL    HW1 7130   5.542   1.744   3.639
 2077SOL    HW2 7131   5.515   1.824   3.500
 2078SOL     OW 7132   4.184   5.728   5.550
 2078SOL    HW1 7133   4.105   5.670   5.567
 2078SOL    HW2 7134   4.262   5.671   5.522
 2079SOL     OW 7135   5.741   1.562   3.997
 2079SOL    HW1 7136   5.658   1.513   4.024
 2079SOL    HW2 7137   5.790   1.509   3.928
 2080SOL     OW 7138   3.006   2.064   4.966
 2080SOL    HW1 7139   3.062   2.132   5.013
 2080SOL    HW2 7140   2.916   2.102   4.947
 2081SOL     OW 7141   0.493   6.400   5.133
 2081SOL    HW1 7142   0.429   6.381   5.058
 2081SOL    HW2 7143   0.584   6.416   5.096
 2082SOL     OW 7144   5.007   0.307   1.439
 2082SOL    HW1 7145   4.991   0.211   1.416
 2082SOL    HW2 7146   5.101   0.331   1.416
 2083SOL     OW 7147   3.616   5.442   5.302
 2083SOL    HW1 7148   3.631   5.344   5.311
 2083SOL    HW2 7149   3.525   5.465   5.338
 2084SOL     OW 7150   0.280   3.138   3.142
 2084SOL    HW1 7151   0.262   3.077   3.219
 2084SOL    HW2 7152   0.315   3.085   3.064
 2085SOL     OW 7153   5.414   6.627   6.716
 2085SOL    HW1 7154   5.318   6.653   6.706
 2085SOL    HW2 7155   5.470   6.680   6.652
 2086SOL     OW 7156   2.546   4.972   1.150
 2086SOL    HW1 7157   2.544   5.064   1.111
 2086SOL    HW2 7158   2.491   4.910   1.094
 2087SOL     OW 7159   5.821   6.505   3.517
 2087SOL    HW1 7160   5.881   6.583   3.534
 2087SOL    HW2 7161   5.876   6.423   3.501
 2088SOL     OW 7162   3.139   6.765   0.773
 2088SOL    HW1 7163   3.086   6.682   0.785
 2088SOL    HW2 7164   3.080   6.839   0.742
 2089SOL     OW 7165   2.960   0.055   6.644
 2089SOL    HW1 7166   3.044   0.078   6.595
 2089SOL    HW2 7167   2.888   0.032   6.579
 2090SOL     OW 7168   2.867   3.526   4.041
 2090SOL    HW1 7169   2.771   3.555   4.041
 2090SOL    HW2 7170   2.880   3.455   3.972
 2091SOL     OW 7171   1.965   4.953   0.441
 2091SOL    HW1 7172   1.956   4.862   0.483
 2091SOL    HW2 7173   1.989   5.020   0.511
 2092SOL     OW 7174   6.029   6.581   0.750
 2092SOL    HW1 7175   6.104   6.646   0.737
 2092SOL    HW2 7176   6.051   6.495   0.704
 2093SOL     OW 7177   1.280   1.870   1.482
 2093SOL    HW1 7178   1.235   1.820   1.408
 2093SOL    HW2 7179   1.373   1.836   1.494
 2094SOL     OW 7180   5.959   0.374   2.590
 2094SOL    HW1 7181   6.009   0.326   2.662
 2094SOL    HW2 7182   5.896   0.440   2.632
 2095SOL     OW 7183   0.020   4.891   4.967
 2095SOL    HW1 7184   0.096   4.891   4.902
 2095SOL    HW2 7185   6.962   4.838   4.929
 2096SOL     OW 7186   4.904   3.653   2.974
 2096SOL    HW1 7187   4.855   3.738   2.953
 2096SOL    HW2 7188   4.874   3.618   3.062
 2097SOL     OW 7189   6.987   2.871   6.815
 2097SOL    HW1 7190   6.970   2.942   6.747
 2097SOL    HW2 7191   6.924   2.881   6.891
 2098SOL     OW 7192   4.509   0.482   4.700
 2098SOL    HW1 7193   4.419   0.496   4.743
 2098SOL    HW2 7194   4.506   0.398   4.645
 2099SOL     OW 7195   2.678   1.574   4.286
 2099SOL    HW1 7196   2.675   1.574   4.386
 2099SOL    HW2 7197   2.772   1.589   4.256
 2100SOL     OW 7198   3.837   3.896   6.782
 2100SOL    HW1 7199   3.817   3.993   6.792
 2100SOL    HW2 7200   3.930   3.884   6.749
 2101SOL     OW 7201   0.006   0.726   3.593
 2101SOL    HW1 7202   0.016   0.627   3.598
 2101SOL    HW2 7203   6.995   0.753   3.501
 2102SOL     OW 7204   0.128   4.843   2.312
 2102SOL    HW1 7205   0.177   4.909   2.256
 2102SOL    HW2 7206   0.030   4.862   2.309
 2103SOL     OW 7207   3.062   3.667   6.675
 2103SOL    HW1 7208   3.049   3.663   6.576
 2103SOL    HW2 7209   2.974   3.654   6.721
 2104SOL     OW 7210   1.263   3.665   5.173
 2104SOL    HW1 7211   1.361   3.649   5.188
 2104SOL    HW2 7212   1.248   3.761   5.151
 2105SOL     OW 7213   5.921   5.568   1.563
 2105SOL    HW1 7214   5.949   5.654   1.607
 2105SOL    HW2 7215   5.979   5.552   1.483
 2106SOL     OW 7216   5.226   5.844   6.898
 2106SOL    HW1 7217   5.247   5.748   6.914
 2106SOL    HW2 7218   5.311   5.895   6.883
 2107SOL     OW 7219   3.701   4.043   6.505
 2107SOL    HW1 7220   3.642   4.101   6.561
 2107SOL    HW2 7221   3.654   3.957   6.484
 2108SOL     OW 7222   5.212   4.703   5.684
 2108SOL    HW1 7223   5.310   4.693   5.665
 2108SOL    HW2 7224   5.162   4.629   5.639
 2109SOL     OW 7225   5.612   0.084   3.009
 2109SOL    HW1 7226   5.616   7.003   2.998
 2109SOL    HW2 7227   5.695   0.126   2.973
 2110SOL     OW 7228   2.745   4.929   5.773
 2110SOL    HW1 7229   2.732   4.985   5.692
 2110SOL    HW2 7230   2.823   4.868   5.760
 2111SOL     OW 7231   1.438   2.796   6.779
 2111SOL    HW1 7232   1.456   2.834   6.688
 2111SOL    HW2 7233   1.419   2.870   6.843
 2112SOL     OW 7234   5.065   3.430   0.872
 2112SOL    HW1 7235   4.993   3.369   0.907
 2112SOL    HW2 7236   5.152   3.381   0.870
 2113SOL     OW 7237   0.123   1.401   3.363
 2113SOL    HW1 7238   0.061   1.338   3.408
 2113SOL    HW2 7239   0.105   1.402   3.265
 2114SOL     OW 7240   1.637   4.264   6.961
 2114SOL    HW1 7241   1.577   4.336   6.994
 2114SOL    HW2 7242   1.637   4.263   6.861
 2115SOL     OW 7243   2.608   4.941   2.422
 2115SOL    HW1 7244   2.567   4.873   2.483
 2115SOL    HW2 7245   2.691   4.976   2.464
 2116SOL     OW 7246   0.087   4.163   3.336
 2116SOL    HW1 7247   0.123   4.144   3.245
 2116SOL    HW2 7248   0.125   4.249   3.370
 2117SOL     OW 7249   6.618   4.807   1.110
 2117SOL    HW1 7250   6.619   4.752   1.027
 2117SOL    HW2 7251   6.612   4.747   1.190
 2118SOL     OW 7252   6.812   4.100   2.298
 2118SOL    HW1 7253   6.788   4.193   2.325
 2118SOL    HW2 7254   6.865   4.103   2.214
 2119SOL     OW 7255   3.059   6.257   1.018
 2119SOL    HW1 7256   3.034   6.183   1.080
 2119SOL    HW2 7257   2.977   6.301   0.983
 2120SOL     OW 7258   0.167   5.333   2.123
 2120SOL    HW1 7259   0.228   5.291   2.190
 2120SOL    HW2 7260   0.135   5.422   2.158
 2121SOL     OW 7261   0.591   4.810   4.871
 2121SOL    HW1 7262   0.503   4.851   4.897
 2121SOL    HW2 7263   0.664   4.847   4.929
 2122SOL     OW 7264   4.550   4.414   5.226
 2122SOL    HW1 7265   4.583   4.505   5.249
 2122SOL    HW2 7266   4.452   4.418   5.204
 2123SOL     OW 7267   5.579   4.243   3.207
 2123SOL    HW1 7268   5.670   4.263   3.245
 2123SOL    HW2 7269   5.585   4.237   3.108
 2124SOL     OW 7270   2.355   1.548   0.967
 2124SOL    HW1 7271   2.258   1.537   0.986
 2124SOL    HW2 7272   2.401   1.585   1.048
 2125SOL     OW 7273   2.880   6.911   1.067
 2125SOL    HW1 7274   2.945   6.873   1.133
 2125SOL    HW2 7275   2.929   6.939   0.985
 2126SOL     OW 7276   2.583   1.112   2.050
 2126SOL    HW1 7277   2.528   1.028   2.043
 2126SOL    HW2 7278   2.675   1.089   2.080
 2127SOL     OW 7279   5.480   2.976   5.049
 2127SOL    HW1 7280   5.490   3.019   5.139
 2127SOL    HW2 7281   5.425   3.035   4.990
 2128SOL     OW 7282   0.279   4.906   3.951
 2128SOL    HW1 7283   0.193   4.895   4.001
 2128SOL    HW2 7284   0.292   5.002   3.928
 2129SOL     OW 7285   3.841   1.779   5.911
 2129SOL    HW1 7286   3.845   1.695   5.858
 2129SOL    HW2 7287   3.833   1.757   6.009
 2130SOL     OW 7288   4.166   6.364   3.419
 2130SOL    HW1 7289   4.261   6.394   3.411
 2130SOL    HW2 7290   4.128   6.395   3.506
 2131SOL     OW 7291   5.657   2.231   0.060
 2131SOL    HW1 7292   5.576   2.173   0.065
 2131SOL    HW2 7293   5.687   2.255   0.153
 2132SOL     OW 7294   2.483   2.797   0.600
 2132SOL    HW1 7295   2.407   2.763   0.654
 2132SOL    HW2 7296   2.509   2.729   0.532
 2133SOL     OW 7297   3.010   3.610   5.892
 2133SOL    HW1 7298   2.929   3.613   5.950
 2133SOL    HW2 7299   2.983   3.594   5.797
 2134SOL     OW 7300   1.143   0.214   0.988
 2134SOL    HW1 7301   1.197   0.271   1.050
 2134SOL    HW2 7302   1.171   0.232   0.893
 2135SOL     OW 7303   0.143   4.317   4.135
 2135SOL    HW1 7304   0.241   4.320   4.114
 2135SOL    HW2 7305   0.095   4.266   4.064
 2136SOL     OW 7306   1.657   4.972   1.480
 2136SOL    HW1 7307   1.650   4.996   1.577
 2136SOL    HW2 7308   1.576   4.920   1.452
 2137SOL     OW 7309   1.821   5.781   4.091
 2137SOL    HW1 7310   1.869   5.741   4.169
 2137SOL    HW2 7311   1.732   5.815   4.120
 2138SOL     OW 7312   5.218   1.883   1.511
 2138SOL    HW1 7313   5.130   1.925   1.533
 2138SOL    HW2 7314   5.288   1.919   1.572
 2139SOL     OW 7315   2.720   0.684   5.504
 2139SOL    HW1 7316   2.637   0.720   5.461
 2139SOL    HW2 7317   2.790   0.755   5.507
 2140SOL     OW 7318   2.173   1.277   4.741
 2140SOL    HW1 7319   2.165   1.231   4.830
 2140SOL    HW2 7320   2.090   1.330   4.724
 2141SOL     OW 7321   6.558   3.914   2.795
 2141SOL    HW1 7322   6.497   3.834   2.799
 2141SOL    HW2 7323   6.591   3.935   2.887
 2142SOL     OW 7324   1.172   2.108   2.639
 2142SOL    HW1 7325   1.090   2.132   2.691
 2142SOL    HW2 7326   1.185   2.174   2.565
 2143SOL     OW 7327   0.943   4.519   0.329
 2143SOL    HW1 7328   1.034   4.491   0.360
 2143SOL    HW2 7329   0.950   4.602   0.275
 2144SOL     OW 7330   5.808   4.588   3.676
 2144SOL    HW1 7331   5.851   4.660   3.622
 2144SOL    HW2 7332   5.750   4.532   3.616
 2145SOL     OW 7333   4.013   0.405   3.610
 2145SOL    HW1 7334   3.962   0.355   3.540
 2145SOL    HW2 7335   4.044   0.493   3.572
 2146SOL     OW 7336   2.077   2.743   6.763
 2146SOL    HW1 7337   2.095   2.839   6.738
 2146SOL    HW2 7338   2.086   2.732   6.862
 2147SOL     OW 7339   5.927   0.395   4.471
 2147SOL    HW1 7340   5.930   0.300   4.502
 2147SOL    HW2 7341   5.931   0.398   4.371
 2148SOL     OW 7342   0.642   3.285   6.313
 2148SOL    HW1 7343   0.625   3.266   6.410
 2148SOL    HW2 7344   0.672   3.380   6.302
 2149SOL     OW 7345   0.723   0.476   0.177
 2149SOL    HW1 7346   0.789   0.412   0.218
 2149SOL    HW2 7347   0.712   0.555   0.238
 2150SOL     OW 7348   2.363   2.369   1.344
 2150SOL    HW1 7349   2.298   2.417   1.404
 2150SOL    HW2 7350   2.419   2.307   1.399
 2151SOL     OW 7351   1.415   5.421   0.366
 2151SOL    HW1 7352   1.328   5.372   0.359
 2151SOL    HW2 7353   1.415   5.477   0.449
 2152SOL     OW 7354   5.151   5.567   4.438
 2152SOL    HW1 7355   5.087   5.492   4.450
 2152SOL    HW2 7356   5.138   5.609   4.348
 2153SOL     OW 7357   4.782   1.429   3.414
 2153SOL    HW1 7358   4.775   1.359   3.342
 2153SOL    HW2 7359   4.692   1.444   3.455
 2154SOL     OW 7360   3.310   0.188   3.498
 2154SOL    HW1 7361   3.222   0.167   3.456
 2154SOL    HW2 7362   3.384   0.169   3.433
 2155SOL     OW 7363   4.479   0.378   1.017
 2155SOL    HW1 7364   4.522   0.330   0.940
 2155SOL    HW2 7365   4.438   0.463   0.984
 2156SOL     OW 7366   5.091   1.573   5.039
 2156SOL    HW1 7367   5.023   1.646   5.048
 2156SOL    HW2 7368   5.167   1.605   4.983
 2157SOL     OW 7369   3.422   6.055   3.841
 2157SOL    HW1 7370   3.490   6.119   3.876
 2157SOL    HW2 7371   3.335   6.070   3.887
 2158SOL     OW 7372   3.697   0.754   0.424
 2158SOL    HW1 7373   3.650   0.690   0.484
 2158SOL    HW2 7374   3.778   0.710   0.386
 2159SOL     OW 7375   0.316   1.345   5.747
 2159SOL    HW1 7376   0.395   1.348   5.686
 2159SOL    HW2 7377   0.243   1.402   5.709
 2160SOL     OW 7378   5.730   6.833   0.219
 2160SOL    HW1 7379   5.773   6.752   0.182
 2160SOL    HW2 7380   5.799   6.904   0.234
 2161SOL     OW 7381   1.538   2.524   1.845
 2161SOL    HW1 7382   1.520   2.471   1.928
 2161SOL    HW2 7383   1.565   2.463   1.771
 2162SOL     OW 7384   0.891   6.943   1.857
 2162SOL    HW1 7385   0.933   6.944   1.766
 2162SOL    HW2 7386   0.834   6.862   1.866
 2163SOL     OW 7387   1.839   2.901   2.378
 2163SOL    HW1 7388   1.818   2.812   2.335
 2163SOL    HW2 7389   1.907   2.887   2.450
 2164SOL     OW 7390   2.012   2.810   2.590
 2164SOL    HW1 7391   1.958   2.819   2.674
 2164SOL    HW2 7392   2.093   2.755   2.608
 2165SOL     OW 7393   6.952   1.388   3.877
 2165SOL    HW1 7394   6.884   1.330   3.832
 2165SOL    HW2 7395   0.013   1.334   3.903
 2166SOL     OW 7396   6.918   4.505   2.884
 2166SOL    HW1 7397   7.002   4.456   2.862
 2166SOL    HW2 7398   6.846   4.439   2.907
 2167SOL     OW 7399   2.388   2.008   3.270
 2167SOL    HW1 7400   2.377   1.911   3.248
 2167SOL    HW2 7401   2.422   2.057   3.190
 2168SOL     OW 7402   1.443   2.012   3.378
 2168SOL    HW1 7403   1.516   1.977   3.437
 2168SOL    HW2 7404   1.464   1.989   3.283
 2169SOL     OW 7405   0.312   0.234   1.677
 2169SOL    HW1 7406   0.401   0.191   1.661
 2169SOL    HW2 7407   0.326   0.332   1.692
 2170SOL     OW 7408   0.988   3.788   5.304
 2170SOL    HW1 7409   0.953   3.882   5.304
 2170SOL    HW2 7410   1.062   3.780   5.238
 2171SOL     OW 7411   0.137   5.415   1.721
 2171SOL    HW1 7412   0.193   5.341   1.683
 2171SOL    HW2 7413   0.044   5.408   1.685
 2172SOL     OW 7414   1.271   1.401   5.074
 2172SOL    HW1 7415   1.290   1.355   4.988
 2172SOL    HW2 7416   1.340   1.375   5.142
 2173SOL     OW 7417   6.295   0.752   5.327
 2173SOL    HW1 7418   6.247   0.834   5.356
 2173SOL    HW2 7419   6.360   0.725   5.397
 2174SOL     OW 7420   6.151   0.380   6.035
 2174SOL    HW1 7421   6.081   0.312   6.016
 2174SOL    HW2 7422   6.157   0.394   6.134
 2175SOL     OW 7423   2.528   3.853   5.327
 2175SOL    HW1 7424   2.470   3.805   5.393
 2175SOL    HW2 7425   2.472   3.917   5.274
 2176SOL     OW 7426   5.714   2.631   2.255
 2176SOL    HW1 7427   5.639   2.662   2.197
 2176SOL    HW2 7428   5.755   2.549   2.216
 2177SOL     OW 7429   0.518   0.290   4.389
 2177SOL    HW1 7430   0.420   0.291   4.409
 2177SOL    HW2 7431   0.570   0.275   4.473
 2178SOL     OW 7432   0.457   1.930   2.784
 2178SOL    HW1 7433   0.520   1.855   2.803
 2178SOL    HW2 7434   0.372   1.916   2.835
 2179SOL     OW 7435   1.159   4.118   6.144
 2179SOL    HW1 7436   1.093   4.167   6.087
 2179SOL    HW2 7437   1.111   4.054   6.203
 2180SOL     OW 7438   0.720   5.984   2.673
 2180SOL    HW1 7439   0.704   6.082   2.685
 2180SOL    HW2 7440   0.807   5.969   2.627
 2181SOL     OW 7441   3.208   4.910   4.533
 2181SOL    HW1 7442   3.253   4.844   4.594
 2181SOL    HW2 7443   3.109   4.895   4.536
 2182SOL     OW 7444   0.092   6.413   2.754
 2182SOL    HW1 7445   0.026   6.356   2.803
 2182SOL    HW2 7446   0.172   6.429   2.813
 2183SOL     OW 7447   3.378   2.917   6.313
 2183SOL    HW1 7448   3.321   2.878   6.241
 2183SOL    HW2 7449   3.431   2.994   6.276
 2184SOL     OW 7450   6.570   1.575   6.903
 2184SOL    HW1 7451   6.665   1.554   6.880
 2184SOL    HW2 7452   6.566   1.623   6.991
 2185SOL     OW 7453   1.126   0.050   6.644
 2185SOL    HW1 7454   1.173   0.068   6.557
 2185SOL    HW2 7455   1.184   0.078   6.720
 2186SOL     OW 7456   0.295   5.256   5.957
 2186SOL    HW1 7457   0.386   5.222   5.937
 2186SOL    HW2 7458   0.286   5.349   5.923
 2187SOL     OW 7459   0.607   5.687   2.385
 2187SOL    HW1 7460   0.673   5.622   2.421
 2187SOL    HW2 7461   0.559   5.732   2.461
 2188SOL     OW 7462   2.286   0.221   0.811
 2188SOL    HW1 7463   2.316   0.313   0.784
 2188SOL    HW2 7464   2.281   0.216   0.911
 2189SOL     OW 7465   1.996   1.448   1.540
 2189SOL    HW1 7466   1.970   1.357   1.573
 2189SOL    HW2 7467   1.931   1.477   1.469
 2190SOL     OW 7468   6.600   4.047   2.033
 2190SOL    HW1 7469   6.652   4.003   1.959
 2190SOL    HW2 7470   6.594   4.145   2.016
 2191SOL     OW 7471   2.883   6.826   0.207
 2191SOL    HW1 7472   2.937   6.844   0.290
 2191SOL    HW2 7473   2.945   6.817   0.129
 2192SOL     OW 7474   4.822   1.835   1.457
 2192SOL    HW1 7475   4.875   1.752   1.475
 2192SOL    HW2 7476   4.763   1.820   1.378
 2193SOL     OW 7477   1.941   6.804   6.109
 2193SOL    HW1 7478   2.031   6.835   6.078
 2193SOL    HW2 7479   1.870   6.862   6.070
 2194SOL     OW 7480   1.185   3.636   5.745
 2194SOL    HW1 7481   1.209   3.541   5.767
 2194SOL    HW2 7482   1.239   3.698   5.801
 2195SOL     OW 7483   0.242   3.573   5.403
 2195SOL    HW1 7484   0.315   3.581   5.335
 2195SOL    HW2 7485   0.262   3.498   5.465
 2196SOL     OW 7486   2.993   0.494   6.623
 2196SOL    HW1 7487   3.064   0.425   6.607
 2196SOL    HW2 7488   2.960   0.529   6.535
 2197SOL     OW 7489   3.545   5.388   5.704
 2197SOL    HW1 7490   3.470   5.414   5.644
 2197SOL    HW2 7491   3.632   5.396   5.655
 2198SOL     OW 7492   0.504   0.242   6.722
 2198SOL    HW1 7493   0.458   0.305   6.785
 2198SOL    HW2 7494   0.600   0.270   6.711
 2199SOL     OW 7495   3.879   6.361   4.917
 2199SOL    HW1 7496   3.880   6.263   4.895
 2199SOL    HW2 7497   3.789   6.387   4.951
 2200SOL     OW 7498   2.672   1.873   4.173
 2200SOL    HW1 7499   2.635   1.785   4.203
 2200SOL    HW2 7500   2.766   1.859   4.140
 2201SOL     OW 7501   6.498   4.091   4.498
 2201SOL    HW1 7502   6.427   4.021   4.488
 2201SOL    HW2 7503   6.461   4.168   4.550
 2202SOL     OW 7504   3.537   6.356   1.636
 2202SOL    HW1 7505   3.604   6.348   1.710
 2202SOL    HW2 7506   3.529   6.268   1.588
 2203SOL     OW 7507   2.201   3.908   0.813
 2203SOL    HW1 7508   2.283   3.851   0.806
 2203SOL    HW2 7509   2.125   3.863   0.765
 2204SOL     OW 7510   5.512   3.646   1.341
 2204SOL    HW1 7511   5.460   3.561   1.330
 2204SOL    HW2 7512   5.604   3.624   1.375
 2205SOL     OW 7513   0.658   5.344   0.378
 2205SOL    HW1 7514   0.562   5.322   0.363
 2205SOL    HW2 7515   0.695   5.389   0.296
 2206SOL     OW 7516   3.239   2.105   5.831
 2206SOL    HW1 7517   3.335   2.084   5.849
 2206SOL    HW2 7518   3.190   2.115   5.918
 2207SOL     OW 7519   4.478   5.976   1.213
 2207SOL    HW1 7520   4.570   5.993   1.179
 2207SOL    HW2 7521   4.412   5.997   1.142
 2208SOL     OW 7522   6.842   6.294   3.562
 2208SOL    HW1 7523   6.821   6.385   3.598
 2208SOL    HW2 7524   6.941   6.280   3.562
 2209SOL     OW 7525   2.913   5.768   3.949
 2209SOL    HW1 7526   2.898   5.711   3.868
 2209SOL    HW2 7527   2.921   5.709   4.029
 2210SOL     OW 7528   4.838   0.012   0.910
 2210SOL    HW1 7529   4.819   0.030   1.006
 2210SOL    HW2 7530   4.929   6.989   0.901
 2211SOL     OW 7531   0.237   1.998   1.018
 2211SOL    HW1 7532   0.159   2.022   1.076
 2211SOL    HW2 7533   0.308   1.955   1.074
 2212SOL     OW 7534   2.941   5.926   7.007
 2212SOL    HW1 7535   2.916   6.022   0.001
 2212SOL    HW2 7536   2.979   5.913   6.915
 2213SOL     OW 7537   3.473   1.628   4.931
 2213SOL    HW1 7538   3.565   1.620   4.970
 2213SOL    HW2 7539   3.426   1.541   4.941
 2214SOL     OW 7540   4.559   3.898   6.875
 2214SOL    HW1 7541   4.546   3.919   6.972
 2214SOL    HW2 7542   4.557   3.799   6.861
 2215SOL     OW 7543   4.164   6.886   0.045
 2215SOL    HW1 7544   4.215   6.823   7.005
 2215SOL    HW2 7545   4.216   6.904   0.129
 2216SOL     OW 7546   0.283   0.177   6.607
 2216SOL    HW1 7547   0.375   0.186   6.644
 2216SOL    HW2 7548   0.281   0.213   6.513
 2217SOL     OW 7549   4.030   0.754   3.834
 2217SOL    HW1 7550   4.008   0.717   3.924
 2217SOL    HW2 7551   4.037   0.853   3.839
 2218SOL     OW 7552   0.585   6.056   5.587
 2218SOL    HW1 7553   0.507   6.119   5.585
 2218SOL    HW2 7554   0.606   6.033   5.681
 2219SOL     OW 7555   6.081   0.917   0.874
 2219SOL    HW1 7556   6.032   0.982   0.816
 2219SOL    HW2 7557   6.136   0.967   0.941
 2220SOL     OW 7558   0.552   5.821   5.086
 2220SOL    HW1 7559   0.544   5.721   5.080
 2220SOL    HW2 7560   0.539   5.861   4.996
 2221SOL     OW 7561   6.476   1.351   3.572
 2221SOL    HW1 7562   6.422   1.266   3.568
 2221SOL    HW2 7563   6.559   1.340   3.518
 2222SOL     OW 7564   5.075   6.619   2.199
 2222SOL    HW1 7565   5.007   6.691   2.193
 2222SOL    HW2 7566   5.137   6.625   2.121
 2223SOL     OW 7567   0.202   6.348   5.722
 2223SOL    HW1 7568   0.141   6.356   5.800
 2223SOL    HW2 7569   0.154   6.376   5.638
 2224SOL     OW 7570   5.767   4.005   0.927
 2224SOL    HW1 7571   5.755   3.916   0.882
 2224SOL    HW2 7572   5.854   4.006   0.976
 2225SOL     OW 7573   6.858   6.775   2.728
 2225SOL    HW1 7574   6.852   6.713   2.650
 2225SOL    HW2 7575   6.817   6.732   2.808
 2226SOL     OW 7576   2.185   5.030   0.862
 2226SOL    HW1 7577   2.274   5.035   0.816
 2226SOL    HW2 7578   2.178   5.105   0.928
 2227SOL     OW 7579   3.652   2.049   1.712
 2227SOL    HW1 7580   3.609   1.991   1.781
 2227SOL    HW2 7581   3.658   2.143   1.746
 2228SOL     OW 7582   5.482   5.015   6.731
 2228SOL    HW1 7583   5.578   4.999   6.755
 2228SOL    HW2 7584   5.455   5.106   6.761
 2229SOL     OW 7585   3.314   3.200   3.713
 2229SOL    HW1 7586   3.377   3.191   3.791
 2229SOL    HW2 7587   3.367   3.207   3.629
 2230SOL     OW 7588   5.070   0.401   0.658
 2230SOL    HW1 7589   5.153   0.426   0.708
 2230SOL    HW2 7590   5.084   0.314   0.612
 2231SOL     OW 7591   1.443   0.183   6.708
 2231SOL    HW1 7592   1.380   0.192   6.631
 2231SOL    HW2 7593   1.536   0.170   6.674
 2232SOL     OW 7594   0.781   0.653   5.050
 2232SOL    HW1 7595   0.695   0.703   5.053
 2232SOL    HW2 7596   0.857   0.718   5.041
 2233SOL     OW 7597   2.904   4.004   0.928
 2233SOL    HW1 7598   2.958   4.084   0.902
 2233SOL    HW2 7599   2.955   3.951   0.996
 2234SOL     OW 7600   5.134   1.702   1.338
 2234SOL    HW1 7601   5.116   1.736   1.246
 2234SOL    HW2 7602   5.180   1.773   1.392
 2235SOL     OW 7603   1.289   1.713   3.560
 2235SOL    HW1 7604   1.256   1.619   3.558
 2235SOL    HW2 7605   1.244   1.766   3.488
 2236SOL     OW 7606   1.705   4.512   5.380
 2236SOL    HW1 7607   1.734   4.510   5.284
 2236SOL    HW2 7608   1.785   4.516   5.439
 2237SOL     OW 7609   6.881   5.486   5.996
 2237SOL    HW1 7610   6.898   5.551   6.070
 2237SOL    HW2 7611   6.807   5.520   5.938
 2238SOL     OW 7612   5.590   4.616   2.123
 2238SOL    HW1 7613   5.587   4.552   2.046
 2238SOL    HW2 7614   5.592   4.565   2.209
 2239SOL     OW 7615   4.017   6.767   3.195
 2239SOL    HW1 7616   3.959   6.711   3.254
 2239SOL    HW2 7617   4.096   6.800   3.247
 2240SOL     OW 7618   4.792   4.873   3.517
 2240SOL    HW1 7619   4.755   4.782   3.503
 2240SOL    HW2 7620   4.890   4.873   3.495
 2241SOL     OW 7621   0.564   0.780   1.676
 2241SOL    HW1 7622   0.628   0.828   1.736
 2241SOL    HW2 7623   0.552   0.832   1.592
 2242SOL     OW 7624   4.793   2.954   3.312
 2242SOL    HW1 7625   4.834   3.002   3.390
 2242SOL    HW2 7626   4.805   2.855   3.324
 2243SOL     OW 7627   1.439   6.275   0.705
 2243SOL    HW1 7628   1.470   6.245   0.614
 2243SOL    HW2 7629   1.517   6.312   0.755
 2244SOL     OW 7630   2.876   0.711   0.540
 2244SOL    HW1 7631   2.859   0.791   0.596
 2244SOL    HW2 7632   2.904   0.740   0.448
 2245SOL     OW 7633   0.604   0.079   0.137
 2245SOL    HW1 7634   0.530   0.143   0.121
 2245SOL    HW2 7635   0.596   0.002   0.073
 2246SOL     OW 7636   2.658   0.555   4.990
 2246SOL    HW1 7637   2.739   0.579   4.935
 2246SOL    HW2 7638   2.686   0.529   5.082
 2247SOL     OW 7639   3.143   4.020   2.577
 2247SOL    HW1 7640   3.166   4.021   2.674
 2247SOL    HW2 7641   3.046   4.000   2.565
 2248SOL     OW 7642   4.765   4.112   4.898
 2248SOL    HW1 7643   4.785   4.044   4.969
 2248SOL    HW2 7644   4.700   4.179   4.933
 2249SOL     OW 7645   2.040   5.891   3.059
 2249SOL    HW1 7646   2.060   5.813   3.117
 2249SOL    HW2 7647   2.114   5.958   3.067
 2250SOL     OW 7648   4.406   5.229   6.265
 2250SOL    HW1 7649   4.496   5.186   6.271
 2250SOL    HW2 7650   4.350   5.200   6.342
 2251SOL     OW 7651   5.601   6.395   6.043
 2251SOL    HW1 7652   5.554   6.470   5.996
 2251SOL    HW2 7653   5.574   6.395   6.140
 2252SOL     OW 7654   4.404   1.557   3.128
 2252SOL    HW1 7655   4.339   1.622   3.087
 2252SOL    HW2 7656   4.428   1.488   3.060
 2253SOL     OW 7657   0.463   3.575   0.872
 2253SOL    HW1 7658   0.382   3.518   0.859
 2253SOL    HW2 7659   0.540   3.519   0.902
 2254SOL     OW 7660   3.583   3.497   2.701
 2254SOL    HW1 7661   3.483   3.494   2.696
 2254SOL    HW2 7662   3.621   3.411   2.667
 2255SOL     OW 7663   3.551   3.613   6.293
 2255SOL    HW1 7664   3.636   3.666   6.296
 2255SOL    HW2 7665   3.474   3.675   6.277
 2256SOL     OW 7666   4.661   0.145   2.086
 2256SOL    HW1 7667   4.722   0.098   2.150
 2256SOL    HW2 7668   4.609   0.215   2.135
 2257SOL     OW 7669   0.641   0.851   4.717
 2257SOL    HW1 7670   0.591   0.921   4.768
 2257SOL    HW2 7671   0.730   0.888   4.688
 2258SOL     OW 7672   2.961   5.919   3.698
 2258SOL    HW1 7673   2.939   6.001   3.646
 2258SOL    HW2 7674   2.931   5.930   3.793
 2259SOL     OW 7675   5.986   2.154   4.416
 2259SOL    HW1 7676   5.903   2.118   4.376
 2259SOL    HW2 7677   6.004   2.245   4.379
 2260SOL     OW 7678   1.260   3.760   1.234
 2260SOL    HW1 7679   1.181   3.820   1.228
 2260SOL    HW2 7680   1.326   3.796   1.300
 2261SOL     OW 7681   5.602   3.984   6.604
 2261SOL    HW1 7682   5.550   3.997   6.519
 2261SOL    HW2 7683   5.540   3.988   6.682
 2262SOL     OW 7684   6.706   0.342   4.383
 2262SOL    HW1 7685   6.739   0.290   4.462
 2262SOL    HW2 7686   6.652   0.419   4.415
 2263SOL     OW 7687   1.619   4.294   6.583
 2263SOL    HW1 7688   1.593   4.386   6.554
 2263SOL    HW2 7689   1.701   4.265   6.533
 2264SOL     OW 7690   2.546   0.120   5.540
 2264SOL    HW1 7691   2.452   0.097   5.515
 2264SOL    HW2 7692   2.564   0.216   5.518
 2265SOL     OW 7693   0.950   6.387   4.571
 2265SOL    HW1 7694   0.852   6.382   4.590
 2265SOL    HW2 7695   0.990   6.463   4.621
 2266SOL     OW 7696   4.408   1.601   6.687
 2266SOL    HW1 7697   4.473   1.665   6.728
 2266SOL    HW2 7698   4.424   1.597   6.588
 2267SOL     OW 7699   4.657   2.745   4.295
 2267SOL    HW1 7700   4.748   2.703   4.290
 2267SOL    HW2 7701   4.656   2.812   4.370
 2268SOL     OW 7702   0.511   5.368   5.562
 2268SOL    HW1 7703   0.586   5.328   5.509
 2268SOL    HW2 7704   0.445   5.410   5.499
 2269SOL     OW 7705   2.121   2.040   5.213
 2269SOL    HW1 7706   2.090   2.013   5.304
 2269SOL    HW2 7707   2.049   2.023   5.147
 2270SOL     OW 7708   4.725   1.843   6.019
 2270SOL    HW1 7709   4.677   1.802   5.941
 2270SOL    HW2 7710   4.813   1.880   5.988
 2271SOL     OW 7711   5.213   4.849   5.927
 2271SOL    HW1 7712   5.228   4.774   5.862
 2271SOL    HW2 7713   5.134   4.902   5.899
 2272SOL     OW 7714   5.591   1.176   5.735
 2272SOL    HW1 7715   5.602   1.270   5.767
 2272SOL    HW2 7716   5.662   1.155   5.667
 2273SOL     OW 7717   1.224   2.610   2.433
 2273SOL    HW1 7718   1.188   2.555   2.358
 2273SOL    HW2 7719   1.232   2.554   2.516
 2274SOL     OW 7720   0.299   1.442   6.302
 2274SOL    HW1 7721   0.388   1.476   6.271
 2274SOL    HW2 7722   0.305   1.343   6.318
 2275SOL     OW 7723   5.647   4.998   2.456
 2275SOL    HW1 7724   5.575   5.021   2.521
 2275SOL    HW2 7725   5.728   5.053   2.475
 2276SOL     OW 7726   1.352   2.182   1.144
 2276SOL    HW1 7727   1.356   2.157   1.241
 2276SOL    HW2 7728   1.329   2.101   1.090
 2277SOL     OW 7729   3.506   3.266   3.508
 2277SOL    HW1 7730   3.510   3.279   3.408
 2277SOL    HW2 7731   3.552   3.343   3.552
 2278SOL     OW 7732   0.525   2.299   3.962
 2278SOL    HW1 7733   0.472   2.381   3.941
 2278SOL    HW2 7734   0.589   2.280   3.887
 2279SOL     OW 7735   0.659   6.138   5.144
 2279SOL    HW1 7736   0.593   6.194   5.194
 2279SOL    HW2 7737   0.615   6.053   5.114
 2280SOL     OW 7738   4.697   1.616   5.013
 2280SOL    HW1 7739   4.606   1.595   4.977
 2280SOL    HW2 7740   4.764   1.555   4.971
 2281SOL     OW 7741   5.367   0.172   2.579
 2281SOL    HW1 7742   5.379   0.089   2.634
 2281SOL    HW2 7743   5.449   0.229   2.587
 2282SOL     OW 7744   4.239   5.935   5.715
 2282SOL    HW1 7745   4.294   6.000   5.663
 2282SOL    HW2 7746   4.232   5.849   5.665
 2283SOL     OW 7747   0.620   0.331   3.824
 2283SOL    HW1 7748   0.631   0.406   3.889
 2283SOL    HW2 7749   0.653   0.246   3.865
 2284SOL     OW 7750   1.435   3.348   6.680
 2284SOL    HW1 7751   1.529   3.317   6.691
 2284SOL    HW2 7752   1.383   3.329   6.763
 2285SOL     OW 7753   1.166   4.182   6.487
 2285SOL    HW1 7754   1.143   4.115   6.557
 2285SOL    HW2 7755   1.244   4.151   6.433
 2286SOL     OW 7756   4.444   6.080   4.181
 2286SOL    HW1 7757   4.512   6.049   4.115
 2286SOL    HW2 7758   4.388   6.153   4.140
 2287SOL     OW 7759   1.914   1.005   3.347
 2287SOL    HW1 7760   1.829   1.012   3.399
 2287SOL    HW2 7761   1.916   0.918   3.299
 2288SOL     OW 7762   0.332   6.490   2.911
 2288SOL    HW1 7763   0.303   6.439   2.992
 2288SOL    HW2 7764   0.321   6.588   2.929
 2289SOL     OW 7765   1.064   5.808   1.773
 2289SOL    HW1 7766   1.037   5.868   1.848
 2289SOL    HW2 7767   1.097   5.864   1.697
 2290SOL     OW 7768   0.641   5.485   0.618
 2290SOL    HW1 7769   0.651   5.411   0.684
 2290SOL    HW2 7770   0.639   5.448   0.526
 2291SOL     OW 7771   2.683   1.750   6.300
 2291SOL    HW1 7772   2.622   1.688   6.251
 2291SOL    HW2 7773   2.640   1.777   6.386
 2292SOL     OW 7774   1.308   0.984   4.572
 2292SOL    HW1 7775   1.375   1.048   4.536
 2292SOL    HW2 7776   1.339   0.890   4.555
 2293SOL     OW 7777   5.472   5.109   2.283
 2293SOL    HW1 7778   5.440   5.072   2.196
 2293SOL    HW2 7779   5.535   5.045   2.326
 2294SOL     OW 7780   4.166   6.312   6.733
 2294SOL    HW1 7781   4.093   6.302   6.801
 2294SOL    HW2 7782   4.147   6.253   6.654
 2295SOL     OW 7783   0.429   2.320   1.122
 2295SOL    HW1 7784   0.476   2.233   1.137
 2295SOL    HW2 7785   0.474   2.392   1.175
 2296SOL     OW 7786   3.329   6.656   0.037
 2296SOL    HW1 7787   3.331   6.623   6.961
 2296SOL    HW2 7788   3.293   6.583   0.096
 2297SOL     OW 7789   4.355   5.427   5.797
 2297SOL    HW1 7790   4.447   5.446   5.763
 2297SOL    HW2 7791   4.353   5.435   5.896
 2298SOL     OW 7792   3.990   3.027   0.304
 2298SOL    HW1 7793   3.968   3.113   0.258
 2298SOL    HW2 7794   4.087   3.008   0.294
 2299SOL     OW 7795   4.790   5.922   0.060
 2299SOL    HW1 7796   4.747   5.875   7.001
 2299SOL    HW2 7797   4.885   5.890   0.069
 2300SOL     OW 7798   1.645   5.174   1.287
 2300SOL    HW1 7799   1.650   5.092   1.344
 2300SOL    HW2 7800   1.628   5.254   1.345
 2301SOL     OW 7801   4.074   3.243   2.821
 2301SOL    HW1 7802   4.094   3.327   2.871
 2301SOL    HW2 7803   4.096   3.256   2.724
 2302SOL     OW 7804   3.255   5.548   2.415
 2302SOL    HW1 7805   3.233   5.613   2.487
 2302SOL    HW2 7806   3.353   5.546   2.400
 2303SOL     OW 7807   1.429   2.597   4.718
 2303SOL    HW1 7808   1.330   2.609   4.724
 2303SOL    HW2 7809   1.451   2.500   4.711
 2304SOL     OW 7810   2.162   0.765   3.826
 2304SOL    HW1 7811   2.094   0.785   3.896
 2304SOL    HW2 7812   2.209   0.680   3.848
 2305SOL     OW 7813   3.365   5.410   1.884
 2305SOL    HW1 7814   3.365   5.502   1.845
 2305SOL    HW2 7815   3.437   5.356   1.841
 2306SOL     OW 7816   1.235   4.026   1.033
 2306SOL    HW1 7817   1.191   4.016   0.943
 2306SOL    HW2 7818   1.317   3.970   1.036
 2307SOL     OW 7819   0.498   2.500   2.892
 2307SOL    HW1 7820   0.561   2.445   2.837
 2307SOL    HW2 7821   0.464   2.446   2.968
 2308SOL     OW 7822   0.274   0.132   0.384
 2308SOL    HW1 7823   0.266   0.099   0.290
 2308SOL    HW2 7824   0.261   0.231   0.386
 2309SOL     OW 7825   3.379   5.382   6.372
 2309SOL    HW1 7826   3.308   5.388   6.442
 2309SOL    HW2 7827   3.446   5.313   6.398
 2310SOL     OW 7828   5.556   0.913   1.951
 2310SOL    HW1 7829   5.637   0.875   1.905
 2310SOL    HW2 7830   5.495   0.953   1.883
 2311SOL     OW 7831   3.015   0.379   3.192
 2311SOL    HW1 7832   3.100   0.407   3.235
 2311SOL    HW2 7833   2.973   0.458   3.146
 2312SOL     OW 7834   4.216   0.954   3.035
 2312SOL    HW1 7835   4.225   0.855   3.044
 2312SOL    HW2 7836   4.174   0.975   2.946
 2313SOL     OW 7837   5.106   3.949   2.075
 2313SOL    HW1 7838   5.169   3.880   2.039
 2313SOL    HW2 7839   5.124   3.964   2.172
 2314SOL     OW 7840   6.518   0.307   3.190
 2314SOL    HW1 7841   6.577   0.239   3.234
 2314SOL    HW2 7842   6.551   0.324   3.097
 2315SOL     OW 7843   4.335   4.605   5.683
 2315SOL    HW1 7844   4.433   4.585   5.680
 2315SOL    HW2 7845   4.303   4.600   5.778
 2316SOL     OW 7846   2.927   1.062   6.039
 2316SOL    HW1 7847   2.930   1.066   5.939
 2316SOL    HW2 7848   2.924   1.154   6.077
 2317SOL     OW 7849   5.896   5.852   3.634
 2317SOL    HW1 7850   5.871   5.912   3.558
 2317SOL    HW2 7851   5.894   5.903   3.720
 2318SOL     OW 7852   1.611   4.693   4.876
 2318SOL    HW1 7853   1.572   4.782   4.851
 2318SOL    HW2 7854   1.674   4.663   4.805
 2319SOL     OW 7855   2.494   5.075   4.413
 2319SOL    HW1 7856   2.491   5.082   4.313
 2319SOL    HW2 7857   2.552   5.147   4.450
 2320SOL     OW 7858   1.292   3.247   5.052
 2320SOL    HW1 7859   1.297   3.335   5.005
 2320SOL    HW2 7860   1.385   3.212   5.067
 2321SOL     OW 7861   2.764   5.000   6.321
 2321SOL    HW1 7862   2.741   4.967   6.229
 2321SOL    HW2 7863   2.781   5.098   6.318
 2322SOL     OW 7864   1.538   3.728   2.506
 2322SOL    HW1 7865   1.529   3.822   2.539
 2322SOL    HW2 7866   1.559   3.668   2.583
 2323SOL     OW 7867   2.236   4.941   1.611
 2323SOL    HW1 7868   2.186   4.956   1.696
 2323SOL    HW2 7869   2.329   4.978   1.620
 2324SOL     OW 7870   0.645   5.274   1.655
 2324SOL    HW1 7871   0.591   5.321   1.725
 2324SOL    HW2 7872   0.631   5.175   1.663
 2325SOL     OW 7873   6.753   5.228   1.914
 2325SOL    HW1 7874   6.822   5.176   1.964
 2325SOL    HW2 7875   6.735   5.314   1.961
 2326SOL     OW 7876   1.094   0.440   6.529
 2326SOL    HW1 7877   1.062   0.505   6.461
 2326SOL    HW2 7878   1.037   0.447   6.611
 2327SOL     OW 7879   6.306   0.254   2.349
 2327SOL    HW1 7880   6.309   0.243   2.448
 2327SOL    HW2 7881   6.229   0.203   2.312
 2328SOL     OW 7882   1.580   2.288   2.186
 2328SOL    HW1 7883   1.643   2.284   2.108
 2328SOL    HW2 7884   1.633   2.286   2.271
 2329SOL     OW 7885   1.136   5.186   3.627
 2329SOL    HW1 7886   1.098   5.256   3.688
 2329SOL    HW2 7887   1.217   5.222   3.581
 2330SOL     OW 7888   6.744   3.081   0.165
 2330SOL    HW1 7889   6.706   3.169   0.194
 2330SOL    HW2 7890   6.721   3.012   0.233
 2331SOL     OW 7891   3.465   5.897   0.277
 2331SOL    HW1 7892   3.431   5.822   0.220
 2331SOL    HW2 7893   3.537   5.862   0.338
 2332SOL     OW 7894   5.314   6.757   6.349
 2332SOL    HW1 7895   5.307   6.758   6.449
 2332SOL    HW2 7896   5.230   6.720   6.310
 2333SOL     OW 7897   0.028   5.261   2.876
 2333SOL    HW1 7898   0.061   5.354   2.894
 2333SOL    HW2 7899   0.010   5.251   2.778
 2334SOL     OW 7900   2.844   0.772   5.820
 2334SOL    HW1 7901   2.849   0.674   5.839
 2334SOL    HW2 7902   2.913   0.796   5.751
 2335SOL     OW 7903   6.377   1.812   3.591
 2335SOL    HW1 7904   6.282   1.815   3.620
 2335SOL    HW2 7905   6.381   1.795   3.492
 2336SOL     OW 7906   2.117   1.884   3.135
 2336SOL    HW1 7907   2.162   1.927   3.057
 2336SOL    HW2 7908   2.171   1.805   3.165
 2337SOL     OW 7909   3.935   2.160   1.313
 2337SOL    HW1 7910   3.953   2.068   1.347
 2337SOL    HW2 7911   3.968   2.227   1.380
 2338SOL     OW 7912   0.543   3.519   3.982
 2338SOL    HW1 7913   0.486   3.526   4.063
 2338SOL    HW2 7914   0.515   3.587   3.915
 2339SOL     OW 7915   2.986   3.232   2.554
 2339SOL    HW1 7916   3.002   3.163   2.625
 2339SOL    HW2 7917   3.029   3.203   2.469
 2340SOL     OW 7918   1.141   4.820   6.607
 2340SOL    HW1 7919   1.053   4.778   6.626
 2340SOL    HW2 7920   1.133   4.879   6.526
 2341SOL     OW 7921   2.436   4.502   3.078
 2341SOL    HW1 7922   2.402   4.422   3.028
 2341SOL    HW2 7923   2.435   4.483   3.176
 2342SOL     OW 7924   3.150   6.542   4.234
 2342SOL    HW1 7925   3.119   6.446   4.231
 2342SOL    HW2 7926   3.102   6.595   4.164
 2343SOL     OW 7927   2.013   6.511   2.794
 2343SOL    HW1 7928   2.026   6.482   2.699
 2343SOL    HW2 7929   2.101   6.509   2.842
 2344SOL     OW 7930   6.362   4.693   1.054
 2344SOL    HW1 7931   6.340   4.716   0.959
 2344SOL    HW2 7932   6.434   4.754   1.087
 2345SOL     OW 7933   2.981   5.457   4.602
 2345SOL    HW1 7934   2.955   5.454   4.506
 2345SOL    HW2 7935   3.014   5.548   4.626
 2346SOL     OW 7936   4.139   3.491   6.164
 2346SOL    HW1 7937   4.127   3.567   6.227
 2346SOL    HW2 7938   4.235   3.485   6.137
 2347SOL     OW 7939   1.037   1.896   1.682
 2347SOL    HW1 7940   0.962   1.914   1.618
 2347SOL    HW2 7941   1.124   1.894   1.632
 2348SOL     OW 7942   1.464   6.046   3.064
 2348SOL    HW1 7943   1.407   6.117   3.023
 2348SOL    HW2 7944   1.556   6.051   3.026
 2349SOL     OW 7945   1.014   3.946   6.310
 2349SOL    HW1 7946   0.936   4.007   6.317
 2349SOL    HW2 7947   1.009   3.877   6.383
 2350SOL     OW 7948   6.277   4.124   5.682
 2350SOL    HW1 7949   6.373   4.150   5.672
 2350SOL    HW2 7950   6.220   4.179   5.621
 2351SOL     OW 7951   2.659   4.616   2.979
 2351SOL    HW1 7952   2.638   4.589   2.885
 2351SOL    HW2 7953   2.631   4.545   3.042
 2352SOL     OW 7954   0.238   3.059   3.397
 2352SOL    HW1 7955   0.267   2.985   3.458
 2352SOL    HW2 7956   0.215   3.140   3.451
 2353SOL     OW 7957   4.137   5.351   5.666
 2353SOL    HW1 7958   4.112   5.416   5.594
 2353SOL    HW2 7959   4.221   5.382   5.710
 2354SOL     OW 7960   2.923   2.167   4.506
 2354SOL    HW1 7961   2.827   2.139   4.502
 2354SOL    HW2 7962   2.975   2.098   4.557
 2355SOL     OW 7963   2.443   6.098   4.649
 2355SOL    HW1 7964   2.535   6.136   4.641
 2355SOL    HW2 7965   2.380   6.169   4.682
 2356SOL     OW 7966   0.745   2.660   6.831
 2356SOL    HW1 7967   0.844   2.675   6.818
 2356SOL    HW2 7968   0.699   2.672   6.743
 2357SOL     OW 7969   3.188   1.098   2.569
 2357SOL    HW1 7970   3.280   1.135   2.557
 2357SOL    HW2 7971   3.127   1.138   2.500
 2358SOL     OW 7972   3.138   4.464   6.004
 2358SOL    HW1 7973   3.058   4.431   5.954
 2358SOL    HW2 7974   3.119   4.555   6.041
 2359SOL     OW 7975   1.435   0.128   5.342
 2359SOL    HW1 7976   1.338   0.143   5.322
 2359SOL    HW2 7977   1.476   0.213   5.375
 2360SOL     OW 7978   6.233   3.712   1.155
 2360SOL    HW1 7979   6.331   3.713   1.177
 2360SOL    HW2 7980   6.185   3.654   1.221
 2361SOL     OW 7981   2.975   1.109   5.756
 2361SOL    HW1 7982   2.956   1.195   5.710
 2361SOL    HW2 7983   2.994   1.038   5.688
 2362SOL     OW 7984   3.277   4.911   3.533
 2362SOL    HW1 7985   3.377   4.906   3.536
 2362SOL    HW2 7986   3.239   4.878   3.620
 2363SOL     OW 7987   3.695   1.720   3.430
 2363SOL    HW1 7988   3.719   1.623   3.420
 2363SOL    HW2 7989   3.636   1.748   3.355
 2364SOL     OW 7990   1.228   2.530   1.456
 2364SOL    HW1 7991   1.271   2.470   1.523
 2364SOL    HW2 7992   1.129   2.527   1.468
 2365SOL     OW 7993   5.952   2.458   0.088
 2365SOL    HW1 7994   5.948   2.416   0.179
 2365SOL    HW2 7995   6.025   2.527   0.088
 2366SOL     OW 7996   3.758   5.456   0.639
 2366SOL    HW1 7997   3.831   5.420   0.581
 2366SOL    HW2 7998   3.761   5.412   0.728
 2367SOL     OW 7999   2.465   3.030   0.294
 2367SOL    HW1 8000   2.369   3.049   0.312
 2367SOL    HW2 8001   2.517   3.041   0.379
 2368SOL     OW 8002   5.939   6.782   3.886
 2368SOL    HW1 8003   5.891   6.850   3.831
 2368SOL    HW2 8004   5.976   6.825   3.968
 2369SOL     OW 8005   2.010   6.795   3.857
 2369SOL    HW1 8006   2.047   6.765   3.945
 2369SOL    HW2 8007   2.005   6.895   3.856
 2370SOL     OW 8008   5.954   2.832   6.477
 2370SOL    HW1 8009   5.889   2.906   6.462
 2370SOL    HW2 8010   6.036   2.868   6.521
 2371SOL     OW 8011   2.124   0.035   1.652
 2371SOL    HW1 8012   2.146   6.999   1.571
 2371SOL    HW2 8013   2.098   0.128   1.624
 2372SOL     OW 8014   0.113   2.259   2.355
 2372SOL    HW1 8015   0.048   2.300   2.290
 2372SOL    HW2 8016   0.106   2.306   2.443
 2373SOL     OW 8017   2.147   3.627   5.540
 2373SOL    HW1 8018   2.062   3.575   5.535
 2373SOL    HW2 8019   2.129   3.724   5.525
 2374SOL     OW 8020   6.546   1.837   4.957
 2374SOL    HW1 8021   6.488   1.901   4.907
 2374SOL    HW2 8022   6.642   1.858   4.939
 2375SOL     OW 8023   3.449   5.764   5.695
 2375SOL    HW1 8024   3.391   5.705   5.639
 2375SOL    HW2 8025   3.519   5.807   5.637
 2376SOL     OW 8026   6.112   3.463   3.665
 2376SOL    HW1 8027   6.107   3.513   3.752
 2376SOL    HW2 8028   6.040   3.394   3.662
 2377SOL     OW 8029   3.121   3.659   4.043
 2377SOL    HW1 8030   3.054   3.593   4.078
 2377SOL    HW2 8031   3.103   3.748   4.084
 2378SOL     OW 8032   5.041   2.082   0.078
 2378SOL    HW1 8033   5.101   2.013   0.036
 2378SOL    HW2 8034   4.981   2.121   0.009
 2379SOL     OW 8035   6.409   0.987   0.516
 2379SOL    HW1 8036   6.402   1.069   0.459
 2379SOL    HW2 8037   6.408   1.013   0.612
 2380SOL     OW 8038   6.627   2.775   0.861
 2380SOL    HW1 8039   6.711   2.823   0.837
 2380SOL    HW2 8040   6.649   2.693   0.914
 2381SOL     OW 8041   1.871   5.393   2.923
 2381SOL    HW1 8042   1.911   5.472   2.969
 2381SOL    HW2 8043   1.943   5.334   2.886
 2382SOL     OW 8044   2.084   3.335   4.694
 2382SOL    HW1 8045   1.990   3.309   4.675
 2382SOL    HW2 8046   2.119   3.389   4.617
 2383SOL     OW 8047   6.788   6.552   1.176
 2383SOL    HW1 8048   6.750   6.640   1.147
 2383SOL    HW2 8049   6.886   6.550   1.155
 2384SOL     OW 8050   4.808   1.983   1.888
 2384SOL    HW1 8051   4.891   2.004   1.940
 2384SOL    HW2 8052   4.732   1.970   1.951
 2385SOL     OW 8053   7.011   0.907   6.949
 2385SOL    HW1 8054   6.929   0.849   6.946
 2385SOL    HW2 8055   0.008   0.938   0.025
 2386SOL     OW 8056   5.049   6.083   5.430
 2386SOL    HW1 8057   5.120   6.013   5.429
 2386SOL    HW2 8058   5.079   6.160   5.486
 2387SOL     OW 8059   1.782   0.982   3.924
 2387SOL    HW1 8060   1.716   1.051   3.954
 2387SOL    HW2 8061   1.736   0.893   3.917
 2388SOL     OW 8062   6.710   3.032   3.742
 2388SOL    HW1 8063   6.728   3.034   3.841
 2388SOL    HW2 8064   6.635   3.095   3.721
 2389SOL     OW 8065   4.545   4.650   3.452
 2389SOL    HW1 8066   4.552   4.589   3.373
 2389SOL    HW2 8067   4.507   4.738   3.424
 2390SOL     OW 8068   4.151   3.585   2.731
 2390SOL    HW1 8069   4.057   3.580   2.697
 2390SOL    HW2 8070   4.157   3.538   2.819
 2391SOL     OW 8071   4.675   4.788   6.185
 2391SOL    HW1 8072   4.678   4.714   6.252
 2391SOL    HW2 8073   4.710   4.755   6.097
 2392SOL     OW 8074   2.714   6.980   6.484
 2392SOL    HW1 8075   2.687   6.925   6.563
 2392SOL    HW2 8076   2.662   0.048   6.484
 2393SOL     OW 8077   4.414   4.791   6.088
 2393SOL    HW1 8078   4.502   4.797   6.135
 2393SOL    HW2 8079   4.362   4.875   6.104
 2394SOL     OW 8080   0.168   4.581   4.927
 2394SOL    HW1 8081   0.133   4.489   4.910
 2394SOL    HW2 8082   0.141   4.610   5.019
 2395SOL     OW 8083   4.560   6.419   5.935
 2395SOL    HW1 8084   4.634   6.401   6.000
 2395SOL    HW2 8085   4.511   6.334   5.916
 2396SOL     OW 8086   4.162   5.130   0.951
 2396SOL    HW1 8087   4.229   5.200   0.927
 2396SOL    HW2 8088   4.181   5.047   0.898
 2397SOL     OW 8089   0.481   4.285   4.424
 2397SOL    HW1 8090   0.573   4.306   4.457
 2397SOL    HW2 8091   0.442   4.211   4.479
 2398SOL     OW 8092   5.280   4.681   6.143
 2398SOL    HW1 8093   5.263   4.740   6.063
 2398SOL    HW2 8094   5.354   4.720   6.197
 2399SOL     OW 8095   4.729   1.508   1.673
 2399SOL    HW1 8096   4.747   1.410   1.679
 2399SOL    HW2 8097   4.817   1.557   1.665
 2400SOL     OW 8098   2.409   4.601   0.843
 2400SOL    HW1 8099   2.383   4.604   0.940
 2400SOL    HW2 8100   2.357   4.529   0.797
 2401SOL     OW 8101   6.356   6.064   6.082
 2401SOL    HW1 8102   6.442   6.025   6.050
 2401SOL    HW2 8103   6.311   5.999   6.144
 2402SOL     OW 8104   0.872   6.740   4.187
 2402SOL    HW1 8105   0.885   6.682   4.267
 2402SOL    HW2 8106   0.923   6.703   4.110
 2403SOL     OW 8107   1.120   2.490   5.139
 2403SOL    HW1 8108   1.205   2.503   5.087
 2403SOL    HW2 8109   1.063   2.571   5.130
 2404SOL     OW 8110   2.146   0.587   0.909
 2404SOL    HW1 8111   2.204   0.545   0.980
 2404SOL    HW2 8112   2.202   0.606   0.828
 2405SOL     OW 8113   3.384   3.981   2.477
 2405SOL    HW1 8114   3.443   3.925   2.535
 2405SOL    HW2 8115   3.297   3.997   2.525
 2406SOL     OW 8116   4.111   1.854   0.780
 2406SOL    HW1 8117   4.070   1.943   0.762
 2406SOL    HW2 8118   4.179   1.863   0.853
 2407SOL     OW 8119   4.984   1.111   3.768
 2407SOL    HW1 8120   4.967   1.178   3.696
 2407SOL    HW2 8121   5.044   1.038   3.734
 2408SOL     OW 8122   4.625   4.512   2.024
 2408SOL    HW1 8123   4.719   4.494   1.993
 2408SOL    HW2 8124   4.573   4.427   2.021
 2409SOL     OW 8125   2.058   3.445   0.945
 2409SOL    HW1 8126   1.983   3.454   1.011
 2409SOL    HW2 8127   2.138   3.404   0.989
 2410SOL     OW 8128   3.269   3.469   3.625
 2410SOL    HW1 8129   3.283   3.530   3.703
 2410SOL    HW2 8130   3.301   3.377   3.647
 2411SOL     OW 8131   5.315   6.751   4.764
 2411SOL    HW1 8132   5.232   6.742   4.709
 2411SOL    HW2 8133   5.345   6.660   4.794
 2412SOL     OW 8134   5.141   3.870   0.960
 2412SOL    HW1 8135   5.205   3.841   1.031
 2412SOL    HW2 8136   5.056   3.901   1.003
 2413SOL     OW 8137   4.968   0.405   2.028
 2413SOL    HW1 8138   4.911   0.350   1.968
 2413SOL    HW2 8139   4.918   0.487   2.056
 2414SOL     OW 8140   5.209   3.238   4.027
 2414SOL    HW1 8141   5.124   3.271   3.985
 2414SOL    HW2 8142   5.203   3.247   4.126
 2415SOL     OW 8143   5.228   0.904   3.120
 2415SOL    HW1 8144   5.174   0.964   3.060
 2415SOL    HW2 8145   5.262   0.958   3.198
 2416SOL     OW 8146   5.050   1.675   6.013
 2416SOL    HW1 8147   4.999   1.737   6.072
 2416SOL    HW2 8148   5.103   1.728   5.946
 2417SOL     OW 8149   2.952   3.261   4.944
 2417SOL    HW1 8150   2.884   3.231   4.878
 2417SOL    HW2 8151   3.044   3.246   4.907
 2418SOL     OW 8152   3.360   3.244   3.245
 2418SOL    HW1 8153   3.266   3.211   3.254
 2418SOL    HW2 8154   3.362   3.342   3.267
 2419SOL     OW 8155   0.316   7.008   3.122
 2419SOL    HW1 8156   0.232   0.038   3.145
 2419SOL    HW2 8157   0.377   0.051   3.072
 2420SOL     OW 8158   2.777   0.186   1.709
 2420SOL    HW1 8159   2.762   0.284   1.721
 2420SOL    HW2 8160   2.729   0.135   1.781
 2421SOL     OW 8161   1.867   2.188   4.778
 2421SOL    HW1 8162   1.848   2.116   4.846
 2421SOL    HW2 8163   1.865   2.277   4.823
 2422SOL     OW 8164   4.758   2.004   0.826
 2422SOL    HW1 8165   4.829   1.988   0.896
 2422SOL    HW2 8166   4.779   1.949   0.745
 2423SOL     OW 8167   2.614   5.623   2.300
 2423SOL    HW1 8168   2.602   5.535   2.253
 2423SOL    HW2 8169   2.636   5.694   2.233
 2424SOL     OW 8170   6.203   1.252   0.388
 2424SOL    HW1 8171   6.241   1.275   0.299
 2424SOL    HW2 8172   6.262   1.288   0.460
 2425SOL     OW 8173   6.543   6.712   3.722
 2425SOL    HW1 8174   6.554   6.674   3.813
 2425SOL    HW2 8175   6.449   6.744   3.710
 2426SOL     OW 8176   2.383   4.505   4.090
 2426SOL    HW1 8177   2.365   4.433   4.157
 2426SOL    HW2 8178   2.437   4.578   4.133
 2427SOL     OW 8179   6.443   6.680   5.514
 2427SOL    HW1 8180   6.389   6.762   5.531
 2427SOL    HW2 8181   6.524   6.681   5.573
 2428SOL     OW 8182   0.497   0.902   1.157
 2428SOL    HW1 8183   0.577   0.959   1.134
 2428SOL    HW2 8184   0.418   0.933   1.103
 2429SOL     OW 8185   4.678   6.040   2.128
 2429SOL    HW1 8186   4.596   6.023   2.074
 2429SOL    HW2 8187   4.670   6.128   2.175
 2430SOL     OW 8188   6.100   0.623   3.057
 2430SOL    HW1 8189   6.153   0.696   3.099
 2430SOL    HW2 8190   6.012   0.660   3.025
 2431SOL     OW 8191   4.223   0.811   1.949
 2431SOL    HW1 8192   4.152   0.766   1.895
 2431SOL    HW2 8193   4.264   0.885   1.896
 2432SOL     OW 8194   3.500   6.177   2.104
 2432SOL    HW1 8195   3.440   6.103   2.072
 2432SOL    HW2 8196   3.511   6.244   2.031
 2433SOL     OW 8197   4.141   0.151   0.015
 2433SOL    HW1 8198   4.163   0.054   0.008
 2433SOL    HW2 8199   4.224   0.205   0.002
 2434SOL     OW 8200   3.779   2.046   6.132
 2434SOL    HW1 8201   3.712   1.973   6.121
 2434SOL    HW2 8202   3.852   2.016   6.193
 2435SOL     OW 8203   5.847   5.649   5.181
 2435SOL    HW1 8204   5.885   5.704   5.255
 2435SOL    HW2 8205   5.895   5.670   5.096
 2436SOL     OW 8206   3.071   5.568   0.259
 2436SOL    HW1 8207   3.074   5.474   0.294
 2436SOL    HW2 8208   3.004   5.620   0.312
 2437SOL     OW 8209   6.880   6.983   6.007
 2437SOL    HW1 8210   6.829   6.933   6.076
 2437SOL    HW2 8211   6.817   0.018   5.950
 2438SOL     OW 8212   2.553   2.557   1.068
 2438SOL    HW1 8213   2.484   2.585   1.134
 2438SOL    HW2 8214   2.626   2.508   1.115
 2439SOL     OW 8215   5.996   4.478   5.252
 2439SOL    HW1 8216   5.956   4.540   5.319
 2439SOL    HW2 8217   5.926   4.450   5.186
 2440SOL     OW 8218   5.880   5.123   6.410
 2440SOL    HW1 8219   5.846   5.161   6.496
 2440SOL    HW2 8220   5.803   5.103   6.350
 2441SOL     OW 8221   5.869   2.784   1.197
 2441SOL    HW1 8222   5.855   2.843   1.117
 2441SOL    HW2 8223   5.960   2.742   1.191
 2442SOL     OW 8224   6.965   3.827   4.524
 2442SOL    HW1 8225   6.944   3.924   4.541
 2442SOL    HW2 8226   6.904   3.770   4.580
 2443SOL     OW 8227   2.946   4.770   5.777
 2443SOL    HW1 8228   3.025   4.831   5.767
 2443SOL    HW2 8229   2.974   4.675   5.762
 2444SOL     OW 8230   2.779   3.887   5.658
 2444SOL    HW1 8231   2.821   3.909   5.570
 2444SOL    HW2 8232   2.782   3.788   5.672
 2445SOL     OW 8233   0.911   0.910   0.829
 2445SOL    HW1 8234   0.888   0.815   0.850
 2445SOL    HW2 8235   1.010   0.921   0.834
 2446SOL     OW 8236   6.398   4.028   6.108
 2446SOL    HW1 8237   6.400   3.931   6.083
 2446SOL    HW2 8238   6.490   4.066   6.102
 2447SOL     OW 8239   0.543   1.838   6.623
 2447SOL    HW1 8240   0.600   1.812   6.546
 2447SOL    HW2 8241   0.456   1.788   6.619
 2448SOL     OW 8242   0.937   6.979   4.381
 2448SOL    HW1 8243   0.987   0.038   4.343
 2448SOL    HW2 8244   0.855   6.962   4.325
 2449SOL     OW 8245   0.256   2.865   5.491
 2449SOL    HW1 8246   0.171   2.844   5.540
 2449SOL    HW2 8247   0.326   2.893   5.556
 2450SOL     OW 8248   2.050   3.350   3.112
 2450SOL    HW1 8249   1.962   3.363   3.066
 2450SOL    HW2 8250   2.054   3.408   3.193
 2451SOL     OW 8251   2.729   6.210   3.989
 2451SOL    HW1 8252   2.672   6.190   3.909
 2451SOL    HW2 8253   2.672   6.248   4.062
 2452SOL     OW 8254   1.249   2.307   4.338
 2452SOL    HW1 8255   1.193   2.387   4.313
 2452SOL    HW2 8256   1.344   2.336   4.351
 2453SOL     OW 8257   0.068   3.794   1.226
 2453SOL    HW1 8258   0.140   3.834   1.170
 2453SOL    HW2 8259   0.104   3.774   1.317
 2454SOL     OW 8260   2.349   0.772   2.278
 2454SOL    HW1 8261   2.286   0.698   2.303
 2454SOL    HW2 8262   2.344   0.845   2.345
 2455SOL     OW 8263   5.547   4.828   0.454
 2455SOL    HW1 8264   5.476   4.814   0.384
 2455SOL    HW2 8265   5.637   4.831   0.410
 2456SOL     OW 8266   3.648   6.416   1.049
 2456SOL    HW1 8267   3.621   6.512   1.042
 2456SOL    HW2 8268   3.748   6.409   1.055
 2457SOL     OW 8269   5.811   6.357   1.621
 2457SOL    HW1 8270   5.799   6.303   1.538
 2457SOL    HW2 8271   5.815   6.454   1.597
 2458SOL     OW 8272   0.407   5.868   3.635
 2458SOL    HW1 8273   0.499   5.885   3.671
 2458SOL    HW2 8274   0.351   5.821   3.703
 2459SOL     OW 8275   1.435   0.875   0.816
 2459SOL    HW1 8276   1.491   0.848   0.894
 2459SOL    HW2 8277   1.338   0.869   0.840
 2460SOL     OW 8278   3.634   5.218   1.353
 2460SOL    HW1 8279   3.561   5.283   1.332
 2460SOL    HW2 8280   3.633   5.198   1.451
 2461SOL     OW 8281   5.148   1.429   3.356
 2461SOL    HW1 8282   5.146   1.404   3.259
 2461SOL    HW2 8283   5.241   1.413   3.392
 2462SOL     OW 8284   2.370   4.437   6.514
 2462SOL    HW1 8285   2.430   4.467   6.587
 2462SOL    HW2 8286   2.353   4.339   6.522
 2463SOL     OW 8287   0.265   1.555   4.174
 2463SOL    HW1 8288   0.235   1.632   4.118
 2463SOL    HW2 8289   0.363   1.562   4.190
 2464SOL     OW 8290   0.949   3.426   1.155
 2464SOL    HW1 8291   0.870   3.365   1.162
 2464SOL    HW2 8292   1.006   3.398   1.078
 2465SOL     OW 8293   6.372   5.385   3.394
 2465SOL    HW1 8294   6.421   5.348   3.315
 2465SOL    HW2 8295   6.376   5.320   3.469
 2466SOL     OW 8296   3.589   1.387   2.313
 2466SOL    HW1 8297   3.514   1.448   2.286
 2466SOL    HW2 8298   3.658   1.440   2.362
 2467SOL     OW 8299   6.428   1.292   5.378
 2467SOL    HW1 8300   6.426   1.210   5.321
 2467SOL    HW2 8301   6.465   1.268   5.468
 2468SOL     OW 8302   6.977   3.917   0.455
 2468SOL    HW1 8303   6.903   3.868   0.410
 2468SOL    HW2 8304   6.949   4.012   0.472
 2469SOL     OW 8305   2.998   3.359   5.472
 2469SOL    HW1 8306   3.072   3.324   5.415
 2469SOL    HW2 8307   2.981   3.455   5.449
 2470SOL     OW 8308   5.804   3.219   0.341
 2470SOL    HW1 8309   5.776   3.231   0.246
 2470SOL    HW2 8310   5.903   3.228   0.348
 2471SOL     OW 8311   0.484   0.289   3.573
 2471SOL    HW1 8312   0.411   0.224   3.598
 2471SOL    HW2 8313   0.542   0.306   3.652
 2472SOL     OW 8314   5.150   1.446   3.721
 2472SOL    HW1 8315   5.195   1.367   3.680
 2472SOL    HW2 8316   5.155   1.440   3.821
 2473SOL     OW 8317   0.318   7.007   5.584
 2473SOL    HW1 8318   0.398   6.956   5.552
 2473SOL    HW2 8319   0.273   6.955   5.657
 2474SOL     OW 8320   5.676   5.902   4.712
 2474SOL    HW1 8321   5.693   5.914   4.810
 2474SOL    HW2 8322   5.662   5.805   4.693
 2475SOL     OW 8323   4.459   2.316   6.145
 2475SOL    HW1 8324   4.493   2.258   6.071
 2475SOL    HW2 8325   4.441   2.260   6.226
 2476SOL     OW 8326   0.854   1.808   3.864
 2476SOL    HW1 8327   0.942   1.804   3.912
 2476SOL    HW2 8328   0.869   1.798   3.766
 2477SOL     OW 8329   4.499   5.028   2.213
 2477SOL    HW1 8330   4.433   5.079   2.158
 2477SOL    HW2 8331   4.534   4.951   2.160
 2478SOL     OW 8332   6.441   6.892   2.946
 2478SOL    HW1 8333   6.401   6.864   2.859
 2478SOL    HW2 8334   6.467   6.810   2.998
 2479SOL     OW 8335   0.977   3.382   0.121
 2479SOL    HW1 8336   0.941   3.454   0.180
 2479SOL    HW2 8337   1.077   3.379   0.129
 2480SOL     OW 8338   0.971   4.480   2.003
 2480SOL    HW1 8339   1.016   4.512   1.920
 2480SOL    HW2 8340   1.039   4.466   2.075
 2481SOL     OW 8341   4.000   5.491   2.732
 2481SOL    HW1 8342   3.903   5.515   2.724
 2481SOL    HW2 8343   4.015   5.442   2.818
 2482SOL     OW 8344   4.945   2.443   3.919
 2482SOL    HW1 8345   4.860   2.390   3.911
 2482SOL    HW2 8346   4.927   2.538   3.895
 2483SOL     OW 8347   0.996   2.322   6.962
 2483SOL    HW1 8348   0.921   2.328   0.011
 2483SOL    HW2 8349   1.005   2.228   6.931
 2484SOL     OW 8350   3.405   2.565   6.079
 2484SOL    HW1 8351   3.438   2.515   5.998
 2484SOL    HW2 8352   3.471   2.552   6.153
 2485SOL     OW 8353   1.180   5.872   1.279
 2485SOL    HW1 8354   1.093   5.825   1.265
 2485SOL    HW2 8355   1.238   5.819   1.342
 2486SOL     OW 8356   0.624   5.326   3.180
 2486SOL    HW1 8357   0.582   5.316   3.090
 2486SOL    HW2 8358   0.633   5.236   3.223
 2487SOL     OW 8359   3.202   1.081   1.008
 2487SOL    HW1 8360   3.236   1.135   0.931
 2487SOL    HW2 8361   3.144   1.008   0.974
 2488SOL     OW 8362   3.321   6.451   6.278
 2488SOL    HW1 8363   3.302   6.446   6.376
 2488SOL    HW2 8364   3.351   6.361   6.246
 2489SOL     OW 8365   6.487   5.819   4.553
 2489SOL    HW1 8366   6.403   5.766   4.559
 2489SOL    HW2 8367   6.564   5.757   4.537
 2490SOL     OW 8368   5.449   3.531   1.680
 2490SOL    HW1 8369   5.372   3.562   1.623
 2490SOL    HW2 8370   5.414   3.499   1.768
 2491SOL     OW 8371   0.262   4.663   2.975
 2491SOL    HW1 8372   0.357   4.670   3.006
 2491SOL    HW2 8373   0.237   4.567   2.967
 2492SOL     OW 8374   4.506   2.214   5.675
 2492SOL    HW1 8375   4.447   2.158   5.732
 2492SOL    HW2 8376   4.599   2.216   5.713
 2493SOL     OW 8377   6.653   1.318   4.260
 2493SOL    HW1 8378   6.687   1.406   4.226
 2493SOL    HW2 8379   6.682   1.245   4.198
 2494SOL     OW 8380   4.232   4.625   1.487
 2494SOL    HW1 8381   4.217   4.541   1.539
 2494SOL    HW2 8382   4.208   4.609   1.391
 2495SOL     OW 8383   6.781   0.854   3.913
 2495SOL    HW1 8384   6.862   0.843   3.970
 2495SOL    HW2 8385   6.706   0.890   3.968
 2496SOL     OW 8386   1.742   5.650   6.464
 2496SOL    HW1 8387   1.749   5.584   6.389
 2496SOL    HW2 8388   1.718   5.740   6.427
 2497SOL     OW 8389   5.526   1.329   0.009
 2497SOL    HW1 8390   5.542   1.278   6.942
 2497SOL    HW2 8391   5.568   1.280   0.085
 2498SOL     OW 8392   0.894   3.318   4.690
 2498SOL    HW1 8393   0.866   3.348   4.599
 2498SOL    HW2 8394   0.993   3.312   4.695
 2499SOL     OW 8395   5.176   0.241   6.606
 2499SOL    HW1 8396   5.151   0.315   6.668
 2499SOL    HW2 8397   5.226   0.278   6.528
 2500SOL     OW 8398   4.418   3.666   6.441
 2500SOL    HW1 8399   4.427   3.616   6.527
 2500SOL    HW2 8400   4.321   3.681   6.421
 2501SOL     OW 8401   6.207   5.096   1.218
 2501SOL    HW1 8402   6.233   5.172   1.158
 2501SOL    HW2 8403   6.133   5.043   1.176
 2502SOL     OW 8404   1.591   6.535   2.744
 2502SOL    HW1 8405   1.547   6.625   2.742
 2502SOL    HW2 8406   1.689   6.546   2.758
 2503SOL     OW 8407   4.748   6.842   4.452
 2503SOL    HW1 8408   4.743   6.795   4.540
 2503SOL    HW2 8409   4.840   6.880   4.441
 2504SOL     OW 8410   2.075   4.438   3.389
 2504SOL    HW1 8411   2.001   4.468   3.328
 2504SOL    HW2 8412   2.038   4.422   3.481
 2505SOL     OW 8413   5.003   4.522   4.487
 2505SOL    HW1 8414   5.081   4.460   4.486
 2505SOL    HW2 8415   4.943   4.499   4.564
 2506SOL     OW 8416   0.467   2.132   0.887
 2506SOL    HW1 8417   0.420   2.073   0.953
 2506SOL    HW2 8418   0.413   2.215   0.873
 2507SOL     OW 8419   6.477   6.279   1.001
 2507SOL    HW1 8420   6.430   6.365   1.021
 2507SOL    HW2 8421   6.569   6.297   0.969
 2508SOL     OW 8422   2.364   2.593   2.014
 2508SOL    HW1 8423   2.373   2.502   1.975
 2508SOL    HW2 8424   2.388   2.661   1.945
 2509SOL     OW 8425   4.937   1.646   3.360
 2509SOL    HW1 8426   4.870   1.572   3.351
 2509SOL    HW2 8427   5.029   1.610   3.346
 2510SOL     OW 8428   4.124   5.758   1.484
 2510SOL    HW1 8429   4.086   5.836   1.434
 2510SOL    HW2 8430   4.061   5.681   1.479
 2511SOL     OW 8431   0.758   6.393   3.994
 2511SOL    HW1 8432   0.823   6.409   4.068
 2511SOL    HW2 8433   0.802   6.414   3.907
 2512SOL     OW 8434   5.028   2.951   4.302
 2512SOL    HW1 8435   5.031   2.953   4.202
 2512SOL    HW2 8436   5.009   2.857   4.332
 2513SOL     OW 8437   0.159   4.775   1.820
 2513SOL    HW1 8438   0.259   4.769   1.830
 2513SOL    HW2 8439   0.134   4.748   1.727
 2514SOL     OW 8440   0.644   1.733   4.051
 2514SOL    HW1 8441   0.600   1.820   4.074
 2514SOL    HW2 8442   0.728   1.750   3.999
 2515SOL     OW 8443   0.567   5.012   0.375
 2515SOL    HW1 8444   0.603   4.942   0.437
 2515SOL    HW2 8445   0.640   5.041   0.313
 2516SOL     OW 8446   4.905   6.419   4.564
 2516SOL    HW1 8447   4.809   6.447   4.570
 2516SOL    HW2 8448   4.960   6.499   4.539
 2517SOL     OW 8449   2.373   5.430   0.718
 2517SOL    HW1 8450   2.282   5.398   0.690
 2517SOL    HW2 8451   2.432   5.435   0.638
 2518SOL     OW 8452   2.273   2.736   6.517
 2518SOL    HW1 8453   2.299   2.652   6.469
 2518SOL    HW2 8454   2.210   2.788   6.460
 2519SOL     OW 8455   5.096   4.012   5.227
 2519SOL    HW1 8456   5.162   3.937   5.217
 2519SOL    HW2 8457   5.124   4.088   5.168
 2520SOL     OW 8458   3.110   5.258   1.878
 2520SOL    HW1 8459   3.194   5.305   1.905
 2520SOL    HW2 8460   3.133   5.170   1.836
 2521SOL     OW 8461   5.847   6.847   6.319
 2521SOL    HW1 8462   5.920   6.816   6.258
 2521SOL    HW2 8463   5.762   6.801   6.296
 2522SOL     OW 8464   1.959   4.331   4.209
 2522SOL    HW1 8465   2.023   4.393   4.164
 2522SOL    HW2 8466   1.988   4.236   4.194
 2523SOL     OW 8467   0.091   3.058   5.836
 2523SOL    HW1 8468   0.010   3.028   5.887
 2523SOL    HW2 8469   0.167   3.073   5.899
 2524SOL     OW 8470   1.285   6.702   4.925
 2524SOL    HW1 8471   1.205   6.678   4.979
 2524SOL    HW2 8472   1.262   6.776   4.862
 2525SOL     OW 8473   1.567   4.207   3.077
 2525SOL    HW1 8474   1.544   4.203   2.980
 2525SOL    HW2 8475   1.665   4.187   3.089
 2526SOL     OW 8476   0.421   2.386   5.256
 2526SOL    HW1 8477   0.388   2.393   5.162
 2526SOL    HW2 8478   0.513   2.425   5.261
 2527SOL     OW 8479   6.278   6.796   3.692
 2527SOL    HW1 8480   6.181   6.776   3.677
 2527SOL    HW2 8481   6.288   6.860   3.768
 2528SOL     OW 8482   5.897   5.182   0.512
 2528SOL    HW1 8483   5.844   5.220   0.588
 2528SOL    HW2 8484   5.935   5.094   0.540
 2529SOL     OW 8485   5.345   4.032   4.773
 2529SOL    HW1 8486   5.245   4.044   4.769
 2529SOL    HW2 8487   5.369   3.942   4.739
 2530SOL     OW 8488   1.130   6.524   3.489
 2530SOL    HW1 8489   1.225   6.536   3.459
 2530SOL    HW2 8490   1.123   6.443   3.547
 2531SOL     OW 8491   4.796   1.157   0.412
 2531SOL    HW1 8492   4.827   1.130   0.320
 2531SOL    HW2 8493   4.702   1.125   0.426
 2532SOL     OW 8494   0.996   4.283   5.960
 2532SOL    HW1 8495   0.928   4.343   5.917
 2532SOL    HW2 8496   1.087   4.307   5.926
 2533SOL     OW 8497   5.985   6.489   5.536
 2533SOL    HW1 8498   5.894   6.463   5.502
 2533SOL    HW2 8499   5.993   6.588   5.538
 2534SOL     OW 8500   0.019   1.702   3.316
 2534SOL    HW1 8501   0.062   1.674   3.402
 2534SOL    HW2 8502   0.034   1.799   3.301
 2535SOL     OW 8503   1.692   1.562   2.871
 2535SOL    HW1 8504   1.708   1.574   2.773
 2535SOL    HW2 8505   1.764   1.504   2.909
 2536SOL     OW 8506   0.418   0.395   4.128
 2536SOL    HW1 8507   0.324   0.429   4.129
 2536SOL    HW2 8508   0.438   0.349   4.214
 2537SOL     OW 8509   3.897   5.502   1.696
 2537SOL    HW1 8510   3.837   5.457   1.762
 2537SOL    HW2 8511   3.978   5.537   1.743
 2538SOL     OW 8512   1.339   4.439   4.664
 2538SOL    HW1 8513   1.277   4.432   4.743
 2538SOL    HW2 8514   1.381   4.350   4.647
 2539SOL     OW 8515   2.357   0.684   5.583
 2539SOL    HW1 8516   2.428   0.711   5.649
 2539SOL    HW2 8517   2.398   0.628   5.511
 2540SOL     OW 8518   5.265   1.658   2.434
 2540SOL    HW1 8519   5.212   1.654   2.349
 2540SOL    HW2 8520   5.355   1.697   2.416
 2541SOL     OW 8521   0.389   0.103   6.044
 2541SOL    HW1 8522   0.445   0.123   5.963
 2541SOL    HW2 8523   0.309   0.050   6.016
 2542SOL     OW 8524   4.050   2.001   3.675
 2542SOL    HW1 8525   4.040   2.050   3.762
 2542SOL    HW2 8526   4.027   2.062   3.600
 2543SOL     OW 8527   0.189   2.151   4.187
 2543SOL    HW1 8528   0.210   2.213   4.263
 2543SOL    HW2 8529   0.119   2.192   4.128
 2544SOL     OW 8530   6.692   5.993   1.838
 2544SOL    HW1 8531   6.787   6.003   1.867
 2544SOL    HW2 8532   6.688   5.980   1.739
 2545SOL     OW 8533   6.123   1.639   0.074
 2545SOL    HW1 8534   6.114   1.566   0.006
 2545SOL    HW2 8535   6.045   1.700   0.067
 2546SOL     OW 8536   6.789   3.830   2.310
 2546SOL    HW1 8537   6.792   3.930   2.316
 2546SOL    HW2 8538   6.693   3.800   2.314
 2547SOL     OW 8539   5.438   4.341   1.448
 2547SOL    HW1 8540   5.461   4.271   1.381
 2547SOL    HW2 8541   5.369   4.306   1.511
 2548SOL     OW 8542   6.306   0.199   5.744
 2548SOL    HW1 8543   6.349   0.228   5.830
 2548SOL    HW2 8544   6.209   0.179   5.760
 2549SOL     OW 8545   2.584   3.671   0.670
 2549SOL    HW1 8546   2.598   3.588   0.724
 2549SOL    HW2 8547   2.666   3.727   0.673
 2550SOL     OW 8548   4.091   5.816   0.244
 2550SOL    HW1 8549   4.130   5.726   0.225
 2550SOL    HW2 8550   3.992   5.806   0.259
 2551SOL     OW 8551   3.580   4.857   0.837
 2551SOL    HW1 8552   3.539   4.766   0.849
 2551SOL    HW2 8553   3.603   4.895   0.926
 2552SOL     OW 8554   2.259   4.797   1.886
 2552SOL    HW1 8555   2.173   4.812   1.838
 2552SOL    HW2 8556   2.254   4.711   1.937
 2553SOL     OW 8557   4.618   1.486   0.170
 2553SOL    HW1 8558   4.711   1.521   0.182
 2553SOL    HW2 8559   4.571   1.540   0.100
 2554SOL     OW 8560   1.224   5.669   1.010
 2554SOL    HW1 8561   1.288   5.742   1.034
 2554SOL    HW2 8562   1.158   5.656   1.084
 2555SOL     OW 8563   6.215   6.852   5.107
 2555SOL    HW1 8564   6.159   6.799   5.170
 2555SOL    HW2 8565   6.312   6.839   5.129
 2556SOL     OW 8566   3.861   6.829   0.612
 2556SOL    HW1 8567   3.867   6.761   0.539
 2556SOL    HW2 8568   3.792   6.898   0.587
 2557SOL     OW 8569   3.141   0.794   6.849
 2557SOL    HW1 8570   3.058   0.799   6.904
 2557SOL    HW2 8571   3.117   0.787   6.752
 2558SOL     OW 8572   5.239   2.597   1.197
 2558SOL    HW1 8573   5.169   2.666   1.214
 2558SOL    HW2 8574   5.236   2.568   1.102
 2559SOL     OW 8575   0.028   5.254   3.703
 2559SOL    HW1 8576   7.006   5.335   3.745
 2559SOL    HW2 8577   6.972   5.196   3.668
 2560SOL     OW 8578   5.072   2.473   2.830
 2560SOL    HW1 8579   5.039   2.541   2.766
 2560SOL    HW2 8580   5.023   2.483   2.917
 2561SOL     OW 8581   3.956   0.101   4.155
 2561SOL    HW1 8582   3.868   0.064   4.126
 2561SOL    HW2 8583   3.968   0.192   4.116
 2562SOL     OW 8584   1.882   7.014   4.580
 2562SOL    HW1 8585   1.867   6.962   4.664
 2562SOL    HW2 8586   1.901   0.091   4.602
 2563SOL     OW 8587   3.700   2.499   6.564
 2563SOL    HW1 8588   3.724   2.405   6.589
 2563SOL    HW2 8589   3.607   2.519   6.594
 2564SOL     OW 8590   0.963   1.523   0.263
 2564SOL    HW1 8591   1.027   1.497   0.335
 2564SOL    HW2 8592   0.914   1.606   0.290
 2565SOL     OW 8593   1.118   0.846   0.523
 2565SOL    HW1 8594   1.166   0.759   0.533
 2565SOL    HW2 8595   1.021   0.833   0.546
 2566SOL     OW 8596   2.741   1.017   0.956
 2566SOL    HW1 8597   2.779   1.084   1.020
 2566SOL    HW2 8598   2.698   0.943   1.007
 2567SOL     OW 8599   1.466   0.515   6.656
 2567SOL    HW1 8600   1.435   0.517   6.751
 2567SOL    HW2 8601   1.452   0.605   6.615
 2568SOL     OW 8602   1.958   5.879   0.806
 2568SOL    HW1 8603   1.996   5.948   0.744
 2568SOL    HW2 8604   2.033   5.829   0.850
 2569SOL     OW 8605   1.623   0.066   0.621
 2569SOL    HW1 8606   1.675   7.013   0.667
 2569SOL    HW2 8607   1.671   0.095   0.539
 2570SOL     OW 8608   0.662   6.151   4.597
 2570SOL    HW1 8609   0.583   6.135   4.538
 2570SOL    HW2 8610   0.631   6.189   4.684
 2571SOL     OW 8611   3.424   4.132   3.990
 2571SOL    HW1 8612   3.441   4.151   4.086
 2571SOL    HW2 8613   3.326   4.116   3.976
 2572SOL     OW 8614   1.654   5.304   2.128
 2572SOL    HW1 8615   1.683   5.369   2.199
 2572SOL    HW2 8616   1.698   5.327   2.042
 2573SOL     OW 8617   0.411   1.633   3.843
 2573SOL    HW1 8618   0.331   1.692   3.836
 2573SOL    HW2 8619   0.454   1.645   3.933
 2574SOL     OW 8620   0.740   3.671   2.323
 2574SOL    HW1 8621   0.779   3.582   2.347
 2574SOL    HW2 8622   0.649   3.657   2.284
 2575SOL     OW 8623   5.365   3.364   5.912
 2575SOL    HW1 8624   5.386   3.280   5.963
 2575SOL    HW2 8625   5.424   3.370   5.832
 2576SOL     OW 8626   1.926   0.073   3.245
 2576SOL    HW1 8627   1.945   0.170   3.232
 2576SOL    HW2 8628   1.992   0.034   3.309
 2577SOL     OW 8629   1.633   5.371   1.458
 2577SOL    HW1 8630   1.588   5.443   1.405
 2577SOL    HW2 8631   1.664   5.408   1.545
 2578SOL     OW 8632   4.296   2.327   4.324
 2578SOL    HW1 8633   4.362   2.251   4.320
 2578SOL    HW2 8634   4.209   2.298   4.283
 2579SOL     OW 8635   6.950   1.512   6.443
 2579SOL    HW1 8636   7.007   1.588   6.413
 2579SOL    HW2 8637   7.003   1.454   6.505
 2580SOL     OW 8638   1.433   1.576   5.996
 2580SOL    HW1 8639   1.503   1.637   5.961
 2580SOL    HW2 8640   1.407   1.510   5.925
 2581SOL     OW 8641   6.296   0.235   4.800
 2581SOL    HW1 8642   6.293   0.145   4.844
 2581SOL    HW2 8643   6.295   0.223   4.701
 2582SOL     OW 8644   0.382   5.717   2.793
 2582SOL    HW1 8645   0.458   5.736   2.730
 2582SOL    HW2 8646   0.404   5.754   2.883
 2583SOL     OW 8647   2.500   0.942   6.481
 2583SOL    HW1 8648   2.527   0.949   6.384
 2583SOL    HW2 8649   2.408   0.905   6.487
 2584SOL     OW 8650   5.452   6.846   2.855
 2584SOL    HW1 8651   5.543   6.864   2.815
 2584SOL    HW2 8652   5.394   6.927   2.843
 2585SOL     OW 8653   4.312   1.091   1.857
 2585SOL    HW1 8654   4.221   1.133   1.863
 2585SOL    HW2 8655   4.352   1.111   1.767
 2586SOL     OW 8656   6.523   1.518   3.983
 2586SOL    HW1 8657   6.616   1.520   3.948
 2586SOL    HW2 8658   6.506   1.601   4.037
 2587SOL     OW 8659   6.682   6.222   2.880
 2587SOL    HW1 8660   6.589   6.201   2.849
 2587SOL    HW2 8661   6.747   6.161   2.835
 2588SOL     OW 8662   5.107   0.113   1.915
 2588SOL    HW1 8663   5.032   0.050   1.938
 2588SOL    HW2 8664   5.133   0.165   1.997
 2589SOL     OW 8665   5.570   6.098   0.664
 2589SOL    HW1 8666   5.652   6.143   0.630
 2589SOL    HW2 8667   5.593   6.007   0.698
 2590SOL     OW 8668   3.663   6.695   3.038
 2590SOL    HW1 8669   3.573   6.695   2.995
 2590SOL    HW2 8670   3.721   6.762   2.992
 2591SOL     OW 8671   6.040   0.333   1.659
 2591SOL    HW1 8672   6.111   0.265   1.639
 2591SOL    HW2 8673   5.958   0.286   1.690
 2592SOL     OW 8674   3.234   4.744   1.578
 2592SOL    HW1 8675   3.198   4.826   1.533
 2592SOL    HW2 8676   3.166   4.671   1.573
 2593SOL     OW 8677   3.683   6.872   2.416
 2593SOL    HW1 8678   3.586   6.855   2.434
 2593SOL    HW2 8679   3.738   6.804   2.465
 2594SOL     OW 8680   1.255   6.632   6.649
 2594SOL    HW1 8681   1.314   6.681   6.713
 2594SOL    HW2 8682   1.302   6.623   6.561
 2595SOL     OW 8683   6.223   3.121   4.132
 2595SOL    HW1 8684   6.190   3.029   4.155
 2595SOL    HW2 8685   6.244   3.171   4.216
 2596SOL     OW 8686   4.085   2.300   1.505
 2596SOL    HW1 8687   4.038   2.247   1.576
 2596SOL    HW2 8688   4.178   2.321   1.535
 2597SOL     OW 8689   2.128   2.292   6.352
 2597SOL    HW1 8690   2.169   2.307   6.262
 2597SOL    HW2 8691   2.046   2.236   6.343
 2598SOL     OW 8692   5.970   2.020   3.186
 2598SOL    HW1 8693   5.906   2.011   3.110
 2598SOL    HW2 8694   6.049   1.962   3.170
 2599SOL     OW 8695   4.378   4.652   6.607
 2599SOL    HW1 8696   4.367   4.743   6.646
 2599SOL    HW2 8697   4.296   4.598   6.624
 2600SOL     OW 8698   6.964   3.222   3.524
 2600SOL    HW1 8699   6.945   3.124   3.528
 2600SOL    HW2 8700   6.968   3.259   3.616
 2601SOL     OW 8701   3.900   3.279   5.169
 2601SOL    HW1 8702   3.816   3.253   5.217
 2601SOL    HW2 8703   3.975   3.219   5.197
 2602SOL     OW 8704   6.261   5.832   5.651
 2602SOL    HW1 8705   6.252   5.894   5.573
 2602SOL    HW2 8706   6.358   5.811   5.667
 2603SOL     OW 8707   2.372   2.349   6.909
 2603SOL    HW1 8708   2.291   2.294   6.927
 2603SOL    HW2 8709   2.348   2.424   6.848
 2604SOL     OW 8710   5.682   1.768   1.734
 2604SOL    HW1 8711   5.671   1.797   1.829
 2604SOL    HW2 8712   5.592   1.758   1.692
 2605SOL     OW 8713   4.836   3.759   3.879
 2605SOL    HW1 8714   4.856   3.681   3.819
 2605SOL    HW2 8715   4.882   3.745   3.967
 2606SOL     OW 8716   6.904   4.624   0.988
 2606SOL    HW1 8717   6.909   4.529   1.018
 2606SOL    HW2 8718   6.925   4.685   1.064
 2607SOL     OW 8719   0.848   1.779   4.839
 2607SOL    HW1 8720   0.770   1.840   4.848
 2607SOL    HW2 8721   0.905   1.808   4.762
 2608SOL     OW 8722   5.451   6.922   0.657
 2608SOL    HW1 8723   5.455   6.894   0.753
 2608SOL    HW2 8724   5.529   6.883   0.608
 2609SOL     OW 8725   0.271   2.435   4.312
 2609SOL    HW1 8726   0.202   2.457   4.381
 2609SOL    HW2 8727   0.351   2.493   4.324
 2610SOL     OW 8728   5.124   5.481   5.229
 2610SOL    HW1 8729   5.112   5.420   5.151
 2610SOL    HW2 8730   5.189   5.553   5.206
 2611SOL     OW 8731   2.896   6.063   1.870
 2611SOL    HW1 8732   2.977   6.076   1.927
 2611SOL    HW2 8733   2.904   6.119   1.788
 2612SOL     OW 8734   6.575   6.869   5.096
 2612SOL    HW1 8735   6.600   6.966   5.093
 2612SOL    HW2 8736   6.565   6.834   5.003
 2613SOL     OW 8737   3.717   1.042   0.971
 2613SOL    HW1 8738   3.730   0.959   0.916
 2613SOL    HW2 8739   3.647   1.026   1.040
 2614SOL     OW 8740   6.631   6.429   6.647
 2614SOL    HW1 8741   6.564   6.362   6.680
 2614SOL    HW2 8742   6.593   6.477   6.567
 2615SOL     OW 8743   5.651   5.163   1.959
 2615SOL    HW1 8744   5.736   5.145   2.008
 2615SOL    HW2 8745   5.585   5.090   1.980
 2616SOL     OW 8746   4.123   3.260   2.535
 2616SOL    HW1 8747   4.163   3.214   2.455
 2616SOL    HW2 8748   4.024   3.270   2.522
 2617SOL     OW 8749   3.526   0.701   0.987
 2617SOL    HW1 8750   3.482   0.721   0.900
 2617SOL    HW2 8751   3.485   0.758   1.059
 2618SOL     OW 8752   0.790   0.716   0.326
 2618SOL    HW1 8753   0.856   0.714   0.250
 2618SOL    HW2 8754   0.829   0.768   0.402
 2619SOL     OW 8755   5.414   1.134   1.308
 2619SOL    HW1 8756   5.448   1.046   1.277
 2619SOL    HW2 8757   5.474   1.168   1.382
 2620SOL     OW 8758   1.363   4.931   4.171
 2620SOL    HW1 8759   1.375   4.855   4.235
 2620SOL    HW2 8760   1.445   4.989   4.173
 2621SOL     OW 8761   1.069   4.926   3.692
 2621SOL    HW1 8762   1.148   4.879   3.733
 2621SOL    HW2 8763   1.099   5.013   3.653
 2622SOL     OW 8764   2.784   3.168   6.130
 2622SOL    HW1 8765   2.708   3.107   6.109
 2622SOL    HW2 8766   2.819   3.209   6.046
 2623SOL     OW 8767   3.553   0.982   6.354
 2623SOL    HW1 8768   3.539   0.930   6.439
 2623SOL    HW2 8769   3.521   0.928   6.276
 2624SOL     OW 8770   0.074   1.999   3.841
 2624SOL    HW1 8771   0.162   2.048   3.839
 2624SOL    HW2 8772   0.035   1.998   3.749
 2625SOL     OW 8773   4.736   0.577   5.769
 2625SOL    HW1 8774   4.768   0.533   5.852
 2625SOL    HW2 8775   4.795   0.550   5.692
 2626SOL     OW 8776   2.518   0.197   2.129
 2626SOL    HW1 8777   2.507   0.109   2.177
 2626SOL    HW2 8778   2.479   0.190   2.038
 2627SOL     OW 8779   0.050   1.013   4.749
 2627SOL    HW1 8780   0.124   1.075   4.774
 2627SOL    HW2 8781   0.016   1.036   4.658
 2628SOL     OW 8782   3.953   5.840   6.374
 2628SOL    HW1 8783   4.020   5.909   6.345
 2628SOL    HW2 8784   3.956   5.762   6.311
 2629SOL     OW 8785   2.969   3.808   1.393
 2629SOL    HW1 8786   2.982   3.861   1.477
 2629SOL    HW2 8787   3.001   3.714   1.406
 2630SOL     OW 8788   2.885   2.158   2.262
 2630SOL    HW1 8789   2.878   2.201   2.172
 2630SOL    HW2 8790   2.796   2.167   2.309
 2631SOL     OW 8791   4.478   6.659   4.858
 2631SOL    HW1 8792   4.449   6.596   4.786
 2631SOL    HW2 8793   4.457   6.753   4.832
 2632SOL     OW 8794   5.651   1.298   1.489
 2632SOL    HW1 8795   5.715   1.326   1.417
 2632SOL    HW2 8796   5.615   1.379   1.535
 2633SOL     OW 8797   6.879   2.951   5.943
 2633SOL    HW1 8798   6.845   2.987   5.856
 2633SOL    HW2 8799   6.846   2.857   5.955
 2634SOL     OW 8800   3.115   5.004   1.242
 2634SOL    HW1 8801   3.205   4.967   1.222
 2634SOL    HW2 8802   3.058   4.998   1.160
 2635SOL     OW 8803   5.649   4.450   3.498
 2635SOL    HW1 8804   5.695   4.363   3.483
 2635SOL    HW2 8805   5.550   4.438   3.494
 2636SOL     OW 8806   5.698   0.273   5.190
 2636SOL    HW1 8807   5.664   0.350   5.243
 2636SOL    HW2 8808   5.643   0.263   5.107
 2637SOL     OW 8809   4.989   6.614   3.174
 2637SOL    HW1 8810   5.021   6.609   3.079
 2637SOL    HW2 8811   4.919   6.685   3.182
 2638SOL     OW 8812   5.581   5.636   0.654
 2638SOL    HW1 8813   5.499   5.581   0.671
 2638SOL    HW2 8814   5.661   5.577   0.651
 2639SOL     OW 8815   6.644   6.606   0.303
 2639SOL    HW1 8816   6.672   6.613   0.207
 2639SOL    HW2 8817   6.571   6.538   0.311
 2640SOL     OW 8818   6.333   6.918   6.615
 2640SOL    HW1 8819   6.355   6.836   6.669
 2640SOL    HW2 8820   6.239   6.947   6.635
 2641SOL     OW 8821   5.781   5.353   6.917
 2641SOL    HW1 8822   5.874   5.332   6.885
 2641SOL    HW2 8823   5.750   5.280   6.979
 2642SOL     OW 8824   6.730   0.095   3.251
 2642SOL    HW1 8825   6.769   0.166   3.310
 2642SOL    HW2 8826   6.713   0.013   3.305
 2643SOL     OW 8827   1.384   0.424   2.298
 2643SOL    HW1 8828   1.476   0.408   2.262
 2643SOL    HW2 8829   1.333   0.338   2.299
 2644SOL     OW 8830   0.714   5.631   6.445
 2644SOL    HW1 8831   0.679   5.696   6.378
 2644SOL    HW2 8832   0.638   5.581   6.486
 2645SOL     OW 8833   5.988   4.848   5.694
 2645SOL    HW1 8834   5.930   4.889   5.623
 2645SOL    HW2 8835   5.969   4.892   5.782
 2646SOL     OW 8836   6.459   6.318   7.010
 2646SOL    HW1 8837   6.424   6.392   0.050
 2646SOL    HW2 8838   6.540   6.350   6.961
 2647SOL     OW 8839   3.524   3.040   0.529
 2647SOL    HW1 8840   3.533   3.059   0.431
 2647SOL    HW2 8841   3.428   3.022   0.550
 2648SOL     OW 8842   3.507   1.058   3.069
 2648SOL    HW1 8843   3.558   1.008   3.140
 2648SOL    HW2 8844   3.452   0.994   3.016
 2649SOL     OW 8845   3.337   2.807   5.293
 2649SOL    HW1 8846   3.385   2.892   5.315
 2649SOL    HW2 8847   3.340   2.746   5.372
 2650SOL     OW 8848   0.024   6.441   1.768
 2650SOL    HW1 8849   0.100   6.381   1.742
 2650SOL    HW2 8850   0.054   6.536   1.767
 2651SOL     OW 8851   0.515   6.922   3.592
 2651SOL    HW1 8852   0.421   6.896   3.613
 2651SOL    HW2 8853   0.530   6.916   3.493
 2652SOL     OW 8854   3.094   3.018   2.707
 2652SOL    HW1 8855   3.139   2.992   2.622
 2652SOL    HW2 8856   3.155   3.002   2.784
 2653SOL     OW 8857   6.692   5.465   6.740
 2653SOL    HW1 8858   6.763   5.471   6.669
 2653SOL    HW2 8859   6.631   5.388   6.720
 2654SOL     OW 8860   5.178   2.096   6.076
 2654SOL    HW1 8861   5.241   2.047   6.136
 2654SOL    HW2 8862   5.225   2.119   5.990
 2655SOL     OW 8863   4.693   5.442   5.186
 2655SOL    HW1 8864   4.716   5.416   5.280
 2655SOL    HW2 8865   4.773   5.483   5.142
 2656SOL     OW 8866   5.399   3.402   3.920
 2656SOL    HW1 8867   5.310   3.362   3.940
 2656SOL    HW2 8868   5.387   3.496   3.887
 2657SOL     OW 8869   2.484   2.201   5.584
 2657SOL    HW1 8870   2.483   2.169   5.678
 2657SOL    HW2 8871   2.464   2.299   5.582
 2658SOL     OW 8872   5.629   4.432   5.835
 2658SOL    HW1 8873   5.620   4.516   5.782
 2658SOL    HW2 8874   5.725   4.409   5.846
 2659SOL     OW 8875   0.052   1.990   3.268
 2659SOL    HW1 8876   0.014   2.038   3.347
 2659SOL    HW2 8877   7.014   2.009   3.188
 2660SOL     OW 8878   6.558   1.773   2.841
 2660SOL    HW1 8879   6.484   1.776   2.774
 2660SOL    HW2 8880   6.645   1.758   2.793
 2661SOL     OW 8881   4.375   6.496   1.738
 2661SOL    HW1 8882   4.368   6.397   1.728
 2661SOL    HW2 8883   4.295   6.540   1.697
 2662SOL     OW 8884   3.803   6.847   3.700
 2662SOL    HW1 8885   3.770   6.769   3.647
 2662SOL    HW2 8886   3.899   6.832   3.724
 2663SOL     OW 8887   1.035   4.631   2.818
 2663SOL    HW1 8888   0.939   4.636   2.846
 2663SOL    HW2 8889   1.070   4.724   2.802
 2664SOL     OW 8890   4.101   3.621   1.931
 2664SOL    HW1 8891   4.154   3.609   2.015
 2664SOL    HW2 8892   4.109   3.715   1.899
 2665SOL     OW 8893   4.199   1.213   4.413
 2665SOL    HW1 8894   4.295   1.197   4.393
 2665SOL    HW2 8895   4.147   1.129   4.395
 2666SOL     OW 8896   5.461   6.288   2.002
 2666SOL    HW1 8897   5.424   6.219   2.064
 2666SOL    HW2 8898   5.561   6.285   2.004
 2667SOL     OW 8899   1.501   5.063   3.685
 2667SOL    HW1 8900   1.516   5.120   3.766
 2667SOL    HW2 8901   1.457   5.118   3.614
 2668SOL     OW 8902   6.662   2.428   5.731
 2668SOL    HW1 8903   6.621   2.345   5.694
 2668SOL    HW2 8904   6.612   2.456   5.813
 2669SOL     OW 8905   4.154   5.074   5.642
 2669SOL    HW1 8906   4.191   5.032   5.725
 2669SOL    HW2 8907   4.172   5.172   5.643
 2670SOL     OW 8908   1.914   0.439   6.110
 2670SOL    HW1 8909   1.830   0.492   6.117
 2670SOL    HW2 8910   1.952   0.447   6.018
 2671SOL     OW 8911   3.428   3.809   5.920
 2671SOL    HW1 8912   3.373   3.889   5.899
 2671SOL    HW2 8913   3.368   3.731   5.938
 2672SOL     OW 8914   0.640   4.210   0.557
 2672SOL    HW1 8915   0.618   4.234   0.652
 2672SOL    HW2 8916   0.560   4.167   0.515
 2673SOL     OW 8917   4.761   2.147   3.673
 2673SOL    HW1 8918   4.835   2.083   3.695
 2673SOL    HW2 8919   4.760   2.220   3.740
 2674SOL     OW 8920   5.883   5.477   5.563
 2674SOL    HW1 8921   5.831   5.536   5.626
 2674SOL    HW2 8922   5.975   5.514   5.553
 2675SOL     OW 8923   0.288   3.921   5.472
 2675SOL    HW1 8924   0.196   3.935   5.434
 2675SOL    HW2 8925   0.341   3.862   5.411
 2676SOL     OW 8926   4.401   0.466   2.183
 2676SOL    HW1 8927   4.333   0.528   2.223
 2676SOL    HW2 8928   4.375   0.372   2.202
 2677SOL     OW 8929   2.545   4.635   2.488
 2677SOL    HW1 8930   2.628   4.663   2.535
 2677SOL    HW2 8931   2.554   4.653   2.390
 2678SOL     OW 8932   0.110   5.973   6.271
 2678SOL    HW1 8933   0.128   5.880   6.238
 2678SOL    HW2 8934   0.106   6.036   6.194
 2679SOL     OW 8935   2.891   4.717   1.103
 2679SOL    HW1 8936   2.957   4.642   1.111
 2679SOL    HW2 8937   2.830   4.699   1.026
 2680SOL     OW 8938   0.805   1.864   1.312
 2680SOL    HW1 8939   0.791   1.933   1.383
 2680SOL    HW2 8940   0.768   1.776   1.343
 2681SOL     OW 8941   1.268   1.371   2.361
 2681SOL    HW1 8942   1.355   1.363   2.313
 2681SOL    HW2 8943   1.261   1.461   2.404
 2682SOL     OW 8944   6.588   2.454   3.351
 2682SOL    HW1 8945   6.628   2.484   3.438
 2682SOL    HW2 8946   6.661   2.433   3.286
 2683SOL     OW 8947   1.414   0.058   1.869
 2683SOL    HW1 8948   1.352   7.000   1.891
 2683SOL    HW2 8949   1.492   0.056   1.932
 2684SOL     OW 8950   2.437   5.911   2.564
 2684SOL    HW1 8951   2.442   5.881   2.659
 2684SOL    HW2 8952   2.406   5.836   2.506
 2685SOL     OW 8953   5.638   6.073   5.175
 2685SOL    HW1 8954   5.707   6.089   5.245
 2685SOL    HW2 8955   5.642   5.978   5.145
 2686SOL     OW 8956   0.955   3.083   4.461
 2686SOL    HW1 8957   1.050   3.112   4.477
 2686SOL    HW2 8958   0.893   3.144   4.511
 2687SOL     OW 8959   5.007   5.019   3.301
 2687SOL    HW1 8960   5.068   5.009   3.380
 2687SOL    HW2 8961   5.035   4.954   3.230
 2688SOL     OW 8962   3.342   5.138   6.159
 2688SOL    HW1 8963   3.355   5.220   6.215
 2688SOL    HW2 8964   3.399   5.143   6.078
 2689SOL     OW 8965   0.192   2.967   4.292
 2689SOL    HW1 8966   0.195   2.988   4.390
 2689SOL    HW2 8967   0.168   3.050   4.242
 2690SOL     OW 8968   2.872   3.531   3.034
 2690SOL    HW1 8969   2.849   3.513   3.129
 2690SOL    HW2 8970   2.903   3.625   3.024
 2691SOL     OW 8971   1.324   6.074   1.380
 2691SOL    HW1 8972   1.284   6.009   1.316
 2691SOL    HW2 8973   1.264   6.154   1.387
 2692SOL     OW 8974   6.658   5.539   3.090
 2692SOL    HW1 8975   6.669   5.590   3.175
 2692SOL    HW2 8976   6.735   5.558   3.029
 2693SOL     OW 8977   1.663   3.589   3.582
 2693SOL    HW1 8978   1.571   3.619   3.606
 2693SOL    HW2 8979   1.672   3.491   3.595
 2694SOL     OW 8980   2.641   0.904   2.997
 2694SOL    HW1 8981   2.691   0.818   3.002
 2694SOL    HW2 8982   2.552   0.888   2.954
 2695SOL     OW 8983   3.904   2.167   2.807
 2695SOL    HW1 8984   3.996   2.205   2.817
 2695SOL    HW2 8985   3.867   2.192   2.718
 2696SOL     OW 8986   4.170   3.192   5.233
 2696SOL    HW1 8987   4.133   3.103   5.258
 2696SOL    HW2 8988   4.254   3.209   5.284
 2697SOL     OW 8989   2.369   2.028   4.440
 2697SOL    HW1 8990   2.339   2.116   4.404
 2697SOL    HW2 8991   2.343   2.020   4.536
 2698SOL     OW 8992   2.213   3.443   6.731
 2698SOL    HW1 8993   2.297   3.427   6.783
 2698SOL    HW2 8994   2.134   3.435   6.792
 2699SOL     OW 8995   3.828   5.663   2.112
 2699SOL    HW1 8996   3.926   5.657   2.096
 2699SOL    HW2 8997   3.807   5.750   2.157
 2700SOL     OW 8998   1.277   3.510   2.939
 2700SOL    HW1 8999   1.270   3.601   2.897
 2700SOL    HW2 9000   1.203   3.499   3.005
 2701SOL     OW 9001   3.229   6.597   6.051
 2701SOL    HW1 9002   3.301   6.614   5.985
 2701SOL    HW2 9003   3.269   6.561   6.136
 2702SOL     OW 9004   0.159   0.079   2.701
 2702SOL    HW1 9005   0.087   0.089   2.770
 2702SOL    HW2 9006   0.126   0.109   2.612
 2703SOL     OW 9007   1.516   1.416   3.133
 2703SOL    HW1 9008   1.483   1.415   3.227
 2703SOL    HW2 9009   1.529   1.510   3.103
 2704SOL     OW 9010   1.532   6.127   0.454
 2704SOL    HW1 9011   1.521   6.029   0.469
 2704SOL    HW2 9012   1.602   6.143   0.385
 2705SOL     OW 9013   0.539   4.631   2.717
 2705SOL    HW1 9014   0.584   4.558   2.667
 2705SOL    HW2 9015   0.441   4.631   2.697
 2706SOL     OW 9016   6.532   1.615   1.968
 2706SOL    HW1 9017   6.515   1.644   1.874
 2706SOL    HW2 9018   6.448   1.624   2.022
 2707SOL     OW 9019   2.508   1.275   5.596
 2707SOL    HW1 9020   2.575   1.328   5.648
 2707SOL    HW2 9021   2.416   1.294   5.632
 2708SOL     OW 9022   1.940   3.135   0.821
 2708SOL    HW1 9023   2.019   3.102   0.873
 2708SOL    HW2 9024   1.946   3.234   0.811
 2709SOL     OW 9025   4.526   6.403   1.975
 2709SOL    HW1 9026   4.446   6.375   2.028
 2709SOL    HW2 9027   4.496   6.430   1.883
 2710SOL     OW 9028   5.768   4.093   2.632
 2710SOL    HW1 9029   5.810   4.027   2.569
 2710SOL    HW2 9030   5.811   4.084   2.722
 2711SOL     OW 9031   1.206   6.937   2.125
 2711SOL    HW1 9032   1.117   6.980   2.112
 2711SOL    HW2 9033   1.234   6.893   2.039
 2712SOL     OW 9034   3.410   5.043   1.096
 2712SOL    HW1 9035   3.364   4.955   1.089
 2712SOL    HW2 9036   3.508   5.028   1.112
 2713SOL     OW 9037   1.985   3.061   4.753
 2713SOL    HW1 9038   2.015   3.014   4.836
 2713SOL    HW2 9039   2.035   3.147   4.743
 2714SOL     OW 9040   5.534   6.661   5.477
 2714SOL    HW1 9041   5.570   6.717   5.401
 2714SOL    HW2 9042   5.611   6.619   5.526
 2715SOL     OW 9043   6.717   0.570   0.018
 2715SOL    HW1 9044   6.639   0.594   0.077
 2715SOL    HW2 9045   6.759   0.485   0.052
 2716SOL     OW 9046   0.742   6.698   2.658
 2716SOL    HW1 9047   0.767   6.738   2.747
 2716SOL    HW2 9048   0.649   6.725   2.635
 2717SOL     OW 9049   1.280   0.666   2.785
 2717SOL    HW1 9050   1.290   0.664   2.685
 2717SOL    HW2 9051   1.197   0.617   2.811
 2718SOL     OW 9052   1.223   4.826   3.340
 2718SOL    HW1 9053   1.168   4.829   3.256
 2718SOL    HW2 9054   1.246   4.731   3.361
 2719SOL     OW 9055   4.019   4.777   2.351
 2719SOL    HW1 9056   3.928   4.790   2.313
 2719SOL    HW2 9057   4.012   4.759   2.449
 2720SOL     OW 9058   0.927   5.857   4.021
 2720SOL    HW1 9059   0.953   5.888   4.112
 2720SOL    HW2 9060   0.999   5.797   3.985
 2721SOL     OW 9061   4.473   6.939   4.719
 2721SOL    HW1 9062   4.571   6.956   4.725
 2721SOL    HW2 9063   4.432   7.001   4.652
 2722SOL     OW 9064   1.560   5.576   1.308
 2722SOL    HW1 9065   1.508   5.539   1.230
 2722SOL    HW2 9066   1.627   5.642   1.275
 2723SOL     OW 9067   1.162   1.180   5.289
 2723SOL    HW1 9068   1.127   1.262   5.334
 2723SOL    HW2 9069   1.213   1.125   5.355
 2724SOL     OW 9070   2.928   5.483   6.307
 2724SOL    HW1 9071   3.005   5.481   6.243
 2724SOL    HW2 9072   2.891   5.575   6.313
 2725SOL     OW 9073   3.257   4.937   3.247
 2725SOL    HW1 9074   3.259   4.925   3.346
 2725SOL    HW2 9075   3.202   4.864   3.206
 2726SOL     OW 9076   4.788   5.789   2.194
 2726SOL    HW1 9077   4.771   5.881   2.159
 2726SOL    HW2 9078   4.751   5.722   2.130
 2727SOL     OW 9079   2.079   5.287   3.275
 2727SOL    HW1 9080   2.072   5.301   3.374
 2727SOL    HW2 9081   2.175   5.272   3.250
 2728SOL     OW 9082   3.773   0.199   5.455
 2728SOL    HW1 9083   3.779   0.264   5.379
 2728SOL    HW2 9084   3.809   0.110   5.426
 2729SOL     OW 9085   6.346   4.705   2.524
 2729SOL    HW1 9086   6.307   4.725   2.614
 2729SOL    HW2 9087   6.337   4.785   2.465
 2730SOL     OW 9088   1.489   4.350   1.572
 2730SOL    HW1 9089   1.500   4.251   1.583
 2730SOL    HW2 9090   1.416   4.382   1.632
 2731SOL     OW 9091   2.774   3.819   1.671
 2731SOL    HW1 9092   2.835   3.761   1.616
 2731SOL    HW2 9093   2.824   3.853   1.750
 2732SOL     OW 9094   5.513   2.220   3.462
 2732SOL    HW1 9095   5.549   2.195   3.552
 2732SOL    HW2 9096   5.413   2.222   3.466
 2733SOL     OW 9097   1.618   0.645   5.422
 2733SOL    HW1 9098   1.680   0.590   5.366
 2733SOL    HW2 9099   1.652   0.648   5.516
 2734SOL     OW 9100   2.594   6.156   3.736
 2734SOL    HW1 9101   2.515   6.212   3.711
 2734SOL    HW2 9102   2.588   6.068   3.690
 2735SOL     OW 9103   2.277   4.444   1.657
 2735SOL    HW1 9104   2.248   4.433   1.752
 2735SOL    HW2 9105   2.376   4.431   1.651
 2736SOL     OW 9106   3.835   7.012   6.503
 2736SOL    HW1 9107   3.755   0.047   6.474
 2736SOL    HW2 9108   3.805   6.931   6.554
 2737SOL     OW 9109   4.411   3.481   6.110
 2737SOL    HW1 9110   4.472   3.542   6.161
 2737SOL    HW2 9111   4.413   3.506   6.013
 2738SOL     OW 9112   5.779   4.781   4.058
 2738SOL    HW1 9113   5.731   4.792   3.971
 2738SOL    HW2 9114   5.717   4.802   4.133
 2739SOL     OW 9115   5.671   3.546   1.064
 2739SOL    HW1 9116   5.622   3.461   1.081
 2739SOL    HW2 9117   5.667   3.604   1.145
 2740SOL     OW 9118   6.802   2.527   3.168
 2740SOL    HW1 9119   6.895   2.503   3.195
 2740SOL    HW2 9120   6.792   2.626   3.169
 2741SOL     OW 9121   1.425   1.967   5.894
 2741SOL    HW1 9122   1.492   1.913   5.844
 2741SOL    HW2 9123   1.392   2.041   5.836
 2742SOL     OW 9124   1.983   6.565   6.229
 2742SOL    HW1 9125   2.009   6.502   6.157
 2742SOL    HW2 9126   1.998   6.659   6.198
 2743SOL     OW 9127   5.728   4.806   0.699
 2743SOL    HW1 9128   5.660   4.826   0.628
 2743SOL    HW2 9129   5.682   4.774   0.781
 2744SOL     OW 9130   4.086   0.843   6.682
 2744SOL    HW1 9131   4.016   0.801   6.625
 2744SOL    HW2 9132   4.162   0.873   6.624
 2745SOL     OW 9133   2.568   5.733   1.095
 2745SOL    HW1 9134   2.550   5.744   0.997
 2745SOL    HW2 9135   2.525   5.808   1.145
 2746SOL     OW 9136   1.587   1.953   6.115
 2746SOL    HW1 9137   1.514   1.950   6.047
 2746SOL    HW2 9138   1.655   1.882   6.094
 2747SOL     OW 9139   5.091   5.734   4.188
 2747SOL    HW1 9140   5.007   5.681   4.175
 2747SOL    HW2 9141   5.090   5.813   4.127
 2748SOL     OW 9142   3.724   1.366   4.300
 2748SOL    HW1 9143   3.650   1.349   4.366
 2748SOL    HW2 9144   3.798   1.415   4.345
 2749SOL     OW 9145   4.707   4.794   4.040
 2749SOL    HW1 9146   4.691   4.851   3.959
 2749SOL    HW2 9147   4.703   4.697   4.013
 2750SOL     OW 9148   0.445   6.036   1.621
 2750SOL    HW1 9149   0.365   6.096   1.617
 2750SOL    HW2 9150   0.483   6.037   1.713
 2751SOL     OW 9151   1.625   0.178   0.060
 2751SOL    HW1 9152   1.611   0.255   7.016
 2751SOL    HW2 9153   1.723   0.159   0.068
 2752SOL     OW 9154   6.624   6.249   5.556
 2752SOL    HW1 9155   6.570   6.217   5.634
 2752SOL    HW2 9156   6.567   6.249   5.473
 2753SOL     OW 9157   3.072   5.900   5.107
 2753SOL    HW1 9158   3.123   5.971   5.057
 2753SOL    HW2 9159   2.979   5.932   5.123
 2754SOL     OW 9160   1.080   5.868   4.234
 2754SOL    HW1 9161   1.043   5.847   4.324
 2754SOL    HW2 9162   1.135   5.791   4.201
 2755SOL     OW 9163   3.343   5.884   2.351
 2755SOL    HW1 9164   3.416   5.837   2.302
 2755SOL    HW2 9165   3.333   5.844   2.442
 2756SOL     OW 9166   0.423   3.096   5.369
 2756SOL    HW1 9167   0.392   3.087   5.275
 2756SOL    HW2 9168   0.345   3.087   5.431
 2757SOL     OW 9169   4.282   3.288   6.710
 2757SOL    HW1 9170   4.210   3.308   6.643
 2757SOL    HW2 9171   4.251   3.318   6.801
 2758SOL     OW 9172   6.949   6.712   1.811
 2758SOL    HW1 9173   6.998   6.787   1.768
 2758SOL    HW2 9174   6.870   6.687   1.755
 2759SOL     OW 9175   3.704   3.375   5.594
 2759SOL    HW1 9176   3.786   3.318   5.607
 2759SOL    HW2 9177   3.724   3.448   5.529
 2760SOL     OW 9178   5.806   5.921   2.464
 2760SOL    HW1 9179   5.832   5.905   2.560
 2760SOL    HW2 9180   5.831   6.014   2.439
 2761SOL     OW 9181   1.401   3.234   3.431
 2761SOL    HW1 9182   1.415   3.184   3.346
 2761SOL    HW2 9183   1.474   3.211   3.496
 2762SOL     OW 9184   3.114   1.934   0.820
 2762SOL    HW1 9185   3.109   1.980   0.731
 2762SOL    HW2 9186   3.198   1.961   0.866
 2763SOL     OW 9187   6.557   1.783   4.067
 2763SOL    HW1 9188   6.623   1.739   4.128
 2763SOL    HW2 9189   6.526   1.868   4.108
 2764SOL     OW 9190   0.432   3.314   3.290
 2764SOL    HW1 9191   0.367   3.347   3.359
 2764SOL    HW2 9192   0.384   3.260   3.221
 2765SOL     OW 9193   5.654   6.537   6.417
 2765SOL    HW1 9194   5.648   6.610   6.485
 2765SOL    HW2 9195   5.741   6.489   6.429
 2766SOL     OW 9196   4.508   6.981   0.368
 2766SOL    HW1 9197   4.527   6.885   0.392
 2766SOL    HW2 9198   4.524   6.994   0.271
 2767SOL     OW 9199   0.701   5.197   6.394
 2767SOL    HW1 9200   0.666   5.127   6.457
 2767SOL    HW2 9201   0.641   5.204   6.314
 2768SOL     OW 9202   4.185   6.940   1.592
 2768SOL    HW1 9203   4.260   6.965   1.531
 2768SOL    HW2 9204   4.162   6.844   1.578
 2769SOL     OW 9205   0.602   4.698   5.637
 2769SOL    HW1 9206   0.594   4.727   5.541
 2769SOL    HW2 9207   0.666   4.759   5.684
 2770SOL     OW 9208   2.463   6.209   0.751
 2770SOL    HW1 9209   2.373   6.194   0.709
 2770SOL    HW2 9210   2.452   6.213   0.851
 2771SOL     OW 9211   4.422   0.281   5.276
 2771SOL    HW1 9212   4.346   0.293   5.340
 2771SOL    HW2 9213   4.490   0.352   5.292
 2772SOL     OW 9214   4.421   0.814   3.567
 2772SOL    HW1 9215   4.387   0.802   3.661
 2772SOL    HW2 9216   4.511   0.773   3.558
 2773SOL     OW 9217   5.880   2.424   4.586
 2773SOL    HW1 9218   5.888   2.516   4.625
 2773SOL    HW2 9219   5.956   2.407   4.524
 2774SOL     OW 9220   5.491   1.742   4.148
 2774SOL    HW1 9221   5.524   1.801   4.074
 2774SOL    HW2 9222   5.564   1.682   4.179
 2775SOL     OW 9223   0.017   3.174   4.103
 2775SOL    HW1 9224   0.112   3.202   4.117
 2775SOL    HW2 9225   6.978   3.256   4.092
 2776SOL     OW 9226   5.031   4.886   6.176
 2776SOL    HW1 9227   5.041   4.904   6.078
 2776SOL    HW2 9228   4.974   4.804   6.189
 2777SOL     OW 9229   2.450   2.029   6.625
 2777SOL    HW1 9230   2.538   2.075   6.640
 2777SOL    HW2 9231   2.376   2.096   6.635
 2778SOL     OW 9232   2.634   0.959   6.210
 2778SOL    HW1 9233   2.629   0.865   6.177
 2778SOL    HW2 9234   2.633   1.021   6.132
 2779SOL     OW 9235   4.830   0.864   1.139
 2779SOL    HW1 9236   4.732   0.887   1.140
 2779SOL    HW2 9237   4.856   0.825   1.228
 2780SOL     OW 9238   0.050   1.299   5.063
 2780SOL    HW1 9239   0.130   1.281   5.120
 2780SOL    HW2 9240   6.985   1.290   5.118
 2781SOL     OW 9241   5.697   0.602   3.873
 2781SOL    HW1 9242   5.709   0.545   3.955
 2781SOL    HW2 9243   5.779   0.657   3.858
 2782SOL     OW 9244   5.514   0.719   5.926
 2782SOL    HW1 9245   5.544   0.662   6.003
 2782SOL    HW2 9246   5.416   0.739   5.935
 2783SOL     OW 9247   6.259   3.630   1.989
 2783SOL    HW1 9248   6.191   3.703   1.984
 2783SOL    HW2 9249   6.351   3.668   1.974
 2784SOL     OW 9250   1.014   3.077   0.957
 2784SOL    HW1 9251   0.985   3.020   0.880
 2784SOL    HW2 9252   1.045   3.019   1.032
 2785SOL     OW 9253   6.405   3.359   2.279
 2785SOL    HW1 9254   6.351   3.277   2.298
 2785SOL    HW2 9255   6.345   3.439   2.276
 2786SOL     OW 9256   0.866   6.534   6.520
 2786SOL    HW1 9257   0.824   6.518   6.430
 2786SOL    HW2 9258   0.876   6.633   6.534
 2787SOL     OW 9259   0.339   5.819   6.471
 2787SOL    HW1 9260   0.349   5.721   6.456
 2787SOL    HW2 9261   0.268   5.856   6.410
 2788SOL     OW 9262   2.579   0.039   6.145
 2788SOL    HW1 9263   2.605   0.088   6.061
 2788SOL    HW2 9264   2.643   6.982   6.160
 2789SOL     OW 9265   1.161   2.210   4.679
 2789SOL    HW1 9266   1.158   2.163   4.590
 2789SOL    HW2 9267   1.131   2.304   4.667
 2790SOL     OW 9268   1.130   5.525   1.789
 2790SOL    HW1 9269   1.116   5.624   1.783
 2790SOL    HW2 9270   1.042   5.479   1.792
 2791SOL     OW 9271   0.907   3.039   3.813
 2791SOL    HW1 9272   0.922   3.017   3.717
 2791SOL    HW2 9273   0.993   3.068   3.855
 2792SOL     OW 9274   3.519   1.864   6.146
 2792SOL    HW1 9275   3.525   1.880   6.245
 2792SOL    HW2 9276   3.476   1.776   6.129
 2793SOL     OW 9277   3.886   3.549   0.501
 2793SOL    HW1 9278   3.881   3.489   0.581
 2793SOL    HW2 9279   3.937   3.632   0.525
 2794SOL     OW 9280   1.482   2.734   0.229
 2794SOL    HW1 9281   1.471   2.830   0.252
 2794SOL    HW2 9282   1.553   2.694   0.287
 2795SOL     OW 9283   1.605   6.167   1.046
 2795SOL    HW1 9284   1.589   6.265   1.032
 2795SOL    HW2 9285   1.639   6.152   1.139
 2796SOL     OW 9286   1.637   5.963   6.828
 2796SOL    HW1 9287   1.615   6.040   6.768
 2796SOL    HW2 9288   1.555   5.907   6.841
 2797SOL     OW 9289   5.170   4.914   3.095
 2797SOL    HW1 9290   5.233   4.839   3.117
 2797SOL    HW2 9291   5.221   4.987   3.050
 2798SOL     OW 9292   5.366   0.962   1.740
 2798SOL    HW1 9293   5.329   0.887   1.685
 2798SOL    HW2 9294   5.292   1.007   1.790
 2799SOL     OW 9295   3.621   6.929   4.448
 2799SOL    HW1 9296   3.699   6.907   4.389
 2799SOL    HW2 9297   3.571   6.844   4.469
 2800SOL     OW 9298   4.927   0.321   6.451
 2800SOL    HW1 9299   4.863   0.369   6.511
 2800SOL    HW2 9300   4.996   0.274   6.507
 2801SOL     OW 9301   0.408   4.432   4.118
 2801SOL    HW1 9302   0.468   4.485   4.179
 2801SOL    HW2 9303   0.442   4.338   4.113
 2802SOL     OW 9304   1.686   5.057   5.067
 2802SOL    HW1 9305   1.599   5.070   5.113
 2802SOL    HW2 9306   1.715   5.142   5.024
 2803SOL     OW 9307   3.615   2.500   6.237
 2803SOL    HW1 9308   3.669   2.438   6.180
 2803SOL    HW2 9309   3.554   2.447   6.296
 2804SOL     OW 9310   0.003   2.732   3.646
 2804SOL    HW1 9311   0.094   2.751   3.611
 2804SOL    HW2 9312   0.009   2.670   3.724
 2805SOL     OW 9313   3.312   3.882   0.820
 2805SOL    HW1 9314   3.271   3.816   0.882
 2805SOL    HW2 9315   3.300   3.975   0.856
 2806SOL     OW 9316   0.268   3.126   6.043
 2806SOL    HW1 9317   0.294   3.202   6.102
 2806SOL    HW2 9318   0.350   3.076   6.014
 2807SOL     OW 9319   4.388   1.282   3.868
 2807SOL    HW1 9320   4.328   1.214   3.910
 2807SOL    HW2 9321   4.467   1.236   3.826
 2808SOL     OW 9322   0.787   5.206   5.543
 2808SOL    HW1 9323   0.764   5.252   5.629
 2808SOL    HW2 9324   0.843   5.126   5.563
 2809SOL     OW 9325   6.920   5.480   1.910
 2809SOL    HW1 9326   6.976   5.406   1.875
 2809SOL    HW2 9327   6.978   5.557   1.937
 2810SOL     OW 9328   1.822   6.985   3.008
 2810SOL    HW1 9329   1.840   6.982   3.107
 2810SOL    HW2 9330   1.851   6.899   2.966
 2811SOL     OW 9331   1.159   1.234   0.804
 2811SOL    HW1 9332   1.135   1.208   0.710
 2811SOL    HW2 9333   1.201   1.155   0.850
 2812SOL     OW 9334   1.396   2.125   0.512
 2812SOL    HW1 9335   1.411   2.032   0.476
 2812SOL    HW2 9336   1.437   2.132   0.603
 2813SOL     OW 9337   0.667   3.236   1.918
 2813SOL    HW1 9338   0.639   3.290   1.997
 2813SOL    HW2 9339   0.763   3.211   1.927
 2814SOL     OW 9340   2.669   3.860   6.714
 2814SOL    HW1 9341   2.728   3.859   6.633
 2814SOL    HW2 9342   2.720   3.897   6.792
 2815SOL     OW 9343   6.817   5.383   4.561
 2815SOL    HW1 9344   6.912   5.355   4.550
 2815SOL    HW2 9345   6.764   5.352   4.482
 2816SOL     OW 9346   0.894   5.761   4.776
 2816SOL    HW1 9347   0.802   5.796   4.761
 2816SOL    HW2 9348   0.890   5.673   4.824
 2817SOL     OW 9349   3.088   0.773   2.586
 2817SOL    HW1 9350   3.135   0.736   2.505
 2817SOL    HW2 9351   3.089   0.873   2.581
 2818SOL     OW 9352   1.892   0.571   0.268
 2818SOL    HW1 9353   1.868   0.650   0.213
 2818SOL    HW2 9354   1.976   0.530   0.232
 2819SOL     OW 9355   0.731   0.378   6.619
 2819SOL    HW1 9356   0.801   0.419   6.678
 2819SOL    HW2 9357   0.645   0.429   6.629
 2820SOL     OW 9358   1.651   2.133   0.002
 2820SOL    HW1 9359   1.690   2.183   6.943
 2820SOL    HW2 9360   1.556   2.162   0.015
 2821SOL     OW 9361   3.216   3.434   6.233
 2821SOL    HW1 9362   3.187   3.344   6.201
 2821SOL    HW2 9363   3.261   3.425   6.322
 2822SOL     OW 9364   5.083   2.591   0.282
 2822SOL    HW1 9365   5.081   2.675   0.227
 2822SOL    HW2 9366   5.063   2.512   0.224
 2823SOL     OW 9367   4.584   3.485   1.577
 2823SOL    HW1 9368   4.500   3.452   1.620
 2823SOL    HW2 9369   4.648   3.409   1.566
 2824SOL     OW 9370   0.913   4.518   4.683
 2824SOL    HW1 9371   0.939   4.422   4.695
 2824SOL    HW2 9372   0.993   4.570   4.655
 2825SOL     OW 9373   5.274   1.275   6.084
 2825SOL    HW1 9374   5.279   1.181   6.116
 2825SOL    HW2 9375   5.327   1.334   6.144
 2826SOL     OW 9376   2.455   2.896   6.674
 2826SOL    HW1 9377   2.402   2.856   6.599
 2826SOL    HW2 9378   2.551   2.904   6.646
 2827SOL     OW 9379   5.719   1.996   6.660
 2827SOL    HW1 9380   5.626   2.019   6.690
 2827SOL    HW2 9381   5.740   1.902   6.686
 2828SOL     OW 9382   1.779   3.343   1.324
 2828SOL    HW1 9383   1.841   3.375   1.396
 2828SOL    HW2 9384   1.814   3.258   1.284
 2829SOL     OW 9385   3.333   3.664   2.054
 2829SOL    HW1 9386   3.410   3.600   2.058
 2829SOL    HW2 9387   3.334   3.722   2.135
 2830SOL     OW 9388   2.987   6.172   4.641
 2830SOL    HW1 9389   3.012   6.139   4.550
 2830SOL    HW2 9390   2.888   6.186   4.644
 2831SOL     OW 9391   6.393   1.660   1.721
 2831SOL    HW1 9392   6.301   1.629   1.700
 2831SOL    HW2 9393   6.460   1.598   1.681
 2832SOL     OW 9394   0.857   3.747   2.671
 2832SOL    HW1 9395   0.860   3.677   2.742
 2832SOL    HW2 9396   0.762   3.762   2.643
 2833SOL     OW 9397   0.696   2.777   2.605
 2833SOL    HW1 9398   0.728   2.761   2.512
 2833SOL    HW2 9399   0.706   2.873   2.628
 2834SOL     OW 9400   3.850   6.891   4.302
 2834SOL    HW1 9401   3.897   6.861   4.385
 2834SOL    HW2 9402   3.910   6.954   4.252
 2835SOL     OW 9403   5.905   0.776   6.538
 2835SOL    HW1 9404   5.910   0.681   6.568
 2835SOL    HW2 9405   5.959   0.833   6.600
 2836SOL     OW 9406   3.140   6.009   3.021
 2836SOL    HW1 9407   3.219   6.011   2.960
 2836SOL    HW2 9408   3.103   5.916   3.024
 2837SOL     OW 9409   5.031   4.382   1.530
 2837SOL    HW1 9410   5.020   4.478   1.506
 2837SOL    HW2 9411   5.096   4.374   1.607
 2838SOL     OW 9412   6.890   3.942   5.990
 2838SOL    HW1 9413   6.855   4.018   6.044
 2838SOL    HW2 9414   6.969   3.971   5.937
 2839SOL     OW 9415   5.763   3.100   5.324
 2839SOL    HW1 9416   5.766   3.120   5.422
 2839SOL    HW2 9417   5.720   3.011   5.309
 2840SOL     OW 9418   6.043   6.531   3.832
 2840SOL    HW1 9419   6.003   6.623   3.842
 2840SOL    HW2 9420   5.986   6.465   3.881
 2841SOL     OW 9421   5.529   4.075   2.252
 2841SOL    HW1 9422   5.627   4.093   2.238
 2841SOL    HW2 9423   5.510   3.979   2.230
 2842SOL     OW 9424   0.821   0.050   3.664
 2842SOL    HW1 9425   0.723   0.037   3.653
 2842SOL    HW2 9426   0.860   0.089   3.581
 2843SOL     OW 9427   2.314   2.169   3.497
 2843SOL    HW1 9428   2.370   2.133   3.422
 2843SOL    HW2 9429   2.228   2.118   3.501
 2844SOL     OW 9430   4.824   3.701   0.846
 2844SOL    HW1 9431   4.915   3.732   0.820
 2844SOL    HW2 9432   4.755   3.750   0.792
 2845SOL     OW 9433   2.334   1.569   1.790
 2845SOL    HW1 9434   2.338   1.595   1.693
 2845SOL    HW2 9435   2.310   1.649   1.845
 2846SOL     OW 9436   6.570   0.083   6.670
 2846SOL    HW1 9437   6.485   0.036   6.649
 2846SOL    HW2 9438   6.642   0.016   6.687
 2847SOL     OW 9439   4.887   5.591   1.052
 2847SOL    HW1 9440   4.849   5.652   0.983
 2847SOL    HW2 9441   4.821   5.579   1.127
 2848SOL     OW 9442   0.693   4.448   5.483
 2848SOL    HW1 9443   0.642   4.460   5.568
 2848SOL    HW2 9444   0.775   4.506   5.484
 2849SOL     OW 9445   5.436   0.464   1.772
 2849SOL    HW1 9446   5.360   0.525   1.747
 2849SOL    HW2 9447   5.520   0.495   1.728
 2850SOL     OW 9448   1.292   0.306   1.794
 2850SOL    HW1 9449   1.338   0.217   1.800
 2850SOL    HW2 9450   1.346   0.375   1.842
 2851SOL     OW 9451   2.890   3.381   1.236
 2851SOL    HW1 9452   2.914   3.284   1.244
 2851SOL    HW2 9453   2.793   3.389   1.214
 2852SOL     OW 9454   0.060   5.137   5.839
 2852SOL    HW1 9455   0.150   5.161   5.875
 2852SOL    HW2 9456   7.007   5.170   5.902
 2853SOL     OW 9457   0.102   4.273   5.528
 2853SOL    HW1 9458   0.013   4.285   5.573
 2853SOL    HW2 9459   0.127   4.358   5.483
 2854SOL     OW 9460   3.207   0.785   6.566
 2854SOL    HW1 9461   3.238   0.693   6.591
 2854SOL    HW2 9462   3.107   0.785   6.558
 2855SOL     OW 9463   2.236   1.104   4.323
 2855SOL    HW1 9464   2.193   1.068   4.407
 2855SOL    HW2 9465   2.178   1.176   4.285
 2856SOL     OW 9466   0.212   5.751   3.788
 2856SOL    HW1 9467   0.130   5.772   3.842
 2856SOL    HW2 9468   0.256   5.669   3.825
 2857SOL     OW 9469   6.820   4.381   1.076
 2857SOL    HW1 9470   6.746   4.379   1.143
 2857SOL    HW2 9471   6.857   4.289   1.066
 2858SOL     OW 9472   5.047   4.686   2.255
 2858SOL    HW1 9473   5.001   4.606   2.293
 2858SOL    HW2 9474   5.141   4.661   2.229
 2859SOL     OW 9475   5.603   5.237   1.702
 2859SOL    HW1 9476   5.639   5.216   1.793
 2859SOL    HW2 9477   5.546   5.161   1.670
 2860SOL     OW 9478   0.909   0.041   2.807
 2860SOL    HW1 9479   0.951   0.079   2.724
 2860SOL    HW2 9480   0.810   0.043   2.798
 2861SOL     OW 9481   4.718   4.084   5.928
 2861SOL    HW1 9482   4.717   4.030   6.012
 2861SOL    HW2 9483   4.676   4.031   5.854
 2862SOL     OW 9484   4.741   1.896   0.506
 2862SOL    HW1 9485   4.648   1.865   0.526
 2862SOL    HW2 9486   4.748   1.923   0.410
 2863SOL     OW 9487   6.188   2.145   5.012
 2863SOL    HW1 9488   6.127   2.223   4.995
 2863SOL    HW2 9489   6.167   2.105   5.102
 2864SOL     OW 9490   3.954   4.417   0.514
 2864SOL    HW1 9491   3.938   4.386   0.608
 2864SOL    HW2 9492   3.874   4.467   0.482
 2865SOL     OW 9493   5.548   5.108   5.327
 2865SOL    HW1 9494   5.483   5.178   5.359
 2865SOL    HW2 9495   5.504   5.051   5.258
 2866SOL     OW 9496   3.654   4.561   0.659
 2866SOL    HW1 9497   3.709   4.620   0.600
 2866SOL    HW2 9498   3.596   4.617   0.718
 2867SOL     OW 9499   6.269   6.353   2.897
 2867SOL    HW1 9500   6.189   6.316   2.944
 2867SOL    HW2 9501   6.270   6.452   2.908
 2868SOL     OW 9502   0.217   0.349   5.847
 2868SOL    HW1 9503   0.279   0.345   5.925
 2868SOL    HW2 9504   0.269   0.361   5.763
 2869SOL     OW 9505   5.983   4.617   3.887
 2869SOL    HW1 9506   5.926   4.604   3.806
 2869SOL    HW2 9507   5.935   4.677   3.951
 2870SOL     OW 9508   6.895   1.750   1.757
 2870SOL    HW1 9509   6.882   1.847   1.775
 2870SOL    HW2 9510   6.951   1.710   1.830
 2871SOL     OW 9511   5.114   1.540   2.742
 2871SOL    HW1 9512   5.205   1.576   2.722
 2871SOL    HW2 9513   5.046   1.613   2.730
 2872SOL     OW 9514   2.208   2.261   2.496
 2872SOL    HW1 9515   2.161   2.349   2.497
 2872SOL    HW2 9516   2.289   2.267   2.437
 2873SOL     OW 9517   1.275   0.382   1.140
 2873SOL    HW1 9518   1.185   0.424   1.141
 2873SOL    HW2 9519   1.341   0.444   1.183
 2874SOL     OW 9520   2.042   1.545   3.201
 2874SOL    HW1 9521   2.081   1.600   3.127
 2874SOL    HW2 9522   2.103   1.548   3.280
 2875SOL     OW 9523   2.596   6.718   3.081
 2875SOL    HW1 9524   2.688   6.725   3.042
 2875SOL    HW2 9525   2.539   6.793   3.045
 2876SOL     OW 9526   2.155   6.505   1.277
 2876SOL    HW1 9527   2.061   6.537   1.263
 2876SOL    HW2 9528   2.195   6.552   1.356
 2877SOL     OW 9529   1.685   2.397   6.347
 2877SOL    HW1 9530   1.622   2.473   6.331
 2877SOL    HW2 9531   1.674   2.329   6.275
 2878SOL     OW 9532   3.926   3.149   4.446
 2878SOL    HW1 9533   3.889   3.170   4.356
 2878SOL    HW2 9534   4.003   3.210   4.466
 2879SOL     OW 9535   5.331   4.611   0.188
 2879SOL    HW1 9536   5.377   4.699   0.197
 2879SOL    HW2 9537   5.271   4.613   0.107
 2880SOL     OW 9538   2.075   1.138   3.499
 2880SOL    HW1 9539   2.040   1.109   3.588
 2880SOL    HW2 9540   2.038   1.079   3.428
 2881SOL     OW 9541   5.433   5.199   0.593
 2881SOL    HW1 9542   5.445   5.164   0.500
 2881SOL    HW2 9543   5.457   5.128   0.659
 2882SOL     OW 9544   4.344   6.205   6.992
 2882SOL    HW1 9545   4.293   6.125   0.006
 2882SOL    HW2 9546   4.295   6.246   6.915
 2883SOL     OW 9547   6.016   6.728   3.558
 2883SOL    HW1 9548   6.089   6.661   3.567
 2883SOL    HW2 9549   6.026   6.778   3.472
 2884SOL     OW 9550   6.025   5.581   4.394
 2884SOL    HW1 9551   5.962   5.524   4.340
 2884SOL    HW2 9552   6.055   5.530   4.474
 2885SOL     OW 9553   1.647   2.572   3.625
 2885SOL    HW1 9554   1.702   2.554   3.707
 2885SOL    HW2 9555   1.550   2.566   3.648
 2886SOL     OW 9556   2.358   4.478   5.434
 2886SOL    HW1 9557   2.429   4.476   5.504
 2886SOL    HW2 9558   2.388   4.425   5.354
 2887SOL     OW 9559   0.107   5.772   2.774
 2887SOL    HW1 9560   0.205   5.752   2.773
 2887SOL    HW2 9561   0.076   5.779   2.868
 2888SOL     OW 9562   5.273   0.012   6.671
 2888SOL    HW1 9563   5.243   0.107   6.671
 2888SOL    HW2 9564   5.342   7.017   6.600
 2889SOL     OW 9565   4.272   6.273   4.075
 2889SOL    HW1 9566   4.239   6.331   4.001
 2889SOL    HW2 9567   4.279   6.327   4.159
 2890SOL     OW 9568   1.077   2.199   0.941
 2890SOL    HW1 9569   1.068   2.108   0.902
 2890SOL    HW2 9570   1.041   2.199   1.035
 2891SOL     OW 9571   0.396   1.726   5.294
 2891SOL    HW1 9572   0.407   1.743   5.392
 2891SOL    HW2 9573   0.299   1.715   5.273
 2892SOL     OW 9574   5.516   4.423   1.958
 2892SOL    HW1 9575   5.496   4.443   1.862
 2892SOL    HW2 9576   5.489   4.329   1.980
 2893SOL     OW 9577   6.694   6.016   5.068
 2893SOL    HW1 9578   6.753   6.090   5.100
 2893SOL    HW2 9579   6.671   6.030   4.972
 2894SOL     OW 9580   2.173   5.288   1.843
 2894SOL    HW1 9581   2.240   5.342   1.895
 2894SOL    HW2 9582   2.131   5.345   1.773
 2895SOL     OW 9583   4.121   6.567   5.979
 2895SOL    HW1 9584   4.128   6.505   5.900
 2895SOL    HW2 9585   4.212   6.578   6.020
 2896SOL     OW 9586   5.527   0.258   4.952
 2896SOL    HW1 9587   5.515   0.233   4.856
 2896SOL    HW2 9588   5.442   0.297   4.987
 2897SOL     OW 9589   3.811   4.926   3.062
 2897SOL    HW1 9590   3.732   4.871   3.033
 2897SOL    HW2 9591   3.783   4.991   3.132
 2898SOL     OW 9592   4.960   2.546   2.429
 2898SOL    HW1 9593   4.942   2.535   2.527
 2898SOL    HW2 9594   4.923   2.468   2.379
 2899SOL     OW 9595   6.914   3.345   0.853
 2899SOL    HW1 9596   6.860   3.424   0.882
 2899SOL    HW2 9597   6.984   3.375   0.788
 2900SOL     OW 9598   2.670   3.044   5.638
 2900SOL    HW1 9599   2.627   3.131   5.614
 2900SOL    HW2 9600   2.727   3.014   5.562
 2901SOL     OW 9601   1.094   4.276   3.107
 2901SOL    HW1 9602   1.149   4.192   3.106
 2901SOL    HW2 9603   1.005   4.258   3.065
 2902SOL     OW 9604   5.810   5.526   3.759
 2902SOL    HW1 9605   5.864   5.480   3.688
 2902SOL    HW2 9606   5.714   5.500   3.749
 2903SOL     OW 9607   5.946   4.499   0.635
 2903SOL    HW1 9608   5.967   4.468   0.542
 2903SOL    HW2 9609   5.858   4.460   0.664
 2904SOL     OW 9610   2.011   4.585   5.296
 2904SOL    HW1 9611   2.032   4.488   5.280
 2904SOL    HW2 9612   2.054   4.641   5.225
 2905SOL     OW 9613   2.222   5.703   1.106
 2905SOL    HW1 9614   2.250   5.790   1.148
 2905SOL    HW2 9615   2.302   5.642   1.099
 2906SOL     OW 9616   5.999   6.186   4.732
 2906SOL    HW1 9617   6.059   6.122   4.685
 2906SOL    HW2 9618   5.985   6.157   4.827
 2907SOL     OW 9619   0.921   0.421   5.033
 2907SOL    HW1 9620   1.009   0.418   5.080
 2907SOL    HW2 9621   0.873   0.505   5.058
 2908SOL     OW 9622   4.704   7.011   2.964
 2908SOL    HW1 9623   4.614   6.968   2.973
 2908SOL    HW2 9624   4.692   0.091   2.950
 2909SOL     OW 9625   6.942   6.472   1.511
 2909SOL    HW1 9626   6.886   6.389   1.507
 2909SOL    HW2 9627   6.911   6.528   1.588
 2910SOL     OW 9628   0.760   0.510   4.502
 2910SOL    HW1 9629   0.838   0.558   4.543
 2910SOL    HW2 9630   0.770   0.512   4.402
 2911SOL     OW 9631   6.854   4.326   5.595
 2911SOL    HW1 9632   6.831   4.233   5.567
 2911SOL    HW2 9633   6.865   4.329   5.695
 2912SOL     OW 9634   1.133   1.108   1.443
 2912SOL    HW1 9635   1.172   1.097   1.534
 2912SOL    HW2 9636   1.052   1.167   1.449
 2913SOL     OW 9637   2.542   6.498   2.734
 2913SOL    HW1 9638   2.587   6.587   2.729
 2913SOL    HW2 9639   2.593   6.438   2.794
 2914SOL     OW 9640   3.943   5.535   0.886
 2914SOL    HW1 9641   3.890   5.450   0.887
 2914SOL    HW2 9642   4.028   5.520   0.835
 2915SOL     OW 9643   2.967   0.356   3.518
 2915SOL    HW1 9644   2.983   0.286   3.449
 2915SOL    HW2 9645   2.877   0.342   3.560
 2916SOL     OW 9646   1.647   5.656   0.060
 2916SOL    HW1 9647   1.642   5.754   0.082
 2916SOL    HW2 9648   1.660   5.645   6.979
 2917SOL     OW 9649   2.819   6.717   2.941
 2917SOL    HW1 9650   2.916   6.740   2.933
 2917SOL    HW2 9651   2.773   6.738   2.854
 2918SOL     OW 9652   5.160   2.861   1.738
 2918SOL    HW1 9653   5.123   2.852   1.645
 2918SOL    HW2 9654   5.154   2.956   1.767
 2919SOL     OW 9655   0.532   5.977   4.833
 2919SOL    HW1 9656   0.554   5.919   4.755
 2919SOL    HW2 9657   0.534   6.073   4.805
 2920SOL     OW 9658   2.283   2.169   2.079
 2920SOL    HW1 9659   2.345   2.117   2.137
 2920SOL    HW2 9660   2.331   2.199   1.996
 2921SOL     OW 9661   1.755   5.986   3.393
 2921SOL    HW1 9662   1.786   6.026   3.307
 2921SOL    HW2 9663   1.673   5.932   3.376
 2922SOL     OW 9664   4.302   4.879   4.035
 2922SOL    HW1 9665   4.220   4.905   4.084
 2922SOL    HW2 9666   4.277   4.838   3.947
 2923SOL     OW 9667   0.129   5.654   4.969
 2923SOL    HW1 9668   0.080   5.730   5.011
 2923SOL    HW2 9669   0.073   5.571   4.975
 2924SOL     OW 9670   5.981   2.062   6.725
 2924SOL    HW1 9671   5.977   2.157   6.695
 2924SOL    HW2 9672   5.902   2.012   6.690
 2925SOL     OW 9673   5.720   6.697   4.757
 2925SOL    HW1 9674   5.690   6.673   4.849
 2925SOL    HW2 9675   5.814   6.732   4.761
 2926SOL     OW 9676   6.814   2.496   3.834
 2926SOL    HW1 9677   6.759   2.435   3.889
 2926SOL    HW2 9678   6.870   2.554   3.893
 2927SOL     OW 9679   0.905   2.115   1.473
 2927SOL    HW1 9680   0.965   2.150   1.544
 2927SOL    HW2 9681   0.820   2.082   1.515
 2928SOL     OW 9682   6.275   3.141   0.507
 2928SOL    HW1 9683   6.191   3.089   0.494
 2928SOL    HW2 9684   6.348   3.103   0.451
 2929SOL     OW 9685   1.984   2.176   3.988
 2929SOL    HW1 9686   1.934   2.209   3.908
 2929SOL    HW2 9687   2.011   2.081   3.973
 2930SOL     OW 9688   0.343   3.951   4.141
 2930SOL    HW1 9689   0.258   3.944   4.090
 2930SOL    HW2 9690   0.385   3.861   4.151
 2931SOL     OW 9691   5.385   4.266   5.772
 2931SOL    HW1 9692   5.334   4.318   5.841
 2931SOL    HW2 9693   5.479   4.301   5.767
 2932SOL     OW 9694   5.974   4.972   1.573
 2932SOL    HW1 9695   5.943   5.066   1.558
 2932SOL    HW2 9696   6.068   4.962   1.540
 2933SOL     OW 9697   1.050   6.576   0.233
 2933SOL    HW1 9698   0.963   6.576   0.283
 2933SOL    HW2 9699   1.033   6.563   0.136
 2934SOL     OW 9700   4.151   5.240   1.264
 2934SOL    HW1 9701   4.200   5.215   1.180
 2934SOL    HW2 9702   4.056   5.261   1.243
 2935SOL     OW 9703   0.938   2.802   6.088
 2935SOL    HW1 9704   0.983   2.818   6.001
 2935SOL    HW2 9705   0.901   2.889   6.123
 2936SOL     OW 9706   4.826   6.667   1.925
 2936SOL    HW1 9707   4.756   6.692   1.858
 2936SOL    HW2 9708   4.782   6.625   2.004
 2937SOL     OW 9709   5.510   3.982   2.810
 2937SOL    HW1 9710   5.521   4.023   2.720
 2937SOL    HW2 9711   5.413   3.969   2.829
 2938SOL     OW 9712   0.658   6.101   6.074
 2938SOL    HW1 9713   0.737   6.160   6.089
 2938SOL    HW2 9714   0.656   6.030   6.145
 2939SOL     OW 9715   0.076   5.942   1.397
 2939SOL    HW1 9716   0.144   5.875   1.367
 2939SOL    HW2 9717   0.116   6.033   1.395
 2940SOL     OW 9718   4.580   6.608   3.500
 2940SOL    HW1 9719   4.502   6.663   3.529
 2940SOL    HW2 9720   4.651   6.667   3.464
 2941SOL     OW 9721   2.372   4.754   3.044
 2941SOL    HW1 9722   2.385   4.656   3.062
 2941SOL    HW2 9723   2.305   4.791   3.107
 2942SOL     OW 9724   3.149   1.503   1.629
 2942SOL    HW1 9725   3.142   1.603   1.637
 2942SOL    HW2 9726   3.136   1.461   1.718
 2943SOL     OW 9727   5.815   3.859   2.929
 2943SOL    HW1 9728   5.842   3.953   2.909
 2943SOL    HW2 9729   5.874   3.795   2.880
 2944SOL     OW 9730   2.058   5.740   2.375
 2944SOL    HW1 9731   2.037   5.646   2.348
 2944SOL    HW2 9732   2.157   5.749   2.391
 2945SOL     OW 9733   4.620   4.112   1.163
 2945SOL    HW1 9734   4.579   4.023   1.146
 2945SOL    HW2 9735   4.570   4.159   1.235
 2946SOL     OW 9736   3.463   3.299   4.365
 2946SOL    HW1 9737   3.545   3.266   4.319
 2946SOL    HW2 9738   3.388   3.304   4.299
 2947SOL     OW 9739   6.512   5.836   0.952
 2947SOL    HW1 9740   6.503   5.737   0.940
 2947SOL    HW2 9741   6.582   5.856   1.020
 2948SOL     OW 9742   6.987   3.477   2.346
 2948SOL    HW1 9743   0.063   3.456   2.318
 2948SOL    HW2 9744   6.988   3.552   2.412
 2949SOL     OW 9745   2.185   6.494   0.378
 2949SOL    HW1 9746   2.130   6.558   0.432
 2949SOL    HW2 9747   2.279   6.496   0.410
 2950SOL     OW 9748   6.191   5.932   2.181
 2950SOL    HW1 9749   6.156   5.901   2.270
 2950SOL    HW2 9750   6.287   5.956   2.190
 2951SOL     OW 9751   0.461   1.368   1.530
 2951SOL    HW1 9752   0.499   1.380   1.439
 2951SOL    HW2 9753   0.421   1.454   1.562
 2952SOL     OW 9754   6.876   1.548   5.465
 2952SOL    HW1 9755   6.955   1.609   5.474
 2952SOL    HW2 9756   6.805   1.591   5.410
 2953SOL     OW 9757   1.467   4.952   3.368
 2953SOL    HW1 9758   1.374   4.920   3.349
 2953SOL    HW2 9759   1.507   4.895   3.440
 2954SOL     OW 9760   0.466   3.720   6.203
 2954SOL    HW1 9761   0.378   3.767   6.194
 2954SOL    HW2 9762   0.458   3.628   6.164
 2955SOL     OW 9763   1.342   4.397   6.361
 2955SOL    HW1 9764   1.385   4.335   6.296
 2955SOL    HW2 9765   1.274   4.348   6.415
 2956SOL     OW 9766   5.184   4.865   4.551
 2956SOL    HW1 9767   5.151   4.929   4.621
 2956SOL    HW2 9768   5.116   4.856   4.479
 2957SOL     OW 9769   2.453   5.236   1.346
 2957SOL    HW1 9770   2.517   5.165   1.374
 2957SOL    HW2 9771   2.405   5.272   1.426
 2958SOL     OW 9772   1.551   4.281   2.788
 2958SOL    HW1 9773   1.502   4.283   2.701
 2958SOL    HW2 9774   1.643   4.318   2.776
 2959SOL     OW 9775   0.035   3.604   3.590
 2959SOL    HW1 9776   0.045   3.508   3.614
 2959SOL    HW2 9777   7.012   3.654   3.667
 2960SOL     OW 9778   5.034   0.060   1.211
 2960SOL    HW1 9779   4.935   0.073   1.206
 2960SOL    HW2 9780   5.079   0.124   1.149
 2961SOL     OW 9781   5.926   3.100   1.932
 2961SOL    HW1 9782   5.909   3.012   1.889
 2961SOL    HW2 9783   6.008   3.142   1.891
 2962SOL     OW 9784   6.954   0.370   3.362
 2962SOL    HW1 9785   6.977   0.318   3.280
 2962SOL    HW2 9786   0.015   0.370   3.424
 2963SOL     OW 9787   1.277   0.830   5.016
 2963SOL    HW1 9788   1.374   0.823   4.994
 2963SOL    HW2 9789   1.253   0.763   5.087
 2964SOL     OW 9790   1.540   0.742   6.303
 2964SOL    HW1 9791   1.518   0.734   6.401
 2964SOL    HW2 9792   1.501   0.827   6.268
 2965SOL     OW 9793   6.419   0.368   6.297
 2965SOL    HW1 9794   6.510   0.410   6.295
 2965SOL    HW2 9795   6.383   0.373   6.390
 2966SOL     OW 9796   2.870   5.595   1.981
 2966SOL    HW1 9797   2.850   5.505   2.020
 2966SOL    HW2 9798   2.922   5.649   2.047
 2967SOL     OW 9799   5.629   6.839   5.285
 2967SOL    HW1 9800   5.571   6.916   5.308
 2967SOL    HW2 9801   5.724   6.868   5.283
 2968SOL     OW 9802   0.805   3.868   0.970
 2968SOL    HW1 9803   0.783   3.774   0.997
 2968SOL    HW2 9804   0.761   3.932   1.033
 2969SOL     OW 9805   4.707   2.911   5.175
 2969SOL    HW1 9806   4.630   2.855   5.146
 2969SOL    HW2 9807   4.762   2.936   5.094
 2970SOL     OW 9808   2.561   2.239   5.327
 2970SOL    HW1 9809   2.535   2.230   5.423
 2970SOL    HW2 9810   2.585   2.334   5.308
 2971SOL     OW 9811   5.228   2.982   6.719
 2971SOL    HW1 9812   5.293   3.053   6.691
 2971SOL    HW2 9813   5.169   2.959   6.641
 2972SOL     OW 9814   0.101   5.627   6.429
 2972SOL    HW1 9815   0.089   5.644   6.331
 2972SOL    HW2 9816   0.087   5.712   6.479
 2973SOL     OW 9817   5.143   1.332   4.279
 2973SOL    HW1 9818   5.058   1.294   4.316
 2973SOL    HW2 9819   5.194   1.378   4.352
 2974SOL     OW 9820   4.605   7.000   2.362
 2974SOL    HW1 9821   4.681   0.022   2.312
 2974SOL    HW2 9822   4.624   7.005   2.461
 2975SOL     OW 9823   5.450   4.012   5.040
 2975SOL    HW1 9824   5.407   4.039   4.953
 2975SOL    HW2 9825   5.549   4.025   5.033
 2976SOL     OW 9826   3.671   1.300   1.880
 2976SOL    HW1 9827   3.600   1.230   1.875
 2976SOL    HW2 9828   3.747   1.275   1.819
 2977SOL     OW 9829   1.043   0.573   1.833
 2977SOL    HW1 9830   1.048   0.487   1.885
 2977SOL    HW2 9831   0.953   0.615   1.847
 2978SOL     OW 9832   4.188   5.077   6.850
 2978SOL    HW1 9833   4.228   4.985   6.850
 2978SOL    HW2 9834   4.133   5.090   6.768
 2979SOL     OW 9835   3.267   0.756   4.963
 2979SOL    HW1 9836   3.175   0.794   4.954
 2979SOL    HW2 9837   3.307   0.742   4.872
 2980SOL     OW 9838   2.989   3.508   4.282
 2980SOL    HW1 9839   2.909   3.515   4.221
 2980SOL    HW2 9840   2.989   3.419   4.326
 2981SOL     OW 9841   2.380   1.025   1.593
 2981SOL    HW1 9842   2.388   1.125   1.584
 2981SOL    HW2 9843   2.467   0.987   1.624
 2982SOL     OW 9844   1.823   0.916   1.139
 2982SOL    HW1 9845   1.887   0.913   1.062
 2982SOL    HW2 9846   1.849   0.990   1.201
 2983SOL     OW 9847   6.543   3.295   5.361
 2983SOL    HW1 9848   6.489   3.211   5.361
 2983SOL    HW2 9849   6.516   3.352   5.283
 2984SOL     OW 9850   0.459   5.630   1.360
 2984SOL    HW1 9851   0.550   5.607   1.393
 2984SOL    HW2 9852   0.462   5.648   1.261
 2985SOL     OW 9853   5.901   0.516   6.569
 2985SOL    HW1 9854   5.813   0.474   6.593
 2985SOL    HW2 9855   5.966   0.445   6.545
 2986SOL     OW 9856   3.564   3.510   2.100
 2986SOL    HW1 9857   3.656   3.484   2.072
 2986SOL    HW2 9858   3.553   3.494   2.198
 2987SOL     OW 9859   2.466   6.020   4.368
 2987SOL    HW1 9860   2.453   6.041   4.466
 2987SOL    HW2 9861   2.563   6.018   4.348
 2988SOL     OW 9862   6.819   1.710   6.105
 2988SOL    HW1 9863   6.889   1.775   6.136
 2988SOL    HW2 9864   6.743   1.761   6.064
 2989SOL     OW 9865   5.487   3.386   4.634
 2989SOL    HW1 9866   5.399   3.413   4.596
 2989SOL    HW2 9867   5.498   3.287   4.624
 2990SOL     OW 9868   5.452   2.218   4.710
 2990SOL    HW1 9869   5.546   2.251   4.720
 2990SOL    HW2 9870   5.397   2.251   4.787
 2991SOL     OW 9871   0.474   3.359   0.487
 2991SOL    HW1 9872   0.448   3.279   0.540
 2991SOL    HW2 9873   0.492   3.333   0.392
 2992SOL     OW 9874   0.496   4.113   4.708
 2992SOL    HW1 9875   0.423   4.130   4.642
 2992SOL    HW2 9876   0.459   4.061   4.785
 2993SOL     OW 9877   2.832   4.307   0.921
 2993SOL    HW1 9878   2.822   4.226   0.979
 2993SOL    HW2 9879   2.795   4.387   0.969
 2994SOL     OW 9880   3.338   5.454   5.065
 2994SOL    HW1 9881   3.308   5.540   5.024
 2994SOL    HW2 9882   3.283   5.379   5.029
 2995SOL     OW 9883   4.358   0.325   1.734
 2995SOL    HW1 9884   4.450   0.314   1.695
 2995SOL    HW2 9885   4.361   0.391   1.809
 2996SOL     OW 9886   6.727   1.167   4.002
 2996SOL    HW1 9887   6.721   1.184   3.904
 2996SOL    HW2 9888   6.669   1.089   4.026
 2997SOL     OW 9889   4.954   6.282   4.175
 2997SOL    HW1 9890   4.901   6.353   4.221
 2997SOL    HW2 9891   4.895   6.233   4.110
 2998SOL     OW 9892   2.753   1.041   1.515
 2998SOL    HW1 9893   2.712   1.040   1.607
 2998SOL    HW2 9894   2.803   0.955   1.501
 2999SOL     OW 9895   2.099   4.530   0.929
 2999SOL    HW1 9896   2.118   4.594   0.854
 2999SOL    HW2 9897   2.029   4.464   0.900
 3000SOL     OW 9898   2.514   4.164   5.389
 3000SOL    HW1 9899   2.614   4.157   5.386
 3000SOL    HW2 9900   2.475   4.127   5.304
 3001SOL     OW 9901   4.958   0.734   6.146
 3001SOL    HW1 9902   4.893   0.803   6.178
 3001SOL    HW2 9903   4.939   0.647   6.191
 3002SOL     OW 9904   1.819   2.055   1.852
 3002SOL    HW1 9905   1.908   2.022   1.885
 3002SOL    HW2 9906   1.746   2.005   1.898
 3003SOL     OW 9907   1.694   6.631   0.679
 3003SOL    HW1 9908   1.741   6.715   0.706
 3003SOL    HW2 9909   1.626   6.652   0.609
 3004SOL     OW 9910   2.744   6.924   3.246
 3004SOL    HW1 9911   2.750   6.950   3.342
 3004SOL    HW2 9912   2.648   6.909   3.222
 3005SOL     OW 9913   1.901   2.023   0.920
 3005SOL    HW1 9914   1.888   2.111   0.873
 3005SOL    HW2 9915   1.954   2.037   1.003
 3006SOL     OW 9916   5.309   1.443   5.803
 3006SOL    HW1 9917   5.289   1.396   5.889
 3006SOL    HW2 9918   5.241   1.417   5.734
 3007SOL     OW 9919   6.388   5.634   6.410
 3007SOL    HW1 9920   6.393   5.684   6.496
 3007SOL    HW2 9921   6.480   5.608   6.381
 3008SOL     OW 9922   4.503   3.655   5.584
 3008SOL    HW1 9923   4.490   3.754   5.572
 3008SOL    HW2 9924   4.483   3.608   5.498
 3009SOL     OW 9925   6.377   2.948   2.445
 3009SOL    HW1 9926   6.307   3.010   2.410
 3009SOL    HW2 9927   6.467   2.979   2.414
 3010SOL     OW 9928   4.397   5.610   1.940
 3010SOL    HW1 9929   4.439   5.672   1.873
 3010SOL    HW2 9930   4.361   5.664   2.016
 3011SOL     OW 9931   6.532   0.342   0.214
 3011SOL    HW1 9932   6.625   0.306   0.222
 3011SOL    HW2 9933   6.537   0.439   0.190
 3012SOL     OW 9934   1.996   1.539   4.924
 3012SOL    HW1 9935   2.034   1.563   4.835
 3012SOL    HW2 9936   2.067   1.498   4.981
 3013SOL     OW 9937   0.379   4.755   5.203
 3013SOL    HW1 9938   0.387   4.659   5.177
 3013SOL    HW2 9939   0.374   4.812   5.121
 3014SOL     OW 9940   4.903   0.052   6.659
 3014SOL    HW1 9941   4.821   0.109   6.667
 3014SOL    HW2 9942   4.943   0.038   6.750
 3015SOL     OW 9943   1.806   0.914   6.169
 3015SOL    HW1 9944   1.807   0.885   6.265
 3015SOL    HW2 9945   1.736   0.985   6.157
 3016SOL     OW 9946   2.124   6.709   4.077
 3016SOL    HW1 9947   2.178   6.640   4.126
 3016SOL    HW2 9948   2.158   6.800   4.099
 3017SOL     OW 9949   1.356   5.677   0.228
 3017SOL    HW1 9950   1.309   5.758   0.264
 3017SOL    HW2 9951   1.344   5.601   0.292
 3018SOL     OW 9952   3.424   1.471   1.660
 3018SOL    HW1 9953   3.326   1.472   1.640
 3018SOL    HW2 9954   3.465   1.558   1.634
 3019SOL     OW 9955   2.005   6.964   6.391
 3019SOL    HW1 9956   1.989   6.983   6.294
 3019SOL    HW2 9957   2.041   0.028   6.436
 3020SOL     OW 9958   5.744   5.010   6.784
 3020SOL    HW1 9959   5.759   5.080   6.855
 3020SOL    HW2 9960   5.832   4.983   6.745
 3021SOL     OW 9961   4.278   0.767   4.460
 3021SOL    HW1 9962   4.236   0.797   4.375
 3021SOL    HW2 9963   4.372   0.800   4.464
 3022SOL     OW 9964   4.444   6.168   3.554
 3022SOL    HW1 9965   4.432   6.266   3.565
 3022SOL    HW2 9966   4.506   6.150   3.478
 3023SOL     OW 9967   6.066   4.671   5.055
 3023SOL    HW1 9968   6.139   4.675   4.986
 3023SOL    HW2 9969   6.079   4.590   5.112
 3024SOL     OW 9970   0.005   0.947   0.215
 3024SOL    HW1 9971   6.975   0.988   0.293
 3024SOL    HW2 9972   0.104   0.960   0.226
 3025SOL     OW 9973   4.447   5.485   0.122
 3025SOL    HW1 9974   4.451   5.393   0.085
 3025SOL    HW2 9975   4.539   5.525   0.124
 3026SOL     OW 9976   0.490   0.731   1.940
 3026SOL    HW1 9977   0.412   0.791   1.958
 3026SOL    HW2 9978   0.506   0.727   1.841
 3027SOL     OW 9979   3.914   0.461   0.540
 3027SOL    HW1 9980   3.922   0.543   0.484
 3027SOL    HW2 9981   3.915   0.380   0.482
 3028SOL     OW 9982   2.947   3.698   5.050
 3028SOL    HW1 9983   3.044   3.677   5.054
 3028SOL    HW2 9984   2.894   3.616   5.069
 3029SOL     OW 9985   6.513   3.496   4.805
 3029SOL    HW1 9986   6.604   3.454   4.800
 3029SOL    HW2 9987   6.520   3.583   4.853
 3030SOL     OW 9988   2.229   2.494   6.691
 3030SOL    HW1 9989   2.146   2.528   6.647
 3030SOL    HW2 9990   2.310   2.534   6.647
 3031SOL     OW 9991   1.353   5.462   0.887
 3031SOL    HW1 9992   1.449   5.488   0.899
 3031SOL    HW2 9993   1.295   5.535   0.923
 3032SOL     OW 9994   2.310   6.716   3.450
 3032SOL    HW1 9995   2.410   6.716   3.459
 3032SOL    HW2 9996   2.285   6.685   3.358
 3033SOL     OW 9997   1.154   1.563   6.050
 3033SOL    HW1 9998   1.252   1.564   6.030
 3033SOL    HW2 9999   1.107   1.624   5.986
 3034SOL     OW10000   5.675   3.322   2.889
 3034SOL    HW110001   5.750   3.374   2.848
 3034SOL    HW210002   5.667   3.233   2.844
 3035SOL     OW10003   6.921   3.378   0.227
 3035SOL    HW110004   6.892   3.361   0.321
 3035SOL    HW210005   6.875   3.460   0.191
 3036SOL     OW10006   2.892   2.306   5.518
 3036SOL    HW110007   2.889   2.353   5.430
 3036SOL    HW210008   2.936   2.217   5.506
 3037SOL     OW10009   1.218   5.491   6.251
 3037SOL    HW110010   1.251   5.508   6.344
 3037SOL    HW210011   1.118   5.499   6.250
 3038SOL     OW10012   5.651   5.028   6.224
 3038SOL    HW110013   5.594   5.101   6.186
 3038SOL    HW210014   5.606   4.939   6.209
 3039SOL     OW10015   6.418   3.795   5.889
 3039SOL    HW110016   6.425   3.781   5.791
 3039SOL    HW210017   6.331   3.760   5.923
 3040SOL     OW10018   5.281   5.409   6.326
 3040SOL    HW110019   5.280   5.490   6.268
 3040SOL    HW210020   5.305   5.329   6.272
 3041SOL     OW10021   0.982   4.524   5.569
 3041SOL    HW110022   1.043   4.458   5.525
 3041SOL    HW210023   0.951   4.592   5.502
 3042SOL     OW10024   6.904   4.992   3.699
 3042SOL    HW110025   6.964   4.919   3.666
 3042SOL    HW210026   6.838   4.954   3.764
 3043SOL     OW10027   2.718   5.416   1.324
 3043SOL    HW110028   2.800   5.434   1.378
 3043SOL    HW210029   2.651   5.367   1.381
 3044SOL     OW10030   4.042   3.415   4.759
 3044SOL    HW110031   4.045   3.337   4.695
 3044SOL    HW210032   3.968   3.401   4.825
 3045SOL     OW10033   4.884   2.037   2.312
 3045SOL    HW110034   4.797   2.051   2.263
 3045SOL    HW210035   4.881   1.949   2.359
 3046SOL     OW10036   5.762   6.613   1.541
 3046SOL    HW110037   5.742   6.648   1.633
 3046SOL    HW210038   5.677   6.600   1.490
 3047SOL     OW10039   6.065   1.583   4.244
 3047SOL    HW110040   6.154   1.552   4.211
 3047SOL    HW210041   6.013   1.623   4.169
 3048SOL     OW10042   4.403   4.874   1.606
 3048SOL    HW110043   4.464   4.910   1.678
 3048SOL    HW210044   4.452   4.806   1.552
 3049SOL     OW10045   0.683   2.112   2.018
 3049SOL    HW110046   0.767   2.157   2.048
 3049SOL    HW210047   0.619   2.107   2.095
 3050SOL     OW10048   3.281   2.083   6.372
 3050SOL    HW110049   3.363   2.036   6.405
 3050SOL    HW210050   3.301   2.125   6.283
 3051SOL     OW10051   2.662   5.607   5.276
 3051SOL    HW110052   2.659   5.685   5.338
 3051SOL    HW210053   2.577   5.602   5.223
 3052SOL     OW10054   6.891   6.508   3.323
 3052SOL    HW110055   6.804   6.492   3.369
 3052SOL    HW210056   6.894   6.602   3.288
 3053SOL     OW10057   0.622   3.854   6.863
 3053SOL    HW110058   0.675   3.921   6.811
 3053SOL    HW210059   0.593   3.895   6.950
 3054SOL     OW10060   5.708   0.924   3.019
 3054SOL    HW110061   5.702   0.896   3.114
 3054SOL    HW210062   5.626   0.976   2.994
 3055SOL     OW10063   5.856   6.620   0.086
 3055SOL    HW110064   5.935   6.579   0.133
 3055SOL    HW210065   5.876   6.628   7.006
 3056SOL     OW10066   3.973   1.522   6.351
 3056SOL    HW110067   3.894   1.460   6.356
 3056SOL    HW210068   4.047   1.476   6.302
 3057SOL     OW10069   5.081   3.931   3.322
 3057SOL    HW110070   5.112   4.024   3.338
 3057SOL    HW210071   5.136   3.891   3.248
 3058SOL     OW10072   0.574   5.201   6.166
 3058SOL    HW110073   0.530   5.111   6.165
 3058SOL    HW210074   0.582   5.235   6.072
 3059SOL     OW10075   1.202   1.909   2.400
 3059SOL    HW110076   1.178   1.961   2.482
 3059SOL    HW210077   1.232   1.972   2.328
 3060SOL     OW10078   5.517   4.086   3.829
 3060SOL    HW110079   5.612   4.105   3.855
 3060SOL    HW210080   5.514   4.005   3.771
 3061SOL     OW10081   5.771   0.136   3.877
 3061SOL    HW110082   5.700   0.200   3.907
 3061SOL    HW210083   5.734   0.043   3.874
 3062SOL     OW10084   3.909   5.062   1.030
 3062SOL    HW110085   3.922   4.972   1.072
 3062SOL    HW210086   3.997   5.109   1.025
 3063SOL     OW10087   6.482   4.861   2.064
 3063SOL    HW110088   6.561   4.816   2.022
 3063SOL    HW210089   6.483   4.959   2.041
 3064SOL     OW10090   5.113   2.317   6.843
 3064SOL    HW110091   5.092   2.372   6.763
 3064SOL    HW210092   5.030   2.273   6.876
 3065SOL     OW10093   5.544   1.205   6.464
 3065SOL    HW110094   5.603   1.210   6.384
 3065SOL    HW210095   5.525   1.298   6.497
 3066SOL     OW10096   5.323   6.939   5.559
 3066SOL    HW110097   5.308   7.004   5.633
 3066SOL    HW210098   5.337   6.847   5.598
 3067SOL     OW10099   1.378   2.160   5.087
 3067SOL    HW110100   1.374   2.150   5.187
 3067SOL    HW210101   1.444   2.232   5.064
 3068SOL     OW10102   6.565   0.365   0.535
 3068SOL    HW110103   6.659   0.332   0.532
 3068SOL    HW210104   6.517   0.334   0.452
 3069SOL     OW10105   4.548   6.667   4.321
 3069SOL    HW110106   4.584   6.761   4.320
 3069SOL    HW210107   4.465   6.663   4.266
 3070SOL     OW10108   2.234   0.923   0.523
 3070SOL    HW110109   2.220   1.019   0.547
 3070SOL    HW210110   2.316   0.888   0.568
 3071SOL     OW10111   5.674   4.808   5.644
 3071SOL    HW110112   5.727   4.871   5.588
 3071SOL    HW210113   5.684   4.832   5.740
 3072SOL     OW10114   2.129   6.445   6.685
 3072SOL    HW110115   2.089   6.376   6.624
 3072SOL    HW210116   2.198   6.497   6.635
 3073SOL     OW10117   0.551   5.443   1.858
 3073SOL    HW110118   0.483   5.504   1.815
 3073SOL    HW210119   0.527   5.428   1.954
 3074SOL     OW10120   3.395   3.019   1.528
 3074SOL    HW110121   3.477   2.982   1.484
 3074SOL    HW210122   3.390   2.985   1.622
 3075SOL     OW10123   3.980   4.767   1.444
 3075SOL    HW110124   3.982   4.697   1.373
 3075SOL    HW210125   3.886   4.801   1.455
 3076SOL     OW10126   0.985   0.643   4.627
 3076SOL    HW110127   1.042   0.598   4.695
 3076SOL    HW210128   0.962   0.735   4.658
 3077SOL     OW10129   6.980   3.464   1.886
 3077SOL    HW110130   0.058   3.475   1.913
 3077SOL    HW210131   6.921   3.478   1.965
 3078SOL     OW10132   0.333   3.547   1.789
 3078SOL    HW110133   0.431   3.559   1.802
 3078SOL    HW210134   0.292   3.512   1.873
 3079SOL     OW10135   2.091   3.847   4.887
 3079SOL    HW110136   2.099   3.782   4.811
 3079SOL    HW210137   2.167   3.911   4.884
 3080SOL     OW10138   4.197   4.970   1.344
 3080SOL    HW110139   4.213   4.952   1.247
 3080SOL    HW210140   4.193   5.069   1.360
 3081SOL     OW10141   1.810   3.447   6.882
 3081SOL    HW110142   1.748   3.521   6.853
 3081SOL    HW210143   1.902   3.484   6.894
 3082SOL     OW10144   5.326   4.708   5.258
 3082SOL    HW110145   5.392   4.651   5.208
 3082SOL    HW210146   5.240   4.659   5.267
 3083SOL     OW10147   3.474   5.426   1.593
 3083SOL    HW110148   3.478   5.506   1.533
 3083SOL    HW210149   3.378   5.403   1.611
 3084SOL     OW10150   0.049   4.800   3.631
 3084SOL    HW110151   0.087   4.738   3.562
 3084SOL    HW210152   0.119   4.865   3.660
 3085SOL     OW10153   6.130   5.644   0.042
 3085SOL    HW110154   6.183   5.719   0.002
 3085SOL    HW210155   6.038   5.675   0.064
 3086SOL     OW10156   6.272   6.236   6.360
 3086SOL    HW110157   6.300   6.328   6.332
 3086SOL    HW210158   6.216   6.195   6.288
 3087SOL     OW10159   3.887   0.468   2.546
 3087SOL    HW110160   3.904   0.431   2.638
 3087SOL    HW210161   3.909   0.566   2.545
 3088SOL     OW10162   2.038   3.891   5.513
 3088SOL    HW110163   2.093   3.948   5.452
 3088SOL    HW210164   1.956   3.860   5.464
 3089SOL     OW10165   4.581   4.861   5.845
 3089SOL    HW110166   4.639   4.781   5.831
 3089SOL    HW210167   4.550   4.864   5.940
 3090SOL     OW10168   0.722   2.831   2.325
 3090SOL    HW110169   0.758   2.922   2.304
 3090SOL    HW210170   0.652   2.808   2.257
 3091SOL     OW10171   0.960   2.678   1.046
 3091SOL    HW110172   1.024   2.635   0.983
 3091SOL    HW210173   0.867   2.674   1.007
 3092SOL     OW10174   6.070   1.322   2.247
 3092SOL    HW110175   6.126   1.295   2.168
 3092SOL    HW210176   6.104   1.277   2.329
 3093SOL     OW10177   6.737   5.778   6.771
 3093SOL    HW110178   6.769   5.815   6.859
 3093SOL    HW210179   6.698   5.687   6.785
 3094SOL     OW10180   2.499   1.348   6.673
 3094SOL    HW110181   2.537   1.401   6.749
 3094SOL    HW210182   2.511   1.400   6.588
 3095SOL     OW10183   1.401   4.141   5.469
 3095SOL    HW110184   1.409   4.189   5.381
 3095SOL    HW210185   1.394   4.043   5.452
 3096SOL     OW10186   1.367   3.073   4.281
 3096SOL    HW110187   1.365   3.004   4.353
 3096SOL    HW210188   1.377   3.164   4.322
 3097SOL     OW10189   5.369   2.799   4.881
 3097SOL    HW110190   5.271   2.788   4.896
 3097SOL    HW210191   5.407   2.858   4.953
 3098SOL     OW10192   2.027   2.983   3.406
 3098SOL    HW110193   2.096   2.925   3.450
 3098SOL    HW210194   1.945   2.929   3.388
 3099SOL     OW10195   0.578   6.891   4.901
 3099SOL    HW110196   0.607   6.857   4.812
 3099SOL    HW210197   0.478   6.892   4.906
 3100SOL     OW10198   5.585   4.793   1.752
 3100SOL    HW110199   5.683   4.815   1.752
 3100SOL    HW210200   5.543   4.826   1.667
 3101SOL     OW10201   4.750   6.961   5.345
 3101SOL    HW110202   4.843   6.934   5.372
 3101SOL    HW210203   4.730   6.924   5.255
 3102SOL     OW10204   6.188   4.449   2.396
 3102SOL    HW110205   6.252   4.524   2.409
 3102SOL    HW210206   6.237   4.362   2.402
 3103SOL     OW10207   2.514   1.890   1.544
 3103SOL    HW110208   2.501   1.940   1.459
 3103SOL    HW210209   2.529   1.793   1.525
 3104SOL     OW10210   5.641   2.562   5.081
 3104SOL    HW110211   5.648   2.560   5.181
 3104SOL    HW210212   5.622   2.471   5.047
 3105SOL     OW10213   6.012   3.644   0.606
 3105SOL    HW110214   5.997   3.614   0.512
 3105SOL    HW210215   5.945   3.715   0.629
 3106SOL     OW10216   5.120   1.680   5.575
 3106SOL    HW110217   5.219   1.662   5.581
 3106SOL    HW210218   5.072   1.629   5.646
 3107SOL     OW10219   3.014   2.005   5.514
 3107SOL    HW110220   3.065   2.090   5.504
 3107SOL    HW210221   2.982   1.973   5.425
 3108SOL     OW10222   2.294   4.316   3.317
 3108SOL    HW110223   2.278   4.236   3.259
 3108SOL    HW210224   2.207   4.355   3.345
 3109SOL     OW10225   6.788   6.553   3.682
 3109SOL    HW110226   6.710   6.607   3.649
 3109SOL    HW210227   6.873   6.601   3.661
 3110SOL     OW10228   0.914   5.749   3.263
 3110SOL    HW110229   0.889   5.653   3.276
 3110SOL    HW210230   0.936   5.765   3.166
 3111SOL     OW10231   6.210   4.209   3.968
 3111SOL    HW110232   6.201   4.120   3.924
 3111SOL    HW210233   6.121   4.239   4.002
 3112SOL     OW10234   3.658   1.351   6.870
 3112SOL    HW110235   3.577   1.299   6.897
 3112SOL    HW210236   3.670   1.343   6.771
 3113SOL     OW10237   1.453   6.431   2.965
 3113SOL    HW110238   1.380   6.491   2.999
 3113SOL    HW210239   1.487   6.466   2.878
 3114SOL     OW10240   4.848   0.471   5.966
 3114SOL    HW110241   4.802   0.389   5.933
 3114SOL    HW210242   4.821   0.489   6.061
 3115SOL     OW10243   4.908   5.762   5.432
 3115SOL    HW110244   4.865   5.852   5.423
 3115SOL    HW210245   5.007   5.773   5.424
 3116SOL     OW10246   0.812   0.819   6.693
 3116SOL    HW110247   0.776   0.912   6.695
 3116SOL    HW210248   0.811   0.781   6.786
 3117SOL     OW10249   4.513   0.235   0.439
 3117SOL    HW110250   4.581   0.268   0.373
 3117SOL    HW210251   4.504   0.135   0.430
 3118SOL     OW10252   1.445   1.468   3.393
 3118SOL    HW110253   1.382   1.459   3.470
 3118SOL    HW210254   1.513   1.538   3.413
 3119SOL     OW10255   4.713   5.996   4.784
 3119SOL    HW110256   4.687   5.923   4.847
 3119SOL    HW210257   4.734   6.079   4.836
 3120SOL     OW10258   2.181   5.388   6.604
 3120SOL    HW110259   2.181   5.447   6.523
 3120SOL    HW210260   2.208   5.441   6.684
 3121SOL     OW10261   3.977   2.169   4.542
 3121SOL    HW110262   3.934   2.259   4.528
 3121SOL    HW210263   4.010   2.163   4.637
 3122SOL     OW10264   5.485   5.009   5.590
 3122SOL    HW110265   5.537   5.052   5.516
 3122SOL    HW210266   5.521   4.917   5.606
 3123SOL     OW10267   1.783   1.498   2.590
 3123SOL    HW110268   1.869   1.523   2.634
 3123SOL    HW210269   1.773   1.399   2.588
 3124SOL     OW10270   4.828   0.195   4.482
 3124SOL    HW110271   4.841   0.273   4.542
 3124SOL    HW210272   4.898   0.126   4.500
 3125SOL     OW10273   2.186   1.497   5.360
 3125SOL    HW110274   2.239   1.554   5.423
 3125SOL    HW210275   2.090   1.498   5.387
 3126SOL     OW10276   4.964   4.617   5.814
 3126SOL    HW110277   5.006   4.540   5.765
 3126SOL    HW210278   4.981   4.702   5.764
 3127SOL     OW10279   0.374   1.311   5.300
 3127SOL    HW110280   0.466   1.341   5.277
 3127SOL    HW210281   0.311   1.389   5.300
 3128SOL     OW10282   3.446   0.749   0.723
 3128SOL    HW110283   3.480   0.682   0.657
 3128SOL    HW210284   3.427   0.835   0.676
 3129SOL     OW10285   4.077   3.767   0.203
 3129SOL    HW110286   4.139   3.725   0.270
 3129SOL    HW210287   3.990   3.789   0.248
 3130SOL     OW10288   6.634   5.351   2.138
 3130SOL    HW110289   6.540   5.378   2.159
 3130SOL    HW210290   6.697   5.416   2.180
 3131SOL     OW10291   6.291   4.371   2.946
 3131SOL    HW110292   6.334   4.453   2.982
 3131SOL    HW210293   6.306   4.295   3.008
 3132SOL     OW10294   4.646   4.117   0.154
 3132SOL    HW110295   4.695   4.135   0.239
 3132SOL    HW210296   4.622   4.203   0.110
 3133SOL     OW10297   4.570   6.969   4.323
 3133SOL    HW110298   4.600   0.017   4.254
 3133SOL    HW210299   4.651   6.923   4.361
 3134SOL     OW10300   6.516   5.347   2.451
 3134SOL    HW110301   6.487   5.362   2.545
 3134SOL    HW210302   6.588   5.278   2.448
 3135SOL     OW10303   3.819   4.910   6.914
 3135SOL    HW110304   3.827   5.010   6.913
 3135SOL    HW210305   3.911   4.870   6.909
 3136SOL     OW10306   5.980   0.816   3.603
 3136SOL    HW110307   5.973   0.912   3.574
 3136SOL    HW210308   5.929   0.804   3.688
 3137SOL     OW10309   5.229   6.299   0.361
 3137SOL    HW110310   5.316   6.301   0.312
 3137SOL    HW210311   5.155   6.319   0.298
 3138SOL     OW10312   6.625   6.458   4.825
 3138SOL    HW110313   6.669   6.488   4.909
 3138SOL    HW210314   6.528   6.443   4.841
 3139SOL     OW10315   2.489   5.019   1.647
 3139SOL    HW110316   2.556   5.039   1.575
 3139SOL    HW210317   2.474   5.101   1.702
 3140SOL     OW10318   0.356   6.649   6.948
 3140SOL    HW110319   0.419   6.639   6.870
 3140SOL    HW210320   0.388   6.592   0.005
 3141SOL     OW10321   5.703   2.180   6.435
 3141SOL    HW110322   5.706   2.130   6.522
 3141SOL    HW210323   5.674   2.274   6.453
 3142SOL     OW10324   4.457   0.530   3.844
 3142SOL    HW110325   4.514   0.586   3.903
 3142SOL    HW210326   4.510   0.503   3.763
 3143SOL     OW10327   6.209   1.370   0.680
 3143SOL    HW110328   6.269   1.353   0.758
 3143SOL    HW210329   6.234   1.457   0.638
 3144SOL     OW10330   3.876   4.252   0.080
 3144SOL    HW110331   3.878   4.351   0.099
 3144SOL    HW210332   3.833   4.204   0.157
 3145SOL     OW10333   0.491   6.082   0.079
 3145SOL    HW110334   0.582   6.089   0.039
 3145SOL    HW210335   0.497   6.086   0.179
 3146SOL     OW10336   6.464   1.543   4.350
 3146SOL    HW110337   6.404   1.465   4.365
 3146SOL    HW210338   6.545   1.514   4.300
 3147SOL     OW10339   3.889   6.322   0.297
 3147SOL    HW110340   3.942   6.382   0.237
 3147SOL    HW210341   3.943   6.240   0.318
 3148SOL     OW10342   6.964   5.064   1.493
 3148SOL    HW110343   6.985   5.129   1.420
 3148SOL    HW210344   0.015   4.991   1.493
 3149SOL     OW10345   3.411   2.344   0.125
 3149SOL    HW110346   3.478   2.399   0.076
 3149SOL    HW210347   3.451   2.313   0.212
 3150SOL     OW10348   6.847   6.292   5.751
 3150SOL    HW110349   6.896   6.379   5.749
 3150SOL    HW210350   6.753   6.305   5.718
 3151SOL     OW10351   0.006   0.860   5.284
 3151SOL    HW110352   7.018   0.827   5.190
 3151SOL    HW210353   0.100   0.888   5.303
 3152SOL     OW10354   1.495   3.056   5.509
 3152SOL    HW110355   1.412   3.025   5.554
 3152SOL    HW210356   1.557   3.096   5.576
 3153SOL     OW10357   5.955   5.318   1.999
 3153SOL    HW110358   5.949   5.225   2.036
 3153SOL    HW210359   5.982   5.314   1.903
 3154SOL     OW10360   4.228   1.087   0.292
 3154SOL    HW110361   4.284   1.170   0.302
 3154SOL    HW210362   4.132   1.113   0.284
 3155SOL     OW10363   0.741   5.044   0.145
 3155SOL    HW110364   0.819   5.092   0.106
 3155SOL    HW210365   0.681   5.013   0.070
 3156SOL     OW10366   3.725   3.979   1.278
 3156SOL    HW110367   3.735   3.944   1.185
 3156SOL    HW210368   3.813   4.011   1.311
 3157SOL     OW10369   1.007   0.822   5.008
 3157SOL    HW110370   1.099   0.830   4.970
 3157SOL    HW210371   0.945   0.885   4.960
 3158SOL     OW10372   1.722   1.137   5.586
 3158SOL    HW110373   1.719   1.046   5.629
 3158SOL    HW210374   1.641   1.150   5.530
 3159SOL     OW10375   5.222   0.427   0.032
 3159SOL    HW110376   5.305   0.376   0.055
 3159SOL    HW210377   5.195   0.484   0.110
 3160SOL     OW10378   1.982   0.389   5.685
 3160SOL    HW110379   2.021   0.439   5.762
 3160SOL    HW210380   2.016   0.427   5.599
 3161SOL     OW10381   1.839   3.022   2.150
 3161SOL    HW110382   1.838   2.976   2.239
 3161SOL    HW210383   1.916   3.086   2.147
 3162SOL     OW10384   1.281   5.633   1.380
 3162SOL    HW110385   1.297   5.537   1.358
 3162SOL    HW210386   1.353   5.666   1.441
 3163SOL     OW10387   4.426   4.632   0.919
 3163SOL    HW110388   4.431   4.594   1.012
 3163SOL    HW210389   4.515   4.623   0.875
 3164SOL     OW10390   2.627   6.620   3.631
 3164SOL    HW110391   2.722   6.611   3.661
 3164SOL    HW210392   2.624   6.677   3.549
 3165SOL     OW10393   1.218   6.007   6.041
 3165SOL    HW110394   1.127   5.986   6.078
 3165SOL    HW210395   1.222   5.978   5.946
 3166SOL     OW10396   4.946   1.193   5.029
 3166SOL    HW110397   4.893   1.139   4.964
 3166SOL    HW210398   5.036   1.152   5.042
 3167SOL     OW10399   5.634   3.261   1.227
 3167SOL    HW110400   5.554   3.284   1.172
 3167SOL    HW210401   5.605   3.245   1.322
 3168SOL     OW10402   4.531   1.747   0.437
 3168SOL    HW110403   4.449   1.692   0.423
 3168SOL    HW210404   4.563   1.782   0.349
 3169SOL     OW10405   2.036   4.265   1.735
 3169SOL    HW110406   2.020   4.355   1.695
 3169SOL    HW210407   2.033   4.271   1.834
 3170SOL     OW10408   2.035   3.833   3.794
 3170SOL    HW110409   2.114   3.847   3.734
 3170SOL    HW210410   1.957   3.802   3.741
 3171SOL     OW10411   5.198   1.752   3.769
 3171SOL    HW110412   5.202   1.732   3.867
 3171SOL    HW210413   5.125   1.697   3.727
 3172SOL     OW10414   5.671   4.284   1.603
 3172SOL    HW110415   5.627   4.347   1.668
 3172SOL    HW210416   5.611   4.272   1.524
 3173SOL     OW10417   4.928   2.727   0.490
 3173SOL    HW110418   4.979   2.685   0.415
 3173SOL    HW210419   4.991   2.780   0.547
 3174SOL     OW10420   3.160   2.561   6.225
 3174SOL    HW110421   3.172   2.604   6.314
 3174SOL    HW210422   3.242   2.575   6.170
 3175SOL     OW10423   5.446   0.460   5.778
 3175SOL    HW110424   5.438   0.558   5.797
 3175SOL    HW210425   5.456   0.446   5.680
 3176SOL     OW10426   0.326   4.892   3.644
 3176SOL    HW110427   0.376   4.943   3.574
 3176SOL    HW210428   0.377   4.896   3.730
 3177SOL     OW10429   5.410   3.249   3.357
 3177SOL    HW110430   5.363   3.321   3.306
 3177SOL    HW210431   5.458   3.289   3.435
 3178SOL     OW10432   0.327   0.908   2.269
 3178SOL    HW110433   0.253   0.900   2.202
 3178SOL    HW210434   0.304   0.979   2.336
 3179SOL     OW10435   1.116   2.714   2.020
 3179SOL    HW110436   1.194   2.687   1.963
 3179SOL    HW210437   1.044   2.751   1.963
 3180SOL     OW10438   0.363   5.681   0.358
 3180SOL    HW110439   0.358   5.666   0.456
 3180SOL    HW210440   0.437   5.744   0.337
 3181SOL     OW10441   1.509   6.358   5.510
 3181SOL    HW110442   1.579   6.370   5.439
 3181SOL    HW210443   1.442   6.290   5.479
 3182SOL     OW10444   2.360   0.829   0.995
 3182SOL    HW110445   2.453   0.824   1.031
 3182SOL    HW210446   2.297   0.784   1.058
 3183SOL     OW10447   4.047   3.241   1.408
 3183SOL    HW110448   4.016   3.280   1.495
 3183SOL    HW210449   4.009   3.150   1.396
 3184SOL     OW10450   6.893   1.792   4.480
 3184SOL    HW110451   6.879   1.833   4.570
 3184SOL    HW210452   6.900   1.864   4.411
 3185SOL     OW10453   0.617   5.872   6.280
 3185SOL    HW110454   0.646   5.950   6.334
 3185SOL    HW210455   0.525   5.845   6.306
 3186SOL     OW10456   0.371   2.392   6.668
 3186SOL    HW110457   0.325   2.310   6.634
 3186SOL    HW210458   0.436   2.425   6.600
 3187SOL     OW10459   4.921   6.280   3.051
 3187SOL    HW110460   4.876   6.192   3.065
 3187SOL    HW210461   4.854   6.354   3.061
 3188SOL     OW10462   1.850   5.809   6.921
 3188SOL    HW110463   1.770   5.867   6.905
 3188SOL    HW210464   1.932   5.856   6.889
 3189SOL     OW10465   3.203   1.199   5.524
 3189SOL    HW110466   3.205   1.172   5.620
 3189SOL    HW210467   3.291   1.180   5.482
 3190SOL     OW10468   5.765   6.131   4.289
 3190SOL    HW110469   5.744   6.048   4.238
 3190SOL    HW210470   5.801   6.107   4.379
 3191SOL     OW10471   3.410   5.486   0.921
 3191SOL    HW110472   3.448   5.414   0.864
 3191SOL    HW210473   3.359   5.551   0.864
 3192SOL     OW10474   5.496   1.333   2.714
 3192SOL    HW110475   5.466   1.248   2.672
 3192SOL    HW210476   5.558   1.313   2.790
 3193SOL     OW10477   3.533   6.960   4.702
 3193SOL    HW110478   3.545   6.970   4.603
 3193SOL    HW210479   3.583   0.014   4.749
 3194SOL     OW10480   2.012   0.171   6.613
 3194SOL    HW110481   2.025   0.082   6.656
 3194SOL    HW210482   2.089   0.190   6.552
 3195SOL     OW10483   0.949   1.417   1.122
 3195SOL    HW110484   1.039   1.375   1.135
 3195SOL    HW210485   0.917   1.454   1.209
 3196SOL     OW10486   5.620   6.664   3.638
 3196SOL    HW110487   5.618   6.653   3.738
 3196SOL    HW210488   5.698   6.613   3.601
 3197SOL     OW10489   2.577   0.604   6.385
 3197SOL    HW110490   2.640   0.658   6.441
 3197SOL    HW210491   2.630   0.547   6.321
 3198SOL     OW10492   5.462   3.054   3.654
 3198SOL    HW110493   5.534   2.989   3.629
 3198SOL    HW210494   5.395   3.009   3.713
 3199SOL     OW10495   5.138   3.751   2.874
 3199SOL    HW110496   5.063   3.700   2.916
 3199SOL    HW210497   5.123   3.759   2.776
 3200SOL     OW10498   5.319   3.731   3.866
 3200SOL    HW110499   5.279   3.732   3.957
 3200SOL    HW210500   5.272   3.797   3.808
 3201SOL     OW10501   6.006   4.162   2.233
 3201SOL    HW110502   6.101   4.144   2.210
 3201SOL    HW210503   6.001   4.217   2.316
 3202SOL     OW10504   2.434   3.370   6.842
 3202SOL    HW110505   2.437   3.422   6.928
 3202SOL    HW210506   2.526   3.364   6.804
 3203SOL     OW10507   3.451   7.005   1.252
 3203SOL    HW110508   3.532   6.952   1.278
 3203SOL    HW210509   3.475   0.084   1.245
 3204SOL     OW10510   3.494   1.611   3.916
 3204SOL    HW110511   3.475   1.514   3.925
 3204SOL    HW210512   3.417   1.664   3.953
 3205SOL     OW10513   5.103   3.785   6.113
 3205SOL    HW110514   5.141   3.708   6.063
 3205SOL    HW210515   5.046   3.840   6.053
 3206SOL     OW10516   2.743   3.900   1.221
 3206SOL    HW110517   2.663   3.851   1.186
 3206SOL    HW210518   2.811   3.834   1.253
 3207SOL     OW10519   2.292   5.331   5.140
 3207SOL    HW110520   2.382   5.332   5.185
 3207SOL    HW210521   2.259   5.236   5.135
 3208SOL     OW10522   6.927   4.948   6.349
 3208SOL    HW110523   6.907   4.903   6.436
 3208SOL    HW210524   0.003   4.982   6.350
 3209SOL     OW10525   5.294   5.636   6.184
 3209SOL    HW110526   5.361   5.694   6.139
 3209SOL    HW210527   5.246   5.688   6.254
 3210SOL     OW10528   5.698   5.929   1.692
 3210SOL    HW110529   5.697   5.868   1.771
 3210SOL    HW210530   5.607   5.970   1.681
 3211SOL     OW10531   1.958   5.888   6.584
 3211SOL    HW110532   2.018   5.946   6.529
 3211SOL    HW210533   1.865   5.891   6.547
 3212SOL     OW10534   2.238   0.221   3.165
 3212SOL    HW110535   2.152   0.267   3.188
 3212SOL    HW210536   2.223   0.122   3.164
 3213SOL     OW10537   1.154   6.647   5.935
 3213SOL    HW110538   1.065   6.665   5.893
 3213SOL    HW210539   1.224   6.699   5.886
 3214SOL     OW10540   3.379   0.862   2.971
 3214SOL    HW110541   3.432   0.810   2.904
 3214SOL    HW210542   3.281   0.852   2.952
 3215SOL     OW10543   1.798   3.359   1.951
 3215SOL    HW110544   1.851   3.277   1.974
 3215SOL    HW210545   1.853   3.440   1.970
 3216SOL     OW10546   6.009   4.971   1.039
 3216SOL    HW110547   5.924   5.023   1.045
 3216SOL    HW210548   5.991   4.874   1.058
 3217SOL     OW10549   6.819   6.092   2.190
 3217SOL    HW110550   6.905   6.062   2.150
 3217SOL    HW210551   6.765   6.142   2.121
 3218SOL     OW10552   5.409   1.213   3.058
 3218SOL    HW110553   5.384   1.172   3.146
 3218SOL    HW210554   5.353   1.294   3.042
 3219SOL     OW10555   6.167   1.324   5.192
 3219SOL    HW110556   6.108   1.317   5.272
 3219SOL    HW210557   6.208   1.234   5.173
 3220SOL     OW10558   0.157   4.466   5.797
 3220SOL    HW110559   0.205   4.506   5.719
 3220SOL    HW210560   0.203   4.494   5.882
 3221SOL     OW10561   3.162   1.380   1.886
 3221SOL    HW110562   3.168   1.288   1.848
 3221SOL    HW210563   3.235   1.394   1.952
 3222SOL     OW10564   3.170   1.259   3.762
 3222SOL    HW110565   3.077   1.224   3.777
 3222SOL    HW210566   3.215   1.205   3.691
 3223SOL     OW10567   1.612   5.407   0.165
 3223SOL    HW110568   1.624   5.501   0.132
 3223SOL    HW210569   1.534   5.403   0.228
 3224SOL     OW10570   3.720   1.770   3.953
 3224SOL    HW110571   3.640   1.722   3.917
 3224SOL    HW210572   3.791   1.772   3.883
 3225SOL     OW10573   4.172   1.525   4.086
 3225SOL    HW110574   4.158   1.426   4.093
 3225SOL    HW210575   4.244   1.543   4.019
 3226SOL     OW10576   5.929   0.324   0.390
 3226SOL    HW110577   5.882   0.411   0.376
 3226SOL    HW210578   6.025   0.334   0.364
 3227SOL     OW10579   5.528   4.585   5.108
 3227SOL    HW110580   5.531   4.518   5.034
 3227SOL    HW210581   5.619   4.596   5.147
 3228SOL     OW10582   2.387   4.167   0.441
 3228SOL    HW110583   2.460   4.164   0.373
 3228SOL    HW210584   2.427   4.171   0.533
 3229SOL     OW10585   1.809   2.220   0.292
 3229SOL    HW110586   1.720   2.239   0.333
 3229SOL    HW210587   1.817   2.269   0.205
 3230SOL     OW10588   2.943   6.230   5.450
 3230SOL    HW110589   3.021   6.240   5.388
 3230SOL    HW210590   2.971   6.182   5.532
 3231SOL     OW10591   1.795   1.911   2.816
 3231SOL    HW110592   1.851   1.872   2.743
 3231SOL    HW210593   1.820   1.869   2.903
 3232SOL     OW10594   3.403   4.920   4.238
 3232SOL    HW110595   3.314   4.932   4.196
 3232SOL    HW210596   3.397   4.941   4.335
 3233SOL     OW10597   0.619   1.132   0.473
 3233SOL    HW110598   0.620   1.127   0.573
 3233SOL    HW210599   0.586   1.045   0.436
 3234SOL     OW10600   3.080   2.849   1.032
 3234SOL    HW110601   3.102   2.752   1.023
 3234SOL    HW210602   3.118   2.885   1.117
 3235SOL     OW10603   1.153   0.089   3.108
 3235SOL    HW110604   1.123   0.066   3.015
 3235SOL    HW210605   1.252   0.081   3.114
 3236SOL     OW10606   4.291   1.607   0.431
 3236SOL    HW110607   4.318   1.525   0.481
 3236SOL    HW210608   4.226   1.583   0.360
 3237SOL     OW10609   5.888   2.064   5.403
 3237SOL    HW110610   5.987   2.079   5.404
 3237SOL    HW210611   5.869   1.968   5.424
 3238SOL     OW10612   6.610   4.693   1.609
 3238SOL    HW110613   6.653   4.780   1.634
 3238SOL    HW210614   6.671   4.618   1.634
 3239SOL     OW10615   6.724   6.991   4.710
 3239SOL    HW110616   6.651   6.940   4.756
 3239SOL    HW210617   6.743   6.950   4.621
 3240SOL     OW10618   6.960   0.639   0.167
 3240SOL    HW110619   7.000   0.730   0.165
 3240SOL    HW210620   6.882   0.635   0.104
 3241SOL     OW10621   6.404   3.036   5.427
 3241SOL    HW110622   6.406   3.075   5.519
 3241SOL    HW210623   6.475   2.966   5.418
 3242SOL     OW10624   6.147   3.790   4.658
 3242SOL    HW110625   6.158   3.888   4.643
 3242SOL    HW210626   6.050   3.766   4.652
 3243SOL     OW10627   5.831   4.613   4.551
 3243SOL    HW110628   5.880   4.625   4.464
 3243SOL    HW210629   5.881   4.550   4.609
 3244SOL     OW10630   4.942   0.195   0.001
 3244SOL    HW110631   4.946   0.262   6.944
 3244SOL    HW210632   4.899   0.112   6.986
 3245SOL     OW10633   3.889   6.980   5.376
 3245SOL    HW110634   3.972   6.970   5.431
 3245SOL    HW210635   3.890   6.913   5.302
 3246SOL     OW10636   0.249   0.701   2.766
 3246SOL    HW110637   0.257   0.768   2.692
 3246SOL    HW210638   0.281   0.612   2.734
 3247SOL     OW10639   0.509   4.026   3.652
 3247SOL    HW110640   0.599   4.069   3.649
 3247SOL    HW210641   0.474   4.015   3.559
 3248SOL     OW10642   5.248   2.193   3.524
 3248SOL    HW110643   5.189   2.253   3.577
 3248SOL    HW210644   5.265   2.108   3.574
 3249SOL     OW10645   3.384   4.171   3.413
 3249SOL    HW110646   3.390   4.271   3.421
 3249SOL    HW210647   3.433   4.129   3.489
 3250SOL     OW10648   4.850   5.599   2.434
 3250SOL    HW110649   4.882   5.540   2.359
 3250SOL    HW210650   4.842   5.693   2.400
 3251SOL     OW10651   2.386   1.810   2.745
 3251SOL    HW110652   2.370   1.859   2.659
 3251SOL    HW210653   2.463   1.853   2.793
 3252SOL     OW10654   1.916   0.794   2.960
 3252SOL    HW110655   2.008   0.777   2.925
 3252SOL    HW210656   1.853   0.725   2.923
 3253SOL     OW10657   6.604   3.566   0.476
 3253SOL    HW110658   6.517   3.558   0.524
 3253SOL    HW210659   6.591   3.621   0.393
 3254SOL     OW10660   5.881   0.039   1.073
 3254SOL    HW110661   5.816   0.109   1.103
 3254SOL    HW210662   5.854   0.004   0.984
 3255SOL     OW10663   4.912   6.176   1.249
 3255SOL    HW110664   4.867   6.265   1.254
 3255SOL    HW210665   5.009   6.189   1.227
 3256SOL     OW10666   4.790   2.735   1.342
 3256SOL    HW110667   4.706   2.788   1.358
 3256SOL    HW210668   4.768   2.651   1.293
 3257SOL     OW10669   2.876   1.646   2.943
 3257SOL    HW110670   2.789   1.649   2.895
 3257SOL    HW210671   2.950   1.668   2.880
 3258SOL     OW10672   2.297   5.178   4.008
 3258SOL    HW110673   2.239   5.125   3.946
 3258SOL    HW210674   2.322   5.265   3.965
 3259SOL     OW10675   5.050   4.091   4.166
 3259SOL    HW110676   4.962   4.051   4.140
 3259SOL    HW210677   5.115   4.082   4.090
 3260SOL     OW10678   1.333   4.391   2.891
 3260SOL    HW110679   1.411   4.333   2.866
 3260SOL    HW210680   1.258   4.333   2.924
 3261SOL     OW10681   5.150   0.087   3.760
 3261SOL    HW110682   5.084   0.136   3.703
 3261SOL    HW210683   5.243   0.108   3.730
 3262SOL     OW10684   2.607   1.492   3.432
 3262SOL    HW110685   2.677   1.501   3.503
 3262SOL    HW210686   2.518   1.475   3.475
 3263SOL     OW10687   0.197   0.917   2.596
 3263SOL    HW110688   0.224   0.992   2.536
 3263SOL    HW210689   0.167   0.953   2.684
 3264SOL     OW10690   1.504   4.573   6.435
 3264SOL    HW110691   1.481   4.667   6.413
 3264SOL    HW210692   1.425   4.514   6.420
 3265SOL     OW10693   6.660   5.515   6.296
 3265SOL    HW110694   6.604   5.488   6.217
 3265SOL    HW210695   6.654   5.445   6.366
 3266SOL     OW10696   3.102   5.128   6.367
 3266SOL    HW110697   3.065   5.050   6.418
 3266SOL    HW210698   3.110   5.104   6.270
 3267SOL     OW10699   3.485   6.981   0.146
 3267SOL    HW110700   3.423   6.906   0.127
 3267SOL    HW210701   3.444   0.050   0.118
 3268SOL     OW10702   6.152   5.500   2.020
 3268SOL    HW110703   6.059   5.481   1.989
 3268SOL    HW210704   6.155   5.591   2.062
 3269SOL     OW10705   1.646   4.589   1.214
 3269SOL    HW110706   1.640   4.658   1.142
 3269SOL    HW210707   1.704   4.624   1.288
 3270SOL     OW10708   0.982   2.644   5.798
 3270SOL    HW110709   0.956   2.611   5.889
 3270SOL    HW210710   0.946   2.582   5.728
 3271SOL     OW10711   0.938   3.154   1.955
 3271SOL    HW110712   0.977   3.124   2.042
 3271SOL    HW210713   0.973   3.097   1.881
 3272SOL     OW10714   4.146   6.389   0.970
 3272SOL    HW110715   4.244   6.388   0.990
 3272SOL    HW210716   4.132   6.382   0.872
 3273SOL     OW10717   4.162   3.372   6.421
 3273SOL    HW110718   4.258   3.343   6.420
 3273SOL    HW210719   4.143   3.427   6.339
 3274SOL     OW10720   5.514   0.193   1.757
 3274SOL    HW110721   5.491   0.288   1.778
 3274SOL    HW210722   5.495   0.176   1.660
 3275SOL     OW10723   4.632   0.382   1.627
 3275SOL    HW110724   4.630   0.372   1.528
 3275SOL    HW210725   4.659   0.475   1.651
 3276SOL     OW10726   5.076   0.031   0.407
 3276SOL    HW110727   5.004   0.090   0.441
 3276SOL    HW210728   5.108   0.066   0.318
 3277SOL     OW10729   3.343   1.974   2.258
 3277SOL    HW110730   3.415   1.979   2.327
 3277SOL    HW210731   3.259   2.012   2.295
 3278SOL     OW10732   5.934   0.999   6.324
 3278SOL    HW110733   5.883   1.017   6.240
 3278SOL    HW210734   5.880   0.942   6.385
 3279SOL     OW10735   3.210   0.120   2.150
 3279SOL    HW110736   3.231   0.187   2.222
 3279SOL    HW210737   3.196   0.030   2.191
 3280SOL     OW10738   6.178   3.603   4.093
 3280SOL    HW110739   6.146   3.696   4.111
 3280SOL    HW210740   6.227   3.569   4.174
 3281SOL     OW10741   5.745   3.295   1.898
 3281SOL    HW110742   5.656   3.262   1.928
 3281SOL    HW210743   5.813   3.222   1.907
 3282SOL     OW10744   0.204   5.137   4.727
 3282SOL    HW110745   0.265   5.088   4.664
 3282SOL    HW210746   0.252   5.157   4.812
 3283SOL     OW10747   3.551   1.850   0.904
 3283SOL    HW110748   3.475   1.833   0.966
 3283SOL    HW210749   3.570   1.767   0.851
 3284SOL     OW10750   2.412   6.217   4.215
 3284SOL    HW110751   2.462   6.284   4.269
 3284SOL    HW210752   2.408   6.130   4.264
 3285SOL     OW10753   3.602   2.094   4.882
 3285SOL    HW110754   3.519   2.149   4.887
 3285SOL    HW210755   3.601   2.038   4.799
 3286SOL     OW10756   1.805   2.102   2.465
 3286SOL    HW110757   1.786   2.199   2.447
 3286SOL    HW210758   1.719   2.052   2.472
 3287SOL     OW10759   2.383   0.277   0.423
 3287SOL    HW110760   2.382   0.186   0.381
 3287SOL    HW210761   2.467   0.287   0.476
 3288SOL     OW10762   2.653   6.223   2.020
 3288SOL    HW110763   2.710   6.145   1.996
 3288SOL    HW210764   2.640   6.281   1.939
 3289SOL     OW10765   4.404   0.876   6.283
 3289SOL    HW110766   4.443   0.954   6.235
 3289SOL    HW210767   4.430   0.792   6.236
 3290SOL     OW10768   0.798   5.978   0.374
 3290SOL    HW110769   0.836   6.034   0.300
 3290SOL    HW210770   0.871   5.934   0.425
 3291SOL     OW10771   4.893   0.105   4.758
 3291SOL    HW110772   4.859   0.196   4.736
 3291SOL    HW210773   4.950   0.071   4.683
 3292SOL     OW10774   6.997   2.289   0.876
 3292SOL    HW110775   0.077   2.302   0.891
 3292SOL    HW210776   6.959   2.370   0.832
 3293SOL     OW10777   5.709   5.894   4.160
 3293SOL    HW110778   5.695   5.820   4.094
 3293SOL    HW210779   5.746   5.857   4.245
 3294SOL     OW10780   5.015   2.877   5.317
 3294SOL    HW110781   4.988   2.870   5.412
 3294SOL    HW210782   4.985   2.964   5.279
 3295SOL     OW10783   0.796   2.392   2.384
 3295SOL    HW110784   0.825   2.462   2.318
 3295SOL    HW210785   0.697   2.395   2.395
 3296SOL     OW10786   1.736   0.796   5.894
 3296SOL    HW110787   1.788   0.878   5.871
 3296SOL    HW210788   1.742   0.731   5.818
 3297SOL     OW10789   3.584   1.333   4.997
 3297SOL    HW110790   3.491   1.361   4.975
 3297SOL    HW210791   3.629   1.299   4.914
 3298SOL     OW10792   5.380   3.861   6.092
 3298SOL    HW110793   5.392   3.898   6.000
 3298SOL    HW210794   5.283   3.857   6.114
 3299SOL     OW10795   2.629   4.712   3.914
 3299SOL    HW110796   2.635   4.627   3.861
 3299SOL    HW210797   2.721   4.751   3.925
 3300SOL     OW10798   1.942   6.521   3.948
 3300SOL    HW110799   2.028   6.562   3.977
 3300SOL    HW210800   1.948   6.493   3.852
 3301SOL     OW10801   0.984   1.195   3.229
 3301SOL    HW110802   1.039   1.159   3.305
 3301SOL    HW210803   1.030   1.177   3.142
 3302SOL     OW10804   1.459   5.081   5.220
 3302SOL    HW110805   1.366   5.096   5.185
 3302SOL    HW210806   1.453   5.047   5.314
 3303SOL     OW10807   3.244   3.252   0.475
 3303SOL    HW110808   3.173   3.258   0.404
 3303SOL    HW210809   3.231   3.169   0.528
 3304SOL     OW10810   2.757   4.688   0.072
 3304SOL    HW110811   2.709   4.775   0.080
 3304SOL    HW210812   2.806   4.668   0.157
 3305SOL     OW10813   3.205   2.803   0.789
 3305SOL    HW110814   3.167   2.824   0.879
 3305SOL    HW210815   3.286   2.745   0.800
 3306SOL     OW10816   2.435   0.814   0.038
 3306SOL    HW110817   2.400   0.726   0.007
 3306SOL    HW210818   2.375   0.850   0.109
 3307SOL     OW10819   1.267   6.505   5.446
 3307SOL    HW110820   1.209   6.447   5.389
 3307SOL    HW210821   1.361   6.471   5.443
 3308SOL     OW10822   3.988   4.809   1.118
 3308SOL    HW110823   3.976   4.729   1.176
 3308SOL    HW210824   4.025   4.780   1.029
 3309SOL     OW10825   5.872   2.858   3.188
 3309SOL    HW110826   5.857   2.913   3.270
 3309SOL    HW210827   5.784   2.824   3.154
 3310SOL     OW10828   6.519   4.717   6.131
 3310SOL    HW110829   6.553   4.752   6.218
 3310SOL    HW210830   6.572   4.757   6.056
 3311SOL     OW10831   2.858   3.597   0.506
 3311SOL    HW110832   2.804   3.526   0.551
 3311SOL    HW210833   2.953   3.591   0.536
 3312SOL     OW10834   4.322   2.437   5.908
 3312SOL    HW110835   4.285   2.480   5.991
 3312SOL    HW210836   4.414   2.404   5.926
 3313SOL     OW10837   0.438   0.574   3.622
 3313SOL    HW110838   0.396   0.663   3.603
 3313SOL    HW210839   0.416   0.511   3.547
 3314SOL     OW10840   3.019   5.478   2.280
 3314SOL    HW110841   3.035   5.394   2.228
 3314SOL    HW210842   3.106   5.514   2.313
 3315SOL     OW10843   0.407   6.121   4.508
 3315SOL    HW110844   0.444   6.068   4.431
 3315SOL    HW210845   0.325   6.076   4.544
 3316SOL     OW10846   4.726   2.394   6.549
 3316SOL    HW110847   4.803   2.374   6.488
 3316SOL    HW210848   4.759   2.404   6.643
 3317SOL     OW10849   4.982   2.628   1.983
 3317SOL    HW110850   5.036   2.629   2.067
 3317SOL    HW210851   5.037   2.593   1.908
 3318SOL     OW10852   3.248   2.970   0.573
 3318SOL    HW110853   3.230   2.918   0.657
 3318SOL    HW210854   3.279   2.907   0.501
 3319SOL     OW10855   6.277   5.626   3.253
 3319SOL    HW110856   6.332   5.549   3.284
 3319SOL    HW210857   6.295   5.706   3.311
 3320SOL     OW10858   6.503   7.009   1.417
 3320SOL    HW110859   6.491   6.911   1.401
 3320SOL    HW210860   6.413   0.035   1.417
 3321SOL     OW10861   4.936   1.781   0.004
 3321SOL    HW110862   4.998   1.854   6.991
 3321SOL    HW210863   4.891   1.741   6.942
 3322SOL     OW10864   6.561   3.620   0.900
 3322SOL    HW110865   6.642   3.579   0.944
 3322SOL    HW210866   6.482   3.561   0.914
 3323SOL     OW10867   1.616   2.086   1.563
 3323SOL    HW110868   1.626   2.111   1.466
 3323SOL    HW210869   1.592   1.989   1.569
 3324SOL     OW10870   5.403   6.124   5.720
 3324SOL    HW110871   5.324   6.078   5.761
 3324SOL    HW210872   5.478   6.058   5.707
 3325SOL     OW10873   2.363   4.186   5.619
 3325SOL    HW110874   2.441   4.193   5.556
 3325SOL    HW210875   2.283   4.153   5.570
 3326SOL     OW10876   4.464   1.507   2.382
 3326SOL    HW110877   4.423   1.592   2.416
 3326SOL    HW210878   4.400   1.462   2.319
 3327SOL     OW10879   0.447   4.751   6.483
 3327SOL    HW110880   0.513   4.805   6.537
 3327SOL    HW210881   0.477   4.748   6.388
 3328SOL     OW10882   4.610   2.537   5.952
 3328SOL    HW110883   4.608   2.543   6.052
 3328SOL    HW210884   4.606   2.628   5.913
 3329SOL     OW10885   6.549   5.809   5.710
 3329SOL    HW110886   6.617   5.831   5.640
 3329SOL    HW210887   6.594   5.764   5.787
 3330SOL     OW10888   0.106   3.444   2.802
 3330SOL    HW110889   0.052   3.361   2.812
 3330SOL    HW210890   0.053   3.523   2.835
 3331SOL     OW10891   1.687   3.565   0.716
 3331SOL    HW110892   1.667   3.578   0.619
 3331SOL    HW210893   1.712   3.652   0.757
 3332SOL     OW10894   6.328   4.757   1.849
 3332SOL    HW110895   6.347   4.818   1.772
 3332SOL    HW210896   6.364   4.797   1.933
 3333SOL     OW10897   3.823   5.211   6.926
 3333SOL    HW110898   3.887   5.242   6.856
 3333SOL    HW210899   3.730   5.241   6.901
 3334SOL     OW10900   2.256   4.147   1.668
 3334SOL    HW110901   2.320   4.222   1.653
 3334SOL    HW210902   2.166   4.184   1.690
 3335SOL     OW10903   6.053   4.129   4.652
 3335SOL    HW110904   6.114   4.101   4.577
 3335SOL    HW210905   6.107   4.174   4.723
 3336SOL     OW10906   2.581   5.935   5.666
 3336SOL    HW110907   2.558   6.029   5.641
 3336SOL    HW210908   2.615   5.933   5.760
 3337SOL     OW10909   3.914   1.875   0.378
 3337SOL    HW110910   4.000   1.884   0.427
 3337SOL    HW210911   3.910   1.786   0.333
 3338SOL     OW10912   6.730   4.065   0.322
 3338SOL    HW110913   6.668   4.118   0.264
 3338SOL    HW210914   6.748   4.115   0.406
 3339SOL     OW10915   0.429   5.884   5.906
 3339SOL    HW110916   0.517   5.918   5.874
 3339SOL    HW210917   0.358   5.951   5.884
 3340SOL     OW10918   3.854   6.551   1.794
 3340SOL    HW110919   3.914   6.479   1.759
 3340SOL    HW210920   3.903   6.638   1.795
 3341SOL     OW10921   0.971   0.061   2.078
 3341SOL    HW110922   0.944   0.021   1.991
 3341SOL    HW210923   0.904   0.035   2.149
 3342SOL     OW10924   2.570   6.946   4.207
 3342SOL    HW110925   2.635   6.994   4.147
 3342SOL    HW210926   2.608   6.857   4.232
 3343SOL     OW10927   6.344   2.523   1.050
 3343SOL    HW110928   6.429   2.471   1.039
 3343SOL    HW210929   6.327   2.576   0.967
 3344SOL     OW10930   6.874   3.397   5.181
 3344SOL    HW110931   6.936   3.362   5.252
 3344SOL    HW210932   6.827   3.478   5.215
 3345SOL     OW10933   3.137   3.910   6.106
 3345SOL    HW110934   3.159   3.881   6.013
 3345SOL    HW210935   3.101   4.004   6.104
 3346SOL     OW10936   1.610   5.999   2.049
 3346SOL    HW110937   1.666   5.922   2.019
 3346SOL    HW210938   1.639   6.028   2.140
 3347SOL     OW10939   5.547   4.189   4.697
 3347SOL    HW110940   5.474   4.138   4.743
 3347SOL    HW210941   5.634   4.140   4.708
 3348SOL     OW10942   3.809   3.604   3.151
 3348SOL    HW110943   3.795   3.545   3.071
 3348SOL    HW210944   3.897   3.651   3.143
 3349SOL     OW10945   6.195   3.550   5.445
 3349SOL    HW110946   6.269   3.497   5.486
 3349SOL    HW210947   6.234   3.626   5.393
 3350SOL     OW10948   1.590   2.190   0.985
 3350SOL    HW110949   1.499   2.191   1.026
 3350SOL    HW210950   1.654   2.241   1.043
 3351SOL     OW10951   5.602   2.113   1.251
 3351SOL    HW110952   5.628   2.151   1.340
 3351SOL    HW210953   5.681   2.114   1.190
 3352SOL     OW10954   0.556   3.614   0.490
 3352SOL    HW110955   0.636   3.607   0.550
 3352SOL    HW210956   0.512   3.525   0.482
 3353SOL     OW10957   2.024   6.678   6.479
 3353SOL    HW110958   1.999   6.616   6.405
 3353SOL    HW210959   2.023   6.772   6.445
 3354SOL     OW10960   0.819   1.120   2.507
 3354SOL    HW110961   0.722   1.138   2.489
 3354SOL    HW210962   0.875   1.175   2.445
 3355SOL     OW10963   6.699   1.987   2.647
 3355SOL    HW110964   6.731   1.894   2.661
 3355SOL    HW210965   6.608   1.998   2.689
 3356SOL     OW10966   2.519   3.507   6.348
 3356SOL    HW110967   2.474   3.527   6.261
 3356SOL    HW210968   2.468   3.549   6.423
 3357SOL     OW10969   2.153   5.086   2.234
 3357SOL    HW110970   2.218   5.071   2.160
 3357SOL    HW210971   2.077   5.143   2.201
 3358SOL     OW10972   5.441   4.441   2.902
 3358SOL    HW110973   5.442   4.431   2.803
 3358SOL    HW210974   5.506   4.512   2.930
 3359SOL     OW10975   0.929   1.164   1.675
 3359SOL    HW110976   0.868   1.090   1.703
 3359SOL    HW210977   0.917   1.242   1.737
 3360SOL     OW10978   1.679   0.474   6.478
 3360SOL    HW110979   1.617   0.490   6.555
 3360SOL    HW210980   1.646   0.397   6.424
 3361SOL     OW10981   5.082   0.303   2.811
 3361SOL    HW110982   5.051   0.378   2.869
 3361SOL    HW210983   5.027   0.222   2.830
 3362SOL     OW10984   2.182   1.415   5.083
 3362SOL    HW110985   2.235   1.331   5.091
 3362SOL    HW210986   2.182   1.462   5.171
 3363SOL     OW10987   0.271   0.973   6.932
 3363SOL    HW110988   0.175   0.945   6.938
 3363SOL    HW210989   0.316   0.960   0.003
 3364SOL     OW10990   2.479   4.735   5.403
 3364SOL    HW110991   2.444   4.642   5.392
 3364SOL    HW210992   2.508   4.749   5.498
 3365SOL     OW10993   6.099   1.741   6.018
 3365SOL    HW110994   6.084   1.713   6.112
 3365SOL    HW210995   6.017   1.723   5.964
 3366SOL     OW10996   5.573   0.984   5.943
 3366SOL    HW110997   5.564   1.051   5.869
 3366SOL    HW210998   5.547   0.894   5.910
 3367SOL     OW10999   1.196   0.622   2.153
 3367SOL    HW111000   1.130   0.673   2.208
 3367SOL    HW211001   1.246   0.558   2.212
 3368SOL     OW11002   6.651   0.114   5.944
 3368SOL    HW111003   6.577   0.047   5.940
 3368SOL    HW211004   6.612   0.205   5.956
 3369SOL     OW11005   3.702   6.401   5.879
 3369SOL    HW111006   3.765   6.467   5.919
 3369SOL    HW211007   3.627   6.450   5.835
 3370SOL     OW11008   4.891   0.200   5.211
 3370SOL    HW111009   4.804   0.249   5.203
 3370SOL    HW211010   4.891   0.146   5.296
 3371SOL     OW11011   0.197   5.042   1.826
 3371SOL    HW111012   0.162   4.950   1.810
 3371SOL    HW211013   0.198   5.093   1.740
 3372SOL     OW11014   0.245   1.720   2.102
 3372SOL    HW111015   0.343   1.734   2.088
 3372SOL    HW211016   0.209   1.793   2.159
 3373SOL     OW11017   0.432   1.963   5.506
 3373SOL    HW111018   0.468   2.040   5.454
 3373SOL    HW211019   0.506   1.918   5.556
 3374SOL     OW11020   3.609   5.160   5.241
 3374SOL    HW111021   3.584   5.088   5.177
 3374SOL    HW211022   3.709   5.168   5.244
 3375SOL     OW11023   4.310   4.033   5.345
 3375SOL    HW111024   4.395   4.056   5.299
 3375SOL    HW211025   4.249   4.112   5.344
 3376SOL     OW11026   2.941   3.778   2.437
 3376SOL    HW111027   2.918   3.764   2.533
 3376SOL    HW211028   2.925   3.693   2.386
 3377SOL     OW11029   2.696   5.841   5.433
 3377SOL    HW111030   2.614   5.842   5.490
 3377SOL    HW211031   2.774   5.812   5.487
 3378SOL     OW11032   0.888   1.625   0.939
 3378SOL    HW111033   0.932   1.552   0.991
 3378SOL    HW211034   0.867   1.701   1.001
 3379SOL     OW11035   1.081   4.544   6.930
 3379SOL    HW111036   1.096   4.518   0.008
 3379SOL    HW211037   1.023   4.625   6.926
 3380SOL     OW11038   0.852   3.549   5.635
 3380SOL    HW111039   0.923   3.480   5.623
 3380SOL    HW211040   0.880   3.613   5.706
 3381SOL     OW11041   3.443   2.669   0.883
 3381SOL    HW111042   3.542   2.661   0.868
 3381SOL    HW211043   3.425   2.744   0.947
 3382SOL     OW11044   6.579   7.007   0.888
 3382SOL    HW111045   6.545   0.003   0.981
 3382SOL    HW211046   6.561   6.913   0.860
 3383SOL     OW11047   6.687   4.620   3.073
 3383SOL    HW111048   6.780   4.620   3.109
 3383SOL    HW211049   6.679   4.688   3.000
 3384SOL     OW11050   3.195   2.957   4.295
 3384SOL    HW111051   3.293   2.956   4.279
 3384SOL    HW211052   3.149   3.000   4.217
 3385SOL     OW11053   6.074   3.733   3.199
 3385SOL    HW111054   6.017   3.814   3.206
 3385SOL    HW211055   6.109   3.708   3.289
 3386SOL     OW11056   6.239   4.286   4.788
 3386SOL    HW111057   6.305   4.320   4.854
 3386SOL    HW211058   6.249   4.336   4.701
 3387SOL     OW11059   2.903   1.963   2.954
 3387SOL    HW111060   2.972   2.012   2.902
 3387SOL    HW211061   2.853   2.027   3.012
 3388SOL     OW11062   5.239   2.882   2.186
 3388SOL    HW111063   5.332   2.845   2.179
 3388SOL    HW211064   5.212   2.920   2.097
 3389SOL     OW11065   5.800   4.217   3.439
 3389SOL    HW111066   5.840   4.131   3.472
 3389SOL    HW211067   5.843   4.242   3.352
 3390SOL     OW11068   4.935   2.802   5.567
 3390SOL    HW111069   4.879   2.851   5.633
 3390SOL    HW211070   4.991   2.734   5.614
 3391SOL     OW11071   3.337   1.803   4.068
 3391SOL    HW111072   3.404   1.806   4.143
 3391SOL    HW211073   3.264   1.740   4.091
 3392SOL     OW11074   4.654   6.086   3.958
 3392SOL    HW111075   4.725   6.131   3.904
 3392SOL    HW211076   4.573   6.072   3.902
 3393SOL     OW11077   6.277   6.968   6.950
 3393SOL    HW111078   6.209   6.913   6.901
 3393SOL    HW211079   6.258   0.047   6.935
 3394SOL     OW11080   6.003   2.747   1.836
 3394SOL    HW111081   6.010   2.715   1.931
 3394SOL    HW211082   5.915   2.792   1.822
 3395SOL     OW11083   1.281   3.484   4.941
 3395SOL    HW111084   1.379   3.507   4.939
 3395SOL    HW211085   1.238   3.535   5.016
 3396SOL     OW11086   0.688   4.345   3.810
 3396SOL    HW111087   0.736   4.432   3.796
 3396SOL    HW211088   0.594   4.364   3.837
 3397SOL     OW11089   4.175   6.281   5.978
 3397SOL    HW111090   4.265   6.313   6.009
 3397SOL    HW211091   4.165   6.300   5.880
 3398SOL     OW11092   7.001   6.495   4.362
 3398SOL    HW111093   0.044   6.560   4.317
 3398SOL    HW211094   6.924   6.474   4.302
 3399SOL     OW11095   4.494   5.181   4.877
 3399SOL    HW111096   4.470   5.181   4.780
 3399SOL    HW211097   4.510   5.087   4.907
 3400SOL     OW11098   4.952   2.661   6.723
 3400SOL    HW111099   5.025   2.687   6.786
 3400SOL    HW211100   4.992   2.637   6.634
 3401SOL     OW11101   6.136   5.330   0.353
 3401SOL    HW111102   6.193   5.362   0.429
 3401SOL    HW211103   6.081   5.253   0.384
 3402SOL     OW11104   5.087   5.825   2.023
 3402SOL    HW111105   5.067   5.732   1.993
 3402SOL    HW211106   5.015   5.886   1.991
 3403SOL     OW11107   3.098   0.869   5.352
 3403SOL    HW111108   3.074   0.792   5.292
 3403SOL    HW211109   3.095   0.954   5.299
 3404SOL     OW11110   4.338   0.575   0.900
 3404SOL    HW111111   4.311   0.622   0.816
 3404SOL    HW211112   4.321   0.635   0.979
 3405SOL     OW11113   5.963   4.038   0.381
 3405SOL    HW111114   5.898   4.106   0.345
 3405SOL    HW211115   5.924   3.995   0.463
 3406SOL     OW11116   1.124   4.620   1.835
 3406SOL    HW111117   1.091   4.692   1.776
 3406SOL    HW211118   1.204   4.577   1.794
 3407SOL     OW11119   1.787   5.754   2.257
 3407SOL    HW111120   1.731   5.833   2.283
 3407SOL    HW211121   1.877   5.762   2.300
 3408SOL     OW11122   5.116   4.361   3.346
 3408SOL    HW111123   5.186   4.422   3.309
 3408SOL    HW211124   5.050   4.339   3.274
 3409SOL     OW11125   3.145   0.317   5.515
 3409SOL    HW111126   3.075   0.385   5.494
 3409SOL    HW211127   3.113   0.226   5.489
 3410SOL     OW11128   6.724   6.870   6.799
 3410SOL    HW111129   6.697   6.838   6.708
 3410SOL    HW211130   6.823   6.865   6.809
 3411SOL     OW11131   5.098   1.998   2.145
 3411SOL    HW111132   5.013   1.987   2.198
 3411SOL    HW211133   5.133   2.091   2.157
 3412SOL     OW11134   4.237   4.439   0.506
 3412SOL    HW111135   4.139   4.423   0.495
 3412SOL    HW211136   4.272   4.380   0.578
 3413SOL     OW11137   3.811   2.187   2.564
 3413SOL    HW111138   3.818   2.087   2.574
 3413SOL    HW211139   3.754   2.208   2.485
 3414SOL     OW11140   2.684   1.987   5.299
 3414SOL    HW111141   2.639   2.076   5.295
 3414SOL    HW211142   2.776   1.994   5.260
 3415SOL     OW11143   0.243   5.150   3.834
 3415SOL    HW111144   0.169   5.185   3.776
 3415SOL    HW211145   0.329   5.151   3.782
 3416SOL     OW11146   1.702   4.695   5.654
 3416SOL    HW111147   1.789   4.670   5.611
 3416SOL    HW211148   1.626   4.670   5.594
 3417SOL     OW11149   6.039   0.252   2.822
 3417SOL    HW111150   5.963   0.294   2.869
 3417SOL    HW211151   6.125   0.292   2.854
 3418SOL     OW11152   3.254   1.150   5.859
 3418SOL    HW111153   3.255   1.187   5.952
 3418SOL    HW211154   3.159   1.127   5.833
 3419SOL     OW11155   4.310   4.663   0.642
 3419SOL    HW111156   4.365   4.638   0.721
 3419SOL    HW211157   4.282   4.580   0.593
 3420SOL     OW11158   3.782   2.132   4.118
 3420SOL    HW111159   3.739   2.156   4.031
 3420SOL    HW211160   3.860   2.072   4.102
 3421SOL     OW11161   6.997   5.877   5.025
 3421SOL    HW111162   6.967   5.928   5.105
 3421SOL    HW211163   6.984   5.933   4.943
 3422SOL     OW11164   2.911   1.236   1.809
 3422SOL    HW111165   2.829   1.273   1.766
 3422SOL    HW211166   2.952   1.306   1.868
 3423SOL     OW11167   2.358   0.644   0.762
 3423SOL    HW111168   2.410   0.561   0.783
 3423SOL    HW211169   2.352   0.700   0.845
 3424SOL     OW11170   4.536   1.328   2.959
 3424SOL    HW111171   4.507   1.262   2.890
 3424SOL    HW211172   4.588   1.401   2.916
 3425SOL     OW11173   4.455   4.483   1.763
 3425SOL    HW111174   4.546   4.514   1.790
 3425SOL    HW211175   4.448   4.384   1.777
 3426SOL     OW11176   4.667   3.800   0.629
 3426SOL    HW111177   4.644   3.897   0.622
 3426SOL    HW211178   4.727   3.775   0.553
 3427SOL     OW11179   0.266   1.752   6.551
 3427SOL    HW111180   0.242   1.722   6.459
 3427SOL    HW211181   0.203   1.824   6.580
 3428SOL     OW11182   4.574   4.416   2.817
 3428SOL    HW111183   4.516   4.357   2.874
 3428SOL    HW211184   4.636   4.468   2.876
 3429SOL     OW11185   1.442   2.997   6.600
 3429SOL    HW111186   1.416   3.072   6.661
 3429SOL    HW211187   1.480   3.035   6.516
 3430SOL     OW11188   1.563   6.944   0.005
 3430SOL    HW111189   1.581   0.019   0.037
 3430SOL    HW211190   1.629   6.881   0.048
 3431SOL     OW11191   0.624   5.722   0.823
 3431SOL    HW111192   0.668   5.788   0.884
 3431SOL    HW211193   0.662   5.631   0.839
 3432SOL     OW11194   3.406   1.395   6.516
 3432SOL    HW111195   3.361   1.320   6.565
 3432SOL    HW211196   3.372   1.399   6.422
 3433SOL     OW11197   3.795   0.958   5.038
 3433SOL    HW111198   3.736   0.969   4.957
 3433SOL    HW211199   3.752   0.894   5.102
 3434SOL     OW11200   4.391   2.253   2.340
 3434SOL    HW111201   4.363   2.183   2.405
 3434SOL    HW211202   4.336   2.245   2.257
 3435SOL     OW11203   0.227   1.114   0.660
 3435SOL    HW111204   0.228   1.213   0.675
 3435SOL    HW211205   0.309   1.073   0.700
 3436SOL     OW11206   3.964   6.659   4.012
 3436SOL    HW111207   4.018   6.628   4.091
 3436SOL    HW211208   3.868   6.668   4.040
 3437SOL     OW11209   4.090   0.042   6.384
 3437SOL    HW111210   4.098   6.976   6.330
 3437SOL    HW211211   4.005   0.039   6.438
 3438SOL     OW11212   1.459   3.115   6.300
 3438SOL    HW111213   1.378   3.134   6.244
 3438SOL    HW211214   1.488   3.199   6.346
 3439SOL     OW11215   2.593   5.625   3.511
 3439SOL    HW111216   2.630   5.535   3.488
 3439SOL    HW211217   2.668   5.691   3.520
 3440SOL     OW11218   4.877   2.897   0.790
 3440SOL    HW111219   4.902   2.807   0.827
 3440SOL    HW211220   4.860   2.961   0.865
 3441SOL     OW11221   2.765   0.412   3.895
 3441SOL    HW111222   2.744   0.510   3.899
 3441SOL    HW211223   2.860   0.400   3.863
 3442SOL     OW11224   2.004   5.040   3.197
 3442SOL    HW111225   1.929   5.002   3.250
 3442SOL    HW211226   2.027   5.131   3.232
 3443SOL     OW11227   5.326   0.942   3.880
 3443SOL    HW111228   5.293   1.011   3.945
 3443SOL    HW211229   5.307   0.851   3.917
 3444SOL     OW11230   4.449   5.122   0.276
 3444SOL    HW111231   4.472   5.028   0.304
 3444SOL    HW211232   4.397   5.167   0.349
 3445SOL     OW11233   6.270   4.067   4.994
 3445SOL    HW111234   6.349   4.070   5.055
 3445SOL    HW211235   6.277   4.142   4.927
 3446SOL     OW11236   3.505   6.864   3.215
 3446SOL    HW111237   3.595   6.864   3.260
 3446SOL    HW211238   3.507   6.801   3.137
 3447SOL     OW11239   5.585   5.577   6.205
 3447SOL    HW111240   5.506   5.583   6.265
 3447SOL    HW211241   5.653   5.646   6.231
 3448SOL     OW11242   4.030   2.361   0.990
 3448SOL    HW111243   3.947   2.356   1.046
 3448SOL    HW211244   4.005   2.348   0.894
 3449SOL     OW11245   6.624   6.154   3.484
 3449SOL    HW111246   6.572   6.196   3.558
 3449SOL    HW211247   6.718   6.189   3.485
 3450SOL     OW11248   0.824   1.519   1.370
 3450SOL    HW111249   0.890   1.574   1.422
 3450SOL    HW211250   0.819   1.427   1.408
 3451SOL     OW11251   1.239   5.720   4.516
 3451SOL    HW111252   1.221   5.648   4.583
 3451SOL    HW211253   1.156   5.772   4.499
 3452SOL     OW11254   5.887   2.027   0.338
 3452SOL    HW111255   5.805   1.985   0.299
 3452SOL    HW211256   5.861   2.080   0.419
 3453SOL     OW11257   5.262   5.735   5.158
 3453SOL    HW111258   5.220   5.816   5.116
 3453SOL    HW211259   5.326   5.694   5.093
 3454SOL     OW11260   0.555   0.882   0.353
 3454SOL    HW111261   0.507   0.800   0.384
 3454SOL    HW211262   0.641   0.856   0.310
 3455SOL     OW11263   1.838   2.588   4.256
 3455SOL    HW111264   1.884   2.676   4.266
 3455SOL    HW211265   1.898   2.525   4.206
 3456SOL     OW11266   6.047   0.066   1.909
 3456SOL    HW111267   5.951   0.080   1.931
 3456SOL    HW211268   6.083   0.147   1.862
 3457SOL     OW11269   2.407   5.141   2.931
 3457SOL    HW111270   2.459   5.072   2.981
 3457SOL    HW211271   2.426   5.231   2.970
 3458SOL     OW11272   5.766   5.982   0.960
 3458SOL    HW111273   5.853   5.977   1.008
 3458SOL    HW211274   5.716   6.064   0.989
 3459SOL     OW11275   6.650   5.606   4.115
 3459SOL    HW111276   6.657   5.683   4.051
 3459SOL    HW211277   6.554   5.596   4.143
 3460SOL     OW11278   4.461   3.061   6.648
 3460SOL    HW111279   4.520   3.130   6.606
 3460SOL    HW211280   4.369   3.098   6.658
 3461SOL     OW11281   3.781   6.235   2.995
 3461SOL    HW111282   3.748   6.326   2.967
 3461SOL    HW211283   3.751   6.167   2.929
 3462SOL     OW11284   5.350   3.478   3.148
 3462SOL    HW111285   5.315   3.386   3.128
 3462SOL    HW211286   5.442   3.488   3.111
 3463SOL     OW11287   2.178   2.817   1.343
 3463SOL    HW111288   2.114   2.826   1.420
 3463SOL    HW211289   2.262   2.866   1.365
 3464SOL     OW11290   4.720   2.827   6.793
 3464SOL    HW111291   4.729   2.919   6.756
 3464SOL    HW211292   4.793   2.769   6.757
 3465SOL     OW11293   2.112   3.761   2.351
 3465SOL    HW111294   2.097   3.664   2.330
 3465SOL    HW211295   2.126   3.772   2.450
 3466SOL     OW11296   6.106   5.097   3.663
 3466SOL    HW111297   6.017   5.136   3.642
 3466SOL    HW211298   6.141   5.137   3.748
 3467SOL     OW11299   3.321   2.409   0.957
 3467SOL    HW111300   3.370   2.359   1.028
 3467SOL    HW211301   3.384   2.471   0.910
 3468SOL     OW11302   3.834   1.937   1.037
 3468SOL    HW111303   3.925   1.904   1.059
 3468SOL    HW211304   3.768   1.862   1.045
 3469SOL     OW11305   4.634   6.553   5.739
 3469SOL    HW111306   4.614   6.487   5.811
 3469SOL    HW211307   4.552   6.607   5.721
 3470SOL     OW11308   0.457   3.015   1.893
 3470SOL    HW111309   0.483   3.110   1.911
 3470SOL    HW211310   0.427   3.005   1.798
 3471SOL     OW11311   5.074   3.426   3.781
 3471SOL    HW111312   5.035   3.377   3.859
 3471SOL    HW211313   5.018   3.409   3.699
 3472SOL     OW11314   4.289   1.703   3.802
 3472SOL    HW111315   4.278   1.792   3.847
 3472SOL    HW211316   4.355   1.648   3.853
 3473SOL     OW11317   0.280   4.510   2.111
 3473SOL    HW111318   0.198   4.530   2.056
 3473SOL    HW211319   0.271   4.552   2.201
 3474SOL     OW11320   5.873   5.244   4.130
 3474SOL    HW111321   5.775   5.240   4.153
 3474SOL    HW211322   5.908   5.151   4.118
 3475SOL     OW11323   6.926   3.934   4.269
 3475SOL    HW111324   6.837   3.906   4.232
 3475SOL    HW211325   6.944   3.882   4.353
 3476SOL     OW11326   1.039   0.951   3.547
 3476SOL    HW111327   1.019   0.905   3.460
 3476SOL    HW211328   1.017   1.048   3.539
 3477SOL     OW11329   0.710   4.437   1.595
 3477SOL    HW111330   0.783   4.370   1.606
 3477SOL    HW211331   0.678   4.466   1.685
 3478SOL     OW11332   2.122   0.446   0.216
 3478SOL    HW111333   2.193   0.512   0.241
 3478SOL    HW211334   2.164   0.357   0.199
 3479SOL     OW11335   1.338   4.135   3.991
 3479SOL    HW111336   1.275   4.211   4.008
 3479SOL    HW211337   1.409   4.134   4.062
 3480SOL     OW11338   1.379   4.879   6.429
 3480SOL    HW111339   1.364   4.859   6.525
 3480SOL    HW211340   1.298   4.923   6.391
 3481SOL     OW11341   6.570   0.560   5.301
 3481SOL    HW111342   6.508   0.567   5.379
 3481SOL    HW211343   6.586   0.650   5.262
 3482SOL     OW11344   6.126   3.841   5.048
 3482SOL    HW111345   6.128   3.750   5.008
 3482SOL    HW211346   6.166   3.907   4.984
 3483SOL     OW11347   4.709   2.833   4.035
 3483SOL    HW111348   4.677   2.753   3.983
 3483SOL    HW211349   4.673   2.827   4.128
 3484SOL     OW11350   2.037   3.338   4.984
 3484SOL    HW111351   2.065   3.323   4.889
 3484SOL    HW211352   2.097   3.287   5.045
 3485SOL     OW11353   0.483   2.238   6.012
 3485SOL    HW111354   0.540   2.275   6.086
 3485SOL    HW211355   0.387   2.240   6.040
 3486SOL     OW11356   2.219   6.694   4.498
 3486SOL    HW111357   2.172   6.669   4.584
 3486SOL    HW211358   2.174   6.773   4.458
 3487SOL     OW11359   5.163   1.204   6.598
 3487SOL    HW111360   5.115   1.245   6.521
 3487SOL    HW211361   5.115   1.226   6.683
 3488SOL     OW11362   6.081   0.550   4.228
 3488SOL    HW111363   6.098   0.629   4.168
 3488SOL    HW211364   6.059   0.470   4.172
 3489SOL     OW11365   3.228   7.001   0.309
 3489SOL    HW111366   3.180   6.935   0.366
 3489SOL    HW211367   3.327   6.985   0.314
 3490SOL     OW11368   3.734   5.266   0.222
 3490SOL    HW111369   3.653   5.216   0.190
 3490SOL    HW211370   3.817   5.215   0.197
 3491SOL     OW11371   5.035   4.384   6.632
 3491SOL    HW111372   5.104   4.312   6.634
 3491SOL    HW211373   5.005   4.399   6.538
 3492SOL     OW11374   6.118   4.234   2.769
 3492SOL    HW111375   6.178   4.304   2.809
 3492SOL    HW211376   6.154   4.208   2.679
 3493SOL     OW11377   5.478   3.095   4.630
 3493SOL    HW111378   5.553   3.030   4.629
 3493SOL    HW211379   5.402   3.057   4.684
 3494SOL     OW11380   4.376   1.437   1.906
 3494SOL    HW111381   4.431   1.520   1.913
 3494SOL    HW211382   4.279   1.459   1.917
 3495SOL     OW11383   0.886   2.682   2.780
 3495SOL    HW111384   0.911   2.591   2.745
 3495SOL    HW211385   0.822   2.726   2.716
 3496SOL     OW11386   5.990   5.349   1.199
 3496SOL    HW111387   6.063   5.388   1.257
 3496SOL    HW211388   5.908   5.405   1.207
 3497SOL     OW11389   3.509   0.732   2.787
 3497SOL    HW111390   3.536   0.785   2.707
 3497SOL    HW211391   3.436   0.668   2.761
 3498SOL     OW11392   2.327   1.708   1.327
 3498SOL    HW111393   2.419   1.739   1.302
 3498SOL    HW211394   2.260   1.747   1.263
 3499SOL     OW11395   6.408   5.429   5.622
 3499SOL    HW111396   6.463   5.360   5.669
 3499SOL    HW211397   6.467   5.486   5.566
 3500SOL     OW11398   1.344   2.192   4.097
 3500SOL    HW111399   1.322   2.205   4.193
 3500SOL    HW211400   1.284   2.249   4.041
 3501SOL     OW11401   1.469   7.018   5.603
 3501SOL    HW111402   1.476   0.035   5.510
 3501SOL    HW211403   1.399   0.050   5.653
 3502SOL     OW11404   4.908   3.155   2.198
 3502SOL    HW111405   4.874   3.111   2.281
 3502SOL    HW211406   4.843   3.140   2.123
 3503SOL     OW11407   6.487   6.181   6.717
 3503SOL    HW111408   6.440   6.180   6.805
 3503SOL    HW211409   6.564   6.117   6.720
 3504SOL     OW11410   1.586   1.122   1.087
 3504SOL    HW111411   1.669   1.137   1.034
 3504SOL    HW211412   1.564   1.024   1.087
 3505SOL     OW11413   6.054   4.895   6.485
 3505SOL    HW111414   6.001   4.975   6.456
 3505SOL    HW211415   6.038   4.819   6.422
 3506SOL     OW11416   5.008   4.922   4.879
 3506SOL    HW111417   5.028   5.015   4.848
 3506SOL    HW211418   4.954   4.875   4.809
 3507SOL     OW11419   3.045   6.442   0.384
 3507SOL    HW111420   3.021   6.346   0.391
 3507SOL    HW211421   3.124   6.461   0.443
 3508SOL     OW11422   2.936   2.533   5.345
 3508SOL    HW111423   2.957   2.626   5.376
 3508SOL    HW211424   3.018   2.491   5.308
 3509SOL     OW11425   4.388   5.297   6.800
 3509SOL    HW111426   4.325   5.234   6.754
 3509SOL    HW211427   4.401   5.267   6.895
 3510SOL     OW11428   2.600   0.719   1.082
 3510SOL    HW111429   2.693   0.689   1.102
 3510SOL    HW211430   2.535   0.667   1.137
 3511SOL     OW11431   2.374   4.690   1.542
 3511SOL    HW111432   2.314   4.633   1.599
 3511SOL    HW211433   2.339   4.784   1.541
 3512SOL     OW11434   0.724   4.205   6.664
 3512SOL    HW111435   0.635   4.213   6.617
 3512SOL    HW211436   0.710   4.206   6.763
 3513SOL     OW11437   5.618   2.038   0.294
 3513SOL    HW111438   5.592   1.952   0.338
 3513SOL    HW211439   5.596   2.114   0.355
 3514SOL     OW11440   4.193   1.164   2.804
 3514SOL    HW111441   4.222   1.253   2.841
 3514SOL    HW211442   4.099   1.171   2.770
 3515SOL     OW11443   6.240   5.709   4.534
 3515SOL    HW111444   6.209   5.728   4.441
 3515SOL    HW211445   6.180   5.641   4.576
 3516SOL     OW11446   5.131   0.340   1.072
 3516SOL    HW111447   5.159   0.349   1.167
 3516SOL    HW211448   5.211   0.320   1.015
 3517SOL     OW11449   6.197   0.841   0.427
 3517SOL    HW111450   6.197   0.750   0.469
 3517SOL    HW211451   6.284   0.887   0.449
 3518SOL     OW11452   5.470   1.643   5.248
 3518SOL    HW111453   5.459   1.736   5.281
 3518SOL    HW211454   5.386   1.591   5.264
 3519SOL     OW11455   3.392   0.968   0.544
 3519SOL    HW111456   3.316   0.954   0.607
 3519SOL    HW211457   3.373   0.923   0.457
 3520SOL     OW11458   2.908   6.518   4.939
 3520SOL    HW111459   2.968   6.569   5.001
 3520SOL    HW211460   2.963   6.482   4.863
 3521SOL     OW11461   3.189   2.550   0.127
 3521SOL    HW111462   3.125   2.475   0.108
 3521SOL    HW211463   3.276   2.512   0.157
 3522SOL     OW11464   6.957   5.833   6.623
 3522SOL    HW111465   6.939   5.897   6.548
 3522SOL    HW211466   6.871   5.794   6.655
 3523SOL     OW11467   1.043   5.468   5.817
 3523SOL    HW111468   1.077   5.416   5.896
 3523SOL    HW211469   0.947   5.492   5.832
 3524SOL     OW11470   5.400   1.306   3.414
 3524SOL    HW111471   5.453   1.390   3.416
 3524SOL    HW211472   5.382   1.276   3.508
 3525SOL     OW11473   6.184   4.301   3.341
 3525SOL    HW111474   6.124   4.376   3.370
 3525SOL    HW211475   6.210   4.314   3.245
 3526SOL     OW11476   1.071   6.356   2.880
 3526SOL    HW111477   1.035   6.297   2.952
 3526SOL    HW211478   1.019   6.343   2.796
 3527SOL     OW11479   6.735   3.027   5.721
 3527SOL    HW111480   6.733   3.070   5.631
 3527SOL    HW211481   6.646   3.035   5.765
 3528SOL     OW11482   2.621   6.596   4.943
 3528SOL    HW111483   2.604   6.690   4.915
 3528SOL    HW211484   2.713   6.568   4.914
 3529SOL     OW11485   4.857   5.296   0.656
 3529SOL    HW111486   4.943   5.256   0.626
 3529SOL    HW211487   4.876   5.372   0.719
 3530SOL     OW11488   0.055   0.688   1.923
 3530SOL    HW111489   0.124   0.615   1.923
 3530SOL    HW211490   6.981   0.647   1.921
 3531SOL     OW11491   5.144   1.741   1.055
 3531SOL    HW111492   5.054   1.783   1.073
 3531SOL    HW211493   5.169   1.755   0.960
 3532SOL     OW11494   1.815   1.330   2.003
 3532SOL    HW111495   1.799   1.419   2.046
 3532SOL    HW211496   1.830   1.261   2.073
 3533SOL     OW11497   0.131   1.138   3.139
 3533SOL    HW111498   0.067   1.139   3.216
 3533SOL    HW211499   0.220   1.175   3.169
 3534SOL     OW11500   6.712   1.051   1.090
 3534SOL    HW111501   6.712   1.101   1.004
 3534SOL    HW211502   6.794   0.993   1.095
 3535SOL     OW11503   2.611   5.269   5.099
 3535SOL    HW111504   2.669   5.296   5.175
 3535SOL    HW211505   2.613   5.170   5.089
 3536SOL     OW11506   3.367   2.146   2.579
 3536SOL    HW111507   3.438   2.168   2.512
 3536SOL    HW211508   3.389   2.059   2.623
 3537SOL     OW11509   1.746   5.478   2.318
 3537SOL    HW111510   1.770   5.574   2.301
 3537SOL    HW211511   1.672   5.474   2.386
 3538SOL     OW11512   3.174   5.595   4.446
 3538SOL    HW111513   3.221   5.683   4.453
 3538SOL    HW211514   3.225   5.526   4.497
 3539SOL     OW11515   3.826   3.768   4.649
 3539SOL    HW111516   3.773   3.754   4.733
 3539SOL    HW211517   3.778   3.725   4.572
 3540SOL     OW11518   2.152   1.589   3.891
 3540SOL    HW111519   2.062   1.609   3.853
 3540SOL    HW211520   2.157   1.492   3.915
 3541SOL     OW11521   2.925   3.960   5.101
 3541SOL    HW111522   2.942   3.868   5.067
 3541SOL    HW211523   2.845   3.959   5.162
 3542SOL     OW11524   0.706   4.983   1.700
 3542SOL    HW111525   0.791   5.003   1.748
 3542SOL    HW211526   0.678   4.889   1.718
 3543SOL     OW11527   5.656   2.771   4.917
 3543SOL    HW111528   5.663   2.682   4.964
 3543SOL    HW211529   5.570   2.774   4.866
 3544SOL     OW11530   2.320   4.858   5.911
 3544SOL    HW111531   2.391   4.892   5.973
 3544SOL    HW211532   2.237   4.839   5.963
 3545SOL     OW11533   3.964   5.149   6.640
 3545SOL    HW111534   3.894   5.217   6.620
 3545SOL    HW211535   3.937   5.060   6.601
 3546SOL     OW11536   6.394   4.972   3.233
 3546SOL    HW111537   6.299   4.996   3.215
 3546SOL    HW211538   6.406   4.950   3.330
 3547SOL     OW11539   5.087   5.149   4.601
 3547SOL    HW111540   4.987   5.151   4.602
 3547SOL    HW211541   5.119   5.188   4.515
 3548SOL     OW11542   4.881   2.724   5.843
 3548SOL    HW111543   4.872   2.699   5.939
 3548SOL    HW211544   4.827   2.806   5.824
 3549SOL     OW11545   5.640   4.662   2.766
 3549SOL    HW111546   5.663   4.755   2.796
 3549SOL    HW211547   5.697   4.596   2.815
 3550SOL     OW11548   5.827   1.799   2.166
 3550SOL    HW111549   5.819   1.702   2.189
 3550SOL    HW211550   5.737   1.837   2.148
 3551SOL     OW11551   2.878   6.617   3.272
 3551SOL    HW111552   2.915   6.651   3.358
 3551SOL    HW211553   2.919   6.666   3.195
 3552SOL     OW11554   6.223   5.075   2.746
 3552SOL    HW111555   6.257   5.132   2.821
 3552SOL    HW211556   6.204   5.132   2.666
 3553SOL     OW11557   5.351   1.591   2.988
 3553SOL    HW111558   5.425   1.634   3.039
 3553SOL    HW211559   5.358   1.616   2.891
 3554SOL     OW11560   4.069   4.757   6.617
 3554SOL    HW111561   4.020   4.671   6.615
 3554SOL    HW211562   4.059   4.804   6.529
 3555SOL     OW11563   1.142   3.016   3.303
 3555SOL    HW111564   1.063   3.022   3.243
 3555SOL    HW211565   1.225   3.035   3.251
 3556SOL     OW11566   3.479   0.814   6.128
 3556SOL    HW111567   3.568   0.779   6.156
 3556SOL    HW211568   3.471   0.810   6.028
 3557SOL     OW11569   1.568   0.207   5.068
 3557SOL    HW111570   1.654   0.173   5.106
 3557SOL    HW211571   1.537   0.146   4.995
 3558SOL     OW11572   6.882   5.822   1.496
 3558SOL    HW111573   6.897   5.728   1.527
 3558SOL    HW211574   6.966   5.857   1.455
 3559SOL     OW11575   0.632   0.409   5.366
 3559SOL    HW111576   0.587   0.436   5.281
 3559SOL    HW211577   0.612   0.477   5.437
 3560SOL     OW11578   0.131   6.602   1.119
 3560SOL    HW111579   0.167   6.581   1.027
 3560SOL    HW211580   0.124   6.517   1.172
 3561SOL     OW11581   5.170   5.043   5.330
 3561SOL    HW111582   5.081   5.000   5.315
 3561SOL    HW211583   5.228   5.029   5.250
 3562SOL     OW11584   5.152   0.637   3.101
 3562SOL    HW111585   5.191   0.728   3.107
 3562SOL    HW211586   5.070   0.632   3.159
 3563SOL     OW11587   4.839   1.076   1.909
 3563SOL    HW111588   4.758   1.031   1.871
 3563SOL    HW211589   4.858   1.160   1.858
 3564SOL     OW11590   6.671   4.891   3.287
 3564SOL    HW111591   6.582   4.902   3.241
 3564SOL    HW211592   6.725   4.974   3.273
 3565SOL     OW11593   2.147   0.609   5.227
 3565SOL    HW111594   2.238   0.593   5.187
 3565SOL    HW211595   2.145   0.699   5.271
 3566SOL     OW11596   0.581   3.523   5.640
 3566SOL    HW111597   0.573   3.527   5.540
 3566SOL    HW211598   0.678   3.515   5.665
 3567SOL     OW11599   0.292   3.286   1.094
 3567SOL    HW111600   0.213   3.238   1.132
 3567SOL    HW211601   0.269   3.320   1.003
 3568SOL     OW11602   4.655   4.305   3.462
 3568SOL    HW111603   4.622   4.263   3.547
 3568SOL    HW211604   4.720   4.377   3.483
 3569SOL     OW11605   3.895   3.418   3.719
 3569SOL    HW111606   3.913   3.321   3.708
 3569SOL    HW211607   3.952   3.455   3.792
 3570SOL     OW11608   0.215   2.260   5.673
 3570SOL    HW111609   0.175   2.265   5.581
 3570SOL    HW211610   0.289   2.326   5.680
 3571SOL     OW11611   2.297   6.661   4.904
 3571SOL    HW111612   2.214   6.644   4.852
 3571SOL    HW211613   2.357   6.722   4.852
 3572SOL     OW11614   4.849   4.851   1.845
 3572SOL    HW111615   4.875   4.868   1.750
 3572SOL    HW211616   4.867   4.756   1.868
 3573SOL     OW11617   6.885   3.963   3.288
 3573SOL    HW111618   6.935   4.050   3.295
 3573SOL    HW211619   6.833   3.949   3.373
 3574SOL     OW11620   2.279   2.882   6.034
 3574SOL    HW111621   2.341   2.911   6.107
 3574SOL    HW211622   2.209   2.952   6.020
 3575SOL     OW11623   5.461   0.178   0.498
 3575SOL    HW111624   5.553   0.199   0.462
 3575SOL    HW211625   5.463   0.091   0.547
 3576SOL     OW11626   1.594   2.873   1.049
 3576SOL    HW111627   1.540   2.912   0.974
 3576SOL    HW211628   1.544   2.797   1.090
 3577SOL     OW11629   2.858   3.283   5.833
 3577SOL    HW111630   2.780   3.243   5.784
 3577SOL    HW211631   2.898   3.356   5.777
 3578SOL     OW11632   2.986   2.976   6.245
 3578SOL    HW111633   2.975   2.944   6.340
 3578SOL    HW211634   2.918   3.047   6.226
 3579SOL     OW11635   0.542   2.856   2.092
 3579SOL    HW111636   0.542   2.890   1.998
 3579SOL    HW211637   0.480   2.778   2.099
 3580SOL     OW11638   0.559   4.399   2.074
 3580SOL    HW111639   0.571   4.300   2.064
 3580SOL    HW211640   0.463   4.419   2.093
 3581SOL     OW11641   1.628   0.189   2.761
 3581SOL    HW111642   1.555   0.257   2.766
 3581SOL    HW211643   1.600   0.106   2.810
 3582SOL     OW11644   3.587   4.707   6.117
 3582SOL    HW111645   3.669   4.661   6.152
 3582SOL    HW211646   3.523   4.639   6.081
 3583SOL     OW11647   0.373   5.193   0.410
 3583SOL    HW111648   0.440   5.119   0.414
 3583SOL    HW211649   0.330   5.204   0.499
 3584SOL     OW11650   6.266   4.738   4.777
 3584SOL    HW111651   6.228   4.816   4.726
 3584SOL    HW211652   6.256   4.754   4.875
 3585SOL     OW11653   2.710   1.405   2.802
 3585SOL    HW111654   2.709   1.386   2.900
 3585SOL    HW211655   2.790   1.362   2.761
 3586SOL     OW11656   6.370   2.009   4.833
 3586SOL    HW111657   6.304   2.037   4.903
 3586SOL    HW211658   6.326   2.007   4.744
 3587SOL     OW11659   2.993   6.622   6.395
 3587SOL    HW111660   2.950   6.696   6.342
 3587SOL    HW211661   3.090   6.644   6.410
 3588SOL     OW11662   6.310   4.534   4.611
 3588SOL    HW111663   6.272   4.611   4.663
 3588SOL    HW211664   6.376   4.569   4.545
 3589SOL     OW11665   0.127   0.016   5.985
 3589SOL    HW111666   0.152   6.972   5.910
 3589SOL    HW211667   0.030   0.008   6.004
 3590SOL     OW11668   6.587   4.889   0.550
 3590SOL    HW111669   6.506   4.949   0.550
 3590SOL    HW211670   6.665   4.939   0.587
 3591SOL     OW11671   5.663   1.712   6.464
 3591SOL    HW111672   5.723   1.748   6.393
 3591SOL    HW211673   5.706   1.724   6.554
 3592SOL     OW11674   2.087   5.964   1.752
 3592SOL    HW111675   2.137   5.923   1.676
 3592SOL    HW211676   2.152   6.008   1.815
 3593SOL     OW11677   4.436   3.333   5.755
 3593SOL    HW111678   4.416   3.365   5.663
 3593SOL    HW211679   4.391   3.245   5.770
 3594SOL     OW11680   4.388   4.728   5.142
 3594SOL    HW111681   4.364   4.663   5.070
 3594SOL    HW211682   4.429   4.810   5.102
 3595SOL     OW11683   5.253   6.675   5.068
 3595SOL    HW111684   5.233   6.754   5.009
 3595SOL    HW211685   5.211   6.689   5.158
 3596SOL     OW11686   3.872   2.203   3.751
 3596SOL    HW111687   3.933   2.219   3.828
 3596SOL    HW211688   3.793   2.149   3.782
 3597SOL     OW11689   2.357   3.139   5.371
 3597SOL    HW111690   2.405   3.085   5.302
 3597SOL    HW211691   2.349   3.086   5.455
 3598SOL     OW11692   1.061   5.670   5.083
 3598SOL    HW111693   1.089   5.763   5.108
 3598SOL    HW211694   1.141   5.611   5.078
 3599SOL     OW11695   3.770   1.458   4.719
 3599SOL    HW111696   3.712   1.497   4.790
 3599SOL    HW211697   3.859   1.434   4.758
 3600SOL     OW11698   3.030   2.973   0.232
 3600SOL    HW111699   2.988   2.898   0.181
 3600SOL    HW211700   3.126   2.982   0.204
 3601SOL     OW11701   4.809   0.776   5.236
 3601SOL    HW111702   4.843   0.815   5.321
 3601SOL    HW211703   4.726   0.825   5.208
 3602SOL     OW11704   1.973   1.680   1.689
 3602SOL    HW111705   1.948   1.736   1.610
 3602SOL    HW211706   2.007   1.591   1.657
 3603SOL     OW11707   2.980   0.539   5.493
 3603SOL    HW111708   2.893   0.550   5.444
 3603SOL    HW211709   2.994   0.618   5.553
 3604SOL     OW11710   0.004   0.231   3.136
 3604SOL    HW111711   0.084   0.260   3.083
 3604SOL    HW211712   6.942   0.226   3.076
 3605SOL     OW11713   1.456   5.984   3.650
 3605SOL    HW111714   1.465   5.891   3.612
 3605SOL    HW211715   1.361   5.998   3.680
 3606SOL     OW11716   2.963   6.511   2.567
 3606SOL    HW111717   2.873   6.545   2.593
 3606SOL    HW211718   2.958   6.464   2.479
 3607SOL     OW11719   5.608   2.018   2.601
 3607SOL    HW111720   5.626   2.024   2.699
 3607SOL    HW211721   5.676   2.072   2.551
 3608SOL     OW11722   2.889   1.482   6.035
 3608SOL    HW111723   2.844   1.398   6.007
 3608SOL    HW211724   2.862   1.505   6.128
 3609SOL     OW11725   2.463   0.609   4.814
 3609SOL    HW111726   2.499   0.609   4.721
 3609SOL    HW211727   2.532   0.574   4.877
 3610SOL     OW11728   1.906   0.014   5.058
 3610SOL    HW111729   1.958   0.083   5.007
 3610SOL    HW211730   1.848   0.059   5.126
 3611SOL     OW11731   5.513   4.980   3.079
 3611SOL    HW111732   5.465   4.904   3.123
 3611SOL    HW211733   5.455   5.061   3.079
 3612SOL     OW11734   6.058   1.316   6.972
 3612SOL    HW111735   6.150   1.331   7.009
 3612SOL    HW211736   6.041   1.382   6.898
 3613SOL     OW11737   4.779   5.602   1.749
 3613SOL    HW111738   4.879   5.599   1.748
 3613SOL    HW211739   4.744   5.578   1.659
 3614SOL     OW11740   3.572   4.913   6.766
 3614SOL    HW111741   3.659   4.877   6.800
 3614SOL    HW211742   3.578   4.925   6.666
 3615SOL     OW11743   5.707   2.663   5.870
 3615SOL    HW111744   5.767   2.697   5.799
 3615SOL    HW211745   5.734   2.570   5.896
 3616SOL     OW11746   1.094   1.457   6.903
 3616SOL    HW111747   1.173   1.411   6.862
 3616SOL    HW211748   1.025   1.475   6.832
 3617SOL     OW11749   3.974   6.191   5.538
 3617SOL    HW111750   3.883   6.152   5.531
 3617SOL    HW211751   4.039   6.132   5.490
 3618SOL     OW11752   1.503   4.818   4.415
 3618SOL    HW111753   1.521   4.720   4.408
 3618SOL    HW211754   1.576   4.862   4.467
 3619SOL     OW11755   5.583   3.854   1.535
 3619SOL    HW111756   5.550   3.775   1.483
 3619SOL    HW211757   5.657   3.899   1.484
 3620SOL     OW11758   6.167   5.958   5.077
 3620SOL    HW111759   6.239   5.938   5.010
 3620SOL    HW211760   6.083   5.984   5.028
 3621SOL     OW11761   3.001   3.534   3.614
 3621SOL    HW111762   2.948   3.539   3.530
 3621SOL    HW211763   3.092   3.496   3.594
 3622SOL     OW11764   1.404   5.842   6.563
 3622SOL    HW111765   1.444   5.920   6.514
 3622SOL    HW211766   1.414   5.856   6.662
 3623SOL     OW11767   0.847   5.272   6.130
 3623SOL    HW111768   0.924   5.292   6.190
 3623SOL    HW211769   0.767   5.248   6.185
 3624SOL     OW11770   2.693   2.223   1.330
 3624SOL    HW111771   2.700   2.291   1.257
 3624SOL    HW211772   2.785   2.203   1.365
 3625SOL     OW11773   6.743   2.094   0.415
 3625SOL    HW111774   6.832   2.124   0.381
 3625SOL    HW211775   6.674   2.163   0.395
 3626SOL     OW11776   1.339   2.564   4.981
 3626SOL    HW111777   1.408   2.560   4.909
 3626SOL    HW211778   1.331   2.658   5.015
 3627SOL     OW11779   3.450   2.029   2.009
 3627SOL    HW111780   3.517   2.103   2.008
 3627SOL    HW211781   3.411   2.021   2.101
 3628SOL     OW11782   6.406   2.092   1.126
 3628SOL    HW111783   6.306   2.093   1.119
 3628SOL    HW211784   6.432   2.074   1.221
 3629SOL     OW11785   0.854   0.888   3.773
 3629SOL    HW111786   0.930   0.862   3.714
 3629SOL    HW211787   0.779   0.822   3.761
 3630SOL     OW11788   6.964   1.875   2.087
 3630SOL    HW111789   6.872   1.836   2.091
 3630SOL    HW211790   6.987   1.916   2.175
 3631SOL     OW11791   1.655   6.914   2.175
 3631SOL    HW111792   1.591   6.982   2.211
 3631SOL    HW211793   1.742   6.959   2.155
 3632SOL     OW11794   4.376   3.719   1.521
 3632SOL    HW111795   4.329   3.686   1.603
 3632SOL    HW211796   4.475   3.714   1.536
 3633SOL     OW11797   4.103   3.937   6.680
 3633SOL    HW111798   4.051   3.871   6.626
 3633SOL    HW211799   4.097   4.027   6.636
 3634SOL     OW11800   3.379   5.580   6.746
 3634SOL    HW111801   3.376   5.680   6.746
 3634SOL    HW211802   3.465   5.550   6.704
 3635SOL     OW11803   1.535   6.703   1.966
 3635SOL    HW111804   1.607   6.770   1.982
 3635SOL    HW211805   1.542   6.630   2.034
 3636SOL     OW11806   0.826   4.721   6.619
 3636SOL    HW111807   0.766   4.646   6.590
 3636SOL    HW211808   0.871   4.759   6.538
 3637SOL     OW11809   6.216   3.529   6.973
 3637SOL    HW111810   6.236   3.623   6.999
 3637SOL    HW211811   6.117   3.512   6.982
 3638SOL     OW11812   6.375   3.943   3.257
 3638SOL    HW111813   6.462   3.903   3.285
 3638SOL    HW211814   6.352   3.913   3.164
 3639SOL     OW11815   3.524   2.877   3.971
 3639SOL    HW111816   3.431   2.911   3.984
 3639SOL    HW211817   3.544   2.872   3.873
 3640SOL     OW11818   4.465   2.155   1.200
 3640SOL    HW111819   4.406   2.224   1.242
 3640SOL    HW211820   4.547   2.143   1.255
 3641SOL     OW11821   5.881   4.123   2.874
 3641SOL    HW111822   5.830   4.165   2.949
 3641SOL    HW211823   5.978   4.140   2.887
 3642SOL     OW11824   5.813   3.397   6.494
 3642SOL    HW111825   5.732   3.437   6.452
 3642SOL    HW211826   5.846   3.321   6.438
 3643SOL     OW11827   4.007   5.866   5.354
 3643SOL    HW111828   3.942   5.795   5.327
 3643SOL    HW211829   4.086   5.824   5.397
 3644SOL     OW11830   2.665   0.370   1.445
 3644SOL    HW111831   2.654   0.271   1.449
 3644SOL    HW211832   2.702   0.404   1.532
 3645SOL     OW11833   1.207   4.361   3.328
 3645SOL    HW111834   1.148   4.335   3.404
 3645SOL    HW211835   1.175   4.317   3.244
 3646SOL     OW11836   1.432   4.599   5.506
 3646SOL    HW111837   1.414   4.589   5.408
 3646SOL    HW211838   1.449   4.508   5.545
 3647SOL     OW11839   3.159   0.077   6.425
 3647SOL    HW111840   3.240   0.023   6.402
 3647SOL    HW211841   3.121   0.116   6.341
 3648SOL     OW11842   4.336   5.329   3.238
 3648SOL    HW111843   4.314   5.264   3.165
 3648SOL    HW211844   4.431   5.317   3.266
 3649SOL     OW11845   6.133   2.659   0.061
 3649SOL    HW111846   6.127   2.722   0.139
 3649SOL    HW211847   6.195   2.696   7.011
 3650SOL     OW11848   5.419   6.020   6.977
 3650SOL    HW111849   5.380   5.963   0.031
 3650SOL    HW211850   5.488   6.081   7.016
 3651SOL     OW11851   0.658   1.870   5.663
 3651SOL    HW111852   0.683   1.793   5.722
 3651SOL    HW211853   0.632   1.948   5.720
 3652SOL     OW11854   4.271   1.450   1.515
 3652SOL    HW111855   4.323   1.536   1.520
 3652SOL    HW211856   4.318   1.380   1.568
 3653SOL     OW11857   1.181   1.509   0.896
 3653SOL    HW111858   1.151   1.532   0.803
 3653SOL    HW211859   1.173   1.411   0.911
 3654SOL     OW11860   5.119   6.378   1.576
 3654SOL    HW111861   5.090   6.353   1.668
 3654SOL    HW211862   5.100   6.475   1.560
 3655SOL     OW11863   1.598   1.441   3.903
 3655SOL    HW111864   1.636   1.467   3.814
 3655SOL    HW211865   1.659   1.473   3.976
 3656SOL     OW11866   6.949   0.292   1.213
 3656SOL    HW111867   0.028   0.301   1.190
 3656SOL    HW211868   6.896   0.360   1.164
 3657SOL     OW11869   6.069   5.163   5.799
 3657SOL    HW111870   6.105   5.255   5.815
 3657SOL    HW211871   6.052   5.151   5.701
 3658SOL     OW11872   2.133   5.056   5.446
 3658SOL    HW111873   2.145   5.120   5.522
 3658SOL    HW211874   2.218   5.047   5.395
 3659SOL     OW11875   0.253   2.387   6.090
 3659SOL    HW111876   0.221   2.410   6.182
 3659SOL    HW211877   0.179   2.344   6.038
 3660SOL     OW11878   5.674   5.633   6.731
 3660SOL    HW111879   5.754   5.596   6.684
 3660SOL    HW211880   5.614   5.558   6.758
 3661SOL     OW11881   6.960   1.728   4.735
 3661SOL    HW111882   0.014   1.686   4.680
 3661SOL    HW211883   6.940   1.671   4.814
 3662SOL     OW11884   2.676   1.714   5.370
 3662SOL    HW111885   2.701   1.810   5.376
 3662SOL    HW211886   2.616   1.700   5.291
 3663SOL     OW11887   2.693   2.135   6.574
 3663SOL    HW111888   2.724   2.227   6.550
 3663SOL    HW211889   2.734   2.068   6.512
 3664SOL     OW11890   3.750   1.535   1.769
 3664SOL    HW111891   3.676   1.475   1.800
 3664SOL    HW211892   3.711   1.616   1.725
 3665SOL     OW11893   0.954   5.828   5.850
 3665SOL    HW111894   1.052   5.840   5.832
 3665SOL    HW211895   0.934   5.732   5.866
 3666SOL     OW11896   2.222   2.572   4.549
 3666SOL    HW111897   2.249   2.606   4.640
 3666SOL    HW211898   2.291   2.599   4.482
 3667SOL     OW11899   2.004   0.327   1.096
 3667SOL    HW111900   1.956   0.301   1.179
 3667SOL    HW211901   1.944   0.382   1.038
 3668SOL     OW11902   6.724   0.801   0.854
 3668SOL    HW111903   6.711   0.881   0.796
 3668SOL    HW211904   6.819   0.769   0.846
 3669SOL     OW11905   0.937   1.193   3.513
 3669SOL    HW111906   0.958   1.246   3.596
 3669SOL    HW211907   0.841   1.206   3.489
 3670SOL     OW11908   2.733   6.969   2.055
 3670SOL    HW111909   2.728   6.924   1.966
 3670SOL    HW211910   2.790   0.033   2.047
 3671SOL     OW11911   6.547   0.704   4.026
 3671SOL    HW111912   6.502   0.639   4.088
 3671SOL    HW211913   6.619   0.657   3.975
 3672SOL     OW11914   3.550   6.921   3.614
 3672SOL    HW111915   3.526   7.011   3.577
 3672SOL    HW211916   3.611   6.933   3.693
 3673SOL     OW11917   3.382   6.511   0.796
 3673SOL    HW111918   3.417   6.419   0.816
 3673SOL    HW211919   3.377   6.564   0.880
 3674SOL     OW11920   1.060   4.335   6.754
 3674SOL    HW111921   1.036   4.243   6.784
 3674SOL    HW211922   1.043   4.400   6.829
 3675SOL     OW11923   1.128   0.322   3.721
 3675SOL    HW111924   1.042   0.296   3.763
 3675SOL    HW211925   1.122   0.308   3.622
 3676SOL     OW11926   3.655   1.647   4.548
 3676SOL    HW111927   3.665   1.553   4.582
 3676SOL    HW211928   3.570   1.686   4.582
 3677SOL     OW11929   1.644   0.855   4.671
 3677SOL    HW111930   1.648   0.954   4.683
 3677SOL    HW211931   1.559   0.832   4.623
 3678SOL     OW11932   1.103   0.716   4.109
 3678SOL    HW111933   1.106   0.809   4.144
 3678SOL    HW211934   1.008   0.683   4.106
 3679SOL     OW11935   4.325   0.513   2.504
 3679SOL    HW111936   4.355   0.417   2.503
 3679SOL    HW211937   4.377   0.563   2.574
 3680SOL     OW11938   3.111   1.513   4.768
 3680SOL    HW111939   3.129   1.511   4.867
 3680SOL    HW211940   3.014   1.530   4.752
 3681SOL     OW11941   1.265   6.330   4.004
 3681SOL    HW111942   1.343   6.353   3.946
 3681SOL    HW211943   1.272   6.234   4.032
 3682SOL     OW11944   5.504   2.572   1.323
 3682SOL    HW111945   5.567   2.540   1.253
 3682SOL    HW211946   5.410   2.550   1.297
 3683SOL     OW11947   6.048   1.565   6.803
 3683SOL    HW111948   6.075   1.661   6.802
 3683SOL    HW211949   6.035   1.532   6.710
 3684SOL     OW11950   2.175   6.230   5.196
 3684SOL    HW111951   2.203   6.324   5.218
 3684SOL    HW211952   2.100   6.232   5.130
 3685SOL     OW11953   2.219   5.880   4.579
 3685SOL    HW111954   2.296   5.942   4.588
 3685SOL    HW211955   2.135   5.926   4.610
 3686SOL     OW11956   0.228   3.732   1.454
 3686SOL    HW111957   0.261   3.693   1.540
 3686SOL    HW211958   0.299   3.789   1.414
 3687SOL     OW11959   5.697   4.838   4.836
 3687SOL    HW111960   5.734   4.902   4.903
 3687SOL    HW211961   5.597   4.840   4.839
 3688SOL     OW11962   6.462   2.603   0.672
 3688SOL    HW111963   6.480   2.509   0.702
 3688SOL    HW211964   6.526   2.665   0.718
 3689SOL     OW11965   1.324   6.788   5.802
 3689SOL    HW111966   1.291   6.831   5.718
 3689SOL    HW211967   1.422   6.807   5.812
 3690SOL     OW11968   5.287   5.422   1.936
 3690SOL    HW111969   5.301   5.412   2.034
 3690SOL    HW211970   5.376   5.426   1.890
 3691SOL     OW11971   2.098   3.076   0.370
 3691SOL    HW111972   2.105   2.998   0.432
 3691SOL    HW211973   2.122   3.160   0.420
 3692SOL     OW11974   0.884   3.174   5.522
 3692SOL    HW111975   0.952   3.209   5.587
 3692SOL    HW211976   0.919   3.091   5.479
 3693SOL     OW11977   6.647   1.442   2.345
 3693SOL    HW111978   6.723   1.423   2.407
 3693SOL    HW211979   6.683   1.464   2.254
 3694SOL     OW11980   6.901   6.983   2.561
 3694SOL    HW111981   6.892   6.906   2.625
 3694SOL    HW211982   6.844   6.967   2.481
 3695SOL     OW11983   5.601   3.533   3.052
 3695SOL    HW111984   5.659   3.544   3.132
 3695SOL    HW211985   5.636   3.460   2.994
 3696SOL     OW11986   4.063   0.953   4.325
 3696SOL    HW111987   3.990   1.017   4.301
 3696SOL    HW211988   4.031   0.889   4.395
 3697SOL     OW11989   6.739   5.935   3.115
 3697SOL    HW111990   6.677   5.938   3.194
 3697SOL    HW211991   6.799   6.015   3.117
 3698SOL     OW11992   1.067   0.142   2.567
 3698SOL    HW111993   1.038   0.237   2.555
 3698SOL    HW211994   1.141   0.123   2.502
 3699SOL     OW11995   2.578   2.259   3.276
 3699SOL    HW111996   2.542   2.325   3.343
 3699SOL    HW211997   2.597   2.172   3.322
 3700SOL     OW11998   0.834   5.553   4.979
 3700SOL    HW111999   0.915   5.576   5.032
 3700SOL    HW212000   0.845   5.463   4.938
 3701SOL     OW12001   1.054   0.327   1.954
 3701SOL    HW112002   1.145   0.314   1.913
 3701SOL    HW212003   1.027   0.244   2.003
 3702SOL     OW12004   5.879   4.216   3.163
 3702SOL    HW112005   5.925   4.129   3.179
 3702SOL    HW212006   5.938   4.275   3.108
 3703SOL     OW12007   1.641   2.078   3.892
 3703SOL    HW112008   1.638   2.126   3.804
 3703SOL    HW212009   1.656   1.981   3.876
 3704SOL     OW12010   6.490   1.258   0.467
 3704SOL    HW112011   6.484   1.325   0.392
 3704SOL    HW212012   6.564   1.194   0.448
 3705SOL     OW12013   5.395   4.297   4.091
 3705SOL    HW112014   5.317   4.344   4.132
 3705SOL    HW212015   5.479   4.349   4.108
 3706SOL     OW12016   1.404   3.958   6.941
 3706SOL    HW112017   1.402   4.000   6.850
 3706SOL    HW212018   1.426   3.861   6.932
 3707SOL     OW12019   1.205   5.394   3.206
 3707SOL    HW112020   1.277   5.432   3.148
 3707SOL    HW212021   1.170   5.466   3.266
 3708SOL     OW12022   2.238   5.984   1.342
 3708SOL    HW112023   2.144   5.980   1.309
 3708SOL    HW212024   2.255   5.907   1.405
 3709SOL     OW12025   1.281   1.349   1.651
 3709SOL    HW112026   1.374   1.323   1.678
 3709SOL    HW212027   1.218   1.275   1.673
 3710SOL     OW12028   0.510   4.290   5.380
 3710SOL    HW112029   0.522   4.209   5.438
 3710SOL    HW212030   0.583   4.356   5.398
 3711SOL     OW12031   0.987   5.825   4.469
 3711SOL    HW112032   0.964   5.921   4.484
 3711SOL    HW212033   0.935   5.768   4.534
 3712SOL     OW12034   1.681   5.470   4.089
 3712SOL    HW112035   1.754   5.524   4.047
 3712SOL    HW212036   1.707   5.444   4.181
 3713SOL     OW12037   6.304   0.414   4.372
 3713SOL    HW112038   6.357   0.496   4.353
 3713SOL    HW212039   6.210   0.427   4.339
 3714SOL     OW12040   0.777   4.163   0.313
 3714SOL    HW112041   0.721   4.190   0.391
 3714SOL    HW212042   0.800   4.243   0.258
 3715SOL     OW12043   5.720   5.075   3.593
 3715SOL    HW112044   5.759   4.988   3.562
 3715SOL    HW212045   5.761   5.150   3.542
 3716SOL     OW12046   4.966   5.438   4.762
 3716SOL    HW112047   4.944   5.535   4.774
 3716SOL    HW212048   5.062   5.423   4.785
 3717SOL     OW12049   4.702   1.129   0.845
 3717SOL    HW112050   4.796   1.165   0.845
 3717SOL    HW212051   4.645   1.185   0.904
 3718SOL     OW12052   6.099   6.671   6.305
 3718SOL    HW112053   6.056   6.581   6.300
 3718SOL    HW212054   6.081   6.711   6.395
 3719SOL     OW12055   3.561   3.892   0.177
 3719SOL    HW112056   3.560   3.869   0.275
 3719SOL    HW212057   3.510   3.823   0.126
 3720SOL     OW12058   0.233   3.409   0.863
 3720SOL    HW112059   0.173   3.469   0.916
 3720SOL    HW212060   0.189   3.386   0.776
 3721SOL     OW12061   6.751   6.968   5.723
 3721SOL    HW112062   6.657   7.002   5.716
 3721SOL    HW212063   6.815   0.022   5.696
 3722SOL     OW12064   5.436   6.840   2.430
 3722SOL    HW112065   5.534   6.820   2.427
 3722SOL    HW212066   5.402   6.856   2.338
 3723SOL     OW12067   4.543   3.616   0.086
 3723SOL    HW112068   4.518   3.556   0.162
 3723SOL    HW212069   4.529   3.711   0.113
 3724SOL     OW12070   0.431   5.113   4.555
 3724SOL    HW112071   0.390   5.148   4.471
 3724SOL    HW212072   0.509   5.169   4.580
 3725SOL     OW12073   1.344   6.562   7.012
 3725SOL    HW112074   1.323   6.617   0.075
 3725SOL    HW212075   1.260   6.522   6.976
 3726SOL     OW12076   5.968   3.769   5.266
 3726SOL    HW112077   6.035   3.796   5.197
 3726SOL    HW212078   5.966   3.669   5.273
 3727SOL     OW12079   6.942   2.925   3.963
 3727SOL    HW112080   6.847   2.910   3.989
 3727SOL    HW212081   6.980   3.000   4.018
 3728SOL     OW12082   2.538   3.047   0.877
 3728SOL    HW112083   2.564   3.137   0.912
 3728SOL    HW212084   2.614   3.008   0.826
 3729SOL     OW12085   0.465   0.570   5.886
 3729SOL    HW112086   0.446   0.602   5.793
 3729SOL    HW212087   0.553   0.522   5.888
 3730SOL     OW12088   5.089   5.737   4.652
 3730SOL    HW112089   5.021   5.808   4.633
 3730SOL    HW212090   5.112   5.688   4.568
 3731SOL     OW12091   6.818   2.314   6.863
 3731SOL    HW112092   6.883   2.320   6.787
 3731SOL    HW212093   6.829   2.226   6.909
 3732SOL     OW12094   3.563   2.448   6.932
 3732SOL    HW112095   3.658   2.436   6.901
 3732SOL    HW212096   3.503   2.451   6.852
 3733SOL     OW12097   1.468   0.257   3.499
 3733SOL    HW112098   1.426   0.167   3.510
 3733SOL    HW212099   1.510   0.285   3.585
 3734SOL     OW12100   3.881   0.088   1.052
 3734SOL    HW112101   3.965   0.137   1.028
 3734SOL    HW212102   3.802   0.141   1.021
 3735SOL     OW12103   4.497   6.867   2.770
 3735SOL    HW112104   4.558   6.932   2.724
 3735SOL    HW212105   4.469   6.796   2.706
 3736SOL     OW12106   6.731   1.067   6.766
 3736SOL    HW112107   6.789   1.002   6.717
 3736SOL    HW212108   6.763   1.160   6.748
 3737SOL     OW12109   6.662   1.996   2.982
 3737SOL    HW112110   6.625   2.071   2.928
 3737SOL    HW212111   6.617   1.910   2.956
 3738SOL     OW12112   6.864   6.960   1.296
 3738SOL    HW112113   6.957   6.939   1.326
 3738SOL    HW212114   6.818   6.876   1.267
 3739SOL     OW12115   3.255   3.461   0.191
 3739SOL    HW112116   3.198   3.527   0.140
 3739SOL    HW212117   3.202   3.379   0.209
 3740SOL     OW12118   4.600   5.372   6.622
 3740SOL    HW112119   4.533   5.364   6.695
 3740SOL    HW212120   4.606   5.285   6.572
 3741SOL     OW12121   5.436   3.300   0.248
 3741SOL    HW112122   5.443   3.366   0.323
 3741SOL    HW212123   5.379   3.338   0.175
 3742SOL     OW12124   4.003   5.856   1.223
 3742SOL    HW112125   3.945   5.930   1.188
 3742SOL    HW212126   4.048   5.811   1.146
 3743SOL     OW12127   3.384   3.552   1.197
 3743SOL    HW112128   3.352   3.539   1.290
 3743SOL    HW212129   3.415   3.646   1.184
 3744SOL     OW12130   0.205   6.690   2.072
 3744SOL    HW112131   0.139   6.734   2.011
 3744SOL    HW212132   0.178   6.704   2.167
 3745SOL     OW12133   4.842   3.093   2.450
 3745SOL    HW112134   4.903   3.017   2.430
 3745SOL    HW212135   4.793   3.075   2.535
 3746SOL     OW12136   6.363   0.237   3.911
 3746SOL    HW112137   6.414   0.168   3.860
 3746SOL    HW212138   6.421   0.275   3.983
 3747SOL     OW12139   3.391   6.092   5.682
 3747SOL    HW112140   3.483   6.129   5.679
 3747SOL    HW212141   3.386   6.017   5.749
 3748SOL     OW12142   4.863   2.116   3.240
 3748SOL    HW112143   4.947   2.151   3.281
 3748SOL    HW212144   4.838   2.030   3.285
 3749SOL     OW12145   6.987   6.324   2.533
 3749SOL    HW112146   6.905   6.321   2.591
 3749SOL    HW212147   0.050   6.322   2.590
 3750SOL     OW12148   5.399   4.428   0.976
 3750SOL    HW112149   5.399   4.467   1.068
 3750SOL    HW212150   5.436   4.335   0.980
 3751SOL     OW12151   1.784   3.726   2.088
 3751SOL    HW112152   1.767   3.824   2.092
 3751SOL    HW212153   1.860   3.707   2.026
 3752SOL     OW12154   0.910   6.482   5.738
 3752SOL    HW112155   0.833   6.432   5.697
 3752SOL    HW212156   0.953   6.424   5.807
 3753SOL     OW12157   6.779   0.226   4.628
 3753SOL    HW112158   6.753   0.295   4.695
 3753SOL    HW212159   6.738   0.138   4.653
 3754SOL     OW12160   6.726   6.583   1.722
 3754SOL    HW112161   6.638   6.578   1.675
 3754SOL    HW212162   6.720   6.533   1.809
 3755SOL     OW12163   4.702   2.569   2.826
 3755SOL    HW112164   4.783   2.568   2.886
 3755SOL    HW212165   4.689   2.661   2.790
 3756SOL     OW12166   2.984   0.176   6.899
 3756SOL    HW112167   3.056   0.122   6.942
 3756SOL    HW212168   2.975   0.149   6.804
 3757SOL     OW12169   3.075   4.774   0.181
 3757SOL    HW112170   3.032   4.818   0.260
 3757SOL    HW212171   3.053   4.677   0.180
 3758SOL     OW12172   0.640   0.678   3.774
 3758SOL    HW112173   0.626   0.637   3.865
 3758SOL    HW212174   0.568   0.647   3.712
 3759SOL     OW12175   4.907   4.755   0.198
 3759SOL    HW112176   4.855   4.828   0.242
 3759SOL    HW212177   4.871   4.739   0.107
 3760SOL     OW12178   2.144   2.416   5.446
 3760SOL    HW112179   2.220   2.367   5.488
 3760SOL    HW212180   2.152   2.513   5.465
 3761SOL     OW12181   0.196   6.792   3.950
 3761SOL    HW112182   0.232   6.774   4.042
 3761SOL    HW212183   0.234   6.725   3.886
 3762SOL     OW12184   0.677   3.889   6.540
 3762SOL    HW112185   0.614   3.901   6.616
 3762SOL    HW212186   0.677   3.971   6.483
 3763SOL     OW12187   6.409   3.497   6.137
 3763SOL    HW112188   6.339   3.542   6.082
 3763SOL    HW212189   6.453   3.425   6.083
 3764SOL     OW12190   2.211   6.417   3.893
 3764SOL    HW112191   2.256   6.495   3.850
 3764SOL    HW212192   2.122   6.402   3.849
 3765SOL     OW12193   5.865   1.274   4.022
 3765SOL    HW112194   5.842   1.311   4.112
 3765SOL    HW212195   5.871   1.174   4.028
 3766SOL     OW12196   1.560   0.471   5.085
 3766SOL    HW112197   1.522   0.498   4.996
 3766SOL    HW212198   1.562   0.371   5.091
 3767SOL     OW12199   1.431   4.441   1.304
 3767SOL    HW112200   1.517   4.480   1.269
 3767SOL    HW212201   1.436   4.433   1.403
 3768SOL     OW12202   4.850   6.695   0.758
 3768SOL    HW112203   4.934   6.688   0.703
 3768SOL    HW212204   4.789   6.619   0.735
 3769SOL     OW12205   4.322   6.153   5.114
 3769SOL    HW112206   4.310   6.054   5.115
 3769SOL    HW212207   4.369   6.181   5.030
 3770SOL     OW12208   2.038   1.422   0.129
 3770SOL    HW112209   2.069   1.437   0.035
 3770SOL    HW212210   1.957   1.478   0.147
 3771SOL     OW12211   5.131   1.318   5.634
 3771SOL    HW112212   5.072   1.285   5.708
 3771SOL    HW212213   5.077   1.327   5.551
 3772SOL     OW12214   5.270   1.052   2.669
 3772SOL    HW112215   5.212   1.113   2.723
 3772SOL    HW212216   5.225   0.963   2.662
 3773SOL     OW12217   6.658   2.715   6.834
 3773SOL    HW112218   6.697   2.772   6.907
 3773SOL    HW212219   6.570   2.752   6.806
 3774SOL     OW12220   0.662   1.322   1.698
 3774SOL    HW112221   0.609   1.334   1.782
 3774SOL    HW212222   0.601   1.297   1.623
 3775SOL     OW12223   5.679   3.429   3.804
 3775SOL    HW112224   5.682   3.426   3.904
 3775SOL    HW212225   5.628   3.510   3.775
 3776SOL     OW12226   2.692   3.201   6.824
 3776SOL    HW112227   2.652   3.140   6.756
 3776SOL    HW212228   2.684   3.159   6.914
 3777SOL     OW12229   1.811   4.368   3.271
 3777SOL    HW112230   1.785   4.359   3.367
 3777SOL    HW212231   1.804   4.464   3.243
 3778SOL     OW12232   2.223   6.727   2.169
 3778SOL    HW112233   2.124   6.721   2.160
 3778SOL    HW212234   2.247   6.781   2.249
 3779SOL     OW12235   3.002   4.893   6.455
 3779SOL    HW112236   2.975   4.850   6.541
 3779SOL    HW212237   2.920   4.921   6.405
 3780SOL     OW12238   3.175   6.939   4.458
 3780SOL    HW112239   3.172   6.981   4.548
 3780SOL    HW212240   3.164   6.840   4.466
 3781SOL     OW12241   3.209   5.247   4.940
 3781SOL    HW112242   3.197   5.190   5.022
 3781SOL    HW212243   3.286   5.212   4.886
 3782SOL     OW12244   1.863   1.857   3.064
 3782SOL    HW112245   1.813   1.818   3.141
 3782SOL    HW212246   1.961   1.861   3.086
 3783SOL     OW12247   4.814   5.552   5.901
 3783SOL    HW112248   4.888   5.499   5.944
 3783SOL    HW212249   4.821   5.543   5.802
 3784SOL     OW12250   4.719   1.077   3.529
 3784SOL    HW112251   4.686   0.984   3.519
 3784SOL    HW212252   4.817   1.080   3.511
 3785SOL     OW12253   1.538   1.828   1.611
 3785SOL    HW112254   1.466   1.829   1.680
 3785SOL    HW212255   1.615   1.773   1.644
 3786SOL     OW12256   3.243   5.297   2.545
 3786SOL    HW112257   3.243   5.392   2.512
 3786SOL    HW212258   3.246   5.235   2.466
 3787SOL     OW12259   3.922   1.677   4.180
 3787SOL    HW112260   3.863   1.702   4.103
 3787SOL    HW212261   3.987   1.607   4.150
 3788SOL     OW12262   5.975   3.519   2.301
 3788SOL    HW112263   5.952   3.615   2.292
 3788SOL    HW212264   5.980   3.476   2.211
 3789SOL     OW12265   1.344   4.915   2.731
 3789SOL    HW112266   1.332   4.816   2.729
 3789SOL    HW212267   1.300   4.956   2.652
 3790SOL     OW12268   2.125   3.363   4.150
 3790SOL    HW112269   2.140   3.447   4.098
 3790SOL    HW212270   2.123   3.383   4.247
 3791SOL     OW12271   5.080   0.225   2.197
 3791SOL    HW112272   5.062   0.306   2.140
 3791SOL    HW212273   5.144   0.249   2.270
 3792SOL     OW12274   0.148   6.866   5.746
 3792SOL    HW112275   0.210   6.804   5.794
 3792SOL    HW212276   0.102   6.816   5.673
 3793SOL     OW12277   2.224   0.387   2.504
 3793SOL    HW112278   2.154   0.381   2.575
 3793SOL    HW212279   2.201   0.325   2.429
 3794SOL     OW12280   4.165   6.599   2.463
 3794SOL    HW112281   4.089   6.544   2.499
 3794SOL    HW212282   4.139   6.635   2.373
 3795SOL     OW12283   4.572   0.010   0.083
 3795SOL    HW112284   4.619   0.098   0.076
 3795SOL    HW212285   4.516   7.013   0.002
 3796SOL     OW12286   1.684   2.737   1.676
 3796SOL    HW112287   1.631   2.689   1.746
 3796SOL    HW212288   1.717   2.671   1.608
 3797SOL     OW12289   0.303   5.333   2.576
 3797SOL    HW112290   0.245   5.414   2.580
 3797SOL    HW212291   0.396   5.357   2.605
 3798SOL     OW12292   1.436   4.006   2.054
 3798SOL    HW112293   1.414   3.914   2.022
 3798SOL    HW212294   1.529   4.007   2.091
 3799SOL     OW12295   1.782   0.164   5.241
 3799SOL    HW112296   1.724   0.163   5.323
 3799SOL    HW212297   1.869   0.209   5.263
 3800SOL     OW12298   4.811   2.904   4.593
 3800SOL    HW112299   4.805   2.946   4.502
 3800SOL    HW212300   4.820   2.805   4.582
 3801SOL     OW12301   0.070   0.292   6.728
 3801SOL    HW112302   0.158   0.257   6.697
 3801SOL    HW212303   0.041   0.242   6.810
 3802SOL     OW12304   1.795   2.405   5.157
 3802SOL    HW112305   1.795   2.308   5.181
 3802SOL    HW212306   1.708   2.428   5.113
 3803SOL     OW12307   3.924   1.351   1.154
 3803SOL    HW112308   4.023   1.364   1.154
 3803SOL    HW212309   3.900   1.273   1.213
 3804SOL     OW12310   4.935   2.431   5.566
 3804SOL    HW112311   4.903   2.346   5.524
 3804SOL    HW212312   4.857   2.489   5.587
 3805SOL     OW12313   2.012   3.684   1.159
 3805SOL    HW112314   2.015   3.754   1.229
 3805SOL    HW212315   1.943   3.708   1.090
 3806SOL     OW12316   2.600   1.743   0.215
 3806SOL    HW112317   2.686   1.715   0.173
 3806SOL    HW212318   2.524   1.691   0.174
 3807SOL     OW12319   1.253   6.587   3.106
 3807SOL    HW112320   1.208   6.631   3.028
 3807SOL    HW212321   1.188   6.526   3.152
 3808SOL     OW12322   3.498   0.726   1.288
 3808SOL    HW112323   3.527   0.727   1.384
 3808SOL    HW212324   3.490   0.632   1.256
 3809SOL     OW12325   4.606   0.671   6.260
 3809SOL    HW112326   4.593   0.632   6.169
 3809SOL    HW212327   4.593   0.599   6.329
 3810SOL     OW12328   2.693   3.097   5.333
 3810SOL    HW112329   2.672   3.194   5.340
 3810SOL    HW212330   2.617   3.050   5.286
 3811SOL     OW12331   0.679   6.605   6.330
 3811SOL    HW112332   0.599   6.547   6.341
 3811SOL    HW212333   0.682   6.642   6.237
 3812SOL     OW12334   5.401   1.238   5.254
 3812SOL    HW112335   5.382   1.237   5.352
 3812SOL    HW212336   5.373   1.151   5.213
 3813SOL     OW12337   3.888   4.769   1.845
 3813SOL    HW112338   3.903   4.862   1.879
 3813SOL    HW212339   3.795   4.741   1.865
 3814SOL     OW12340   1.340   6.544   2.314
 3814SOL    HW112341   1.414   6.582   2.259
 3814SOL    HW212342   1.377   6.505   2.398
 3815SOL     OW12343   5.705   2.235   1.473
 3815SOL    HW112344   5.795   2.194   1.487
 3815SOL    HW212345   5.690   2.306   1.541
 3816SOL     OW12346   0.507   6.653   1.466
 3816SOL    HW112347   0.474   6.701   1.384
 3816SOL    HW212348   0.604   6.676   1.480
 3817SOL     OW12349   5.102   1.858   5.353
 3817SOL    HW112350   5.116   1.782   5.416
 3817SOL    HW212351   5.041   1.831   5.279
 3818SOL     OW12352   5.337   5.236   2.663
 3818SOL    HW112353   5.403   5.299   2.703
 3818SOL    HW212354   5.376   5.143   2.664
 3819SOL     OW12355   5.544   4.328   6.105
 3819SOL    HW112356   5.578   4.235   6.092
 3819SOL    HW212357   5.583   4.388   6.035
 3820SOL     OW12358   5.369   6.549   4.110
 3820SOL    HW112359   5.367   6.612   4.189
 3820SOL    HW212360   5.278   6.543   4.070
 3821SOL     OW12361   0.762   3.907   2.091
 3821SOL    HW112362   0.766   3.936   2.186
 3821SOL    HW212363   0.855   3.901   2.054
 3822SOL     OW12364   1.959   4.911   2.079
 3822SOL    HW112365   1.863   4.926   2.101
 3822SOL    HW212366   2.016   4.964   2.141
 3823SOL     OW12367   3.036   2.848   5.306
 3823SOL    HW112368   3.132   2.821   5.293
 3823SOL    HW212369   3.018   2.931   5.254
 3824SOL     OW12370   0.232   2.456   6.387
 3824SOL    HW112371   0.145   2.489   6.424
 3824SOL    HW212372   0.244   2.360   6.410
 3825SOL     OW12373   6.651   0.119   6.316
 3825SOL    HW112374   6.596   0.203   6.315
 3825SOL    HW212375   6.592   0.040   6.305
 3826SOL     OW12376   6.864   2.180   1.347
 3826SOL    HW112377   6.782   2.229   1.318
 3826SOL    HW212378   6.837   2.102   1.404
 3827SOL     OW12379   4.509   3.646   0.778
 3827SOL    HW112380   4.503   3.551   0.749
 3827SOL    HW212381   4.563   3.698   0.712
 3828SOL     OW12382   4.070   1.196   1.922
 3828SOL    HW112383   4.023   1.159   1.842
 3828SOL    HW212384   4.003   1.233   1.986
 3829SOL     OW12385   1.366   5.555   3.066
 3829SOL    HW112386   1.385   5.492   2.991
 3829SOL    HW212387   1.398   5.646   3.043
 3830SOL     OW12388   2.910   0.223   4.865
 3830SOL    HW112389   2.945   0.269   4.784
 3830SOL    HW212390   2.982   0.219   4.935
 3831SOL     OW12391   4.098   1.485   1.925
 3831SOL    HW112392   4.052   1.410   1.971
 3831SOL    HW212393   4.040   1.567   1.927
 3832SOL     OW12394   5.726   6.881   2.814
 3832SOL    HW112395   5.758   6.828   2.736
 3832SOL    HW212396   5.710   6.820   2.891
 3833SOL     OW12397   1.283   5.218   6.761
 3833SOL    HW112398   1.357   5.271   6.803
 3833SOL    HW212399   1.227   5.278   6.704
 3834SOL     OW12400   2.217   2.155   0.826
 3834SOL    HW112401   2.194   2.164   0.729
 3834SOL    HW212402   2.195   2.240   0.874
 3835SOL     OW12403   3.489   6.093   4.279
 3835SOL    HW112404   3.517   6.135   4.193
 3835SOL    HW212405   3.422   6.021   4.261
 3836SOL     OW12406   1.682   3.182   5.285
 3836SOL    HW112407   1.625   3.146   5.360
 3836SOL    HW212408   1.763   3.124   5.275
 3837SOL     OW12409   3.578   3.258   0.304
 3837SOL    HW112410   3.483   3.277   0.282
 3837SOL    HW212411   3.624   3.343   0.328
 3838SOL     OW12412   5.910   3.465   5.198
 3838SOL    HW112413   5.946   3.404   5.267
 3838SOL    HW212414   5.956   3.448   5.111
 3839SOL     OW12415   6.327   6.400   5.998
 3839SOL    HW112416   6.316   6.301   6.013
 3839SOL    HW212417   6.265   6.429   5.925
 3840SOL     OW12418   2.428   0.176   3.708
 3840SOL    HW112419   2.360   0.227   3.655
 3840SOL    HW212420   2.422   0.202   3.804
 3841SOL     OW12421   0.265   3.779   4.515
 3841SOL    HW112422   0.299   3.724   4.591
 3841SOL    HW212423   0.179   3.823   4.541
 3842SOL     OW12424   1.123   5.028   6.885
 3842SOL    HW112425   1.184   5.102   6.855
 3842SOL    HW212426   1.096   4.974   6.805
 3843SOL     OW12427   6.155   4.168   0.983
 3843SOL    HW112428   6.125   4.258   0.952
 3843SOL    HW212429   6.076   4.114   1.012
 3844SOL     OW12430   2.240   4.205   6.556
 3844SOL    HW112431   2.177   4.183   6.482
 3844SOL    HW212432   2.255   4.123   6.612
 3845SOL     OW12433   3.284   3.613   3.846
 3845SOL    HW112434   3.322   3.703   3.825
 3845SOL    HW212435   3.219   3.622   3.922
 3846SOL     OW12436   6.899   4.173   3.544
 3846SOL    HW112437   6.956   4.188   3.464
 3846SOL    HW212438   6.944   4.213   3.625
 3847SOL     OW12439   0.924   0.317   0.450
 3847SOL    HW112440   0.840   0.264   0.435
 3847SOL    HW212441   0.974   0.326   0.364
 3848SOL     OW12442   3.149   5.017   0.547
 3848SOL    HW112443   3.247   5.014   0.525
 3848SOL    HW212444   3.096   4.993   0.465
 3849SOL     OW12445   2.442   2.149   5.858
 3849SOL    HW112446   2.533   2.109   5.873
 3849SOL    HW212447   2.386   2.136   5.940
 3850SOL     OW12448   2.440   3.616   1.479
 3850SOL    HW112449   2.406   3.648   1.390
 3850SOL    HW212450   2.480   3.693   1.529
 3851SOL     OW12451   2.151   2.653   1.752
 3851SOL    HW112452   2.127   2.637   1.848
 3851SOL    HW212453   2.240   2.699   1.748
 3852SOL     OW12454   4.894   0.779   5.886
 3852SOL    HW112455   4.823   0.712   5.865
 3852SOL    HW212456   4.920   0.770   5.983
 3853SOL     OW12457   1.336   2.841   2.354
 3853SOL    HW112458   1.258   2.786   2.384
 3853SOL    HW212459   1.417   2.816   2.408
 3854SOL     OW12460   1.217   3.050   4.710
 3854SOL    HW112461   1.223   3.016   4.804
 3854SOL    HW212462   1.169   3.138   4.710
 3855SOL     OW12463   6.904   1.794   5.122
 3855SOL    HW112464   6.934   1.715   5.070
 3855SOL    HW212465   6.863   1.861   5.061
 3856SOL     OW12466   0.940   6.639   5.274
 3856SOL    HW112467   0.993   6.616   5.355
 3856SOL    HW212468   0.884   6.720   5.292
 3857SOL     OW12469   0.987   0.004   6.263
 3857SOL    HW112470   0.924   6.960   6.309
 3857SOL    HW212471   1.073   0.007   6.313
 3858SOL     OW12472   2.285   5.122   6.624
 3858SOL    HW112473   2.216   5.075   6.680
 3858SOL    HW212474   2.281   5.220   6.641
 3859SOL     OW12475   6.529   2.387   1.665
 3859SOL    HW112476   6.600   2.414   1.730
 3859SOL    HW212477   6.459   2.459   1.661
 3860SOL     OW12478   1.910   6.447   4.904
 3860SOL    HW112479   1.930   6.349   4.909
 3860SOL    HW212480   1.992   6.499   4.927
 3861SOL     OW12481   4.036   4.689   0.872
 3861SOL    HW112482   4.126   4.723   0.846
 3861SOL    HW212483   4.046   4.606   0.927
 3862SOL     OW12484   1.193   4.994   6.041
 3862SOL    HW112485   1.266   5.049   6.000
 3862SOL    HW212486   1.104   5.027   6.010
 3863SOL     OW12487   3.257   3.161   0.787
 3863SOL    HW112488   3.190   3.088   0.775
 3863SOL    HW212489   3.273   3.206   0.699
 3864SOL     OW12490   3.140   1.726   0.043
 3864SOL    HW112491   3.139   1.739   6.961
 3864SOL    HW212492   3.049   1.745   0.079
 3865SOL     OW12493   4.532   0.770   2.271
 3865SOL    HW112494   4.595   0.693   2.272
 3865SOL    HW212495   4.441   0.738   2.245
 3866SOL     OW12496   3.904   6.185   6.013
 3866SOL    HW112497   3.994   6.229   6.011
 3866SOL    HW212498   3.846   6.231   6.081
 3867SOL     OW12499   1.780   4.254   3.834
 3867SOL    HW112500   1.752   4.177   3.778
 3867SOL    HW212501   1.701   4.310   3.858
 3868SOL     OW12502   1.505   5.353   2.481
 3868SOL    HW112503   1.524   5.261   2.446
 3868SOL    HW212504   1.510   5.353   2.581
 3869SOL     OW12505   1.781   1.684   4.080
 3869SOL    HW112506   1.775   1.607   4.143
 3869SOL    HW212507   1.816   1.764   4.129
 3870SOL     OW12508   4.196   4.091   0.643
 3870SOL    HW112509   4.188   4.054   0.735
 3870SOL    HW212510   4.270   4.158   0.640
 3871SOL     OW12511   2.674   1.537   4.557
 3871SOL    HW112512   2.684   1.635   4.577
 3871SOL    HW212513   2.704   1.483   4.635
 3872SOL     OW12514   4.295   3.618   0.437
 3872SOL    HW112515   4.233   3.542   0.458
 3872SOL    HW212516   4.281   3.691   0.504
 3873SOL     OW12517   5.156   4.534   1.751
 3873SOL    HW112518   5.254   4.554   1.745
 3873SOL    HW212519   5.106   4.594   1.689
 3874SOL     OW12520   4.952   5.745   6.186
 3874SOL    HW112521   5.039   5.730   6.233
 3874SOL    HW212522   4.883   5.683   6.222
 3875SOL     OW12523   2.124   4.088   0.505
 3875SOL    HW112524   2.092   4.119   0.595
 3875SOL    HW212525   2.209   4.135   0.481
 3876SOL     OW12526   5.381   4.286   2.268
 3876SOL    HW112527   5.451   4.218   2.245
 3876SOL    HW212528   5.425   4.370   2.299
 3877SOL     OW12529   5.552   1.064   2.343
 3877SOL    HW112530   5.602   1.142   2.381
 3877SOL    HW212531   5.615   1.006   2.292
 3878SOL     OW12532   4.093   6.002   4.559
 3878SOL    HW112533   4.070   5.904   4.558
 3878SOL    HW212534   4.192   6.013   4.546
 3879SOL     OW12535   3.100   5.714   1.381
 3879SOL    HW112536   3.121   5.618   1.397
 3879SOL    HW212537   3.039   5.723   1.303
 3880SOL     OW12538   5.322   2.504   4.023
 3880SOL    HW112539   5.378   2.482   4.102
 3880SOL    HW212540   5.381   2.525   3.945
 3881SOL     OW12541   1.368   5.084   1.287
 3881SOL    HW112542   1.397   4.988   1.279
 3881SOL    HW212543   1.449   5.143   1.284
 3882SOL     OW12544   0.945   5.878   6.163
 3882SOL    HW112545   0.868   5.914   6.111
 3882SOL    HW212546   0.958   5.935   6.245
 3883SOL     OW12547   3.070   1.611   6.485
 3883SOL    HW112548   3.140   1.608   6.556
 3883SOL    HW212549   3.052   1.707   6.461
 3884SOL     OW12550   1.832   4.945   5.500
 3884SOL    HW112551   1.867   4.852   5.487
 3884SOL    HW212552   1.906   5.005   5.528
 3885SOL     OW12553   0.130   1.724   5.268
 3885SOL    HW112554   0.043   1.697   5.226
 3885SOL    HW212555   0.121   1.718   5.368
 3886SOL     OW12556   0.160   6.163   5.205
 3886SOL    HW112557   0.230   6.092   5.210
 3886SOL    HW212558   0.126   6.183   5.297
 3887SOL     OW12559   5.389   3.179   4.915
 3887SOL    HW112560   5.340   3.265   4.900
 3887SOL    HW212561   5.484   3.199   4.939
 3888SOL     OW12562   5.697   2.066   1.751
 3888SOL    HW112563   5.753   2.001   1.700
 3888SOL    HW212564   5.750   2.148   1.771
 3889SOL     OW12565   6.991   5.676   0.021
 3889SOL    HW112566   7.000   5.614   0.098
 3889SOL    HW212567   0.049   5.661   6.975
 3890SOL     OW12568   6.730   3.310   2.705
 3890SOL    HW112569   6.673   3.229   2.719
 3890SOL    HW212570   6.737   3.330   2.608
 3891SOL     OW12571   6.300   5.044   6.336
 3891SOL    HW112572   6.224   4.997   6.292
 3891SOL    HW212573   6.264   5.105   6.407
 3892SOL     OW12574   5.610   5.233   4.229
 3892SOL    HW112575   5.552   5.305   4.191
 3892SOL    HW212576   5.556   5.149   4.239
 3893SOL     OW12577   3.252   5.948   4.190
 3893SOL    HW112578   3.199   5.864   4.195
 3893SOL    HW212579   3.214   6.008   4.120
 3894SOL     OW12580   5.042   5.867   0.077
 3894SOL    HW112581   5.098   5.845   7.015
 3894SOL    HW212582   5.087   5.939   0.130
 3895SOL     OW12583   2.020   2.381   5.836
 3895SOL    HW112584   1.969   2.317   5.893
 3895SOL    HW212585   1.959   2.422   5.769
 3896SOL     OW12586   6.558   2.453   6.212
 3896SOL    HW112587   6.510   2.491   6.291
 3896SOL    HW212588   6.657   2.459   6.227
 3897SOL     OW12589   3.279   6.627   3.421
 3897SOL    HW112590   3.283   6.531   3.392
 3897SOL    HW212591   3.370   6.658   3.447
 3898SOL     OW12592   3.096   3.545   4.721
 3898SOL    HW112593   3.016   3.492   4.692
 3898SOL    HW212594   3.179   3.495   4.697
 3899SOL     OW12595   4.567   1.914   4.926
 3899SOL    HW112596   4.520   1.827   4.909
 3899SOL    HW212597   4.512   1.989   4.889
 3900SOL     OW12598   6.867   2.562   4.353
 3900SOL    HW112599   6.958   2.540   4.390
 3900SOL    HW212600   6.863   2.660   4.332
 3901SOL     OW12601   2.714   5.477   4.930
 3901SOL    HW112602   2.798   5.427   4.947
 3901SOL    HW212603   2.638   5.433   4.979
 3902SOL     OW12604   4.253   4.645   2.573
 3902SOL    HW112605   4.353   4.640   2.578
 3902SOL    HW212606   4.226   4.684   2.485
 3903SOL     OW12607   4.662   3.329   5.931
 3903SOL    HW112608   4.735   3.333   5.862
 3903SOL    HW212609   4.574   3.321   5.885
 3904SOL     OW12610   2.565   6.496   0.729
 3904SOL    HW112611   2.628   6.564   0.765
 3904SOL    HW212612   2.564   6.416   0.790
 3905SOL     OW12613   6.100   0.683   6.120
 3905SOL    HW112614   6.005   0.673   6.149
 3905SOL    HW212615   6.110   0.651   6.025
 3906SOL     OW12616   6.969   6.046   4.831
 3906SOL    HW112617   6.898   6.112   4.854
 3906SOL    HW212618   0.017   6.088   4.768
 3907SOL     OW12619   0.430   1.642   4.837
 3907SOL    HW112620   0.440   1.676   4.931
 3907SOL    HW212621   0.477   1.554   4.828
 3908SOL     OW12622   2.463   0.690   4.306
 3908SOL    HW112623   2.476   0.719   4.211
 3908SOL    HW212624   2.447   0.771   4.363
 3909SOL     OW12625   4.937   3.109   1.455
 3909SOL    HW112626   4.999   3.161   1.514
 3909SOL    HW212627   4.943   3.012   1.479
 3910SOL     OW12628   2.969   2.443   0.739
 3910SOL    HW112629   2.978   2.417   0.835
 3910SOL    HW212630   2.975   2.542   0.731
 3911SOL     OW12631   6.869   0.726   1.654
 3911SOL    HW112632   6.861   0.683   1.743
 3911SOL    HW212633   6.928   0.670   1.595
 3912SOL     OW12634   4.163   4.167   0.149
 3912SOL    HW112635   4.206   4.251   0.116
 3912SOL    HW212636   4.063   4.177   0.143
 3913SOL     OW12637   4.233   5.556   1.250
 3913SOL    HW112638   4.286   5.472   1.248
 3913SOL    HW212639   4.191   5.568   1.340
 3914SOL     OW12640   6.559   2.198   6.665
 3914SOL    HW112641   6.555   2.153   6.754
 3914SOL    HW212642   6.558   2.297   6.678
 3915SOL     OW12643   5.299   0.602   5.315
 3915SOL    HW112644   5.304   0.637   5.409
 3915SOL    HW212645   5.391   0.587   5.280
 3916SOL     OW12646   1.943   2.482   2.225
 3916SOL    HW112647   2.008   2.494   2.300
 3916SOL    HW212648   1.960   2.395   2.179
 3917SOL     OW12649   3.776   4.875   2.230
 3917SOL    HW112650   3.829   4.957   2.209
 3917SOL    HW212651   3.736   4.839   2.146
 3918SOL     OW12652   4.863   0.158   0.497
 3918SOL    HW112653   4.842   0.174   0.400
 3918SOL    HW212654   4.857   0.244   0.547
 3919SOL     OW12655   5.055   5.885   3.552
 3919SOL    HW112656   5.077   5.823   3.628
 3919SOL    HW212657   5.017   5.833   3.476
 3920SOL     OW12658   2.912   1.513   5.424
 3920SOL    HW112659   2.840   1.577   5.450
 3920SOL    HW212660   2.990   1.564   5.387
 3921SOL     OW12661   1.655   3.544   6.308
 3921SOL    HW112662   1.658   3.604   6.228
 3921SOL    HW212663   1.719   3.468   6.295
 3922SOL     OW12664   4.907   3.351   3.527
 3922SOL    HW112665   4.892   3.446   3.554
 3922SOL    HW212666   4.921   3.347   3.428
 3923SOL     OW12667   5.861   1.800   1.355
 3923SOL    HW112668   5.878   1.834   1.263
 3923SOL    HW212669   5.781   1.739   1.354
 3924SOL     OW12670   4.820   4.874   4.638
 3924SOL    HW112671   4.777   4.965   4.632
 3924SOL    HW212672   4.753   4.804   4.613
 3925SOL     OW12673   4.722   5.835   1.528
 3925SOL    HW112674   4.714   5.920   1.476
 3925SOL    HW212675   4.772   5.852   1.613
 3926SOL     OW12676   0.778   5.818   5.246
 3926SOL    HW112677   0.845   5.753   5.209
 3926SOL    HW212678   0.692   5.809   5.196
 3927SOL     OW12679   5.875   1.641   5.199
 3927SOL    HW112680   5.832   1.695   5.271
 3927SOL    HW212681   5.804   1.603   5.139
 3928SOL     OW12682   3.769   5.584   2.472
 3928SOL    HW112683   3.824   5.665   2.489
 3928SOL    HW212684   3.772   5.524   2.553
 3929SOL     OW12685   0.822   1.673   5.863
 3929SOL    HW112686   0.905   1.658   5.809
 3929SOL    HW212687   0.827   1.762   5.908
 3930SOL     OW12688   1.350   5.207   3.433
 3930SOL    HW112689   1.394   5.122   3.404
 3930SOL    HW212690   1.317   5.257   3.353
 3931SOL     OW12691   1.383   2.151   0.076
 3931SOL    HW112692   1.351   2.168   7.001
 3931SOL    HW212693   1.308   2.114   0.131
 3932SOL     OW12694   2.318   4.362   2.813
 3932SOL    HW112695   2.316   4.346   2.714
 3932SOL    HW212696   2.288   4.279   2.861
 3933SOL     OW12697   2.010   5.739   1.490
 3933SOL    HW112698   1.971   5.763   1.401
 3933SOL    HW212699   2.110   5.747   1.485
 3934SOL     OW12700   2.126   6.872   1.443
 3934SOL    HW112701   2.049   6.817   1.412
 3934SOL    HW212702   2.206   6.814   1.455
 3935SOL     OW12703   0.361   3.555   4.670
 3935SOL    HW112704   0.329   3.485   4.734
 3935SOL    HW212705   0.461   3.552   4.664
 3936SOL     OW12706   0.267   4.279   4.897
 3936SOL    HW112707   0.319   4.353   4.854
 3936SOL    HW212708   0.327   4.200   4.912
 3937SOL     OW12709   1.175   6.500   0.489
 3937SOL    HW112710   1.100   6.472   0.549
 3937SOL    HW212711   1.145   6.498   0.394
 3938SOL     OW12712   0.394   3.109   0.629
 3938SOL    HW112713   0.312   3.055   0.607
 3938SOL    HW212714   0.408   3.108   0.728
 3939SOL     OW12715   1.496   6.315   3.376
 3939SOL    HW112716   1.493   6.415   3.377
 3939SOL    HW212717   1.569   6.284   3.436
 3940SOL     OW12718   2.757   5.511   6.740
 3940SOL    HW112719   2.849   5.540   6.712
 3940SOL    HW212720   2.700   5.591   6.755
 3941SOL     OW12721   4.831   6.004   2.445
 3941SOL    HW112722   4.874   5.933   2.388
 3941SOL    HW212723   4.871   6.001   2.537
 3942SOL     OW12724   6.538   6.575   6.394
 3942SOL    HW112725   6.456   6.543   6.346
 3942SOL    HW212726   6.619   6.550   6.341
 3943SOL     OW12727   2.093   3.036   6.636
 3943SOL    HW112728   2.168   3.093   6.671
 3943SOL    HW212729   2.110   3.015   6.539
 3944SOL     OW12730   4.142   3.084   6.973
 3944SOL    HW112731   4.114   3.158   0.016
 3944SOL    HW212732   4.239   3.091   6.953
 3945SOL     OW12733   5.543   0.595   3.652
 3945SOL    HW112734   5.468   0.529   3.655
 3945SOL    HW212735   5.591   0.593   3.740
 3946SOL     OW12736   0.557   3.252   0.244
 3946SOL    HW112737   0.515   3.161   0.250
 3946SOL    HW212738   0.536   3.293   0.156
 3947SOL     OW12739   5.358   6.490   2.230
 3947SOL    HW112740   5.363   6.394   2.200
 3947SOL    HW212741   5.324   6.494   2.324
 3948SOL     OW12742   1.782   2.137   5.154
 3948SOL    HW112743   1.755   2.063   5.216
 3948SOL    HW212744   1.786   2.102   5.060
 3949SOL     OW12745   6.673   6.768   2.192
 3949SOL    HW112746   6.596   6.830   2.209
 3949SOL    HW212747   6.640   6.674   2.184
 3950SOL     OW12748   3.071   4.548   1.651
 3950SOL    HW112749   3.133   4.479   1.614
 3950SOL    HW212750   3.005   4.504   1.712
 3951SOL     OW12751   0.751   2.624   4.259
 3951SOL    HW112752   0.679   2.595   4.323
 3951SOL    HW212753   0.824   2.669   4.309
 3952SOL     OW12754   5.811   4.306   6.779
 3952SOL    HW112755   5.777   4.392   6.816
 3952SOL    HW212756   5.911   4.305   6.785
 3953SOL     OW12757   3.124   3.869   5.844
 3953SOL    HW112758   3.038   3.921   5.847
 3953SOL    HW212759   3.104   3.772   5.857
 3954SOL     OW12760   0.671   3.179   5.048
 3954SOL    HW112761   0.713   3.093   5.020
 3954SOL    HW212762   0.725   3.220   5.121
 3955SOL     OW12763   6.037   3.963   0.127
 3955SOL    HW112764   5.959   3.923   0.078
 3955SOL    HW212765   6.009   3.987   0.220
 3956SOL     OW12766   6.510   2.760   5.459
 3956SOL    HW112767   6.415   2.740   5.482
 3956SOL    HW212768   6.532   2.721   5.369
 3957SOL     OW12769   0.682   1.873   1.847
 3957SOL    HW112770   0.756   1.807   1.834
 3957SOL    HW212771   0.708   1.939   1.917
 3958SOL     OW12772   5.383   6.254   0.842
 3958SOL    HW112773   5.324   6.320   0.794
 3958SOL    HW212774   5.434   6.200   0.775
 3959SOL     OW12775   2.096   5.017   1.821
 3959SOL    HW112776   2.143   5.103   1.841
 3959SOL    HW212777   2.051   4.984   1.903
 3960SOL     OW12778   4.746   3.405   0.870
 3960SOL    HW112779   4.677   3.382   0.802
 3960SOL    HW212780   4.775   3.501   0.858
 3961SOL     OW12781   6.560   0.417   1.381
 3961SOL    HW112782   6.590   0.338   1.327
 3961SOL    HW212783   6.625   0.492   1.369
 3962SOL     OW12784   0.673   0.094   6.195
 3962SOL    HW112785   0.763   0.106   6.153
 3962SOL    HW212786   0.603   0.092   6.123
 3963SOL     OW12787   5.211   4.447   4.204
 3963SOL    HW112788   5.169   4.476   4.290
 3963SOL    HW212789   5.176   4.504   4.130
 3964SOL     OW12790   5.716   5.908   0.283
 3964SOL    HW112791   5.640   5.971   0.267
 3964SOL    HW212792   5.768   5.938   0.363
 3965SOL     OW12793   3.645   3.398   1.122
 3965SOL    HW112794   3.546   3.389   1.135
 3965SOL    HW212795   3.664   3.436   1.031
 3966SOL     OW12796   6.514   4.274   5.626
 3966SOL    HW112797   6.549   4.309   5.539
 3966SOL    HW212798   6.488   4.350   5.685
 3967SOL     OW12799   1.810   6.506   0.055
 3967SOL    HW112800   1.819   6.599   0.090
 3967SOL    HW212801   1.901   6.468   0.037
 3968SOL     OW12802   5.000   2.151   0.967
 3968SOL    HW112803   4.964   2.181   1.056
 3968SOL    HW212804   4.989   2.225   0.900
 3969SOL     OW12805   0.213   6.193   0.808
 3969SOL    HW112806   0.189   6.164   0.900
 3969SOL    HW212807   0.309   6.171   0.789
 3970SOL     OW12808   5.086   4.107   4.433
 3970SOL    HW112809   5.001   4.109   4.486
 3970SOL    HW212810   5.065   4.089   4.337
 3971SOL     OW12811   6.738   6.357   3.873
 3971SOL    HW112812   6.728   6.434   3.810
 3971SOL    HW212813   6.654   6.347   3.927
 3972SOL     OW12814   1.113   0.176   6.001
 3972SOL    HW112815   1.074   0.250   6.057
 3972SOL    HW212816   1.039   0.116   5.971
 3973SOL     OW12817   3.137   3.230   3.466
 3973SOL    HW112818   3.052   3.224   3.413
 3973SOL    HW212819   3.117   3.216   3.563
 3974SOL     OW12820   5.576   1.202   6.779
 3974SOL    HW112821   5.528   1.202   6.691
 3974SOL    HW212822   5.600   1.109   6.804
 3975SOL     OW12823   0.221   6.397   5.406
 3975SOL    HW112824   0.129   6.357   5.402
 3975SOL    HW212825   0.214   6.497   5.405
 3976SOL     OW12826   0.580   2.732   6.628
 3976SOL    HW112827   0.485   2.729   6.598
 3976SOL    HW212828   0.611   2.827   6.628
 3977SOL     OW12829   2.903   5.701   4.744
 3977SOL    HW112830   2.830   5.633   4.759
 3977SOL    HW212831   2.985   5.671   4.793
 3978SOL     OW12832   6.489   3.828   6.948
 3978SOL    HW112833   6.409   3.840   7.007
 3978SOL    HW212834   6.458   3.810   6.854
 3979SOL     OW12835   1.427   6.795   3.166
 3979SOL    HW112836   1.353   6.731   3.149
 3979SOL    HW212837   1.511   6.760   3.126
 3980SOL     OW12838   4.830   3.964   4.090
 3980SOL    HW112839   4.826   3.989   3.993
 3980SOL    HW212840   4.747   3.995   4.136
 3981SOL     OW12841   6.807   1.470   5.948
 3981SOL    HW112842   6.841   1.450   5.856
 3981SOL    HW212843   6.858   1.548   5.986
 3982SOL     OW12844   1.914   2.887   4.191
 3982SOL    HW112845   1.951   2.975   4.163
 3982SOL    HW212846   1.973   2.846   4.261
 3983SOL     OW12847   2.994   6.658   4.036
 3983SOL    HW112848   2.965   6.576   3.987
 3983SOL    HW212849   2.922   6.728   4.030
 3984SOL     OW12850   2.184   6.222   2.060
 3984SOL    HW112851   2.252   6.164   2.015
 3984SOL    HW212852   2.195   6.317   2.029
 3985SOL     OW12853   1.676   2.874   1.983
 3985SOL    HW112854   1.767   2.915   1.972
 3985SOL    HW212855   1.681   2.801   2.051
 3986SOL     OW12856   0.907   2.251   2.094
 3986SOL    HW112857   0.998   2.232   2.057
 3986SOL    HW212858   0.876   2.341   2.064
 3987SOL     OW12859   1.619   4.122   5.207
 3987SOL    HW112860   1.716   4.138   5.226
 3987SOL    HW212861   1.581   4.062   5.277
 3988SOL     OW12862   5.139   0.096   0.921
 3988SOL    HW112863   5.184   0.079   0.834
 3988SOL    HW212864   5.142   0.193   0.943
 3989SOL     OW12865   4.422   0.256   5.813
 3989SOL    HW112866   4.471   0.305   5.740
 3989SOL    HW212867   4.324   0.255   5.792
 3990SOL     OW12868   0.575   2.245   3.647
 3990SOL    HW112869   0.529   2.181   3.585
 3990SOL    HW212870   0.659   2.203   3.681
 3991SOL     OW12871   1.130   2.146   3.667
 3991SOL    HW112872   1.219   2.184   3.643
 3991SOL    HW212873   1.139   2.047   3.682
 3992SOL     OW12874   5.878   3.752   6.787
 3992SOL    HW112875   5.924   3.666   6.766
 3992SOL    HW212876   5.898   3.819   6.714
 3993SOL     OW12877   1.826   0.581   3.913
 3993SOL    HW112878   1.825   0.489   3.952
 3993SOL    HW212879   1.830   0.575   3.813
 3994SOL     OW12880   3.080   1.760   3.389
 3994SOL    HW112881   3.169   1.725   3.418
 3994SOL    HW212882   3.037   1.694   3.327
 3995SOL     OW12883   1.661   3.193   2.244
 3995SOL    HW112884   1.711   3.129   2.187
 3995SOL    HW212885   1.706   3.202   2.333
 3996SOL     OW12886   5.915   6.081   5.002
 3996SOL    HW112887   5.824   6.095   4.962
 3996SOL    HW212888   5.906   6.027   5.085
 3997SOL     OW12889   5.337   3.366   2.832
 3997SOL    HW112890   5.247   3.410   2.827
 3997SOL    HW212891   5.331   3.286   2.892
 3998SOL     OW12892   4.597   1.885   3.410
 3998SOL    HW112893   4.660   1.885   3.487
 3998SOL    HW212894   4.563   1.792   3.394
 3999SOL     OW12895   4.033   3.331   0.916
 3999SOL    HW112896   4.004   3.316   1.010
 3999SOL    HW212897   4.052   3.428   0.902
 4000SOL     OW12898   2.306   4.972   2.615
 4000SOL    HW112899   2.246   5.022   2.552
 4000SOL    HW212900   2.387   5.027   2.635
 4001SOL     OW12901   6.841   5.836   4.623
 4001SOL    HW112902   6.933   5.870   4.638
 4001SOL    HW212903   6.819   5.840   4.525
 4002SOL     OW12904   3.800   3.519   4.152
 4002SOL    HW112905   3.791   3.608   4.106
 4002SOL    HW212906   3.709   3.485   4.177
 4003SOL     OW12907   1.918   0.775   4.672
 4003SOL    HW112908   1.820   0.791   4.661
 4003SOL    HW212909   1.969   0.843   4.619
 4004SOL     OW12910   1.488   4.172   4.196
 4004SOL    HW112911   1.424   4.176   4.273
 4004SOL    HW212912   1.566   4.231   4.214
 4005SOL     OW12913   4.526   3.453   6.601
 4005SOL    HW112914   4.449   3.394   6.621
 4005SOL    HW212915   4.594   3.402   6.548
 4006SOL     OW12916   6.666   5.787   2.164
 4006SOL    HW112917   6.662   5.706   2.105
 4006SOL    HW212918   6.761   5.819   2.170
 4007SOL     OW12919   0.255   0.861   1.944
 4007SOL    HW112920   0.189   0.791   1.918
 4007SOL    HW212921   0.261   0.930   1.873
 4008SOL     OW12922   3.085   1.236   1.201
 4008SOL    HW112923   2.992   1.262   1.175
 4008SOL    HW212924   3.120   1.167   1.138
 4009SOL     OW12925   4.846   2.298   0.405
 4009SOL    HW112926   4.776   2.228   0.391
 4009SOL    HW212927   4.806   2.388   0.389
 4010SOL     OW12928   1.779   4.668   1.432
 4010SOL    HW112929   1.863   4.617   1.414
 4010SOL    HW212930   1.802   4.761   1.461
 4011SOL     OW12931   6.365   5.661   6.102
 4011SOL    HW112932   6.286   5.639   6.045
 4011SOL    HW212933   6.339   5.725   6.174
 4012SOL     OW12934   5.359   6.376   2.872
 4012SOL    HW112935   5.437   6.323   2.907
 4012SOL    HW212936   5.276   6.322   2.879
 4013SOL     OW12937   0.128   1.655   6.331
 4013SOL    HW112938   0.194   1.580   6.339
 4013SOL    HW212939   0.117   1.681   6.236
 4014SOL     OW12940   3.344   5.022   2.038
 4014SOL    HW112941   3.350   5.039   1.940
 4014SOL    HW212942   3.249   5.000   2.062
 4015SOL     OW12943   4.100   5.050   6.363
 4015SOL    HW112944   4.101   5.022   6.267
 4015SOL    HW212945   4.039   5.127   6.375
 4016SOL     OW12946   5.077   4.837   5.113
 4016SOL    HW112947   5.070   4.852   5.014
 4016SOL    HW212948   5.170   4.858   5.143
 4017SOL     OW12949   1.059   4.747   5.996
 4017SOL    HW112950   1.107   4.834   6.011
 4017SOL    HW212951   1.124   4.672   6.003
 4018SOL     OW12952   3.906   6.164   0.810
 4018SOL    HW112953   3.958   6.181   0.726
 4018SOL    HW212954   3.875   6.250   0.849
 4019SOL     OW12955   6.164   3.920   2.350
 4019SOL    HW112956   6.073   3.881   2.337
 4019SOL    HW212957   6.182   3.987   2.278
 4020SOL     OW12958   6.386   5.121   4.695
 4020SOL    HW112959   6.385   5.220   4.684
 4020SOL    HW212960   6.383   5.098   4.792
 4021SOL     OW12961   4.894   4.324   6.328
 4021SOL    HW112962   4.939   4.405   6.291
 4021SOL    HW212963   4.954   4.245   6.319
 4022SOL     OW12964   3.097   6.368   1.431
 4022SOL    HW112965   3.031   6.402   1.365
 4022SOL    HW212966   3.161   6.441   1.456
 4023SOL     OW12967   0.757   1.596   4.646
 4023SOL    HW112968   0.846   1.571   4.607
 4023SOL    HW212969   0.771   1.661   4.721
 4024SOL     OW12970   0.464   6.605   4.830
 4024SOL    HW112971   0.456   6.676   4.899
 4024SOL    HW212972   0.515   6.639   4.751
 4025SOL     OW12973   6.588   5.578   3.579
 4025SOL    HW112974   6.586   5.569   3.479
 4025SOL    HW212975   6.499   5.554   3.616
 4026SOL     OW12976   0.574   6.778   4.617
 4026SOL    HW112977   0.542   6.708   4.553
 4026SOL    HW212978   0.520   6.862   4.604
 4027SOL     OW12979   3.198   5.090   5.153
 4027SOL    HW112980   3.229   5.152   5.225
 4027SOL    HW212981   3.098   5.082   5.156
 4028SOL     OW12982   4.693   0.791   3.508
 4028SOL    HW112983   4.682   0.810   3.411
 4028SOL    HW212984   4.777   0.740   3.524
 4029SOL     OW12985   1.746   6.219   0.258
 4029SOL    HW112986   1.782   6.309   0.284
 4029SOL    HW212987   1.714   6.222   0.163
 4030SOL     OW12988   0.618   1.506   2.156
 4030SOL    HW112989   0.579   1.581   2.209
 4030SOL    HW212990   0.714   1.524   2.136
 4031SOL     OW12991   6.011   6.326   0.635
 4031SOL    HW112992   6.069   6.247   0.615
 4031SOL    HW212993   5.924   6.316   0.587
 4032SOL     OW12994   5.056   0.483   2.446
 4032SOL    HW112995   5.136   0.431   2.418
 4032SOL    HW212996   5.068   0.514   2.540
 4033SOL     OW12997   1.727   2.382   2.400
 4033SOL    HW112998   1.819   2.402   2.365
 4033SOL    HW212999   1.669   2.463   2.390
 4034SOL     OW13000   0.870   2.886   5.414
 4034SOL    HW113001   0.943   2.898   5.347
 4034SOL    HW213002   0.876   2.794   5.454
 4035SOL     OW13003   4.503   2.059   1.716
 4035SOL    HW113004   4.443   2.008   1.654
 4035SOL    HW213005   4.471   2.049   1.810
 4036SOL     OW13006   2.942   5.571   3.172
 4036SOL    HW113007   3.004   5.569   3.250
 4036SOL    HW213008   2.855   5.528   3.197
 4037SOL     OW13009   2.666   1.420   5.737
 4037SOL    HW113010   2.653   1.517   5.759
 4037SOL    HW213011   2.653   1.365   5.819
 4038SOL     OW13012   3.406   4.766   5.508
 4038SOL    HW113013   3.362   4.747   5.421
 4038SOL    HW213014   3.450   4.683   5.542
 4039SOL     OW13015   5.337   5.337   1.259
 4039SOL    HW113016   5.427   5.318   1.299
 4039SOL    HW213017   5.303   5.425   1.291
 4040SOL     OW13018   3.126   6.565   5.140
 4040SOL    HW113019   3.210   6.579   5.192
 4040SOL    HW213020   3.067   6.500   5.189
 4041SOL     OW13021   2.303   6.620   1.482
 4041SOL    HW113022   2.237   6.566   1.534
 4041SOL    HW213023   2.378   6.649   1.542
 4042SOL     OW13024   6.836   1.233   2.706
 4042SOL    HW113025   6.810   1.168   2.634
 4042SOL    HW213026   6.904   1.297   2.670
 4043SOL     OW13027   5.400   3.127   6.111
 4043SOL    HW113028   5.368   3.093   6.022
 4043SOL    HW213029   5.325   3.123   6.177
 4044SOL     OW13030   4.921   4.293   3.169
 4044SOL    HW113031   4.977   4.258   3.094
 4044SOL    HW213032   4.862   4.220   3.204
 4045SOL     OW13033   5.096   0.983   5.377
 4045SOL    HW113034   5.024   1.050   5.389
 4045SOL    HW213035   5.185   1.027   5.386
 4046SOL     OW13036   5.380   1.811   3.388
 4046SOL    HW113037   5.453   1.773   3.331
 4046SOL    HW213038   5.313   1.858   3.330
 4047SOL     OW13039   2.697   2.728   6.541
 4047SOL    HW113040   2.655   2.639   6.558
 4047SOL    HW213041   2.662   2.766   6.455
 4048SOL     OW13042   4.907   1.764   2.391
 4048SOL    HW113043   4.910   1.677   2.440
 4048SOL    HW213044   4.811   1.788   2.372
 4049SOL     OW13045   4.357   4.304   0.701
 4049SOL    HW113046   4.336   4.272   0.794
 4049SOL    HW213047   4.444   4.353   0.701
 4050SOL     OW13048   0.987   5.617   2.084
 4050SOL    HW113049   0.977   5.717   2.080
 4050SOL    HW213050   1.080   5.594   2.112
 4051SOL     OW13051   5.625   1.204   4.952
 4051SOL    HW113052   5.671   1.219   4.864
 4051SOL    HW213053   5.606   1.292   4.995
 4052SOL     OW13054   5.807   1.712   3.228
 4052SOL    HW113055   5.798   1.612   3.232
 4052SOL    HW213056   5.900   1.737   3.258
 4053SOL     OW13057   1.077   5.382   4.027
 4053SOL    HW113058   1.163   5.332   4.026
 4053SOL    HW213059   1.001   5.319   4.014
 4054SOL     OW13060   4.002   3.521   1.443
 4054SOL    HW113061   3.953   3.567   1.370
 4054SOL    HW213062   4.044   3.437   1.407
 4055SOL     OW13063   0.255   3.912   0.148
 4055SOL    HW113064   0.252   3.997   0.200
 4055SOL    HW213065   0.332   3.914   0.084
 4056SOL     OW13066   4.822   3.644   0.005
 4056SOL    HW113067   4.728   3.622   0.033
 4056SOL    HW213068   4.841   3.740   0.026
 4057SOL     OW13069   0.285   3.691   0.301
 4057SOL    HW113070   0.264   3.777   0.255
 4057SOL    HW213071   0.369   3.653   0.264
 4058SOL     OW13072   2.478   0.528   5.374
 4058SOL    HW113073   2.456   0.566   5.284
 4058SOL    HW213074   2.542   0.452   5.362
 4059SOL     OW13075   0.654   1.244   3.912
 4059SOL    HW113076   0.611   1.243   4.002
 4059SOL    HW213077   0.739   1.297   3.916
 4060SOL     OW13078   6.853   6.288   4.883
 4060SOL    HW113079   6.765   6.308   4.839
 4060SOL    HW213080   6.918   6.361   4.862
 4061SOL     OW13081   1.031   5.366   0.625
 4061SOL    HW113082   1.021   5.413   0.712
 4061SOL    HW213083   0.968   5.407   0.558
 4062SOL     OW13084   2.029   2.967   1.556
 4062SOL    HW113085   1.957   2.995   1.620
 4062SOL    HW213086   2.091   3.044   1.541
 4063SOL     OW13087   4.214   0.563   0.179
 4063SOL    HW113088   4.295   0.516   0.143
 4063SOL    HW213089   4.241   0.621   0.256
 4064SOL     OW13090   1.794   1.333   5.868
 4064SOL    HW113091   1.734   1.254   5.860
 4064SOL    HW213092   1.807   1.355   5.964
 4065SOL     OW13093   2.969   6.554   0.802
 4065SOL    HW113094   2.940   6.461   0.826
 4065SOL    HW213095   2.889   6.614   0.802
 4066SOL     OW13096   0.913   3.752   3.691
 4066SOL    HW113097   0.956   3.662   3.684
 4066SOL    HW213098   0.844   3.750   3.763
 4067SOL     OW13099   5.421   5.134   0.294
 4067SOL    HW113100   5.421   5.038   0.265
 4067SOL    HW213101   5.326   5.166   0.302
 4068SOL     OW13102   2.258   2.959   4.648
 4068SOL    HW113103   2.328   2.893   4.675
 4068SOL    HW213104   2.214   2.997   4.730
 4069SOL     OW13105   4.130   6.631   6.481
 4069SOL    HW113106   4.171   6.652   6.569
 4069SOL    HW213107   4.069   6.553   6.490
 4070SOL     OW13108   1.426   3.443   3.757
 4070SOL    HW113109   1.378   3.396   3.831
 4070SOL    HW213110   1.493   3.380   3.716
 4071SOL     OW13111   1.382   0.765   3.803
 4071SOL    HW113112   1.309   0.833   3.812
 4071SOL    HW213113   1.348   0.676   3.834
 4072SOL     OW13114   2.561   5.343   3.197
 4072SOL    HW113115   2.627   5.276   3.163
 4072SOL    HW213116   2.588   5.435   3.168
 4073SOL     OW13117   3.814   4.529   0.134
 4073SOL    HW113118   3.780   4.589   0.061
 4073SOL    HW213119   3.742   4.514   0.201
 4074SOL     OW13120   1.607   5.354   2.722
 4074SOL    HW113121   1.521   5.345   2.773
 4074SOL    HW213122   1.655   5.437   2.750
 4075SOL     OW13123   6.585   1.268   0.961
 4075SOL    HW113124   6.493   1.253   0.998
 4075SOL    HW213125   6.635   1.332   1.020
 4076SOL     OW13126   2.272   4.294   5.161
 4076SOL    HW113127   2.352   4.349   5.184
 4076SOL    HW213128   2.301   4.201   5.138
 4077SOL     OW13129   3.083   0.725   1.599
 4077SOL    HW113130   3.086   0.825   1.587
 4077SOL    HW213131   3.170   0.686   1.571
 4078SOL     OW13132   3.050   4.857   2.555
 4078SOL    HW113133   3.123   4.853   2.487
 4078SOL    HW213134   3.090   4.850   2.647
 4079SOL     OW13135   0.922   1.845   4.243
 4079SOL    HW113136   0.909   1.808   4.335
 4079SOL    HW213137   0.847   1.907   4.221
 4080SOL     OW13138   6.289   1.573   5.117
 4080SOL    HW113139   6.354   1.563   5.041
 4080SOL    HW213140   6.269   1.482   5.155
 4081SOL     OW13141   1.906   3.422   3.911
 4081SOL    HW113142   1.929   3.394   3.818
 4081SOL    HW213143   1.847   3.353   3.953
 4082SOL     OW13144   0.991   3.124   1.322
 4082SOL    HW113145   1.075   3.155   1.365
 4082SOL    HW213146   1.009   3.042   1.268
 4083SOL     OW13147   5.648   2.591   4.636
 4083SOL    HW113148   5.663   2.537   4.553
 4083SOL    HW213149   5.593   2.538   4.700
 4084SOL     OW13150   0.550   1.535   4.213
 4084SOL    HW113151   0.588   1.613   4.164
 4084SOL    HW213152   0.590   1.450   4.178
 4085SOL     OW13153   2.675   6.238   0.580
 4085SOL    HW113154   2.693   6.325   0.534
 4085SOL    HW213155   2.597   6.248   0.642
 4086SOL     OW13156   1.228   5.181   0.585
 4086SOL    HW113157   1.317   5.203   0.626
 4086SOL    HW213158   1.161   5.251   0.612
 4087SOL     OW13159   1.423   1.706   2.632
 4087SOL    HW113160   1.416   1.660   2.721
 4087SOL    HW213161   1.386   1.799   2.639
 4088SOL     OW13162   6.535   2.020   0.716
 4088SOL    HW113163   6.592   2.089   0.760
 4088SOL    HW213164   6.483   2.062   0.642
 4089SOL     OW13165   0.847   1.222   5.254
 4089SOL    HW113166   0.882   1.271   5.174
 4089SOL    HW213167   0.879   1.128   5.252
 4090SOL     OW13168   1.943   4.690   5.535
 4090SOL    HW113169   2.011   4.682   5.608
 4090SOL    HW213170   1.981   4.652   5.451
 4091SOL     OW13171   4.794   6.210   0.528
 4091SOL    HW113172   4.762   6.126   0.485
 4091SOL    HW213173   4.881   6.193   0.574
 4092SOL     OW13174   0.363   2.292   4.714
 4092SOL    HW113175   0.282   2.283   4.771
 4092SOL    HW213176   0.371   2.386   4.681
 4093SOL     OW13177   5.855   0.875   4.694
 4093SOL    HW113178   5.785   0.851   4.762
 4093SOL    HW213179   5.914   0.947   4.731
 4094SOL     OW13180   2.742   4.505   5.337
 4094SOL    HW113181   2.801   4.518   5.258
 4094SOL    HW213182   2.756   4.580   5.402
 4095SOL     OW13183   1.389   3.793   6.255
 4095SOL    HW113184   1.289   3.797   6.243
 4095SOL    HW213185   1.426   3.719   6.199
 4096SOL     OW13186   4.311   4.837   2.028
 4096SOL    HW113187   4.317   4.935   2.014
 4096SOL    HW213188   4.248   4.797   1.962
 4097SOL     OW13189   3.253   3.721   5.168
 4097SOL    HW113190   3.348   3.752   5.159
 4097SOL    HW213191   3.248   3.624   5.144
 4098SOL     OW13192   0.362   1.961   2.526
 4098SOL    HW113193   0.400   1.932   2.614
 4098SOL    HW213194   0.436   1.989   2.464
 4099SOL     OW13195   4.061   6.282   1.874
 4099SOL    HW113196   4.001   6.208   1.903
 4099SOL    HW213197   4.148   6.244   1.842
 4100SOL     OW13198   3.898   5.883   3.027
 4100SOL    HW113199   3.862   5.891   3.120
 4100SOL    HW213200   3.929   5.973   2.996
 4101SOL     OW13201   5.257   0.963   6.203
 4101SOL    HW113202   5.341   0.989   6.250
 4101SOL    HW213203   5.184   0.948   6.270
 4102SOL     OW13204   5.964   1.339   0.821
 4102SOL    HW113205   6.058   1.338   0.788
 4102SOL    HW213206   5.924   1.429   0.805
 4103SOL     OW13207   0.411   0.417   2.156
 4103SOL    HW113208   0.412   0.353   2.232
 4103SOL    HW213209   0.463   0.498   2.179
 4104SOL     OW13210   1.709   4.872   2.940
 4104SOL    HW113211   1.788   4.811   2.945
 4104SOL    HW213212   1.731   4.950   2.881
 4105SOL     OW13213   5.057   4.975   0.128
 4105SOL    HW113214   4.990   5.047   0.111
 4105SOL    HW213215   5.012   4.887   0.134
 4106SOL     OW13216   6.780   3.907   4.900
 4106SOL    HW113217   6.779   4.001   4.868
 4106SOL    HW213218   6.779   3.845   4.821
 4107SOL     OW13219   6.956   0.902   1.139
 4107SOL    HW113220   6.961   0.815   1.188
 4107SOL    HW213221   7.014   0.897   1.057
 4108SOL     OW13222   6.439   3.448   5.552
 4108SOL    HW113223   6.519   3.440   5.611
 4108SOL    HW213224   6.459   3.404   5.464
 4109SOL     OW13225   3.369   6.258   3.578
 4109SOL    HW113226   3.432   6.182   3.563
 4109SOL    HW213227   3.357   6.309   3.492
 4110SOL     OW13228   4.868   3.330   5.748
 4110SOL    HW113229   4.968   3.321   5.739
 4110SOL    HW213230   4.837   3.409   5.696
 4111SOL     OW13231   4.429   3.080   6.956
 4111SOL    HW113232   4.490   3.056   6.881
 4111SOL    HW213233   4.460   3.167   6.997
 4112SOL     OW13234   3.848   1.099   4.270
 4112SOL    HW113235   3.778   1.146   4.323
 4112SOL    HW213236   3.818   1.091   4.175
 4113SOL     OW13237   3.856   5.449   4.553
 4113SOL    HW113238   3.889   5.363   4.592
 4113SOL    HW213239   3.880   5.453   4.456
 4114SOL     OW13240   2.858   1.905   2.435
 4114SOL    HW113241   2.895   1.979   2.379
 4114SOL    HW213242   2.768   1.878   2.400
 4115SOL     OW13243   5.279   4.923   1.844
 4115SOL    HW113244   5.349   4.914   1.915
 4115SOL    HW213245   5.189   4.934   1.888
 4116SOL     OW13246   2.804   1.029   2.186
 4116SOL    HW113247   2.754   1.068   2.262
 4116SOL    HW213248   2.833   0.936   2.209
 4117SOL     OW13249   1.165   5.970   1.571
 4117SOL    HW113250   1.070   6.001   1.569
 4117SOL    HW213251   1.215   6.012   1.495
 4118SOL     OW13252   2.363   6.856   0.105
 4118SOL    HW113253   2.428   6.891   0.037
 4118SOL    HW213254   2.389   6.889   0.196
 4119SOL     OW13255   4.143   0.965   3.470
 4119SOL    HW113256   4.243   0.964   3.465
 4119SOL    HW213257   4.113   1.052   3.510
 4120SOL     OW13258   3.960   0.888   1.584
 4120SOL    HW113259   3.878   0.844   1.620
 4120SOL    HW213260   4.040   0.833   1.608
 4121SOL     OW13261   6.354   2.931   4.962
 4121SOL    HW113262   6.260   2.963   4.949
 4121SOL    HW213263   6.391   2.900   4.874
 4122SOL     OW13264   1.398   5.870   6.210
 4122SOL    HW113265   1.315   5.898   6.162
 4122SOL    HW213266   1.436   5.788   6.167
 4123SOL     OW13267   5.412   3.650   6.565
 4123SOL    HW113268   5.483   3.665   6.634
 4123SOL    HW213269   5.362   3.735   6.550
 4124SOL     OW13270   4.783   6.762   3.825
 4124SOL    HW113271   4.841   6.806   3.892
 4124SOL    HW213272   4.811   6.789   3.733
 4125SOL     OW13273   5.046   1.447   1.262
 4125SOL    HW113274   4.974   1.442   1.193
 4125SOL    HW213275   5.080   1.541   1.269
 4126SOL     OW13276   1.984   4.835   4.197
 4126SOL    HW113277   2.083   4.839   4.212
 4126SOL    HW213278   1.966   4.781   4.114
 4127SOL     OW13279   6.618   3.682   5.580
 4127SOL    HW113280   6.528   3.721   5.600
 4127SOL    HW213281   6.635   3.605   5.642
 4128SOL     OW13282   0.916   2.010   2.981
 4128SOL    HW113283   1.010   1.983   3.001
 4128SOL    HW213284   0.868   2.029   3.067
 4129SOL     OW13285   5.732   2.379   5.924
 4129SOL    HW113286   5.632   2.374   5.927
 4129SOL    HW213287   5.765   2.317   5.853
 4130SOL     OW13288   5.709   3.739   0.870
 4130SOL    HW113289   5.710   3.654   0.922
 4130SOL    HW213290   5.663   3.725   0.783
 4131SOL     OW13291   6.377   4.624   3.347
 4131SOL    HW113292   6.299   4.561   3.348
 4131SOL    HW213293   6.405   4.643   3.253
 4132SOL     OW13294   5.122   2.371   3.703
 4132SOL    HW113295   5.074   2.401   3.786
 4132SOL    HW213296   5.220   2.382   3.716
 4133SOL     OW13297   3.000   1.650   1.253
 4133SOL    HW113298   3.095   1.660   1.284
 4133SOL    HW213299   2.940   1.646   1.333
 4134SOL     OW13300   0.856   1.270   6.864
 4134SOL    HW113301   0.903   1.289   6.950
 4134SOL    HW213302   0.806   1.351   6.835
 4135SOL     OW13303   1.144   0.877   1.299
 4135SOL    HW113304   1.140   0.954   1.364
 4135SOL    HW213305   1.074   0.810   1.323
 4136SOL     OW13306   1.366   2.254   3.496
 4136SOL    HW113307   1.419   2.171   3.477
 4136SOL    HW213308   1.314   2.279   3.415
 4137SOL     OW13309   3.148   4.301   6.282
 4137SOL    HW113310   3.188   4.382   6.239
 4137SOL    HW213311   3.123   4.235   6.212
 4138SOL     OW13312   4.414   4.930   3.443
 4138SOL    HW113313   4.351   4.940   3.366
 4138SOL    HW213314   4.437   5.021   3.479
 4139SOL     OW13315   2.089   1.180   6.666
 4139SOL    HW113316   2.134   1.229   6.740
 4139SOL    HW213317   2.109   1.082   6.674
 4140SOL     OW13318   4.504   1.192   5.027
 4140SOL    HW113319   4.409   1.193   4.993
 4140SOL    HW213320   4.521   1.276   5.078
 4141SOL     OW13321   5.143   5.494   0.501
 4141SOL    HW113322   5.177   5.588   0.489
 4141SOL    HW213323   5.206   5.443   0.560
 4142SOL     OW13324   6.406   3.828   1.558
 4142SOL    HW113325   6.411   3.774   1.474
 4142SOL    HW213326   6.458   3.782   1.630
 4143SOL     OW13327   0.319   2.679   1.150
 4143SOL    HW113328   0.403   2.716   1.191
 4143SOL    HW213329   0.332   2.669   1.051
 4144SOL     OW13330   4.603   0.496   2.615
 4144SOL    HW113331   4.590   0.590   2.582
 4144SOL    HW213332   4.653   0.443   2.546
 4145SOL     OW13333   2.408   6.878   2.958
 4145SOL    HW113334   2.328   6.914   3.006
 4145SOL    HW213335   2.451   6.951   2.905
 4146SOL     OW13336   5.325   5.907   0.389
 4146SOL    HW113337   5.412   5.859   0.403
 4146SOL    HW213338   5.249   5.844   0.406
 4147SOL     OW13339   3.367   2.279   5.638
 4147SOL    HW113340   3.303   2.244   5.707
 4147SOL    HW213341   3.326   2.269   5.547
 4148SOL     OW13342   6.088   0.387   3.547
 4148SOL    HW113343   6.083   0.423   3.454
 4148SOL    HW213344   6.181   0.358   3.567
 4149SOL     OW13345   5.609   3.800   1.831
 4149SOL    HW113346   5.597   3.861   1.753
 4149SOL    HW213347   5.705   3.774   1.839
 4150SOL     OW13348   4.856   0.493   6.242
 4150SOL    HW113349   4.901   0.432   6.308
 4150SOL    HW213350   4.769   0.524   6.279
 4151SOL     OW13351   0.760   5.492   0.898
 4151SOL    HW113352   0.857   5.478   0.921
 4151SOL    HW213353   0.720   5.406   0.867
 4152SOL     OW13354   3.306   4.066   1.306
 4152SOL    HW113355   3.283   4.047   1.401
 4152SOL    HW213356   3.227   4.107   1.260
 4153SOL     OW13357   6.516   4.988   5.865
 4153SOL    HW113358   6.433   5.002   5.919
 4153SOL    HW213359   6.596   5.003   5.923
 4154SOL     OW13360   5.160   3.392   5.760
 4154SOL    HW113361   5.242   3.402   5.816
 4154SOL    HW213362   5.162   3.303   5.713
 4155SOL     OW13363   0.953   3.005   1.723
 4155SOL    HW113364   0.860   3.010   1.686
 4155SOL    HW213365   1.001   3.091   1.704
 4156SOL     OW13366   6.040   0.115   5.778
 4156SOL    HW113367   5.980   0.159   5.711
 4156SOL    HW213368   5.985   0.071   5.848
 4157SOL     OW13369   3.455   0.601   5.099
 4157SOL    HW113370   3.543   0.641   5.070
 4157SOL    HW213371   3.381   0.649   5.052
 4158SOL     OW13372   1.032   6.641   3.989
 4158SOL    HW113373   1.132   6.643   3.999
 4158SOL    HW213374   1.007   6.569   3.923
 4159SOL     OW13375   0.953   2.681   5.064
 4159SOL    HW113376   1.029   2.736   5.098
 4159SOL    HW213377   0.881   2.741   5.029
 4160SOL     OW13378   1.459   1.232   0.753
 4160SOL    HW113379   1.419   1.155   0.703
 4160SOL    HW213380   1.415   1.241   0.842
 4161SOL     OW13381   6.224   2.125   0.366
 4161SOL    HW113382   6.139   2.169   0.339
 4161SOL    HW213383   6.244   2.049   0.303
 4162SOL     OW13384   6.343   0.349   5.524
 4162SOL    HW113385   6.349   0.307   5.614
 4162SOL    HW213386   6.295   0.288   5.461
 4163SOL     OW13387   5.686   1.610   4.304
 4163SOL    HW113388   5.618   1.548   4.343
 4163SOL    HW213389   5.733   1.564   4.228
 4164SOL     OW13390   2.474   0.317   5.933
 4164SOL    HW113391   2.430   0.364   5.857
 4164SOL    HW213392   2.423   0.335   6.017
 4165SOL     OW13393   3.884   6.316   2.093
 4165SOL    HW113394   3.943   6.357   2.163
 4165SOL    HW213395   3.812   6.381   2.068
 4166SOL     OW13396   5.660   3.136   0.829
 4166SOL    HW113397   5.724   3.076   0.878
 4166SOL    HW213398   5.665   3.115   0.731
 4167SOL     OW13399   1.972   2.663   1.515
 4167SOL    HW113400   1.887   2.715   1.506
 4167SOL    HW213401   2.030   2.705   1.585
 4168SOL     OW13402   1.565   5.073   0.849
 4168SOL    HW113403   1.510   4.991   0.865
 4168SOL    HW213404   1.519   5.131   0.781
 4169SOL     OW13405   5.899   3.532   4.732
 4169SOL    HW113406   5.818   3.588   4.714
 4169SOL    HW213407   5.934   3.495   4.646
 4170SOL     OW13408   4.648   2.498   5.522
 4170SOL    HW113409   4.551   2.496   5.548
 4170SOL    HW213410   4.676   2.592   5.503
 4171SOL     OW13411   6.072   3.756   1.790
 4171SOL    HW113412   5.990   3.724   1.838
 4171SOL    HW213413   6.102   3.842   1.830
 4172SOL     OW13414   1.766   1.792   0.562
 4172SOL    HW113415   1.677   1.831   0.539
 4172SOL    HW213416   1.768   1.769   0.659
 4173SOL     OW13417   5.382   3.694   5.467
 4173SOL    HW113418   5.403   3.791   5.479
 4173SOL    HW213419   5.299   3.672   5.517
 4174SOL     OW13420   4.727   0.948   4.672
 4174SOL    HW113421   4.726   0.848   4.660
 4174SOL    HW213422   4.777   0.971   4.755
 4175SOL     OW13423   3.295   1.247   3.161
 4175SOL    HW113424   3.208   1.250   3.112
 4175SOL    HW213425   3.356   1.179   3.118
 4176SOL     OW13426   5.628   6.191   2.775
 4176SOL    HW113427   5.726   6.180   2.759
 4176SOL    HW213428   5.614   6.257   2.849
 4177SOL     OW13429   6.945   5.604   2.571
 4177SOL    HW113430   0.004   5.636   2.627
 4177SOL    HW213431   6.889   5.683   2.544
 4178SOL     OW13432   4.130   2.306   5.766
 4178SOL    HW113433   4.198   2.336   5.833
 4178SOL    HW213434   4.052   2.368   5.767
 4179SOL     OW13435   5.710   3.237   5.916
 4179SOL    HW113436   5.752   3.206   6.001
 4179SOL    HW213437   5.673   3.330   5.929
 4180SOL     OW13438   4.193   3.869   1.858
 4180SOL    HW113439   4.242   3.880   1.945
 4180SOL    HW213440   4.199   3.953   1.805
 4181SOL     OW13441   0.200   1.344   6.915
 4181SOL    HW113442   0.279   1.369   6.859
 4181SOL    HW213443   0.230   1.328   7.009
 4182SOL     OW13444   5.273   1.221   3.646
 4182SOL    HW113445   5.358   1.203   3.696
 4182SOL    HW213446   5.220   1.137   3.639
 4183SOL     OW13447   1.568   1.895   1.162
 4183SOL    HW113448   1.485   1.913   1.109
 4183SOL    HW213449   1.592   1.799   1.155
 4184SOL     OW13450   4.717   5.446   0.459
 4184SOL    HW113451   4.762   5.400   0.536
 4184SOL    HW213452   4.618   5.450   0.476
 4185SOL     OW13453   0.448   6.960   4.292
 4185SOL    HW113454   0.472   6.979   4.387
 4185SOL    HW213455   0.374   0.003   4.264
 4186SOL     OW13456   3.022   4.460   1.203
 4186SOL    HW113457   3.103   4.450   1.260
 4186SOL    HW213458   2.940   4.460   1.261
 4187SOL     OW13459   4.406   4.185   6.762
 4187SOL    HW113460   4.498   4.160   6.734
 4187SOL    HW213461   4.346   4.190   6.682
 4188SOL     OW13462   4.790   6.694   4.678
 4188SOL    HW113463   4.813   6.672   4.772
 4188SOL    HW213464   4.735   6.621   4.638
 4189SOL     OW13465   2.371   2.742   3.736
 4189SOL    HW113466   2.349   2.769   3.829
 4189SOL    HW213467   2.431   2.662   3.738
 4190SOL     OW13468   2.981   0.342   1.467
 4190SOL    HW113469   3.019   0.370   1.379
 4190SOL    HW213470   2.995   0.414   1.534
 4191SOL     OW13471   6.347   2.134   2.501
 4191SOL    HW113472   6.319   2.069   2.430
 4191SOL    HW213473   6.318   2.101   2.590
 4192SOL     OW13474   6.238   1.671   3.139
 4192SOL    HW113475   6.213   1.574   3.142
 4192SOL    HW213476   6.220   1.713   3.228
 4193SOL     OW13477   1.675   0.189   1.982
 4193SOL    HW113478   1.725   0.220   1.901
 4193SOL    HW213479   1.736   0.136   2.040
 4194SOL     OW13480   0.466   0.593   4.449
 4194SOL    HW113481   0.418   0.506   4.454
 4194SOL    HW213482   0.563   0.579   4.466
 4195SOL     OW13483   5.021   0.877   1.860
 4195SOL    HW113484   4.996   0.849   1.767
 4195SOL    HW213485   4.970   0.960   1.883
 4196SOL     OW13486   4.690   2.684   3.564
 4196SOL    HW113487   4.665   2.640   3.651
 4196SOL    HW213488   4.620   2.664   3.496
 4197SOL     OW13489   4.557   4.410   4.042
 4197SOL    HW113490   4.544   4.461   4.126
 4197SOL    HW213491   4.506   4.454   3.968
 4198SOL     OW13492   6.106   3.927   5.800
 4198SOL    HW113493   6.167   3.958   5.727
 4198SOL    HW213494   6.157   3.922   5.886
 4199SOL     OW13495   3.186   4.044   5.105
 4199SOL    HW113496   3.187   4.068   5.008
 4199SOL    HW213497   3.095   4.012   5.130
 4200SOL     OW13498   2.310   7.016   6.166
 4200SOL    HW113499   2.294   6.920   6.189
 4200SOL    HW213500   2.408   0.018   6.173
 4201SOL     OW13501   6.124   6.502   4.376
 4201SOL    HW113502   6.084   6.465   4.460
 4201SOL    HW213503   6.210   6.454   4.357
 4202SOL     OW13504   5.269   4.378   4.781
 4202SOL    HW113505   5.270   4.333   4.692
 4202SOL    HW213506   5.362   4.388   4.815
 4203SOL     OW13507   5.257   5.207   3.731
 4203SOL    HW113508   5.282   5.110   3.737
 4203SOL    HW213509   5.196   5.230   3.806
 4204SOL     OW13510   3.133   4.042   0.559
 4204SOL    HW113511   3.076   4.110   0.605
 4204SOL    HW213512   3.120   4.049   0.460
 4205SOL     OW13513   2.775   5.259   2.786
 4205SOL    HW113514   2.818   5.172   2.809
 4205SOL    HW213515   2.796   5.283   2.691
 4206SOL     OW13516   5.941   6.966   4.734
 4206SOL    HW113517   6.031   6.936   4.768
 4206SOL    HW213518   5.879   6.980   4.811
 4207SOL     OW13519   0.916   0.712   1.290
 4207SOL    HW113520   0.890   0.623   1.327
 4207SOL    HW213521   0.851   0.781   1.322
 4208SOL     OW13522   0.768   3.329   1.462
 4208SOL    HW113523   0.808   3.392   1.530
 4208SOL    HW213524   0.841   3.277   1.419
 4209SOL     OW13525   3.116   0.040   4.701
 4209SOL    HW113526   3.035   0.094   4.720
 4209SOL    HW213527   3.197   0.091   4.730
 4210SOL     OW13528   5.260   2.712   0.463
 4210SOL    HW113529   5.197   2.776   0.507
 4210SOL    HW213530   5.226   2.688   0.372
 4211SOL     OW13531   4.948   4.070   3.588
 4211SOL    HW113532   4.984   4.161   3.606
 4211SOL    HW213533   4.991   4.033   3.505
 4212SOL     OW13534   6.498   7.017   2.486
 4212SOL    HW113535   6.470   7.008   2.391
 4212SOL    HW213536   6.469   0.088   2.521
 4213SOL     OW13537   0.822   0.630   2.261
 4213SOL    HW113538   0.726   0.642   2.239
 4213SOL    HW213539   0.832   0.606   2.358
 4214SOL     OW13540   1.991   4.270   4.487
 4214SOL    HW113541   1.991   4.305   4.394
 4214SOL    HW213542   2.030   4.338   4.549
 4215SOL     OW13543   0.672   5.294   4.601
 4215SOL    HW113544   0.705   5.335   4.515
 4215SOL    HW213545   0.729   5.215   4.623
 4216SOL     OW13546   2.340   3.455   5.341
 4216SOL    HW113547   2.252   3.453   5.388
 4216SOL    HW213548   2.362   3.364   5.308
 4217SOL     OW13549   6.724   0.659   3.084
 4217SOL    HW113550   6.802   0.710   3.048
 4217SOL    HW213551   6.751   0.611   3.167
 4218SOL     OW13552   3.137   6.608   2.898
 4218SOL    HW113553   3.112   6.513   2.881
 4218SOL    HW213554   3.163   6.619   2.994
 4219SOL     OW13555   4.842   6.271   3.580
 4219SOL    HW113556   4.776   6.334   3.620
 4219SOL    HW213557   4.804   6.179   3.578
 4220SOL     OW13558   0.441   3.762   3.494
 4220SOL    HW113559   0.496   3.697   3.545
 4220SOL    HW213560   0.359   3.717   3.460
 4221SOL     OW13561   5.537   5.555   5.919
 4221SOL    HW113562   5.490   5.643   5.914
 4221SOL    HW213563   5.572   5.541   6.012
 4222SOL     OW13564   4.175   2.369   0.031
 4222SOL    HW113565   4.081   2.369   0.063
 4222SOL    HW213566   4.238   2.367   0.109
 4223SOL     OW13567   3.645   4.053   2.985
 4223SOL    HW113568   3.695   4.096   2.910
 4223SOL    HW213569   3.547   4.068   2.973
 4224SOL     OW13570   4.424   2.115   5.225
 4224SOL    HW113571   4.401   2.212   5.233
 4224SOL    HW213572   4.425   2.088   5.129
 4225SOL     OW13573   5.205   0.627   4.821
 4225SOL    HW113574   5.143   0.671   4.886
 4225SOL    HW213575   5.300   0.640   4.851
 4226SOL     OW13576   1.544   0.733   3.364
 4226SOL    HW113577   1.574   0.827   3.380
 4226SOL    HW213578   1.538   0.685   3.451
 4227SOL     OW13579   5.819   4.275   0.327
 4227SOL    HW113580   5.887   4.341   0.293
 4227SOL    HW213581   5.752   4.323   0.384
 4228SOL     OW13582   6.026   5.621   2.470
 4228SOL    HW113583   5.958   5.563   2.514
 4228SOL    HW213584   5.990   5.658   2.385
 4229SOL     OW13585   4.982   4.847   5.651
 4229SOL    HW113586   4.930   4.852   5.566
 4229SOL    HW213587   5.080   4.851   5.630
 4230SOL     OW13588   3.491   0.529   4.211
 4230SOL    HW113589   3.540   0.442   4.215
 4230SOL    HW213590   3.395   0.514   4.234
 4231SOL     OW13591   4.178   6.142   5.351
 4231SOL    HW113592   4.147   6.047   5.351
 4231SOL    HW213593   4.234   6.159   5.271
 4232SOL     OW13594   2.289   3.979   1.878
 4232SOL    HW113595   2.333   3.895   1.846
 4232SOL    HW213596   2.264   4.035   1.799
 4233SOL     OW13597   5.366   6.934   1.229
 4233SOL    HW113598   5.414   6.851   1.257
 4233SOL    HW213599   5.275   6.934   1.270
 4234SOL     OW13600   3.484   4.213   5.434
 4234SOL    HW113601   3.482   4.118   5.403
 4234SOL    HW213602   3.573   4.233   5.473
 4235SOL     OW13603   0.005   3.692   5.486
 4235SOL    HW113604   0.003   3.632   5.567
 4235SOL    HW213605   0.091   3.677   5.436
 4236SOL     OW13606   1.061   4.387   5.019
 4236SOL    HW113607   0.982   4.447   5.029
 4236SOL    HW213608   1.127   4.406   5.091
 4237SOL     OW13609   5.236   4.300   4.524
 4237SOL    HW113610   5.184   4.218   4.500
 4237SOL    HW213611   5.320   4.302   4.471
 4238SOL     OW13612   3.962   4.991   3.743
 4238SOL    HW113613   3.994   5.080   3.711
 4238SOL    HW213614   3.873   5.001   3.787
 4239SOL     OW13615   5.065   5.439   5.800
 4239SOL    HW113616   5.158   5.430   5.838
 4239SOL    HW213617   5.037   5.535   5.806
 4240SOL     OW13618   2.720   4.426   6.166
 4240SOL    HW113619   2.639   4.474   6.199
 4240SOL    HW213620   2.801   4.481   6.186
 4241SOL     OW13621   3.960   1.097   0.191
 4241SOL    HW113622   3.928   1.119   0.283
 4241SOL    HW213623   3.940   1.001   0.171
 4242SOL     OW13624   1.656   0.294   2.419
 4242SOL    HW113625   1.649   0.329   2.512
 4242SOL    HW213626   1.645   0.370   2.354
 4243SOL     OW13627   1.709   3.163   3.315
 4243SOL    HW113628   1.755   3.236   3.365
 4243SOL    HW213629   1.760   3.077   3.327
 4244SOL     OW13630   3.474   6.229   1.148
 4244SOL    HW113631   3.548   6.290   1.121
 4244SOL    HW213632   3.508   6.135   1.151
 4245SOL     OW13633   6.522   3.080   1.956
 4245SOL    HW113634   6.487   3.148   1.891
 4245SOL    HW213635   6.557   3.001   1.906
 4246SOL     OW13636   4.051   2.213   4.232
 4246SOL    HW113637   3.958   2.229   4.198
 4246SOL    HW213638   4.056   2.122   4.273
 4247SOL     OW13639   2.085   4.117   6.326
 4247SOL    HW113640   2.178   4.085   6.309
 4247SOL    HW213641   2.020   4.042   6.308
 4248SOL     OW13642   1.850   0.230   2.900
 4248SOL    HW113643   1.863   0.144   2.949
 4248SOL    HW213644   1.766   0.225   2.846
 4249SOL     OW13645   6.527   0.102   5.616
 4249SOL    HW113646   6.490   0.089   5.524
 4249SOL    HW213647   6.452   0.115   5.681
 4250SOL     OW13648   6.350   5.653   4.222
 4250SOL    HW113649   6.380   5.749   4.226
 4250SOL    HW213650   6.256   5.650   4.189
 4251SOL     OW13651   6.014   2.496   5.353
 4251SOL    HW113652   6.081   2.422   5.356
 4251SOL    HW213653   6.043   2.565   5.286
 4252SOL     OW13654   6.954   6.696   0.150
 4252SOL    HW113655   6.873   6.695   0.091
 4252SOL    HW213656   6.935   6.748   0.233
 4253SOL     OW13657   4.573   5.623   2.816
 4253SOL    HW113658   4.641   5.583   2.754
 4253SOL    HW213659   4.591   5.592   2.910
 4254SOL     OW13660   2.293   2.498   5.805
 4254SOL    HW113661   2.230   2.436   5.851
 4254SOL    HW213662   2.364   2.527   5.870
 4255SOL     OW13663   1.238   3.415   3.306
 4255SOL    HW113664   1.295   3.482   3.258
 4255SOL    HW213665   1.296   3.354   3.360
 4256SOL     OW13666   0.511   6.154   0.845
 4256SOL    HW113667   0.518   6.120   0.939
 4256SOL    HW213668   0.510   6.076   0.782
 4257SOL     OW13669   6.858   0.388   4.120
 4257SOL    HW113670   6.877   0.308   4.063
 4257SOL    HW213671   6.811   0.360   4.204
 4258SOL     OW13672   3.040   5.584   0.932
 4258SOL    HW113673   3.133   5.600   0.898
 4258SOL    HW213674   3.020   5.486   0.932
 4259SOL     OW13675   1.093   0.438   0.257
 4259SOL    HW113676   1.153   0.410   0.183
 4259SOL    HW213677   1.073   0.536   0.248
 4260SOL     OW13678   5.460   0.967   4.819
 4260SOL    HW113679   5.503   1.039   4.873
 4260SOL    HW213680   5.489   0.877   4.853
 4261SOL     OW13681   2.732   6.126   4.324
 4261SOL    HW113682   2.757   6.222   4.327
 4261SOL    HW213683   2.780   6.081   4.248
 4262SOL     OW13684   2.731   4.617   5.915
 4262SOL    HW113685   2.678   4.600   5.998
 4262SOL    HW213686   2.813   4.561   5.915
 4263SOL     OW13687   2.146   1.814   3.533
 4263SOL    HW113688   2.226   1.840   3.479
 4263SOL    HW213689   2.150   1.858   3.622
 4264SOL     OW13690   4.759   2.244   5.488
 4264SOL    HW113691   4.697   2.321   5.502
 4264SOL    HW213692   4.740   2.203   5.398
 4265SOL     OW13693   2.112   0.000   5.984
 4265SOL    HW113694   2.177   0.009   6.059
 4265SOL    HW213695   2.154   6.969   5.908
 4266SOL     OW13696   1.440   4.917   1.902
 4266SOL    HW113697   1.380   4.859   1.957
 4266SOL    HW213698   1.425   5.013   1.925
 4267SOL     OW13699   1.115   4.389   4.409
 4267SOL    HW113700   1.111   4.407   4.507
 4267SOL    HW213701   1.046   4.442   4.361
 4268SOL     OW13702   1.094   3.810   6.040
 4268SOL    HW113703   1.061   3.856   6.123
 4268SOL    HW213704   1.194   3.807   6.042
 4269SOL     OW13705   2.945   1.185   4.850
 4269SOL    HW113706   2.929   1.173   4.948
 4269SOL    HW213707   3.039   1.161   4.829
 4270SOL     OW13708   3.515   3.059   0.075
 4270SOL    HW113709   3.582   3.069   0.149
 4270SOL    HW213710   3.525   3.135   0.011
 4271SOL     OW13711   6.866   1.070   1.355
 4271SOL    HW113712   6.789   1.029   1.404
 4271SOL    HW213713   6.899   1.006   1.286
 4272SOL     OW13714   6.591   0.866   6.250
 4272SOL    HW113715   6.558   0.867   6.345
 4272SOL    HW213716   6.512   0.864   6.188
 4273SOL     OW13717   2.969   5.835   4.513
 4273SOL    HW113718   2.969   5.775   4.592
 4273SOL    HW213719   2.875   5.854   4.485
 4274SOL     OW13720   6.900   1.446   2.523
 4274SOL    HW113721   6.918   1.407   2.432
 4274SOL    HW213722   6.966   1.518   2.542
 4275SOL     OW13723   0.577   2.524   3.603
 4275SOL    HW113724   0.583   2.425   3.617
 4275SOL    HW213725   0.556   2.569   3.690
 4276SOL     OW13726   2.053   5.791   2.799
 4276SOL    HW113727   2.015   5.819   2.887
 4276SOL    HW213728   2.007   5.708   2.768
 4277SOL     OW13729   6.896   5.496   2.902
 4277SOL    HW113730   6.945   5.571   2.857
 4277SOL    HW213731   6.837   5.451   2.835
 4278SOL     OW13732   1.024   6.920   1.466
 4278SOL    HW113733   0.989   6.919   1.373
 4278SOL    HW213734   0.973   6.989   1.519
 4279SOL     OW13735   0.950   2.389   3.644
 4279SOL    HW113736   1.005   2.307   3.660
 4279SOL    HW213737   0.936   2.400   3.545
 4280SOL     OW13738   2.178   6.361   6.357
 4280SOL    HW113739   2.147   6.412   6.277
 4280SOL    HW213740   2.153   6.264   6.346
 4281SOL     OW13741   5.306   5.963   3.112
 4281SOL    HW113742   5.359   6.041   3.079
 4281SOL    HW213743   5.365   5.902   3.164
 4282SOL     OW13744   4.612   5.335   2.197
 4282SOL    HW113745   4.710   5.323   2.216
 4282SOL    HW213746   4.580   5.260   2.139
 4283SOL     OW13747   4.909   1.424   4.592
 4283SOL    HW113748   4.880   1.330   4.577
 4283SOL    HW213749   4.898   1.448   4.689
 4284SOL     OW13750   4.525   5.111   6.568
 4284SOL    HW113751   4.574   5.097   6.482
 4284SOL    HW213752   4.430   5.135   6.549
 4285SOL     OW13753   3.529   1.291   6.241
 4285SOL    HW113754   3.535   1.305   6.142
 4285SOL    HW213755   3.537   1.194   6.261
 4286SOL     OW13756   5.865   0.674   6.259
 4286SOL    HW113757   5.863   0.728   6.343
 4286SOL    HW213758   5.801   0.597   6.267
 4287SOL     OW13759   3.459   1.035   1.138
 4287SOL    HW113760   3.455   1.098   1.215
 4287SOL    HW213761   3.373   1.040   1.087
 4288SOL     OW13762   6.956   6.103   1.918
 4288SOL    HW113763   6.947   6.090   1.819
 4288SOL    HW213764   0.035   6.102   1.944
 4289SOL     OW13765   0.366   4.811   4.553
 4289SOL    HW113766   0.411   4.877   4.493
 4289SOL    HW213767   0.331   4.735   4.499
 4290SOL     OW13768   0.424   1.255   3.209
 4290SOL    HW113769   0.485   1.330   3.184
 4290SOL    HW213770   0.458   1.170   3.168
 4291SOL     OW13771   3.957   4.138   6.557
 4291SOL    HW113772   3.869   4.106   6.520
 4291SOL    HW213773   3.940   4.209   6.626
 4292SOL     OW13774   6.511   1.211   1.777
 4292SOL    HW113775   6.507   1.243   1.871
 4292SOL    HW213776   6.444   1.137   1.764
 4293SOL     OW13777   3.879   2.714   0.048
 4293SOL    HW113778   3.807   2.765   7.017
 4293SOL    HW213779   3.965   2.763   0.041
 4294SOL     OW13780   2.574   1.794   6.545
 4294SOL    HW113781   2.529   1.881   6.566
 4294SOL    HW213782   2.643   1.774   6.615
 4295SOL     OW13783   4.469   6.221   3.151
 4295SOL    HW113784   4.403   6.168   3.099
 4295SOL    HW213785   4.479   6.312   3.110
 4296SOL     OW13786   2.593   6.689   2.362
 4296SOL    HW113787   2.612   6.636   2.279
 4296SOL    HW213788   2.575   6.784   2.339
 4297SOL     OW13789   5.155   5.184   0.276
 4297SOL    HW113790   5.147   5.105   0.216
 4297SOL    HW213791   5.093   5.257   0.244
 4298SOL     OW13792   1.808   0.463   0.493
 4298SOL    HW113793   1.885   0.458   0.556
 4298SOL    HW213794   1.836   0.514   0.411
 4299SOL     OW13795   1.077   2.905   0.004
 4299SOL    HW113796   1.159   2.957   0.030
 4299SOL    HW213797   0.997   2.964   0.011
 4300SOL     OW13798   3.029   0.486   1.726
 4300SOL    HW113799   3.110   0.429   1.715
 4300SOL    HW213800   3.044   0.576   1.685
 4301SOL     OW13801   2.545   5.677   6.769
 4301SOL    HW113802   2.490   5.605   6.727
 4301SOL    HW213803   2.502   5.708   6.853
 4302SOL     OW13804   3.456   5.006   5.651
 4302SOL    HW113805   3.495   4.970   5.736
 4302SOL    HW213806   3.436   4.931   5.588
 4303SOL     OW13807   5.034   5.293   3.414
 4303SOL    HW113808   4.949   5.343   3.398
 4303SOL    HW213809   5.018   5.195   3.403
 4304SOL     OW13810   3.006   3.985   1.598
 4304SOL    HW113811   2.926   4.024   1.553
 4304SOL    HW213812   3.021   4.032   1.685
 4305SOL     OW13813   0.936   6.239   6.018
 4305SOL    HW113814   0.980   6.239   5.928
 4305SOL    HW213815   1.004   6.259   6.088
 4306SOL     OW13816   5.553   4.231   5.250
 4306SOL    HW113817   5.560   4.131   5.261
 4306SOL    HW213818   5.495   4.252   5.171
 4307SOL     OW13819   0.379   1.034   5.754
 4307SOL    HW113820   0.332   1.003   5.836
 4307SOL    HW213821   0.324   1.104   5.708
 4308SOL     OW13822   4.805   5.557   6.336
 4308SOL    HW113823   4.874   5.485   6.344
 4308SOL    HW213824   4.733   5.541   6.404
 4309SOL     OW13825   1.347   1.153   6.977
 4309SOL    HW113826   1.338   1.159   0.058
 4309SOL    HW213827   1.276   1.094   6.940
 4310SOL     OW13828   6.683   2.052   3.251
 4310SOL    HW113829   6.745   2.120   3.289
 4310SOL    HW213830   6.700   2.040   3.154
 4311SOL     OW13831   0.577   0.164   1.629
 4311SOL    HW113832   0.625   0.148   1.716
 4311SOL    HW213833   0.607   0.098   1.561
 4312SOL     OW13834   6.537   4.610   2.341
 4312SOL    HW113835   6.628   4.642   2.366
 4312SOL    HW213836   6.472   4.638   2.412
 4313SOL     OW13837   0.654   2.991   6.606
 4313SOL    HW113838   0.658   3.054   6.683
 4313SOL    HW213839   0.591   3.028   6.537
 4314SOL     OW13840   0.794   1.336   6.476
 4314SOL    HW113841   0.717   1.394   6.451
 4314SOL    HW213842   0.844   1.310   6.394
 4315SOL     OW13843   2.802   1.190   5.114
 4315SOL    HW113844   2.783   1.247   5.194
 4315SOL    HW213845   2.717   1.174   5.064
 4316SOL     OW13846   4.540   5.805   1.788
 4316SOL    HW113847   4.622   5.762   1.749
 4316SOL    HW213848   4.476   5.826   1.714
 4317SOL     OW13849   4.876   0.808   5.526
 4317SOL    HW113850   4.814   0.880   5.556
 4317SOL    HW213851   4.969   0.830   5.555
 4318SOL     OW13852   1.170   6.288   4.308
 4318SOL    HW113853   1.251   6.346   4.314
 4318SOL    HW213854   1.191   6.206   4.255
 4319SOL     OW13855   1.044   3.890   2.472
 4319SOL    HW113856   1.114   3.945   2.518
 4319SOL    HW213857   0.972   3.866   2.538
 4320SOL     OW13858   2.835   0.419   0.515
 4320SOL    HW113859   2.869   0.405   0.422
 4320SOL    HW213860   2.825   0.517   0.532
 4321SOL     OW13861   6.505   6.407   3.359
 4321SOL    HW113862   6.521   6.308   3.356
 4321SOL    HW213863   6.448   6.434   3.281
 4322SOL     OW13864   1.835   1.949   4.938
 4322SOL    HW113865   1.908   1.905   4.886
 4322SOL    HW213866   1.775   1.880   4.976
 4323SOL     OW13867   4.754   4.971   0.315
 4323SOL    HW113868   4.664   4.936   0.343
 4323SOL    HW213869   4.756   5.070   0.324
 4324SOL     OW13870   1.037   4.748   5.722
 4324SOL    HW113871   1.012   4.754   5.819
 4324SOL    HW213872   1.008   4.659   5.686
 4325SOL     OW13873   2.251   6.811   2.433
 4325SOL    HW113874   2.151   6.814   2.436
 4325SOL    HW213875   2.282   6.718   2.450
 4326SOL     OW13876   5.190   2.244   2.281
 4326SOL    HW113877   5.095   2.276   2.277
 4326SOL    HW213878   5.247   2.314   2.323
 4327SOL     OW13879   2.655   5.287   3.691
 4327SOL    HW113880   2.663   5.298   3.592
 4327SOL    HW213881   2.572   5.236   3.712
 4328SOL     OW13882   6.731   0.538   3.940
 4328SOL    HW113883   6.789   0.616   3.916
 4328SOL    HW213884   6.771   0.490   4.018
 4329SOL     OW13885   0.162   2.574   6.687
 4329SOL    HW113886   0.244   2.521   6.664
 4329SOL    HW213887   0.086   2.511   6.704
 4330SOL     OW13888   2.592   5.321   4.524
 4330SOL    HW113889   2.564   5.417   4.518
 4330SOL    HW213890   2.662   5.311   4.594
 4331SOL     OW13891   6.010   1.918   2.661
 4331SOL    HW113892   5.979   1.864   2.739
 4331SOL    HW213893   5.931   1.947   2.606
 4332SOL     OW13894   0.988   5.530   1.546
 4332SOL    HW113895   1.075   5.555   1.590
 4332SOL    HW213896   0.914   5.586   1.586
 4333SOL     OW13897   3.986   2.376   6.112
 4333SOL    HW113898   4.053   2.302   6.106
 4333SOL    HW213899   3.979   2.408   6.206
 4334SOL     OW13900   0.457   2.611   4.415
 4334SOL    HW113901   0.429   2.599   4.510
 4334SOL    HW213902   0.484   2.706   4.400
 4335SOL     OW13903   2.522   4.062   1.446
 4335SOL    HW113904   2.495   4.044   1.351
 4335SOL    HW213905   2.465   4.136   1.483
 4336SOL     OW13906   2.825   5.960   5.199
 4336SOL    HW113907   2.735   5.987   5.166
 4336SOL    HW213908   2.818   5.927   5.293
 4337SOL     OW13909   0.828   4.876   3.829
 4337SOL    HW113910   0.800   4.956   3.881
 4337SOL    HW213911   0.900   4.901   3.765
 4338SOL     OW13912   2.900   2.625   5.974
 4338SOL    HW113913   2.974   2.583   5.921
 4338SOL    HW213914   2.912   2.602   6.071
 4339SOL     OW13915   4.438   4.976   5.645
 4339SOL    HW113916   4.461   5.073   5.638
 4339SOL    HW213917   4.481   4.938   5.727
 4340SOL     OW13918   6.592   4.092   1.581
 4340SOL    HW113919   6.546   4.023   1.525
 4340SOL    HW213920   6.591   4.064   1.677
 4341SOL     OW13921   6.117   6.183   1.448
 4341SOL    HW113922   6.051   6.149   1.514
 4341SOL    HW213923   6.193   6.226   1.496
 4342SOL     OW13924   5.175   3.315   2.505
 4342SOL    HW113925   5.211   3.291   2.595
 4342SOL    HW213926   5.160   3.232   2.452
 4343SOL     OW13927   3.565   6.587   6.272
 4343SOL    HW113928   3.474   6.549   6.256
 4343SOL    HW213929   3.617   6.585   6.187
 4344SOL     OW13930   0.046   3.809   3.140
 4344SOL    HW113931   0.104   3.868   3.084
 4344SOL    HW213932   7.006   3.866   3.198
 4345SOL     OW13933   3.445   2.979   2.432
 4345SOL    HW113934   3.359   2.929   2.445
 4345SOL    HW213935   3.437   3.039   2.353
 4346SOL     OW13936   0.827   3.079   2.693
 4346SOL    HW113937   0.921   3.084   2.659
 4346SOL    HW213938   0.825   3.110   2.789
 4347SOL     OW13939   6.698   5.839   0.419
 4347SOL    HW113940   6.675   5.937   0.423
 4347SOL    HW213941   6.788   5.828   0.378
 4348SOL     OW13942   5.920   5.071   5.054
 4348SOL    HW113943   5.968   5.087   4.968
 4348SOL    HW213944   5.845   5.136   5.063
 4349SOL     OW13945   0.281   3.250   4.145
 4349SOL    HW113946   0.274   3.245   4.045
 4349SOL    HW213947   0.362   3.200   4.175
 4350SOL     OW13948   3.680   1.055   4.017
 4350SOL    HW113949   3.712   1.150   4.016
 4350SOL    HW213950   3.592   1.050   4.063
 4351SOL     OW13951   0.870   5.595   0.517
 4351SOL    HW113952   0.794   5.542   0.553
 4351SOL    HW213953   0.874   5.684   0.563
 4352SOL     OW13954   3.800   5.037   1.736
 4352SOL    HW113955   3.753   5.108   1.684
 4352SOL    HW213956   3.746   5.015   1.817
 4353SOL     OW13957   2.660   2.757   1.376
 4353SOL    HW113958   2.701   2.784   1.290
 4353SOL    HW213959   2.584   2.693   1.359
 4354SOL     OW13960   5.885   6.546   2.840
 4354SOL    HW113961   5.803   6.574   2.891
 4354SOL    HW213962   5.917   6.622   2.783
 4355SOL     OW13963   1.681   4.985   2.171
 4355SOL    HW113964   1.722   4.985   2.263
 4355SOL    HW213965   1.657   5.079   2.146
 4356SOL     OW13966   6.095   2.698   5.166
 4356SOL    HW113967   6.191   2.718   5.143
 4356SOL    HW213968   6.044   2.784   5.172
 4357SOL     OW13969   5.456   0.362   2.126
 4357SOL    HW113970   5.385   0.411   2.075
 4357SOL    HW213971   5.546   0.382   2.087
 4358SOL     OW13972   2.658   6.998   0.297
 4358SOL    HW113973   2.663   0.069   0.342
 4358SOL    HW213974   2.738   6.985   0.239
 4359SOL     OW13975   2.920   1.919   1.225
 4359SOL    HW113976   2.845   1.924   1.159
 4359SOL    HW213977   2.964   1.829   1.219
 4360SOL     OW13978   2.442   4.797   4.086
 4360SOL    HW113979   2.374   4.821   4.017
 4360SOL    HW213980   2.512   4.739   4.044
 4361SOL     OW13981   0.216   2.159   0.138
 4361SOL    HW113982   0.228   2.229   0.068
 4361SOL    HW213983   0.293   2.162   0.202
 4362SOL     OW13984   0.848   5.493   3.146
 4362SOL    HW113985   0.916   5.443   3.093
 4362SOL    HW213986   0.760   5.447   3.140
 4363SOL     OW13987   3.977   1.086   2.313
 4363SOL    HW113988   3.904   1.130   2.365
 4363SOL    HW213989   4.024   1.154   2.256
 4364SOL     OW13990   4.142   3.441   3.017
 4364SOL    HW113991   4.235   3.463   3.049
 4364SOL    HW213992   4.089   3.403   3.093
 4365SOL     OW13993   2.119   1.186   1.170
 4365SOL    HW113994   2.091   1.200   1.075
 4365SOL    HW213995   2.041   1.155   1.224
 4366SOL     OW13996   5.025   7.008   4.543
 4366SOL    HW113997   5.053   7.013   4.447
 4366SOL    HW213998   5.106   7.000   4.601
 4367SOL     OW13999   2.825   6.151   2.715
 4367SOL    HW114000   2.769   6.132   2.795
 4367SOL    HW214001   2.789   6.101   2.636
 4368SOL     OW14002   4.783   4.019   3.835
 4368SOL    HW114003   4.779   3.920   3.852
 4368SOL    HW214004   4.829   4.036   3.748
 4369SOL     OW14005   5.158   3.948   3.730
 4369SOL    HW114006   5.064   3.980   3.726
 4369SOL    HW214007   5.212   3.995   3.659
 4370SOL     OW14008   3.799   4.521   1.698
 4370SOL    HW114009   3.707   4.553   1.720
 4370SOL    HW214010   3.863   4.598   1.701
 4371SOL     OW14011   2.070   1.009   1.759
 4371SOL    HW114012   2.034   0.930   1.710
 4371SOL    HW214013   2.161   0.987   1.796
 4372SOL     OW14014   1.762   3.394   4.304
 4372SOL    HW114015   1.772   3.334   4.224
 4372SOL    HW214016   1.723   3.481   4.274
 4373SOL     OW14017   3.527   0.828   6.575
 4373SOL    HW114018   3.464   0.849   6.650
 4373SOL    HW214019   3.550   0.730   6.578
 4374SOL     OW14020   2.761   6.474   0.436
 4374SOL    HW114021   2.722   6.559   0.401
 4374SOL    HW214022   2.860   6.481   0.438
 4375SOL     OW14023   4.710   1.405   5.191
 4375SOL    HW114024   4.679   1.469   5.262
 4375SOL    HW214025   4.696   1.447   5.101
 4376SOL     OW14026   2.224   5.707   6.769
 4376SOL    HW114027   2.246   5.650   6.849
 4376SOL    HW214028   2.186   5.794   6.800
 4377SOL     OW14029   5.164   6.721   6.638
 4377SOL    HW114030   5.088   6.664   6.668
 4377SOL    HW214031   5.149   6.815   6.669
 4378SOL     OW14032   2.476   5.169   2.289
 4378SOL    HW114033   2.413   5.122   2.228
 4378SOL    HW214034   2.526   5.102   2.344
 4379SOL     OW14035   0.912   0.141   1.564
 4379SOL    HW114036   0.819   0.144   1.528
 4379SOL    HW214037   0.940   0.232   1.593
 4380SOL     OW14038   2.188   5.139   4.518
 4380SOL    HW114039   2.273   5.086   4.523
 4380SOL    HW214040   2.186   5.191   4.433
 4381SOL     OW14041   4.814   6.148   5.614
 4381SOL    HW114042   4.881   6.112   5.549
 4381SOL    HW214043   4.777   6.234   5.580
 4382SOL     OW14044   4.873   3.308   3.240
 4382SOL    HW114045   4.791   3.257   3.264
 4382SOL    HW214046   4.923   3.259   3.168
 4383SOL     OW14047   0.983   1.841   7.004
 4383SOL    HW114048   0.887   1.846   0.016
 4383SOL    HW214049   1.037   1.791   0.053
 4384SOL     OW14050   3.939   6.490   1.118
 4384SOL    HW114051   3.941   6.585   1.088
 4384SOL    HW214052   4.011   6.439   1.073
 4385SOL     OW14053   6.297   1.942   2.322
 4385SOL    HW114054   6.199   1.962   2.312
 4385SOL    HW214055   6.330   1.897   2.238
 4386SOL     OW14056   1.617   3.654   6.809
 4386SOL    HW114057   1.535   3.638   6.864
 4386SOL    HW214058   1.594   3.642   6.712
 4387SOL     OW14059   6.801   2.699   1.991
 4387SOL    HW114060   6.854   2.660   2.067
 4387SOL    HW214061   6.788   2.629   1.921
 4388SOL     OW14062   3.283   1.259   5.232
 4388SOL    HW114063   3.369   1.303   5.209
 4388SOL    HW214064   3.246   1.299   5.316
 4389SOL     OW14065   6.030   2.010   2.350
 4389SOL    HW114066   5.982   1.935   2.305
 4389SOL    HW214067   5.967   2.059   2.410
 4390SOL     OW14068   4.183   2.341   1.832
 4390SOL    HW114069   4.246   2.330   1.755
 4390SOL    HW214070   4.090   2.321   1.801
 4391SOL     OW14071   0.544   5.985   1.078
 4391SOL    HW114072   0.633   5.950   1.106
 4391SOL    HW214073   0.472   5.922   1.107
 4392SOL     OW14074   5.240   3.394   4.499
 4392SOL    HW114075   5.210   3.466   4.437
 4392SOL    HW214076   5.221   3.305   4.458
 4393SOL     OW14077   4.910   5.683   3.799
 4393SOL    HW114078   5.006   5.656   3.806
 4393SOL    HW214079   4.888   5.747   3.871
 4394SOL     OW14080   4.802   0.911   2.698
 4394SOL    HW114081   4.747   0.837   2.659
 4394SOL    HW214082   4.877   0.934   2.635
 4395SOL     OW14083   4.698   2.122   1.358
 4395SOL    HW114084   4.651   2.180   1.424
 4395SOL    HW214085   4.748   2.049   1.405
 4396SOL     OW14086   1.369   0.786   4.126
 4396SOL    HW114087   1.372   0.876   4.082
 4396SOL    HW214088   1.274   0.757   4.137
 4397SOL     OW14089   6.034   0.279   6.486
 4397SOL    HW114090   6.007   0.313   6.397
 4397SOL    HW214091   6.125   0.315   6.509
 4398SOL     OW14092   6.703   4.934   3.945
 4398SOL    HW114093   6.662   4.858   3.896
 4398SOL    HW214094   6.648   4.956   4.025
 4399SOL     OW14095   2.562   1.396   1.820
 4399SOL    HW114096   2.492   1.466   1.808
 4399SOL    HW214097   2.595   1.398   1.915
 4400SOL     OW14098   3.329   5.808   3.718
 4400SOL    HW114099   3.352   5.886   3.776
 4400SOL    HW214100   3.281   5.739   3.772
 4401SOL     OW14101   5.756   6.489   4.445
 4401SOL    HW114102   5.681   6.484   4.379
 4401SOL    HW214103   5.814   6.567   4.423
 4402SOL     OW14104   6.349   0.475   3.362
 4402SOL    HW114105   6.322   0.382   3.337
 4402SOL    HW214106   6.401   0.516   3.287
 4403SOL     OW14107   0.653   0.039   2.839
 4403SOL    HW114108   0.638   0.060   2.936
 4403SOL    HW214109   0.567   0.009   2.798
 4404SOL     OW14110   1.724   4.317   3.543
 4404SOL    HW114111   1.628   4.314   3.572
 4404SOL    HW214112   1.773   4.383   3.599
 4405SOL     OW14113   3.039   4.092   6.449
 4405SOL    HW114114   3.003   4.185   6.456
 4405SOL    HW214115   3.123   4.093   6.394
 4406SOL     OW14116   5.356   3.744   1.904
 4406SOL    HW114117   5.437   3.761   1.848
 4406SOL    HW214118   5.381   3.689   1.984
 4407SOL     OW14119   6.958   6.835   0.381
 4407SOL    HW114120   0.020   6.883   0.417
 4407SOL    HW214121   6.897   6.811   0.456
 4408SOL     OW14122   4.933   6.280   0.953
 4408SOL    HW114123   4.916   6.225   0.871
 4408SOL    HW214124   4.901   6.374   0.938
 4409SOL     OW14125   2.061   1.234   2.274
 4409SOL    HW114126   2.124   1.205   2.346
 4409SOL    HW214127   2.112   1.253   2.190
 4410SOL     OW14128   2.305   5.781   1.509
 4410SOL    HW114129   2.345   5.830   1.586
 4410SOL    HW214130   2.354   5.695   1.494
 4411SOL     OW14131   3.904   3.041   2.919
 4411SOL    HW114132   3.980   3.106   2.911
 4411SOL    HW214133   3.895   2.991   2.833
 4412SOL     OW14134   3.893   1.787   6.192
 4412SOL    HW114135   3.961   1.717   6.214
 4412SOL    HW214136   3.823   1.790   6.263
 4413SOL     OW14137   4.306   5.391   4.688
 4413SOL    HW114138   4.332   5.463   4.624
 4413SOL    HW214139   4.293   5.306   4.639
 4414SOL     OW14140   3.222   5.422   1.377
 4414SOL    HW114141   3.235   5.336   1.426
 4414SOL    HW214142   3.268   5.418   1.289
 4415SOL     OW14143   4.269   1.636   1.096
 4415SOL    HW114144   4.303   1.699   1.026
 4415SOL    HW214145   4.332   1.637   1.174
 4416SOL     OW14146   2.914   1.705   4.142
 4416SOL    HW114147   2.975   1.782   4.123
 4416SOL    HW214148   2.944   1.625   4.090
 4417SOL     OW14149   0.246   0.725   0.685
 4417SOL    HW114150   0.231   0.823   0.679
 4417SOL    HW214151   0.309   0.705   0.761
 4418SOL     OW14152   4.908   0.627   3.635
 4418SOL    HW114153   4.887   0.710   3.688
 4418SOL    HW214154   4.831   0.564   3.640
 4419SOL     OW14155   6.897   5.560   0.324
 4419SOL    HW114156   6.853   5.549   0.414
 4419SOL    HW214157   6.993   5.533   0.331
 4420SOL     OW14158   4.262   0.949   0.060
 4420SOL    HW114159   4.199   0.967   0.135
 4420SOL    HW214160   4.276   1.033   0.007
 4421SOL     OW14161   1.885   1.735   3.549
 4421SOL    HW114162   1.977   1.767   3.524
 4421SOL    HW214163   1.886   1.704   3.644
 4422SOL     OW14164   2.208   4.099   5.846
 4422SOL    HW114165   2.249   4.022   5.895
 4422SOL    HW214166   2.278   4.144   5.791
 4423SOL     OW14167   6.853   1.519   6.761
 4423SOL    HW114168   6.810   1.598   6.717
 4423SOL    HW214169   6.945   1.543   6.791
 4424SOL     OW14170   0.353   6.715   4.178
 4424SOL    HW114171   0.437   6.671   4.147
 4424SOL    HW214172   0.376   6.801   4.224
 4425SOL     OW14173   4.519   4.495   0.235
 4425SOL    HW114174   4.555   4.464   0.147
 4425SOL    HW214175   4.510   4.417   0.297
 4426SOL     OW14176   0.963   0.335   5.407
 4426SOL    HW114177   1.043   0.395   5.405
 4426SOL    HW214178   0.890   0.375   5.352
 4427SOL     OW14179   1.266   6.176   3.262
 4427SOL    HW114180   1.338   6.239   3.290
 4427SOL    HW214181   1.301   6.113   3.193
 4428SOL     OW14182   2.500   6.119   2.780
 4428SOL    HW114183   2.484   6.099   2.684
 4428SOL    HW214184   2.419   6.163   2.819
 4429SOL     OW14185   3.829   0.818   3.206
 4429SOL    HW114186   3.747   0.849   3.253
 4429SOL    HW214187   3.804   0.765   3.125
 4430SOL     OW14188   1.402   0.519   1.373
 4430SOL    HW114189   1.335   0.534   1.446
 4430SOL    HW214190   1.408   0.601   1.316
 4431SOL     OW14191   2.147   1.519   3.469
 4431SOL    HW114192   2.163   1.588   3.539
 4431SOL    HW214193   2.189   1.433   3.497
 4432SOL     OW14194   3.021   3.756   3.808
 4432SOL    HW114195   2.989   3.692   3.738
 4432SOL    HW214196   3.067   3.707   3.881
 4433SOL     OW14197   6.762   0.561   3.347
 4433SOL    HW114198   6.808   0.642   3.385
 4433SOL    HW214199   6.826   0.484   3.346
 4434SOL     OW14200   4.763   2.390   4.520
 4434SOL    HW114201   4.757   2.308   4.578
 4434SOL    HW214202   4.755   2.363   4.424
 4435SOL     OW14203   3.716   2.926   2.420
 4435SOL    HW114204   3.616   2.928   2.426
 4435SOL    HW214205   3.742   2.912   2.324
 4436SOL     OW14206   4.905   0.494   0.869
 4436SOL    HW114207   4.945   0.476   0.959
 4436SOL    HW214208   4.967   0.460   0.798
 4437SOL     OW14209   3.760   0.222   4.737
 4437SOL    HW114210   3.837   0.277   4.703
 4437SOL    HW214211   3.773   0.127   4.711
 4438SOL     OW14212   3.949   3.730   6.568
 4438SOL    HW114213   3.869   3.766   6.519
 4438SOL    HW214214   3.929   3.639   6.602
 4439SOL     OW14215   2.094   5.096   2.490
 4439SOL    HW114216   2.110   5.107   2.391
 4439SOL    HW214217   2.006   5.051   2.504
 4440SOL     OW14218   6.559   0.716   6.712
 4440SOL    HW114219   6.621   0.643   6.682
 4440SOL    HW214220   6.465   0.692   6.687
 4441SOL     OW14221   5.627   2.168   3.729
 4441SOL    HW114222   5.569   2.178   3.810
 4441SOL    HW214223   5.674   2.080   3.733
 4442SOL     OW14224   1.932   6.753   2.189
 4442SOL    HW114225   1.876   6.835   2.176
 4442SOL    HW214226   1.928   6.725   2.285
 4443SOL     OW14227   2.659   1.248   5.960
 4443SOL    HW114228   2.616   1.270   6.047
 4443SOL    HW214229   2.693   1.154   5.962
 4444SOL     OW14230   5.380   0.728   2.913
 4444SOL    HW114231   5.431   0.814   2.915
 4444SOL    HW214232   5.298   0.735   2.970
 4445SOL     OW14233   1.472   1.292   6.108
 4445SOL    HW114234   1.468   1.236   6.190
 4445SOL    HW214235   1.451   1.387   6.131
 4446SOL     OW14236   5.564   5.367   3.673
 4446SOL    HW114237   5.552   5.395   3.578
 4446SOL    HW214238   5.507   5.288   3.692
 4447SOL     OW14239   4.980   3.351   4.876
 4447SOL    HW114240   4.909   3.397   4.930
 4447SOL    HW214241   4.940   3.272   4.829
 4448SOL     OW14242   2.618   2.477   6.502
 4448SOL    HW114243   2.551   2.504   6.433
 4448SOL    HW214244   2.691   2.424   6.458
 4449SOL     OW14245   0.703   1.605   5.424
 4449SOL    HW114246   0.657   1.545   5.359
 4449SOL    HW214247   0.640   1.675   5.457
 4450SOL     OW14248   4.054   3.622   3.346
 4450SOL    HW114249   4.044   3.705   3.291
 4450SOL    HW214250   3.970   3.606   3.399
 4451SOL     OW14251   0.105   4.283   1.784
 4451SOL    HW114252   0.178   4.320   1.727
 4451SOL    HW214253   0.056   4.358   1.828
 4452SOL     OW14254   6.622   4.137   6.490
 4452SOL    HW114255   6.702   4.143   6.431
 4452SOL    HW214256   6.543   4.176   6.443
 4453SOL     OW14257   5.388   2.270   1.176
 4453SOL    HW114258   5.326   2.271   1.254
 4453SOL    HW214259   5.465   2.209   1.195
 4454SOL     OW14260   5.329   3.117   1.565
 4454SOL    HW114261   5.306   3.041   1.504
 4454SOL    HW214262   5.428   3.131   1.564
 4455SOL     OW14263   4.642   1.813   1.667
 4455SOL    HW114264   4.720   1.806   1.604
 4455SOL    HW214265   4.645   1.902   1.713
 4456SOL     OW14266   1.272   5.807   2.533
 4456SOL    HW114267   1.251   5.879   2.467
 4456SOL    HW214268   1.274   5.718   2.487
 4457SOL     OW14269   5.104   2.014   6.458
 4457SOL    HW114270   5.056   1.928   6.440
 4457SOL    HW214271   5.202   2.001   6.444
 4458SOL     OW14272   3.796   1.678   0.004
 4458SOL    HW114273   3.821   1.736   6.944
 4458SOL    HW214274   3.853   1.702   0.083
 4459SOL     OW14275   4.949   6.253   5.815
 4459SOL    HW114276   4.914   6.220   5.728
 4459SOL    HW214277   5.008   6.332   5.799
 4460SOL     OW14278   1.151   1.326   6.211
 4460SOL    HW114279   1.174   1.405   6.154
 4460SOL    HW214280   1.231   1.301   6.266
 4461SOL     OW14281   1.956   0.435   2.122
 4461SOL    HW114282   1.963   0.534   2.134
 4461SOL    HW214283   1.985   0.411   2.029
 4462SOL     OW14284   6.922   5.553   0.891
 4462SOL    HW114285   6.932   5.458   0.861
 4462SOL    HW214286   6.954   5.562   0.985
 4463SOL     OW14287   1.630   3.548   5.798
 4463SOL    HW114288   1.566   3.508   5.864
 4463SOL    HW214289   1.677   3.476   5.748
 4464SOL     OW14290   6.130   3.260   6.804
 4464SOL    HW114291   6.091   3.290   6.892
 4464SOL    HW214292   6.160   3.340   6.752
 4465SOL     OW14293   0.951   6.160   1.649
 4465SOL    HW114294   0.877   6.095   1.629
 4465SOL    HW214295   0.920   6.253   1.628
 4466SOL     OW14296   0.774   2.654   3.496
 4466SOL    HW114297   0.685   2.615   3.519
 4466SOL    HW214298   0.814   2.697   3.577
 4467SOL     OW14299   1.432   0.100   3.135
 4467SOL    HW114300   1.484   0.181   3.161
 4467SOL    HW214301   1.419   0.042   3.214
 4468SOL     OW14302   1.852   2.520   0.282
 4468SOL    HW114303   1.796   2.523   0.364
 4468SOL    HW214304   1.798   2.484   0.206
 4469SOL     OW14305   4.468   6.982   0.753
 4469SOL    HW114306   4.461   6.927   0.836
 4469SOL    HW214307   4.545   6.949   0.697
 4470SOL     OW14308   4.997   5.396   1.235
 4470SOL    HW114309   4.961   5.445   1.156
 4470SOL    HW214310   5.090   5.427   1.255
 4471SOL     OW14311   6.573   3.108   0.621
 4471SOL    HW114312   6.642   3.113   0.694
 4471SOL    HW214313   6.585   3.185   0.559
 4472SOL     OW14314   2.074   4.671   1.496
 4472SOL    HW114315   2.113   4.684   1.404
 4472SOL    HW214316   2.043   4.760   1.531
 4473SOL     OW14317   0.993   0.391   6.158
 4473SOL    HW114318   0.951   0.460   6.098
 4473SOL    HW214319   0.924   0.351   6.217
 4474SOL     OW14320   6.122   0.344   4.006
 4474SOL    HW114321   6.208   0.295   3.990
 4474SOL    HW214322   6.102   0.401   3.927
 4475SOL     OW14323   1.397   4.156   0.114
 4475SOL    HW114324   1.420   4.252   0.105
 4475SOL    HW214325   1.423   4.107   0.030
 4476SOL     OW14326   4.940   6.106   2.057
 4476SOL    HW114327   4.846   6.075   2.068
 4476SOL    HW214328   4.960   6.178   2.124
 4477SOL     OW14329   1.259   1.595   0.064
 4477SOL    HW114330   1.343   1.618   0.014
 4477SOL    HW214331   1.198   1.544   0.003
 4478SOL     OW14332   1.417   5.436   1.864
 4478SOL    HW114333   1.330   5.483   1.849
 4478SOL    HW214334   1.489   5.483   1.814
 4479SOL     OW14335   0.537   0.183   5.822
 4479SOL    HW114336   0.586   0.270   5.833
 4479SOL    HW214337   0.498   0.178   5.730
 4480SOL     OW14338   1.068   4.642   3.877
 4480SOL    HW114339   1.045   4.739   3.886
 4480SOL    HW214340   1.043   4.610   3.786
 4481SOL     OW14341   1.109   6.866   3.478
 4481SOL    HW114342   1.072   6.897   3.390
 4481SOL    HW214343   1.034   6.854   3.543
 4482SOL     OW14344   0.518   4.472   3.583
 4482SOL    HW114345   0.582   4.426   3.521
 4482SOL    HW214346   0.569   4.535   3.642
 4483SOL     OW14347   4.979   2.846   1.532
 4483SOL    HW114348   4.945   2.859   1.625
 4483SOL    HW214349   4.916   2.788   1.481
 4484SOL     OW14350   4.046   2.963   6.227
 4484SOL    HW114351   3.981   3.039   6.215
 4484SOL    HW214352   4.051   2.938   6.323
 4485SOL     OW14353   4.526   0.656   6.882
 4485SOL    HW114354   4.524   0.740   6.828
 4485SOL    HW214355   4.583   0.668   6.963
 4486SOL     OW14356   6.525   2.539   3.829
 4486SOL    HW114357   6.595   2.558   3.898
 4486SOL    HW214358   6.568   2.501   3.747
 4487SOL     OW14359   3.134   3.256   5.674
 4487SOL    HW114360   3.078   3.178   5.699
 4487SOL    HW214361   3.091   3.306   5.599
 4488SOL     OW14362   0.117   1.693   6.072
 4488SOL    HW114363   0.111   1.728   5.979
 4488SOL    HW214364   0.098   1.595   6.071
 4489SOL     OW14365   6.419   0.534   2.867
 4489SOL    HW114366   6.394   0.630   2.856
 4489SOL    HW214367   6.344   0.485   2.912
 4490SOL     OW14368   6.801   2.243   3.490
 4490SOL    HW114369   6.798   2.308   3.567
 4490SOL    HW214370   6.884   2.260   3.437
 4491SOL     OW14371   1.779   3.293   3.058
 4491SOL    HW114372   1.751   3.276   2.964
 4491SOL    HW214373   1.730   3.231   3.119
 4492SOL     OW14374   4.415   3.943   6.586
 4492SOL    HW114375   4.430   3.859   6.534
 4492SOL    HW214376   4.492   4.005   6.571
 4493SOL     OW14377   5.725   5.368   3.161
 4493SOL    HW114378   5.663   5.354   3.084
 4493SOL    HW214379   5.784   5.288   3.171
 4494SOL     OW14380   6.310   3.264   3.907
 4494SOL    HW114381   6.283   3.207   3.830
 4494SOL    HW214382   6.280   3.221   3.992
 4495SOL     OW14383   4.293   6.343   2.106
 4495SOL    HW114384   4.240   6.411   2.055
 4495SOL    HW214385   4.266   6.346   2.202
 4496SOL     OW14386   5.277   4.366   6.020
 4496SOL    HW114387   5.250   4.459   5.995
 4496SOL    HW214388   5.344   4.369   6.094
 4497SOL     OW14389   6.230   5.515   1.105
 4497SOL    HW114390   6.270   5.580   1.170
 4497SOL    HW214391   6.131   5.526   1.104
 4498SOL     OW14392   0.341   3.816   6.819
 4498SOL    HW114393   0.427   3.785   6.861
 4498SOL    HW214394   0.272   3.744   6.831
 4499SOL     OW14395   6.330   3.086   6.843
 4499SOL    HW114396   6.405   3.087   6.777
 4499SOL    HW214397   6.262   3.155   6.818
 4500SOL     OW14398   3.480   3.942   4.629
 4500SOL    HW114399   3.531   4.004   4.569
 4500SOL    HW214400   3.464   3.856   4.581
 4501SOL     OW14401   1.151   4.652   4.600
 4501SOL    HW114402   1.232   4.594   4.607
 4501SOL    HW214403   1.155   4.724   4.669
 4502SOL     OW14404   6.349   3.089   0.090
 4502SOL    HW114405   6.333   3.081   7.009
 4502SOL    HW214406   6.437   3.134   0.105
 4503SOL     OW14407   1.613   2.128   2.877
 4503SOL    HW114408   1.663   2.045   2.853
 4503SOL    HW214409   1.638   2.201   2.814
 4504SOL     OW14410   4.404   2.286   4.588
 4504SOL    HW114411   4.375   2.325   4.500
 4504SOL    HW214412   4.331   2.299   4.656
 4505SOL     OW14413   1.957   5.024   5.987
 4505SOL    HW114414   1.993   4.937   6.020
 4505SOL    HW214415   1.897   5.008   5.909
 4506SOL     OW14416   4.214   6.742   5.232
 4506SOL    HW114417   4.273   6.705   5.160
 4506SOL    HW214418   4.118   6.731   5.206
 4507SOL     OW14419   6.277   4.298   1.676
 4507SOL    HW114420   6.222   4.379   1.656
 4507SOL    HW214421   6.367   4.326   1.710
 4508SOL     OW14422   1.321   4.238   0.635
 4508SOL    HW114423   1.286   4.149   0.605
 4508SOL    HW214424   1.394   4.267   0.574
 4509SOL     OW14425   1.087   1.835   4.007
 4509SOL    HW114426   1.178   1.876   4.016
 4509SOL    HW214427   1.033   1.855   4.089
 4510SOL     OW14428   3.378   6.540   5.224
 4510SOL    HW114429   3.371   6.506   5.318
 4510SOL    HW214430   3.431   6.624   5.223
 4511SOL     OW14431   6.389   3.309   6.330
 4511SOL    HW114432   6.377   3.395   6.281
 4511SOL    HW214433   6.353   3.234   6.274
 4512SOL     OW14434   2.682   5.216   0.782
 4512SOL    HW114435   2.762   5.178   0.735
 4512SOL    HW214436   2.680   5.315   0.769
 4513SOL     OW14437   5.249   0.761   1.976
 4513SOL    HW114438   5.297   0.820   2.040
 4513SOL    HW214439   5.182   0.814   1.925
 4514SOL     OW14440   3.535   1.265   5.687
 4514SOL    HW114441   3.566   1.322   5.611
 4514SOL    HW214442   3.457   1.211   5.657
 4515SOL     OW14443   6.814   5.132   0.889
 4515SOL    HW114444   6.842   5.064   0.957
 4515SOL    HW214445   6.716   5.147   0.895
 4516SOL     OW14446   1.375   6.976   4.436
 4516SOL    HW114447   1.451   6.958   4.374
 4516SOL    HW214448   1.290   6.944   4.395
 4517SOL     OW14449   3.666   6.688   5.762
 4517SOL    HW114450   3.630   6.747   5.689
 4517SOL    HW214451   3.755   6.722   5.792
 4518SOL     OW14452   1.253   1.278   4.137
 4518SOL    HW114453   1.167   1.295   4.185
 4518SOL    HW214454   1.260   1.339   4.058
 4519SOL     OW14455   6.418   2.570   4.368
 4519SOL    HW114456   6.387   2.538   4.279
 4519SOL    HW214457   6.483   2.505   4.407
 4520SOL     OW14458   0.562   4.447   3.022
 4520SOL    HW114459   0.485   4.444   3.086
 4520SOL    HW214460   0.527   4.461   2.930
 4521SOL     OW14461   5.830   2.245   5.682
 4521SOL    HW114462   5.871   2.331   5.651
 4521SOL    HW214463   5.798   2.192   5.603
 4522SOL     OW14464   5.634   0.513   3.416
 4522SOL    HW114465   5.605   0.550   3.504
 4522SOL    HW214466   5.699   0.438   3.432
 4523SOL     OW14467   3.780   3.275   6.898
 4523SOL    HW114468   3.684   3.250   6.885
 4523SOL    HW214469   3.838   3.217   6.841
 4524SOL     OW14470   6.092   0.523   5.265
 4524SOL    HW114471   6.192   0.526   5.262
 4524SOL    HW214472   6.059   0.441   5.218
 4525SOL     OW14473   6.554   1.627   5.545
 4525SOL    HW114474   6.591   1.552   5.601
 4525SOL    HW214475   6.629   1.673   5.497
 4526SOL     OW14476   4.074   1.363   0.806
 4526SOL    HW114477   4.041   1.454   0.780
 4526SOL    HW214478   3.997   1.307   0.835
 4527SOL     OW14479   3.775   1.306   4.022
 4527SOL    HW114480   3.769   1.355   4.109
 4527SOL    HW214481   3.849   1.344   3.967
 4528SOL     OW14482   5.457   0.056   6.438
 4528SOL    HW114483   5.539   0.088   6.485
 4528SOL    HW214484   5.436   0.116   6.361
 4529SOL     OW14485   3.718   0.269   3.539
 4529SOL    HW114486   3.638   0.231   3.492
 4529SOL    HW214487   3.754   0.346   3.487
 4530SOL     OW14488   0.795   2.908   4.989
 4530SOL    HW114489   0.714   2.860   5.022
 4530SOL    HW214490   0.773   2.957   4.904
 4531SOL     OW14491   0.189   3.326   3.434
 4531SOL    HW114492   0.182   3.332   3.334
 4531SOL    HW214493   0.107   3.283   3.471
 4532SOL     OW14494   6.444   1.740   0.391
 4532SOL    HW114495   6.380   1.720   0.465
 4532SOL    HW214496   6.534   1.760   0.428
 4533SOL     OW14497   2.946   5.902   2.490
 4533SOL    HW114498   2.923   5.852   2.407
 4533SOL    HW214499   2.947   5.838   2.568
 4534SOL     OW14500   6.675   4.137   5.296
 4534SOL    HW114501   6.735   4.191   5.237
 4534SOL    HW214502   6.727   4.098   5.371
 4535SOL     OW14503   5.009   2.701   2.663
 4535SOL    HW114504   4.979   2.792   2.692
 4535SOL    HW214505   5.094   2.708   2.611
 4536SOL     OW14506   6.538   0.974   4.006
 4536SOL    HW114507   6.450   1.017   3.984
 4536SOL    HW214508   6.523   0.878   4.029
 4537SOL     OW14509   3.937   3.070   5.830
 4537SOL    HW114510   3.997   2.995   5.799
 4537SOL    HW214511   3.870   3.034   5.895
 4538SOL     OW14512   3.754   1.217   2.515
 4538SOL    HW114513   3.736   1.243   2.610
 4538SOL    HW214514   3.695   1.269   2.454
 4539SOL     OW14515   0.948   1.776   2.300
 4539SOL    HW114516   1.020   1.834   2.336
 4539SOL    HW214517   0.925   1.804   2.207
 4540SOL     OW14518   3.188   3.026   4.562
 4540SOL    HW114519   3.143   2.979   4.486
 4540SOL    HW214520   3.278   3.058   4.532
 4541SOL     OW14521   6.115   1.477   1.294
 4541SOL    HW114522   6.031   1.524   1.321
 4541SOL    HW214523   6.128   1.395   1.349
 4542SOL     OW14524   4.695   0.473   3.681
 4542SOL    HW114525   4.668   0.402   3.745
 4542SOL    HW214526   4.681   0.440   3.587
 4543SOL     OW14527   5.453   1.983   1.676
 4543SOL    HW114528   5.451   1.928   1.759
 4543SOL    HW214529   5.538   2.035   1.671
 4544SOL     OW14530   3.503   4.675   6.514
 4544SOL    HW114531   3.478   4.697   6.608
 4544SOL    HW214532   3.450   4.596   6.482
 4545SOL     OW14533   4.066   2.839   5.821
 4545SOL    HW114534   4.106   2.766   5.766
 4545SOL    HW214535   4.044   2.804   5.912
 4546SOL     OW14536   0.733   6.831   6.711
 4546SOL    HW114537   0.728   6.898   6.636
 4546SOL    HW214538   0.827   6.799   6.719
 4547SOL     OW14539   4.146   1.927   1.334
 4547SOL    HW114540   4.157   1.830   1.315
 4547SOL    HW214541   4.179   1.980   1.255
 4548SOL     OW14542   1.576   3.090   3.837
 4548SOL    HW114543   1.478   3.074   3.831
 4548SOL    HW214544   1.620   3.013   3.882
 4549SOL     OW14545   4.924   1.748   2.720
 4549SOL    HW114546   4.990   1.820   2.700
 4549SOL    HW214547   4.834   1.789   2.739
 4550SOL     OW14548   1.520   6.089   4.720
 4550SOL    HW114549   1.454   6.086   4.795
 4550SOL    HW214550   1.572   6.004   4.718
 4551SOL     OW14551   0.431   2.519   5.950
 4551SOL    HW114552   0.356   2.468   5.993
 4551SOL    HW214553   0.464   2.590   6.013
 4552SOL     OW14554   0.163   2.908   3.820
 4552SOL    HW114555   0.224   2.865   3.887
 4552SOL    HW214556   0.073   2.920   3.860
 4553SOL     OW14557   5.064   4.600   0.714
 4553SOL    HW114558   4.989   4.656   0.748
 4553SOL    HW214559   5.126   4.578   0.789
 4554SOL     OW14560   5.570   6.866   3.349
 4554SOL    HW114561   5.486   6.854   3.296
 4554SOL    HW214562   5.548   6.894   3.442
 4555SOL     OW14563   5.414   1.838   0.247
 4555SOL    HW114564   5.331   1.785   0.228
 4555SOL    HW214565   5.483   1.778   0.286
 4556SOL     OW14566   5.220   1.362   4.803
 4556SOL    HW114567   5.177   1.373   4.893
 4556SOL    HW214568   5.288   1.434   4.790
 4557SOL     OW14569   5.230   0.194   5.679
 4557SOL    HW114570   5.208   0.175   5.774
 4557SOL    HW214571   5.217   0.292   5.661
 4558SOL     OW14572   6.667   3.413   5.685
 4558SOL    HW114573   6.727   3.347   5.640
 4558SOL    HW214574   6.656   3.387   5.781
 4559SOL     OW14575   0.590   6.423   1.633
 4559SOL    HW114576   0.585   6.449   1.729
 4559SOL    HW214577   0.552   6.496   1.577
 4560SOL     OW14578   4.970   2.767   2.982
 4560SOL    HW114579   5.062   2.760   2.943
 4560SOL    HW214580   4.963   2.710   3.063
 4561SOL     OW14581   3.192   0.292   6.610
 4561SOL    HW114582   3.193   0.214   6.548
 4561SOL    HW214583   3.247   0.271   6.691
 4562SOL     OW14584   3.109   5.303   5.328
 4562SOL    HW114585   3.160   5.383   5.362
 4562SOL    HW214586   3.063   5.328   5.243
 4563SOL     OW14587   5.142   2.614   6.114
 4563SOL    HW114588   5.234   2.643   6.087
 4563SOL    HW214589   5.142   2.515   6.133
 4564SOL     OW14590   1.681   5.669   6.797
 4564SOL    HW114591   1.747   5.729   6.841
 4564SOL    HW214592   1.660   5.703   6.705
 4565SOL     OW14593   2.510   0.819   4.066
 4565SOL    HW114594   2.549   0.769   3.989
 4565SOL    HW214595   2.423   0.859   4.039
 4566SOL     OW14596   0.789   1.730   0.350
 4566SOL    HW114597   0.698   1.730   0.393
 4566SOL    HW214598   0.848   1.794   0.399
 4567SOL     OW14599   6.843   0.982   0.539
 4567SOL    HW114600   6.841   1.006   0.636
 4567SOL    HW214601   6.774   0.912   0.520
 4568SOL     OW14602   3.409   4.989   4.838
 4568SOL    HW114603   3.335   4.922   4.834
 4568SOL    HW214604   3.441   4.999   4.932
 4569SOL     OW14605   0.327   2.126   3.870
 4569SOL    HW114606   0.404   2.183   3.900
 4569SOL    HW214607   0.309   2.055   3.938
 4570SOL     OW14608   6.724   5.274   4.332
 4570SOL    HW114609   6.698   5.178   4.337
 4570SOL    HW214610   6.726   5.303   4.236
 4571SOL     OW14611   3.425   3.199   3.961
 4571SOL    HW114612   3.481   3.147   4.026
 4571SOL    HW214613   3.445   3.297   3.971
 4572SOL     OW14614   2.380   6.083   1.917
 4572SOL    HW114615   2.404   6.025   1.840
 4572SOL    HW214616   2.463   6.113   1.964
 4573SOL     OW14617   5.522   6.531   0.745
 4573SOL    HW114618   5.510   6.540   0.646
 4573SOL    HW214619   5.605   6.478   0.763
 4574SOL     OW14620   0.683   4.525   1.876
 4574SOL    HW114621   0.779   4.521   1.904
 4574SOL    HW214622   0.627   4.476   1.942
 4575SOL     OW14623   6.559   6.807   1.850
 4575SOL    HW114624   6.621   6.743   1.806
 4575SOL    HW214625   6.587   6.901   1.829
 4576SOL     OW14626   3.348   5.886   4.576
 4576SOL    HW114627   3.339   5.985   4.565
 4576SOL    HW214628   3.420   5.851   4.516
 4577SOL     OW14629   1.113   2.529   4.295
 4577SOL    HW114630   1.098   2.590   4.217
 4577SOL    HW214631   1.039   2.540   4.361
 4578SOL     OW14632   0.466   4.173   4.067
 4578SOL    HW114633   0.479   4.163   3.969
 4578SOL    HW214634   0.424   4.090   4.104
 4579SOL     OW14635   5.132   2.294   4.018
 4579SOL    HW114636   5.202   2.365   4.030
 4579SOL    HW214637   5.051   2.334   3.977
 4580SOL     OW14638   0.197   5.932   0.314
 4580SOL    HW114639   0.245   6.016   0.340
 4580SOL    HW214640   0.255   5.853   0.332
 4581SOL     OW14641   3.459   5.757   3.493
 4581SOL    HW114642   3.444   5.836   3.434
 4581SOL    HW214643   3.396   5.760   3.570
 4582SOL     OW14644   4.397   6.714   2.981
 4582SOL    HW114645   4.378   6.792   3.041
 4582SOL    HW214646   4.442   6.747   2.898
 4583SOL     OW14647   4.407   1.510   5.160
 4583SOL    HW114648   4.318   1.466   5.167
 4583SOL    HW214649   4.397   1.608   5.178
 4584SOL     OW14650   0.254   4.584   5.556
 4584SOL    HW114651   0.286   4.675   5.528
 4584SOL    HW214652   0.246   4.525   5.475
 4585SOL     OW14653   3.832   6.651   2.542
 4585SOL    HW114654   3.897   6.727   2.543
 4585SOL    HW214655   3.874   6.569   2.581
 4586SOL     OW14656   3.052   6.172   2.070
 4586SOL    HW114657   3.119   6.149   2.140
 4586SOL    HW214658   3.098   6.209   1.989
 4587SOL     OW14659   2.296   4.389   1.107
 4587SOL    HW114660   2.224   4.432   1.053
 4587SOL    HW214661   2.271   4.391   1.204
 4588SOL     OW14662   4.479   3.922   5.562
 4588SOL    HW114663   4.559   3.978   5.585
 4588SOL    HW214664   4.439   3.955   5.476
 4589SOL     OW14665   1.175   1.575   3.819
 4589SOL    HW114666   1.168   1.496   3.758
 4589SOL    HW214667   1.246   1.558   3.887
 4590SOL     OW14668   4.408   5.686   2.577
 4590SOL    HW114669   4.452   5.677   2.487
 4590SOL    HW214670   4.455   5.629   2.643
 4591SOL     OW14671   6.294   6.463   5.129
 4591SOL    HW114672   6.216   6.439   5.186
 4591SOL    HW214673   6.341   6.543   5.168
 4592SOL     OW14674   3.163   1.513   5.775
 4592SOL    HW114675   3.116   1.587   5.728
 4592SOL    HW214676   3.098   1.441   5.798
 4593SOL     OW14677   4.111   6.676   1.364
 4593SOL    HW114678   4.072   6.625   1.441
 4593SOL    HW214679   4.037   6.712   1.306
 4594SOL     OW14680   3.124   1.702   2.742
 4594SOL    HW114681   3.072   1.658   2.669
 4594SOL    HW214682   3.222   1.687   2.728
 4595SOL     OW14683   4.395   2.459   5.644
 4595SOL    HW114684   4.448   2.375   5.634
 4595SOL    HW214685   4.367   2.471   5.739
 4596SOL     OW14686   6.097   0.103   2.264
 4596SOL    HW114687   6.030   0.108   2.338
 4596SOL    HW214688   6.102   0.009   2.230
 4597SOL     OW14689   0.066   4.790   6.830
 4597SOL    HW114690   0.124   4.709   6.839
 4597SOL    HW214691   7.005   4.782   6.890
 4598SOL     OW14692   2.976   4.583   0.559
 4598SOL    HW114693   3.076   4.579   0.547
 4598SOL    HW214694   2.935   4.500   0.520
 4599SOL     OW14695   1.826   5.291   0.117
 4599SOL    HW114696   1.738   5.335   0.134
 4599SOL    HW214697   1.899   5.347   0.155
 4600SOL     OW14698   3.935   5.227   1.511
 4600SOL    HW114699   3.955   5.252   1.416
 4600SOL    HW214700   3.844   5.261   1.535
 4601SOL     OW14701   1.892   6.003   4.372
 4601SOL    HW114702   1.927   6.024   4.463
 4601SOL    HW214703   1.963   5.956   4.319
 4602SOL     OW14704   1.954   1.148   0.562
 4602SOL    HW114705   1.922   1.059   0.593
 4602SOL    HW214706   2.052   1.157   0.581
 4603SOL     OW14707   3.390   0.924   2.259
 4603SOL    HW114708   3.363   0.964   2.346
 4603SOL    HW214709   3.414   0.997   2.195
 4604SOL     OW14710   2.527   0.571   2.244
 4604SOL    HW114711   2.462   0.643   2.268
 4604SOL    HW214712   2.487   0.482   2.265
 4605SOL     OW14713   5.028   6.735   5.614
 4605SOL    HW114714   5.112   6.683   5.607
 4605SOL    HW214715   5.019   6.772   5.707
 4606SOL     OW14716   6.968   6.526   5.702
 4606SOL    HW114717   6.966   6.590   5.779
 4606SOL    HW214718   6.909   6.560   5.629
 4607SOL     OW14719   2.379   2.187   1.107
 4607SOL    HW114720   2.425   2.234   1.031
 4607SOL    HW214721   2.324   2.253   1.158
 4608SOL     OW14722   1.863   3.401   5.215
 4608SOL    HW114723   1.924   3.378   5.139
 4608SOL    HW214724   1.784   3.340   5.213
 4609SOL     OW14725   4.159   6.690   6.743
 4609SOL    HW114726   4.229   6.657   6.806
 4609SOL    HW214727   4.071   6.649   6.767
 4610SOL     OW14728   0.821   3.340   6.712
 4610SOL    HW114729   0.899   3.280   6.731
 4610SOL    HW214730   0.810   3.405   6.787
 4611SOL     OW14731   0.745   3.599   6.857
 4611SOL    HW114732   0.691   3.670   6.901
 4611SOL    HW214733   0.840   3.630   6.849
 4612SOL     OW14734   2.352   0.465   6.293
 4612SOL    HW114735   2.441   0.507   6.309
 4612SOL    HW214736   2.280   0.523   6.332
 4613SOL     OW14737   2.795   5.345   2.069
 4613SOL    HW114738   2.712   5.351   2.124
 4613SOL    HW214739   2.865   5.294   2.120
 4614SOL     OW14740   2.135   5.287   0.636
 4614SOL    HW114741   2.110   5.367   0.582
 4614SOL    HW214742   2.053   5.247   0.677
 4615SOL     OW14743   0.138   2.922   0.235
 4615SOL    HW114744   0.080   2.848   0.202
 4615SOL    HW214745   0.092   3.010   0.221
 4616SOL     OW14746   5.985   0.722   0.119
 4616SOL    HW114747   6.050   0.791   0.151
 4616SOL    HW214748   5.928   0.761   0.047
 4617SOL     OW14749   0.215   3.433   2.020
 4617SOL    HW114750   0.241   3.476   2.107
 4617SOL    HW214751   0.222   3.333   2.029
 4618SOL     OW14752   1.092   1.967   6.050
 4618SOL    HW114753   1.120   2.053   6.008
 4618SOL    HW214754   1.067   1.984   6.146
 4619SOL     OW14755   3.112   0.677   3.946
 4619SOL    HW114756   3.209   0.671   3.921
 4619SOL    HW214757   3.082   0.772   3.939
 4620SOL     OW14758   2.434   4.632   6.232
 4620SOL    HW114759   2.378   4.572   6.176
 4620SOL    HW214760   2.395   4.639   6.324
 4621SOL     OW14761   0.396   6.821   6.523
 4621SOL    HW114762   0.468   6.888   6.506
 4621SOL    HW214763   0.307   6.866   6.524
 4622SOL     OW14764   2.284   3.619   1.233
 4622SOL    HW114765   2.203   3.666   1.197
 4622SOL    HW214766   2.338   3.583   1.157
 4623SOL     OW14767   5.907   4.463   2.504
 4623SOL    HW114768   5.925   4.552   2.463
 4623SOL    HW214769   5.989   4.406   2.498
 4624SOL     OW14770   4.627   6.871   5.737
 4624SOL    HW114771   4.586   6.927   5.665
 4624SOL    HW214772   4.593   6.777   5.729
 4625SOL     OW14773   1.415   3.367   6.421
 4625SOL    HW114774   1.438   3.348   6.517
 4625SOL    HW214775   1.483   3.429   6.382
 4626SOL     OW14776   5.816   5.462   2.198
 4626SOL    HW114777   5.882   5.412   2.143
 4626SOL    HW214778   5.848   5.556   2.211
 4627SOL     OW14779   2.129   0.459   5.927
 4627SOL    HW114780   2.163   0.538   5.979
 4627SOL    HW214781   2.133   0.377   5.984
 4628SOL     OW14782   0.051   3.850   1.694
 4628SOL    HW114783   0.003   3.764   1.674
 4628SOL    HW214784   0.115   3.870   1.620
 4629SOL     OW14785   3.825   5.253   5.029
 4629SOL    HW114786   3.848   5.246   5.126
 4629SOL    HW214787   3.756   5.324   5.016
 4630SOL     OW14788   2.634   0.451   2.834
 4630SOL    HW114789   2.597   0.358   2.832
 4630SOL    HW214790   2.658   0.479   2.741
 4631SOL     OW14791   2.406   0.743   2.627
 4631SOL    HW114792   2.413   0.808   2.702
 4631SOL    HW214793   2.332   0.771   2.565
 4632SOL     OW14794   5.344   5.283   4.117
 4632SOL    HW114795   5.322   5.199   4.068
 4632SOL    HW214796   5.303   5.361   4.070
 4633SOL     OW14797   5.984   2.475   5.640
 4633SOL    HW114798   6.018   2.562   5.677
 4633SOL    HW214799   5.997   2.474   5.541
 4634SOL     OW14800   3.502   4.592   0.894
 4634SOL    HW114801   3.413   4.549   0.908
 4634SOL    HW214802   3.572   4.544   0.947
 4635SOL     OW14803   5.111   4.282   1.093
 4635SOL    HW114804   5.019   4.248   1.073
 4635SOL    HW214805   5.178   4.226   1.044
 4636SOL     OW14806   1.714   5.258   1.016
 4636SOL    HW114807   1.705   5.233   1.112
 4636SOL    HW214808   1.674   5.186   0.958
 4637SOL     OW14809   1.704   0.908   5.311
 4637SOL    HW114810   1.633   0.975   5.288
 4637SOL    HW214811   1.661   0.824   5.344
 4638SOL     OW14812   5.568   3.497   6.357
 4638SOL    HW114813   5.598   3.554   6.280
 4638SOL    HW214814   5.499   3.546   6.410
 4639SOL     OW14815   6.423   3.149   5.106
 4639SOL    HW114816   6.351   3.175   5.171
 4639SOL    HW214817   6.397   3.064   5.060
 4640SOL     OW14818   6.227   4.165   2.546
 4640SOL    HW114819   6.325   4.145   2.554
 4640SOL    HW214820   6.184   4.098   2.485
 4641SOL     OW14821   2.772   4.731   5.514
 4641SOL    HW114822   2.754   4.738   5.612
 4641SOL    HW214823   2.844   4.795   5.488
 4642SOL     OW14824   5.823   5.774   4.428
 4642SOL    HW114825   5.920   5.771   4.407
 4642SOL    HW214826   5.803   5.711   4.503
 4643SOL     OW14827   4.007   2.777   1.274
 4643SOL    HW114828   4.076   2.781   1.201
 4643SOL    HW214829   4.016   2.690   1.323
 4644SOL     OW14830   2.322   4.939   4.784
 4644SOL    HW114831   2.303   4.887   4.868
 4644SOL    HW214832   2.348   5.032   4.807
 4645SOL     OW14833   1.971   6.025   4.649
 4645SOL    HW114834   1.899   6.093   4.665
 4645SOL    HW214835   2.014   6.002   4.736
 4646SOL     OW14836   3.707   0.371   1.764
 4646SOL    HW114837   3.761   0.287   1.764
 4646SOL    HW214838   3.759   0.445   1.807
 4647SOL     OW14839   6.991   0.392   4.547
 4647SOL    HW114840   6.926   0.331   4.591
 4647SOL    HW214841   6.945   0.477   4.521
 4648SOL     OW14842   1.999   4.824   2.429
 4648SOL    HW114843   2.096   4.804   2.420
 4648SOL    HW214844   1.945   4.748   2.393
 4649SOL     OW14845   5.394   6.342   6.603
 4649SOL    HW114846   5.383   6.432   6.646
 4649SOL    HW214847   5.419   6.355   6.507
 4650SOL     OW14848   6.932   5.035   1.992
 4650SOL    HW114849   0.011   5.018   2.007
 4650SOL    HW214850   6.891   4.957   1.944
 4651SOL     OW14851   0.150   1.771   1.366
 4651SOL    HW114852   0.194   1.697   1.316
 4651SOL    HW214853   0.220   1.825   1.413
 4652SOL     OW14854   0.343   6.151   5.507
 4652SOL    HW114855   0.284   6.229   5.484
 4652SOL    HW214856   0.351   6.091   5.428
 4653SOL     OW14857   0.908   5.687   6.622
 4653SOL    HW114858   0.833   5.681   6.556
 4653SOL    HW214859   0.967   5.763   6.598
 4654SOL     OW14860   0.894   1.588   6.608
 4654SOL    HW114861   0.986   1.618   6.582
 4654SOL    HW214862   0.883   1.492   6.584
 4655SOL     OW14863   0.419   5.485   3.508
 4655SOL    HW114864   0.332   5.436   3.498
 4655SOL    HW214865   0.402   5.583   3.514
 4656SOL     OW14866   2.446   0.271   2.974
 4656SOL    HW114867   2.538   0.283   3.012
 4656SOL    HW214868   2.384   0.239   3.045
 4657SOL     OW14869   5.661   6.984   6.720
 4657SOL    HW114870   5.700   0.013   6.640
 4657SOL    HW214871   5.730   6.981   6.793
 4658SOL     OW14872   5.033   1.010   3.349
 4658SOL    HW114873   5.021   1.102   3.389
 4658SOL    HW214874   5.108   0.964   3.395
 4659SOL     OW14875   2.236   2.255   4.330
 4659SOL    HW114876   2.264   2.315   4.256
 4659SOL    HW214877   2.155   2.292   4.375
 4660SOL     OW14878   6.596   1.246   5.645
 4660SOL    HW114879   6.642   1.158   5.657
 4660SOL    HW214880   6.508   1.245   5.693
 4661SOL     OW14881   3.947   3.154   3.533
 4661SOL    HW114882   4.018   3.213   3.494
 4661SOL    HW214883   3.953   3.156   3.633
 4662SOL     OW14884   5.508   0.394   4.291
 4662SOL    HW114885   5.426   0.423   4.242
 4662SOL    HW214886   5.506   0.295   4.305
 4663SOL     OW14887   0.204   1.431   2.347
 4663SOL    HW114888   0.180   1.526   2.366
 4663SOL    HW214889   0.121   1.378   2.331
 4664SOL     OW14890   3.063   3.277   0.261
 4664SOL    HW114891   3.003   3.336   0.315
 4664SOL    HW214892   3.042   3.181   0.281
 4665SOL     OW14893   5.546   0.697   6.922
 4665SOL    HW114894   5.570   0.603   6.900
 4665SOL    HW214895   5.477   0.698   6.994
 4666SOL     OW14896   2.825   1.644   0.095
 4666SOL    HW114897   2.835   1.624   7.016
 4666SOL    HW214898   2.873   1.574   0.148
 4667SOL     OW14899   0.450   5.722   5.415
 4667SOL    HW114900   0.545   5.750   5.427
 4667SOL    HW214901   0.404   5.723   5.504
 4668SOL     OW14902   5.489   1.911   4.964
 4668SOL    HW114903   5.395   1.889   4.991
 4668SOL    HW214904   5.546   1.830   4.971
 4669SOL     OW14905   2.853   0.730   0.915
 4669SOL    HW114906   2.765   0.682   0.922
 4669SOL    HW214907   2.844   0.807   0.852
 4670SOL     OW14908   1.733   1.062   4.397
 4670SOL    HW114909   1.684   0.981   4.363
 4670SOL    HW214910   1.692   1.093   4.482
 4671SOL     OW14911   5.373   3.476   0.725
 4671SOL    HW114912   5.333   3.567   0.733
 4671SOL    HW214913   5.428   3.471   0.642
 4672SOL     OW14914   2.542   3.308   5.669
 4672SOL    HW114915   2.450   3.274   5.690
 4672SOL    HW214916   2.536   3.379   5.598
 4673SOL     OW14917   3.419   0.369   2.494
 4673SOL    HW114918   3.368   0.284   2.480
 4673SOL    HW214919   3.370   0.426   2.560
 4674SOL     OW14920   4.351   6.180   6.262
 4674SOL    HW114921   4.450   6.181   6.247
 4674SOL    HW214922   4.320   6.273   6.282
 4675SOL     OW14923   1.367   3.849   5.927
 4675SOL    HW114924   1.292   3.912   5.905
 4675SOL    HW214925   1.450   3.877   5.879
 4676SOL     OW14926   0.614   5.429   3.917
 4676SOL    HW114927   0.686   5.499   3.924
 4676SOL    HW214928   0.636   5.367   3.842
 4677SOL     OW14929   0.769   3.270   0.651
 4677SOL    HW114930   0.691   3.208   0.659
 4677SOL    HW214931   0.851   3.226   0.689
 4678SOL     OW14932   2.294   4.208   2.013
 4678SOL    HW114933   2.321   4.289   1.961
 4678SOL    HW214934   2.303   4.127   1.956
 4679SOL     OW14935   4.238   0.350   1.410
 4679SOL    HW114936   4.145   0.388   1.412
 4679SOL    HW214937   4.283   0.369   1.498
 4680SOL     OW14938   1.727   0.746   0.846
 4680SOL    HW114939   1.693   0.771   0.937
 4680SOL    HW214940   1.786   0.819   0.811
 4681SOL     OW14941   5.037   5.574   1.933
 4681SOL    HW114942   4.963   5.514   1.964
 4681SOL    HW214943   5.122   5.521   1.926
 4682SOL     OW14944   3.499   4.053   6.988
 4682SOL    HW114945   3.591   4.071   6.955
 4682SOL    HW214946   3.503   3.992   0.050
 4683SOL     OW14947   6.332   4.369   4.149
 4683SOL    HW114948   6.298   4.308   4.077
 4683SOL    HW214949   6.263   4.439   4.168
 4684SOL     OW14950   5.785   6.366   0.227
 4684SOL    HW114951   5.829   6.411   0.149
 4684SOL    HW214952   5.687   6.356   0.209
 4685SOL     OW14953   3.460   3.814   4.883
 4685SOL    HW114954   3.431   3.718   4.885
 4685SOL    HW214955   3.465   3.844   4.788
 4686SOL     OW14956   3.307   5.942   0.495
 4686SOL    HW114957   3.278   5.858   0.540
 4686SOL    HW214958   3.327   5.924   0.399
 4687SOL     OW14959   2.946   0.597   3.023
 4687SOL    HW114960   3.000   0.657   2.962
 4687SOL    HW214961   2.849   0.610   3.004
 4688SOL     OW14962   5.948   3.057   5.591
 4688SOL    HW114963   5.860   3.020   5.619
 4688SOL    HW214964   6.015   2.982   5.584
 4689SOL     OW14965   6.293   0.793   2.640
 4689SOL    HW114966   6.293   0.823   2.735
 4689SOL    HW214967   6.199   0.789   2.606
 4690SOL     OW14968   2.284   1.901   0.914
 4690SOL    HW114969   2.302   1.863   0.823
 4690SOL    HW214970   2.247   1.993   0.905
 4691SOL     OW14971   6.863   4.315   1.918
 4691SOL    HW114972   6.906   4.240   1.968
 4691SOL    HW214973   6.768   4.326   1.949
 4692SOL     OW14974   5.128   3.085   2.028
 4692SOL    HW114975   5.118   3.101   1.930
 4692SOL    HW214976   5.040   3.102   2.074
 4693SOL     OW14977   1.506   0.595   3.153
 4693SOL    HW114978   1.515   0.497   3.172
 4693SOL    HW214979   1.510   0.646   3.239
 4694SOL     OW14980   1.597   0.730   6.840
 4694SOL    HW114981   1.612   0.687   6.929
 4694SOL    HW214982   1.641   0.675   6.769
 4695SOL     OW14983   1.385   6.407   1.645
 4695SOL    HW114984   1.373   6.468   1.724
 4695SOL    HW214985   1.326   6.327   1.656
 4696SOL     OW14986   2.058   5.276   5.626
 4696SOL    HW114987   1.958   5.285   5.625
 4696SOL    HW214988   2.099   5.342   5.563
 4697SOL     OW14989   4.226   5.341   1.517
 4697SOL    HW114990   4.216   5.307   1.423
 4697SOL    HW214991   4.136   5.371   1.551
 4698SOL     OW14992   5.101   1.167   4.628
 4698SOL    HW114993   5.163   1.088   4.628
 4698SOL    HW214994   5.139   1.238   4.687
 4699SOL     OW14995   1.491   0.110   2.307
 4699SOL    HW114996   1.421   0.158   2.253
 4699SOL    HW214997   1.553   0.177   2.348
 4700SOL     OW14998   6.493   2.088   2.149
 4700SOL    HW114999   6.481   2.187   2.157
 4700SOL    HW215000   6.417   2.050   2.096
 4701SOL     OW15001   3.017   2.250   1.689
 4701SOL    HW115002   3.095   2.205   1.732
 4701SOL    HW215003   2.954   2.281   1.759
 4702SOL     OW15004   5.376   4.832   6.537
 4702SOL    HW115005   5.404   4.912   6.591
 4702SOL    HW215006   5.297   4.856   6.481
 4703SOL     OW15007   0.911   5.359   3.425
 4703SOL    HW115008   0.904   5.259   3.422
 4703SOL    HW215009   0.900   5.396   3.333
 4704SOL     OW15010   1.296   5.269   4.871
 4704SOL    HW115011   1.387   5.306   4.887
 4704SOL    HW215012   1.286   5.243   4.775
 4705SOL     OW15013   3.469   1.803   1.832
 4705SOL    HW115014   3.382   1.754   1.840
 4705SOL    HW215015   3.455   1.899   1.857
 4706SOL     OW15016   2.435   1.143   0.397
 4706SOL    HW115017   2.415   1.235   0.430
 4706SOL    HW215018   2.513   1.146   0.335
 4707SOL     OW15019   1.645   6.132   1.816
 4707SOL    HW115020   1.616   6.061   1.880
 4707SOL    HW215021   1.588   6.129   1.735
 4708SOL     OW15022   1.418   2.619   4.410
 4708SOL    HW115023   1.372   2.702   4.442
 4708SOL    HW215024   1.447   2.565   4.489
 4709SOL     OW15025   4.773   4.020   5.549
 4709SOL    HW115026   4.851   3.957   5.551
 4709SOL    HW215027   4.804   4.110   5.518
 4710SOL     OW15028   6.325   5.916   5.336
 4710SOL    HW115029   6.335   5.822   5.301
 4710SOL    HW215030   6.233   5.950   5.313
 4711SOL     OW15031   5.214   3.890   2.365
 4711SOL    HW115032   5.275   3.934   2.431
 4711SOL    HW215033   5.242   3.795   2.352
 4712SOL     OW15034   4.711   4.404   5.582
 4712SOL    HW115035   4.620   4.394   5.541
 4712SOL    HW215036   4.707   4.381   5.679
 4713SOL     OW15037   6.307   4.076   1.177
 4713SOL    HW115038   6.404   4.055   1.165
 4713SOL    HW215039   6.266   4.097   1.088
 4714SOL     OW15040   4.305   1.183   6.586
 4714SOL    HW115041   4.349   1.224   6.666
 4714SOL    HW215042   4.205   1.186   6.599
 4715SOL     OW15043   6.315   1.599   2.139
 4715SOL    HW115044   6.267   1.518   2.108
 4715SOL    HW215045   6.358   1.581   2.228
 4716SOL     OW15046   3.814   5.154   5.972
 4716SOL    HW115047   3.829   5.094   5.893
 4716SOL    HW215048   3.752   5.228   5.947
 4717SOL     OW15049   2.671   4.993   5.331
 4717SOL    HW115050   2.763   5.026   5.311
 4717SOL    HW215051   2.655   4.908   5.281
 4718SOL     OW15052   4.497   4.888   0.625
 4718SOL    HW115053   4.556   4.840   0.690
 4718SOL    HW215054   4.534   4.979   0.609
 4719SOL     OW15055   0.240   4.482   3.901
 4719SOL    HW115056   0.294   4.481   3.985
 4719SOL    HW215057   0.270   4.408   3.841
 4720SOL     OW15058   1.886   3.074   6.807
 4720SOL    HW115059   1.965   3.053   6.749
 4720SOL    HW215060   1.871   2.998   6.870
 4721SOL     OW15061   7.012   2.869   2.884
 4721SOL    HW115062   0.029   2.961   2.869
 4721SOL    HW215063   6.927   2.857   2.834
 4722SOL     OW15064   1.170   5.928   6.802
 4722SOL    HW115065   1.246   5.886   6.851
 4722SOL    HW215066   1.197   6.019   6.769
 4723SOL     OW15067   3.800   4.105   0.306
 4723SOL    HW115068   3.702   4.123   0.297
 4723SOL    HW215069   3.819   4.010   0.282
 4724SOL     OW15070   0.426   6.733   5.313
 4724SOL    HW115071   0.371   6.652   5.336
 4724SOL    HW215072   0.492   6.709   5.243
 4725SOL     OW15073   5.368   6.078   1.227
 4725SOL    HW115074   5.327   6.123   1.306
 4725SOL    HW215075   5.299   6.068   1.155
 4726SOL     OW15076   1.321   3.372   5.489
 4726SOL    HW115077   1.297   3.297   5.428
 4726SOL    HW215078   1.247   3.439   5.490
 4727SOL     OW15079   6.957   4.807   1.165
 4727SOL    HW115080   6.893   4.780   1.237
 4727SOL    HW215081   6.941   4.903   1.142
 4728SOL     OW15082   6.347   1.266   4.440
 4728SOL    HW115083   6.319   1.194   4.503
 4728SOL    HW215084   6.447   1.274   4.441
 4729SOL     OW15085   6.268   1.853   2.014
 4729SOL    HW115086   6.266   1.758   2.047
 4729SOL    HW215087   6.186   1.871   1.960
 4730SOL     OW15088   3.165   6.659   4.491
 4730SOL    HW115089   3.150   6.578   4.549
 4730SOL    HW215090   3.173   6.631   4.396
 4731SOL     OW15091   3.142   6.466   0.135
 4731SOL    HW115092   3.083   6.473   0.216
 4731SOL    HW215093   3.228   6.421   0.159
 4732SOL     OW15094   0.042   5.086   4.275
 4732SOL    HW115095   0.107   5.136   4.218
 4732SOL    HW215096   7.010   5.021   4.217
 4733SOL     OW15097   2.275   4.101   2.864
 4733SOL    HW115098   2.340   4.078   2.791
 4733SOL    HW215099   2.188   4.053   2.846
 4734SOL     OW15100   5.236   3.933   6.511
 4734SOL    HW115101   5.184   3.960   6.592
 4734SOL    HW215102   5.176   3.882   6.449
 4735SOL     OW15103   0.256   0.609   4.842
 4735SOL    HW115104   0.194   0.646   4.773
 4735SOL    HW215105   0.342   0.582   4.800
 4736SOL     OW15106   6.391   2.008   3.353
 4736SOL    HW115107   6.379   2.101   3.387
 4736SOL    HW215108   6.488   1.987   3.345
 4737SOL     OW15109   2.095   4.792   6.869
 4737SOL    HW115110   2.139   4.726   6.808
 4737SOL    HW215111   2.022   4.746   6.920
 4738SOL     OW15112   0.994   6.494   3.270
 4738SOL    HW115113   1.027   6.500   3.364
 4738SOL    HW215114   0.925   6.565   3.254
 4739SOL     OW15115   6.611   2.802   3.059
 4739SOL    HW115116   6.705   2.834   3.049
 4739SOL    HW215117   6.571   2.790   2.968
 4740SOL     OW15118   0.790   0.982   1.439
 4740SOL    HW115119   0.702   1.002   1.481
 4740SOL    HW215120   0.844   0.924   1.500
 4741SOL     OW15121   4.807   4.358   1.699
 4741SOL    HW115122   4.729   4.298   1.679
 4741SOL    HW215123   4.876   4.348   1.628
 4742SOL     OW15124   2.672   5.834   2.157
 4742SOL    HW115125   2.766   5.803   2.174
 4742SOL    HW215126   2.667   5.933   2.167
 4743SOL     OW15127   2.457   2.730   0.246
 4743SOL    HW115128   2.452   2.829   0.256
 4743SOL    HW215129   2.516   2.692   0.316
 4744SOL     OW15130   1.937   2.485   4.934
 4744SOL    HW115131   1.883   2.462   5.014
 4744SOL    HW215132   1.886   2.549   4.876
 4745SOL     OW15133   3.320   5.727   4.986
 4745SOL    HW115134   3.413   5.756   5.006
 4745SOL    HW215135   3.256   5.770   5.049
 4746SOL     OW15136   5.990   0.650   0.782
 4746SOL    HW115137   5.892   0.663   0.762
 4746SOL    HW215138   6.018   0.713   0.854
 4747SOL     OW15139   6.336   2.579   1.618
 4747SOL    HW115140   6.324   2.620   1.708
 4747SOL    HW215141   6.252   2.589   1.565
 4748SOL     OW15142   1.843   0.775   1.418
 4748SOL    HW115143   1.838   0.708   1.344
 4748SOL    HW215144   1.780   0.851   1.399
 4749SOL     OW15145   2.259   0.272   6.125
 4749SOL    HW115146   2.291   0.329   6.201
 4749SOL    HW215147   2.291   0.178   6.139
 4750SOL     OW15148   0.530   1.385   4.686
 4750SOL    HW115149   0.612   1.442   4.674
 4750SOL    HW215150   0.487   1.370   4.598
 4751SOL     OW15151   1.020   3.279   5.760
 4751SOL    HW115152   1.117   3.299   5.751
 4751SOL    HW215153   0.981   3.334   5.833
 4752SOL     OW15154   2.502   6.347   1.554
 4752SOL    HW115155   2.410   6.323   1.585
 4752SOL    HW215156   2.570   6.300   1.611
 4753SOL     OW15157   0.074   0.237   5.047
 4753SOL    HW115158   0.080   0.148   5.093
 4753SOL    HW215159   0.147   0.244   4.979
 4754SOL     OW15160   0.707   0.405   5.816
 4754SOL    HW115161   0.744   0.330   5.760
 4754SOL    HW215162   0.782   0.463   5.848
 4755SOL     OW15163   2.359   1.413   0.611
 4755SOL    HW115164   2.282   1.472   0.583
 4755SOL    HW215165   2.422   1.466   0.668
 4756SOL     OW15166   4.716   3.184   1.259
 4756SOL    HW115167   4.637   3.177   1.320
 4756SOL    HW215168   4.794   3.139   1.301
 4757SOL     OW15169   2.133   1.778   1.910
 4757SOL    HW115170   2.089   1.761   1.822
 4757SOL    HW215171   2.078   1.844   1.963
 4758SOL     OW15172   4.882   4.277   5.175
 4758SOL    HW115173   4.962   4.233   5.133
 4758SOL    HW215174   4.825   4.316   5.103
 4759SOL     OW15175   5.957   4.569   5.712
 4759SOL    HW115176   5.981   4.666   5.710
 4759SOL    HW215177   6.006   4.521   5.640
 4760SOL     OW15178   1.888   2.253   0.753
 4760SOL    HW115179   1.835   2.331   0.787
 4760SOL    HW215180   1.955   2.284   0.685
 4761SOL     OW15181   1.402   5.618   5.423
 4761SOL    HW115182   1.319   5.566   5.402
 4761SOL    HW215183   1.402   5.641   5.521
 4762SOL     OW15184   3.403   0.011   2.865
 4762SOL    HW115185   3.382   6.993   2.955
 4762SOL    HW215186   3.501   0.001   2.847
 4763SOL     OW15187   6.117   5.678   5.022
 4763SOL    HW115188   6.149   5.751   5.082
 4763SOL    HW215189   6.182   5.603   5.022
 4764SOL     OW15190   4.141   3.494   5.198
 4764SOL    HW115191   4.167   3.499   5.102
 4764SOL    HW215192   4.128   3.398   5.224
 4765SOL     OW15193   6.921   4.836   5.258
 4765SOL    HW115194   7.003   4.854   5.312
 4765SOL    HW215195   6.920   4.895   5.177
 4766SOL     OW15196   3.189   0.519   3.582
 4766SOL    HW115197   3.244   0.475   3.653
 4766SOL    HW215198   3.103   0.469   3.570
 4767SOL     OW15199   4.412   5.883   6.304
 4767SOL    HW115200   4.393   5.976   6.274
 4767SOL    HW215201   4.436   5.883   6.401
 4768SOL     OW15202   0.278   1.170   4.761
 4768SOL    HW115203   0.320   1.164   4.852
 4768SOL    HW215204   0.344   1.140   4.692
 4769SOL     OW15205   3.100   0.259   1.955
 4769SOL    HW115206   3.146   0.198   2.020
 4769SOL    HW215207   3.155   0.266   1.872
 4770SOL     OW15208   2.554   0.247   3.956
 4770SOL    HW115209   2.615   0.324   3.936
 4770SOL    HW215210   2.604   0.177   4.007
 4771SOL     OW15211   3.936   4.085   5.438
 4771SOL    HW115212   4.009   4.107   5.373
 4771SOL    HW215213   3.874   4.019   5.397
 4772SOL     OW15214   2.057   2.422   1.138
 4772SOL    HW115215   2.068   2.518   1.112
 4772SOL    HW215216   1.993   2.416   1.215
 4773SOL     OW15217   6.125   5.704   3.545
 4773SOL    HW115218   6.214   5.748   3.531
 4773SOL    HW215219   6.063   5.768   3.591
 4774SOL     OW15220   0.994   4.154   0.484
 4774SOL    HW115221   1.059   4.078   0.490
 4774SOL    HW215222   0.913   4.125   0.434
 4775SOL     OW15223   2.460   1.405   2.514
 4775SOL    HW115224   2.508   1.469   2.575
 4775SOL    HW215225   2.463   1.440   2.421
 4776SOL     OW15226   4.076   5.031   1.664
 4776SOL    HW115227   4.055   5.108   1.604
 4776SOL    HW215228   3.996   5.010   1.720
 4777SOL     OW15229   2.554   4.549   1.356
 4777SOL    HW115230   2.489   4.606   1.407
 4777SOL    HW215231   2.611   4.608   1.298
 4778SOL     OW15232   5.249   3.537   2.097
 4778SOL    HW115233   5.150   3.549   2.102
 4778SOL    HW215234   5.273   3.494   2.010
 4779SOL     OW15235   4.926   0.715   3.277
 4779SOL    HW115236   4.868   0.746   3.202
 4779SOL    HW215237   4.950   0.793   3.335
 4780SOL     OW15238   1.859   6.643   5.614
 4780SOL    HW115239   1.893   6.663   5.706
 4780SOL    HW215240   1.766   6.678   5.604
 4781SOL     OW15241   1.961   5.292   2.161
 4781SOL    HW115242   1.861   5.287   2.172
 4781SOL    HW215243   1.995   5.374   2.206
 4782SOL     OW15244   5.638   5.906   6.668
 4782SOL    HW115245   5.547   5.931   6.637
 4782SOL    HW215246   5.643   5.807   6.682
 4783SOL     OW15247   6.289   4.134   2.179
 4783SOL    HW115248   6.384   4.136   2.210
 4783SOL    HW215249   6.283   4.172   2.087
 4784SOL     OW15250   6.091   4.346   5.539
 4784SOL    HW115251   6.036   4.273   5.498
 4784SOL    HW215252   6.174   4.358   5.485
 4785SOL     OW15253   6.113   6.977   0.900
 4785SOL    HW115254   6.076   0.011   0.977
 4785SOL    HW215255   6.049   6.904   0.875
 4786SOL     OW15256   1.342   3.088   2.504
 4786SOL    HW115257   1.378   3.015   2.446
 4786SOL    HW215258   1.331   3.171   2.449
 4787SOL     OW15259   3.739   2.122   2.284
 4787SOL    HW115260   3.834   2.101   2.261
 4787SOL    HW215261   3.688   2.145   2.201
 4788SOL     OW15262   0.963   6.151   5.188
 4788SOL    HW115263   0.880   6.142   5.242
 4788SOL    HW215264   0.948   6.114   5.096
 4789SOL     OW15265   6.380   0.357   0.742
 4789SOL    HW115266   6.430   0.346   0.656
 4789SOL    HW215267   6.384   0.453   0.770
 4790SOL     OW15268   4.847   1.126   0.157
 4790SOL    HW115269   4.815   1.032   0.144
 4790SOL    HW215270   4.944   1.131   0.132
 4791SOL     OW15271   4.818   0.252   2.673
 4791SOL    HW115272   4.754   0.282   2.602
 4791SOL    HW215273   4.912   0.264   2.640
 4792SOL     OW15274   2.612   2.358   1.551
 4792SOL    HW115275   2.669   2.440   1.546
 4792SOL    HW215276   2.645   2.290   1.486
 4793SOL     OW15277   0.771   6.766   5.916
 4793SOL    HW115278   0.679   6.804   5.910
 4793SOL    HW215279   0.770   6.687   5.977
 4794SOL     OW15280   3.943   0.868   2.086
 4794SOL    HW115281   4.008   0.922   2.139
 4794SOL    HW215282   3.965   0.771   2.095
 4795SOL     OW15283   6.159   3.051   4.555
 4795SOL    HW115284   6.208   2.976   4.599
 4795SOL    HW215285   6.071   3.064   4.599
 4796SOL     OW15286   5.973   4.025   1.090
 4796SOL    HW115287   5.979   4.055   1.186
 4796SOL    HW215288   5.967   3.925   1.087
 4797SOL     OW15289   0.229   4.820   4.801
 4797SOL    HW115290   0.197   4.735   4.844
 4797SOL    HW215291   0.249   4.803   4.705
 4798SOL     OW15292   6.532   4.313   4.986
 4798SOL    HW115293   6.454   4.356   5.031
 4798SOL    HW215294   6.517   4.312   4.887
 4799SOL     OW15295   4.218   1.208   5.188
 4799SOL    HW115296   4.242   1.234   5.281
 4799SOL    HW215297   4.225   1.109   5.178
 4800SOL     OW15298   1.790   2.052   4.307
 4800SOL    HW115299   1.705   2.054   4.255
 4800SOL    HW215300   1.823   2.145   4.321
 4801SOL     OW15301   1.299   2.327   0.838
 4801SOL    HW115302   1.308   2.404   0.902
 4801SOL    HW215303   1.228   2.265   0.872
 4802SOL     OW15304   1.623   0.752   2.430
 4802SOL    HW115305   1.637   0.846   2.462
 4802SOL    HW215306   1.546   0.749   2.367
 4803SOL     OW15307   0.848   0.235   1.034
 4803SOL    HW115308   0.938   0.221   0.991
 4803SOL    HW215309   0.784   0.166   1.001
 4804SOL     OW15310   4.052   5.383   0.247
 4804SOL    HW115311   4.105   5.459   0.210
 4804SOL    HW215312   4.091   5.297   0.213
 4805SOL     OW15313   0.964   1.902   0.469
 4805SOL    HW115314   0.962   1.833   0.541
 4805SOL    HW215315   0.999   1.988   0.507
 4806SOL     OW15316   0.528   2.979   3.310
 4806SOL    HW115317   0.453   3.040   3.337
 4806SOL    HW215318   0.576   3.019   3.232
 4807SOL     OW15319   0.678   0.002   0.933
 4807SOL    HW115320   0.647   0.085   0.886
 4807SOL    HW215321   0.680   6.944   0.868
 4808SOL     OW15322   5.212   3.573   1.530
 4808SOL    HW115323   5.216   3.608   1.437
 4808SOL    HW215324   5.168   3.640   1.590
 4809SOL     OW15325   4.271   5.885   6.822
 4809SOL    HW115326   4.232   5.976   6.805
 4809SOL    HW215327   4.370   5.893   6.838
 4810SOL     OW15328   0.822   0.632   0.897
 4810SOL    HW115329   0.817   0.569   0.820
 4810SOL    HW215330   0.740   0.623   0.953
 4811SOL     OW15331   5.093   6.106   2.566
 4811SOL    HW115332   5.036   6.049   2.625
 4811SOL    HW215333   5.125   6.052   2.488
 4812SOL     OW15334   6.402   5.084   4.422
 4812SOL    HW115335   6.320   5.129   4.387
 4812SOL    HW215336   6.405   5.093   4.521
 4813SOL     OW15337   5.840   2.475   2.677
 4813SOL    HW115338   5.849   2.555   2.618
 4813SOL    HW215339   5.923   2.465   2.732
 4814SOL     OW15340   6.780   3.385   1.414
 4814SOL    HW115341   6.872   3.364   1.380
 4814SOL    HW215342   6.779   3.378   1.514
 4815SOL     OW15343   3.801   6.287   2.434
 4815SOL    HW115344   3.740   6.348   2.384
 4815SOL    HW215345   3.817   6.205   2.379
 4816SOL     OW15346   5.346   5.366   3.203
 4816SOL    HW115347   5.435   5.360   3.249
 4816SOL    HW215348   5.278   5.401   3.267
 4817SOL     OW15349   6.870   2.082   6.584
 4817SOL    HW115350   6.856   2.134   6.668
 4817SOL    HW215351   6.817   2.123   6.510
 4818SOL     OW15352   0.100   6.130   4.123
 4818SOL    HW115353   0.027   6.131   4.055
 4818SOL    HW215354   0.185   6.163   4.080
 4819SOL     OW15355   1.716   3.048   0.666
 4819SOL    HW115356   1.790   3.079   0.725
 4819SOL    HW215357   1.633   3.101   0.686
 4820SOL     OW15358   0.371   2.775   2.505
 4820SOL    HW115359   0.344   2.781   2.601
 4820SOL    HW215360   0.470   2.761   2.499
 4821SOL     OW15361   6.837   5.738   3.631
 4821SOL    HW115362   6.740   5.717   3.624
 4821SOL    HW215363   6.890   5.654   3.630
 4822SOL     OW15364   1.934   4.017   4.571
 4822SOL    HW115365   1.867   4.010   4.646
 4822SOL    HW215366   1.954   4.114   4.555
 4823SOL     OW15367   2.110   2.654   2.030
 4823SOL    HW115368   2.055   2.623   2.108
 4823SOL    HW215369   2.207   2.651   2.054
 4824SOL     OW15370   6.073   1.820   6.754
 4824SOL    HW115371   6.032   1.909   6.736
 4824SOL    HW215372   6.172   1.830   6.762
 4825SOL     OW15373   1.386   6.661   3.472
 4825SOL    HW115374   1.308   6.721   3.457
 4825SOL    HW215375   1.410   6.661   3.569
 4826SOL     OW15376   3.988   0.502   0.941
 4826SOL    HW115377   4.054   0.429   0.922
 4826SOL    HW215378   3.902   0.461   0.974
 4827SOL     OW15379   6.886   1.836   0.277
 4827SOL    HW115380   6.929   1.926   0.265
 4827SOL    HW215381   6.799   1.847   0.325
 4828SOL     OW15382   5.232   0.927   4.657
 4828SOL    HW115383   5.315   0.949   4.709
 4828SOL    HW215384   5.164   0.886   4.718
 4829SOL     OW15385   4.113   6.424   5.347
 4829SOL    HW115386   4.020   6.449   5.321
 4829SOL    HW215387   4.122   6.324   5.343
 4830SOL     OW15388   2.243   6.100   3.066
 4830SOL    HW115389   2.274   6.169   3.131
 4830SOL    HW215390   2.214   6.145   2.981
 4831SOL     OW15391   3.056   4.769   5.264
 4831SOL    HW115392   3.006   4.683   5.252
 4831SOL    HW215393   3.154   4.752   5.251
 4832SOL     OW15394   3.539   3.545   4.234
 4832SOL    HW115395   3.483   3.478   4.282
 4832SOL    HW215396   3.539   3.525   4.136
 4833SOL     OW15397   6.230   3.604   4.959
 4833SOL    HW115398   6.247   3.506   4.965
 4833SOL    HW215399   6.308   3.650   4.918
 4834SOL     OW15400   1.031   4.796   0.889
 4834SOL    HW115401   1.063   4.795   0.984
 4834SOL    HW215402   1.040   4.888   0.852
 4835SOL     OW15403   6.751   2.713   5.937
 4835SOL    HW115404   6.700   2.649   5.995
 4835SOL    HW215405   6.754   2.677   5.844
 4836SOL     OW15406   4.581   1.870   5.757
 4836SOL    HW115407   4.516   1.889   5.682
 4836SOL    HW215408   4.669   1.911   5.735
 4837SOL     OW15409   0.245   3.683   4.003
 4837SOL    HW115410   0.163   3.627   3.994
 4837SOL    HW215411   0.293   3.659   4.087
 4838SOL     OW15412   2.250   3.630   5.802
 4838SOL    HW115413   2.221   3.619   5.707
 4838SOL    HW215414   2.340   3.587   5.814
 4839SOL     OW15415   2.477   1.272   0.904
 4839SOL    HW115416   2.539   1.306   0.834
 4839SOL    HW215417   2.479   1.335   0.983
 4840SOL     OW15418   6.014   3.364   4.947
 4840SOL    HW115419   5.992   3.452   4.907
 4840SOL    HW215420   6.081   3.316   4.889
 4841SOL     OW15421   2.784   6.389   3.154
 4841SOL    HW115422   2.823   6.472   3.195
 4841SOL    HW215423   2.856   6.321   3.140
 4842SOL     OW15424   3.752   5.658   3.016
 4842SOL    HW115425   3.840   5.632   3.056
 4842SOL    HW215426   3.741   5.757   3.021
 4843SOL     OW15427   0.068   1.586   6.984
 4843SOL    HW115428   0.112   1.514   6.930
 4843SOL    HW215429   0.049   1.551   0.057
 4844SOL     OW15430   1.935   5.607   5.619
 4844SOL    HW115431   1.948   5.584   5.716
 4844SOL    HW215432   1.901   5.526   5.570
 4845SOL     OW15433   4.972   3.757   4.971
 4845SOL    HW115434   4.945   3.837   5.024
 4845SOL    HW215435   4.910   3.681   4.991
 4846SOL     OW15436   6.311   3.597   4.580
 4846SOL    HW115437   6.258   3.675   4.615
 4846SOL    HW215438   6.353   3.548   4.656
 4847SOL     OW15439   2.603   6.467   6.177
 4847SOL    HW115440   2.651   6.548   6.144
 4847SOL    HW215441   2.614   6.459   6.276
 4848SOL     OW15442   4.737   0.969   4.167
 4848SOL    HW115443   4.714   1.059   4.133
 4848SOL    HW215444   4.834   0.966   4.192
 4849SOL     OW15445   2.576   6.207   1.313
 4849SOL    HW115446   2.491   6.239   1.354
 4849SOL    HW215447   2.651   6.218   1.379
 4850SOL     OW15448   3.659   0.191   0.944
 4850SOL    HW115449   3.581   0.133   0.921
 4850SOL    HW215450   3.626   0.276   0.985
 4851SOL     OW15451   3.632   4.269   6.286
 4851SOL    HW115452   3.581   4.236   6.366
 4851SOL    HW215453   3.670   4.191   6.237
 4852SOL     OW15454   5.707   4.861   5.917
 4852SOL    HW115455   5.762   4.939   5.948
 4852SOL    HW215456   5.611   4.876   5.940
 4853SOL     OW15457   4.425   0.246   2.494
 4853SOL    HW115458   4.510   0.197   2.512
 4853SOL    HW215459   4.394   0.227   2.400
 4854SOL     OW15460   4.760   6.448   2.418
 4854SOL    HW115461   4.713   6.533   2.443
 4854SOL    HW215462   4.833   6.430   2.484
 4855SOL     OW15463   4.690   4.638   5.775
 4855SOL    HW115464   4.786   4.614   5.764
 4855SOL    HW215465   4.642   4.565   5.824
 4856SOL     OW15466   0.773   4.280   2.947
 4856SOL    HW115467   0.745   4.258   2.854
 4856SOL    HW215468   0.694   4.312   2.999
 4857SOL     OW15469   2.195   2.436   5.159
 4857SOL    HW115470   2.170   2.400   5.249
 4857SOL    HW215471   2.153   2.379   5.088
 4858SOL     OW15472   1.778   6.235   4.251
 4858SOL    HW115473   1.851   6.169   4.273
 4858SOL    HW215474   1.714   6.241   4.328
 4859SOL     OW15475   6.968   5.787   3.010
 4859SOL    HW115476   6.875   5.819   3.031
 4859SOL    HW215477   0.000   5.772   3.094
 4860SOL     OW15478   4.073   5.450   2.110
 4860SOL    HW115479   3.984   5.421   2.146
 4860SOL    HW215480   4.138   5.461   2.185
 4861SOL     OW15481   0.053   4.004   5.771
 4861SOL    HW115482   0.109   4.073   5.725
 4861SOL    HW215483   6.986   3.991   5.720
 4862SOL     OW15484   1.909   5.926   3.884
 4862SOL    HW115485   1.893   5.878   3.798
 4862SOL    HW215486   1.877   5.869   3.960
 4863SOL     OW15487   5.334   2.023   2.652
 4863SOL    HW115488   5.411   2.012   2.588
 4863SOL    HW215489   5.336   2.114   2.691
 4864SOL     OW15490   2.359   1.299   1.222
 4864SOL    HW115491   2.275   1.251   1.200
 4864SOL    HW215492   2.338   1.381   1.275
 4865SOL     OW15493   3.933   5.642   4.781
 4865SOL    HW115494   3.961   5.551   4.812
 4865SOL    HW215495   3.953   5.652   4.684
 4866SOL     OW15496   0.437   4.943   2.121
 4866SOL    HW115497   0.345   4.981   2.110
 4866SOL    HW215498   0.472   4.969   2.211
 4867SOL     OW15499   5.029   4.892   4.185
 4867SOL    HW115500   4.984   4.981   4.191
 4867SOL    HW215501   5.010   4.840   4.269
 4868SOL     OW15502   1.592   6.315   1.479
 4868SOL    HW115503   1.524   6.351   1.542
 4868SOL    HW215504   1.585   6.363   1.391
 4869SOL     OW15505   5.975   1.595   1.048
 4869SOL    HW115506   5.893   1.651   1.042
 4869SOL    HW215507   5.973   1.543   1.133
 4870SOL     OW15508   6.675   0.261   0.838
 4870SOL    HW115509   6.759   0.274   0.786
 4870SOL    HW215510   6.651   0.164   0.839
 4871SOL     OW15511   1.540   3.610   4.420
 4871SOL    HW115512   1.544   3.642   4.325
 4871SOL    HW215513   1.539   3.688   4.482
 4872SOL     OW15514   0.889   0.464   4.249
 4872SOL    HW115515   0.818   0.393   4.238
 4872SOL    HW215516   0.969   0.440   4.194
 4873SOL     OW15517   1.304   6.342   5.075
 4873SOL    HW115518   1.308   6.242   5.077
 4873SOL    HW215519   1.242   6.374   5.147
 4874SOL     OW15520   5.764   3.064   3.651
 4874SOL    HW115521   5.726   3.066   3.744
 4874SOL    HW215522   5.723   2.988   3.600
 4875SOL     OW15523   6.825   2.538   6.255
 4875SOL    HW115524   6.867   2.495   6.176
 4875SOL    HW215525   6.882   2.614   6.286
 4876SOL     OW15526   6.988   1.587   0.238
 4876SOL    HW115527   0.068   1.594   0.258
 4876SOL    HW215528   6.941   1.668   0.274
 4877SOL     OW15529   6.184   1.276   1.748
 4877SOL    HW115530   6.087   1.266   1.767
 4877SOL    HW215531   6.228   1.186   1.752
 4878SOL     OW15532   0.126   2.856   1.761
 4878SOL    HW115533   0.041   2.906   1.777
 4878SOL    HW215534   0.200   2.921   1.743
 4879SOL     OW15535   4.750   5.662   3.584
 4879SOL    HW115536   4.810   5.670   3.664
 4879SOL    HW215537   4.680   5.733   3.589
 4880SOL     OW15538   5.872   2.008   5.842
 4880SOL    HW115539   5.861   2.098   5.799
 4880SOL    HW215540   5.951   1.962   5.801
 4881SOL     OW15541   2.783   5.284   6.951
 4881SOL    HW115542   2.779   5.367   6.894
 4881SOL    HW215543   2.783   5.204   6.891
 4882SOL     OW15544   4.696   6.789   6.916
 4882SOL    HW115545   4.728   6.733   6.839
 4882SOL    HW215546   4.610   6.834   6.891
 4883SOL     OW15547   6.369   5.650   0.199
 4883SOL    HW115548   6.301   5.629   0.129
 4883SOL    HW215549   6.358   5.588   0.276
 4884SOL     OW15550   4.044   6.394   1.601
 4884SOL    HW115551   4.100   6.367   1.523
 4884SOL    HW215552   4.018   6.313   1.654
 4885SOL     OW15553   2.267   6.513   2.873
 4885SOL    HW115554   2.309   6.552   2.791
 4885SOL    HW215555   2.330   6.520   2.949
 4886SOL     OW15556   5.797   1.005   6.080
 4886SOL    HW115557   5.704   0.981   6.050
 4886SOL    HW215558   5.858   0.928   6.064
 4887SOL     OW15559   0.091   1.812   5.837
 4887SOL    HW115560   0.015   1.874   5.856
 4887SOL    HW215561   0.164   1.862   5.791
 4888SOL     OW15562   3.348   5.690   1.775
 4888SOL    HW115563   3.413   5.745   1.723
 4888SOL    HW215564   3.260   5.736   1.779
 4889SOL     OW15565   1.716   2.966   6.021
 4889SOL    HW115566   1.784   3.008   6.081
 4889SOL    HW215567   1.666   2.895   6.071
 4890SOL     OW15568   1.084   0.143   4.252
 4890SOL    HW115569   1.117   0.207   4.183
 4890SOL    HW215570   1.144   0.146   4.332
 4891SOL     OW15571   1.786   3.804   0.798
 4891SOL    HW115572   1.877   3.803   0.757
 4891SOL    HW215573   1.792   3.773   0.893
 4892SOL     OW15574   1.371   5.786   1.766
 4892SOL    HW115575   1.302   5.814   1.699
 4892SOL    HW215576   1.460   5.775   1.721
 4893SOL     OW15577   1.268   3.523   6.146
 4893SOL    HW115578   1.197   3.572   6.096
 4893SOL    HW215579   1.228   3.476   6.224
 4894SOL     OW15580   1.617   0.953   2.998
 4894SOL    HW115581   1.614   0.994   3.089
 4894SOL    HW215582   1.539   0.892   2.986
 4895SOL     OW15583   6.009   4.505   0.311
 4895SOL    HW115584   6.054   4.583   0.355
 4895SOL    HW215585   6.001   4.523   0.213
 4896SOL     OW15586   4.290   6.012   3.401
 4896SOL    HW115587   4.218   6.050   3.343
 4896SOL    HW215588   4.321   6.081   3.466
 4897SOL     OW15589   2.555   6.037   6.401
 4897SOL    HW115590   2.612   6.068   6.326
 4897SOL    HW215591   2.606   6.043   6.487
 4898SOL     OW15592   6.168   2.283   4.725
 4898SOL    HW115593   6.083   2.235   4.746
 4898SOL    HW215594   6.228   2.223   4.671
 4899SOL     OW15595   5.143   4.632   4.746
 4899SOL    HW115596   5.163   4.534   4.736
 4899SOL    HW215597   5.134   4.673   4.655
 4900SOL     OW15598   0.583   6.594   5.693
 4900SOL    HW115599   0.585   6.694   5.688
 4900SOL    HW215600   0.661   6.556   5.644
 4901SOL     OW15601   0.166   6.567   3.244
 4901SOL    HW115602   0.073   6.530   3.238
 4901SOL    HW215603   0.186   6.620   3.161
 4902SOL     OW15604   3.486   4.840   1.663
 4902SOL    HW115605   3.394   4.804   1.651
 4902SOL    HW215606   3.530   4.793   1.740
 4903SOL     OW15607   5.791   5.857   5.575
 4903SOL    HW115608   5.759   5.909   5.654
 4903SOL    HW215609   5.737   5.774   5.564
 4904SOL     OW15610   3.145   6.241   3.288
 4904SOL    HW115611   3.117   6.272   3.198
 4904SOL    HW215612   3.064   6.225   3.345
 4905SOL     OW15613   6.252   3.365   3.441
 4905SOL    HW115614   6.173   3.341   3.384
 4905SOL    HW215615   6.219   3.393   3.532
 4906SOL     OW15616   5.060   1.007   1.184
 4906SOL    HW115617   5.110   1.045   1.106
 4906SOL    HW215618   4.984   0.951   1.151
 4907SOL     OW15619   2.099   1.778   2.343
 4907SOL    HW115620   2.183   1.738   2.306
 4907SOL    HW215621   2.122   1.856   2.401
 4908SOL     OW15622   3.594   5.311   0.444
 4908SOL    HW115623   3.670   5.311   0.508
 4908SOL    HW215624   3.629   5.306   0.351
 4909SOL     OW15625   5.843   0.360   5.414
 4909SOL    HW115626   5.859   0.261   5.419
 4909SOL    HW215627   5.921   0.409   5.451
 4910SOL     OW15628   5.538   6.811   6.547
 4910SOL    HW115629   5.564   6.872   6.621
 4910SOL    HW215630   5.501   6.864   6.471
 4911SOL     OW15631   1.234   3.142   6.157
 4911SOL    HW115632   1.246   3.127   6.059
 4911SOL    HW215633   1.182   3.066   6.196
 4912SOL     OW15634   2.625   2.426   2.157
 4912SOL    HW115635   2.612   2.510   2.211
 4912SOL    HW215636   2.691   2.443   2.085
 4913SOL     OW15637   2.846   3.578   2.220
 4913SOL    HW115638   2.922   3.584   2.154
 4913SOL    HW215639   2.768   3.629   2.185
 4914SOL     OW15640   1.816   6.247   2.245
 4914SOL    HW115641   1.818   6.245   2.145
 4914SOL    HW215642   1.906   6.223   2.281
 4915SOL     OW15643   2.699   6.041   2.967
 4915SOL    HW115644   2.713   6.130   3.009
 4915SOL    HW215645   2.612   6.039   2.918
 4916SOL     OW15646   1.594   1.767   2.234
 4916SOL    HW115647   1.676   1.816   2.263
 4916SOL    HW215648   1.576   1.691   2.297
 4917SOL     OW15649   2.344   5.217   6.254
 4917SOL    HW115650   2.334   5.236   6.156
 4917SOL    HW215651   2.324   5.121   6.271
 4918SOL     OW15652   2.008   0.057   3.832
 4918SOL    HW115653   1.917   0.098   3.828
 4918SOL    HW215654   2.067   0.113   3.890
 4919SOL     OW15655   2.493   3.111   1.725
 4919SOL    HW115656   2.547   3.084   1.646
 4919SOL    HW215657   2.440   3.193   1.704
 4920SOL     OW15658   4.088   0.890   0.460
 4920SOL    HW115659   4.142   0.925   0.537
 4920SOL    HW215660   4.006   0.945   0.450
 4921SOL     OW15661   1.108   4.273   1.811
 4921SOL    HW115662   1.186   4.212   1.819
 4921SOL    HW215663   1.079   4.303   1.902
 4922SOL     OW15664   1.043   2.905   5.830
 4922SOL    HW115665   0.967   2.964   5.803
 4922SOL    HW215666   1.031   2.814   5.790
 4923SOL     OW15667   3.045   2.181   0.599
 4923SOL    HW115668   3.099   2.198   0.517
 4923SOL    HW215669   3.003   2.266   0.631
 4924SOL     OW15670   0.081   3.968   4.013
 4924SOL    HW115671   0.055   3.914   4.093
 4924SOL    HW215672   0.007   3.966   3.945
 4925SOL     OW15673   4.394   5.592   6.575
 4925SOL    HW115674   4.347   5.630   6.495
 4925SOL    HW215675   4.463   5.526   6.546
 4926SOL     OW15676   4.065   2.794   0.960
 4926SOL    HW115677   3.994   2.859   0.933
 4926SOL    HW215678   4.153   2.822   0.921
 4927SOL     OW15679   3.964   3.932   2.832
 4927SOL    HW115680   4.002   3.897   2.746
 4927SOL    HW215681   3.865   3.939   2.824
 4928SOL     OW15682   0.571   6.502   1.133
 4928SOL    HW115683   0.548   6.414   1.174
 4928SOL    HW215684   0.574   6.492   1.033
 4929SOL     OW15685   0.753   5.109   4.257
 4929SOL    HW115686   0.688   5.038   4.283
 4929SOL    HW215687   0.794   5.149   4.339
 4930SOL     OW15688   0.456   2.620   0.412
 4930SOL    HW115689   0.407   2.587   0.332
 4930SOL    HW215690   0.555   2.609   0.397
 4931SOL     OW15691   6.694   6.811   1.116
 4931SOL    HW115692   6.595   6.829   1.112
 4931SOL    HW215693   6.741   6.872   1.053
 4932SOL     OW15694   4.126   2.119   1.101
 4932SOL    HW115695   4.110   2.203   1.050
 4932SOL    HW215696   4.095   2.131   1.195
 4933SOL     OW15697   2.840   0.468   5.196
 4933SOL    HW115698   2.840   0.391   5.132
 4933SOL    HW215699   2.932   0.508   5.201
 4934SOL     OW15700   1.885   5.747   4.957
 4934SOL    HW115701   1.968   5.738   5.012
 4934SOL    HW215702   1.811   5.696   5.000
 4935SOL     OW15703   1.722   1.066   0.344
 4935SOL    HW115704   1.761   1.089   0.433
 4935SOL    HW215705   1.680   1.147   0.303
 4936SOL     OW15706   4.784   5.999   1.075
 4936SOL    HW115707   4.857   5.993   1.007
 4936SOL    HW215708   4.813   6.058   1.149
 4937SOL     OW15709   1.159   2.795   5.208
 4937SOL    HW115710   1.226   2.749   5.266
 4937SOL    HW215711   1.203   2.869   5.158
 4938SOL     OW15712   3.694   4.856   1.519
 4938SOL    HW115713   3.749   4.928   1.562
 4938SOL    HW215714   3.606   4.849   1.567
 4939SOL     OW15715   1.040   1.565   1.548
 4939SOL    HW115716   0.952   1.574   1.595
 4939SOL    HW215717   1.093   1.491   1.590
 4940SOL     OW15718   0.437   1.582   5.568
 4940SOL    HW115719   0.489   1.497   5.572
 4940SOL    HW215720   0.342   1.562   5.542
 4941SOL     OW15721   3.926   2.696   5.316
 4941SOL    HW115722   3.927   2.655   5.407
 4941SOL    HW215723   4.001   2.658   5.262
 4942SOL     OW15724   0.572   1.503   3.182
 4942SOL    HW115725   0.569   1.562   3.263
 4942SOL    HW215726   0.666   1.474   3.165
 4943SOL     OW15727   5.615   2.363   6.831
 4943SOL    HW115728   5.607   2.312   6.917
 4943SOL    HW215729   5.525   2.399   6.806
 4944SOL     OW15730   1.021   5.422   6.643
 4944SOL    HW115731   1.011   5.519   6.622
 4944SOL    HW215732   1.009   5.407   6.741
 4945SOL     OW15733   2.251   0.330   5.411
 4945SOL    HW115734   2.195   0.408   5.437
 4945SOL    HW215735   2.348   0.354   5.416
 4946SOL     OW15736   2.661   5.316   0.173
 4946SOL    HW115737   2.696   5.260   0.097
 4946SOL    HW215738   2.681   5.270   0.259
 4947SOL     OW15739   1.279   0.647   0.967
 4947SOL    HW115740   1.188   0.616   0.992
 4947SOL    HW215741   1.308   0.602   0.882
 4948SOL     OW15742   2.002   1.965   2.070
 4948SOL    HW115743   2.084   2.001   2.115
 4948SOL    HW215744   1.942   1.922   2.138
 4949SOL     OW15745   0.050   4.317   6.245
 4949SOL    HW115746   0.022   4.388   6.181
 4949SOL    HW215747   0.088   4.240   6.194
 4950SOL     OW15748   3.554   4.541   5.574
 4950SOL    HW115749   3.480   4.488   5.533
 4950SOL    HW215750   3.587   4.494   5.656
 4951SOL     OW15751   4.779   5.584   3.151
 4951SOL    HW115752   4.683   5.598   3.127
 4951SOL    HW215753   4.823   5.525   3.083
 4952SOL     OW15754   0.367   0.430   6.277
 4952SOL    HW115755   0.331   0.345   6.315
 4952SOL    HW215756   0.322   0.508   6.320
 4953SOL     OW15757   1.548   2.387   5.007
 4953SOL    HW115758   1.475   2.445   5.044
 4953SOL    HW215759   1.528   2.364   4.912
 4954SOL     OW15760   2.972   3.772   4.794
 4954SOL    HW115761   2.922   3.740   4.875
 4954SOL    HW215762   3.037   3.702   4.765
 4955SOL     OW15763   4.151   5.847   6.040
 4955SOL    HW115764   4.231   5.880   5.991
 4955SOL    HW215765   4.108   5.773   5.989
 4956SOL     OW15766   3.324   0.191   4.811
 4956SOL    HW115767   3.338   0.276   4.759
 4956SOL    HW215768   3.306   0.213   4.906
 4957SOL     OW15769   5.837   4.650   6.825
 4957SOL    HW115770   5.847   4.679   6.920
 4957SOL    HW215771   5.748   4.677   6.790
 4958SOL     OW15772   4.158   5.835   0.598
 4958SOL    HW115773   4.066   5.869   0.576
 4958SOL    HW215774   4.170   5.744   0.557
 4959SOL     OW15775   0.484   2.365   3.138
 4959SOL    HW115776   0.494   2.277   3.185
 4959SOL    HW215777   0.504   2.439   3.202
 4960SOL     OW15778   5.028   4.749   3.964
 4960SOL    HW115779   4.943   4.697   3.971
 4960SOL    HW215780   5.041   4.805   4.046
 4961SOL     OW15781   3.364   1.982   1.343
 4961SOL    HW115782   3.330   2.027   1.426
 4961SOL    HW215783   3.462   1.967   1.351
 4962SOL     OW15784   1.047   3.587   0.506
 4962SOL    HW115785   1.113   3.550   0.572
 4962SOL    HW215786   1.016   3.514   0.446
 4963SOL     OW15787   0.924   3.396   6.197
 4963SOL    HW115788   0.877   3.469   6.246
 4963SOL    HW215789   1.012   3.377   6.241
 4964SOL     OW15790   2.494   6.370   4.454
 4964SOL    HW115791   2.421   6.364   4.522
 4964SOL    HW215792   2.558   6.441   4.481
 4965SOL     OW15793   1.300   6.185   2.868
 4965SOL    HW115794   1.304   6.284   2.880
 4965SOL    HW215795   1.205   6.156   2.856
 4966SOL     OW15796   3.109   6.141   4.020
 4966SOL    HW115797   3.145   6.198   3.946
 4966SOL    HW215798   3.105   6.195   4.105
 4967SOL     OW15799   4.295   4.736   4.734
 4967SOL    HW115800   4.347   4.660   4.771
 4967SOL    HW215801   4.211   4.747   4.787
 4968SOL     OW15802   0.061   2.521   3.226
 4968SOL    HW115803   0.067   2.578   3.145
 4968SOL    HW215804   0.125   2.554   3.295
 4969SOL     OW15805   0.151   5.548   4.094
 4969SOL    HW115806   0.060   5.552   4.136
 4969SOL    HW215807   0.211   5.614   4.139
 4970SOL     OW15808   1.642   1.618   1.104
 4970SOL    HW115809   1.699   1.537   1.092
 4970SOL    HW215810   1.583   1.629   1.024
 4971SOL     OW15811   0.108   6.046   2.256
 4971SOL    HW115812   0.096   6.027   2.353
 4971SOL    HW215813   0.105   6.145   2.241
 4972SOL     OW15814   0.421   4.521   0.732
 4972SOL    HW115815   0.353   4.544   0.662
 4972SOL    HW215816   0.506   4.570   0.712
 4973SOL     OW15817   6.303   1.297   0.932
 4973SOL    HW115818   6.257   1.217   0.969
 4973SOL    HW215819   6.282   1.377   0.989
 4974SOL     OW15820   3.281   6.478   4.840
 4974SOL    HW115821   3.265   6.433   4.928
 4974SOL    HW215822   3.282   6.577   4.854
 4975SOL     OW15823   5.258   4.927   0.691
 4975SOL    HW115824   5.181   4.954   0.748
 4975SOL    HW215825   5.343   4.959   0.733
 4976SOL     OW15826   1.623   6.556   3.398
 4976SOL    HW115827   1.663   6.595   3.315
 4976SOL    HW215828   1.538   6.602   3.420
 4977SOL     OW15829   1.236   4.036   5.758
 4977SOL    HW115830   1.280   4.033   5.668
 4977SOL    HW215831   1.139   4.016   5.748
 4978SOL     OW15832   5.825   4.949   4.605
 4978SOL    HW115833   5.909   4.896   4.597
 4978SOL    HW215834   5.770   4.911   4.680
 4979SOL     OW15835   2.258   6.771   6.246
 4979SOL    HW115836   2.254   6.722   6.158
 4979SOL    HW215837   2.239   6.707   6.320
 4980SOL     OW15838   5.658   3.056   3.898
 4980SOL    HW115839   5.645   3.134   3.959
 4980SOL    HW215840   5.586   2.988   3.914
 4981SOL     OW15841   2.800   4.703   2.550
 4981SOL    HW115842   2.860   4.624   2.544
 4981SOL    HW215843   2.854   4.787   2.552
 4982SOL     OW15844   3.727   2.315   6.066
 4982SOL    HW115845   3.820   2.350   6.056
 4982SOL    HW215846   3.729   2.228   6.115
 4983SOL     OW15847   5.884   5.100   3.176
 4983SOL    HW115848   5.891   5.043   3.094
 4983SOL    HW215849   5.975   5.132   3.202
 4984SOL     OW15850   4.883   3.636   3.633
 4984SOL    HW115851   4.811   3.702   3.655
 4984SOL    HW215852   4.950   3.679   3.573
 4985SOL     OW15853   5.680   0.569   2.281
 4985SOL    HW115854   5.626   0.529   2.355
 4985SOL    HW215855   5.777   0.554   2.299
 4986SOL     OW15856   0.875   4.567   1.401
 4986SOL    HW115857   0.811   4.554   1.476
 4986SOL    HW215858   0.916   4.658   1.407
 4987SOL     OW15859   0.538   1.131   2.505
 4987SOL    HW115860   0.543   1.226   2.534
 4987SOL    HW215861   0.446   1.096   2.520
 4988SOL     OW15862   6.220   5.807   3.903
 4988SOL    HW115863   6.153   5.762   3.962
 4988SOL    HW215864   6.199   5.905   3.898
 4989SOL     OW15865   4.969   0.223   3.593
 4989SOL    HW115866   4.925   0.288   3.532
 4989SOL    HW215867   5.044   0.177   3.545
 4990SOL     OW15868   4.625   2.360   5.269
 4990SOL    HW115869   4.531   2.367   5.236
 4990SOL    HW215870   4.634   2.410   5.355
 4991SOL     OW15871   1.202   4.541   6.077
 4991SOL    HW115872   1.234   4.485   6.001
 4991SOL    HW215873   1.242   4.507   6.163
 4992SOL     OW15874   0.800   3.571   4.117
 4992SOL    HW115875   0.706   3.542   4.101
 4992SOL    HW215876   0.813   3.589   4.215
 4993SOL     OW15877   2.892   6.169   3.639
 4993SOL    HW115878   2.802   6.172   3.683
 4993SOL    HW215879   2.880   6.160   3.540
 4994SOL     OW15880   3.669   5.100   5.518
 4994SOL    HW115881   3.600   5.079   5.588
 4994SOL    HW215882   3.624   5.121   5.432
 4995SOL     OW15883   6.987   0.698   6.168
 4995SOL    HW115884   0.037   0.650   6.113
 4995SOL    HW215885   7.017   0.792   6.183
 4996SOL     OW15886   0.288   1.122   4.166
 4996SOL    HW115887   0.261   1.200   4.223
 4996SOL    HW215888   0.256   1.137   4.072
 4997SOL     OW15889   3.989   1.695   1.124
 4997SOL    HW115890   3.998   1.658   1.216
 4997SOL    HW215891   4.079   1.693   1.079
 4998SOL     OW15892   0.920   3.583   3.321
 4998SOL    HW115893   0.844   3.531   3.360
 4998SOL    HW215894   0.941   3.661   3.380
 4999SOL     OW15895   0.967   2.797   4.340
 4999SOL    HW115896   0.979   2.868   4.270
 4999SOL    HW215897   1.034   2.810   4.412
 5000SOL     OW15898   3.264   5.773   2.595
 5000SOL    HW115899   3.180   5.755   2.646
 5000SOL    HW215900   3.340   5.786   2.658
 5001SOL     OW15901   0.378   6.337   3.442
 5001SOL    HW115902   0.373   6.283   3.526
 5001SOL    HW215903   0.403   6.432   3.464
 5002SOL     OW15904   1.583   4.441   3.871
 5002SOL    HW115905   1.492   4.444   3.829
 5002SOL    HW215906   1.626   4.531   3.862
 5003SOL     OW15907   4.382   0.732   3.268
 5003SOL    HW115908   4.292   0.713   3.229
 5003SOL    HW215909   4.372   0.763   3.362
 5004SOL     OW15910   3.223   5.212   0.177
 5004SOL    HW115911   3.145   5.252   0.226
 5004SOL    HW215912   3.214   5.231   0.079
 5005SOL     OW15913   2.855   2.883   0.036
 5005SOL    HW115914   2.764   2.879   7.013
 5005SOL    HW215915   2.853   2.944   0.115
 5006SOL     OW15916   4.958   2.033   1.658
 5006SOL    HW115917   4.922   1.980   1.581
 5006SOL    HW215918   4.908   2.009   1.741
 5007SOL     OW15919   5.875   6.484   2.023
 5007SOL    HW115920   5.835   6.412   1.966
 5007SOL    HW215921   5.821   6.494   2.107
 5008SOL     OW15922   5.620   0.249   2.486
 5008SOL    HW115923   5.680   0.186   2.536
 5008SOL    HW215924   5.575   0.200   2.411
 5009SOL     OW15925   6.581   2.337   0.355
 5009SOL    HW115926   6.511   2.404   0.332
 5009SOL    HW215927   6.668   2.383   0.375
 5010SOL     OW15928   3.780   3.584   1.309
 5010SOL    HW115929   3.735   3.654   1.363
 5010SOL    HW215930   3.718   3.507   1.296
 5011SOL     OW15931   1.764   2.888   6.537
 5011SOL    HW115932   1.773   2.798   6.579
 5011SOL    HW215933   1.779   2.959   6.606
 5012SOL     OW15934   6.225   1.720   6.290
 5012SOL    HW115935   6.238   1.682   6.382
 5012SOL    HW215936   6.179   1.809   6.296
 5013SOL     OW15937   5.811   7.015   5.921
 5013SOL    HW115938   5.746   6.974   5.984
 5013SOL    HW215939   5.890   0.033   5.972
 5014SOL     OW15940   6.172   3.099   1.832
 5014SOL    HW115941   6.191   3.191   1.798
 5014SOL    HW215942   6.181   3.033   1.757
 5015SOL     OW15943   5.786   6.619   4.057
 5015SOL    HW115944   5.840   6.683   4.003
 5015SOL    HW215945   5.814   6.526   4.036
 5016SOL     OW15946   2.021   3.276   5.442
 5016SOL    HW115947   1.954   3.210   5.407
 5016SOL    HW215948   2.029   3.353   5.378
 5017SOL     OW15949   0.568   3.307   2.159
 5017SOL    HW115950   0.516   3.262   2.231
 5017SOL    HW215951   0.551   3.405   2.162
 5018SOL     OW15952   1.294   0.252   0.098
 5018SOL    HW115953   1.255   0.161   0.109
 5018SOL    HW215954   1.358   0.270   0.173
 5019SOL     OW15955   1.186   5.116   5.061
 5019SOL    HW115956   1.215   5.027   5.025
 5019SOL    HW215957   1.198   5.185   4.990
 5020SOL     OW15958   2.576   0.207   4.668
 5020SOL    HW115959   2.591   0.176   4.761
 5020SOL    HW215960   2.497   0.160   4.629
 5021SOL     OW15961   2.048   0.727   0.539
 5021SOL    HW115962   2.080   0.633   0.547
 5021SOL    HW215963   2.126   0.788   0.522
 5022SOL     OW15964   6.764   2.880   1.598
 5022SOL    HW115965   6.823   2.912   1.672
 5022SOL    HW215966   6.684   2.834   1.637
 5023SOL     OW15967   6.843   4.283   2.526
 5023SOL    HW115968   6.775   4.321   2.588
 5023SOL    HW215969   6.926   4.262   2.577
 5024SOL     OW15970   4.313   3.668   1.232
 5024SOL    HW115971   4.214   3.679   1.225
 5024SOL    HW215972   4.340   3.670   1.328
 5025SOL     OW15973   4.542   1.394   4.333
 5025SOL    HW115974   4.566   1.365   4.240
 5025SOL    HW215975   4.476   1.469   4.329
 5026SOL     OW15976   4.209   6.666   4.450
 5026SOL    HW115977   4.245   6.612   4.527
 5026SOL    HW215978   4.276   6.735   4.424
 5027SOL     OW15979   5.216   6.387   0.650
 5027SOL    HW115980   5.214   6.364   0.553
 5027SOL    HW215981   5.200   6.485   0.662
 5028SOL     OW15982   6.356   1.794   2.644
 5028SOL    HW115983   6.361   1.778   2.545
 5028SOL    HW215984   6.277   1.851   2.665
 5029SOL     OW15985   6.102   1.870   2.996
 5029SOL    HW115986   6.143   1.939   2.936
 5029SOL    HW215987   6.172   1.807   3.029
 5030SOL     OW15988   0.243   4.245   6.685
 5030SOL    HW115989   0.184   4.246   6.604
 5030SOL    HW215990   0.204   4.184   6.754
 5031SOL     OW15991   6.499   6.928   6.009
 5031SOL    HW115992   6.503   6.938   6.109
 5031SOL    HW215993   6.500   6.831   5.986
 5032SOL     OW15994   2.742   3.364   5.362
 5032SOL    HW115995   2.831   3.350   5.405
 5032SOL    HW215996   2.694   3.438   5.408
 5033SOL     OW15997   2.063   0.577   6.672
 5033SOL    HW115998   2.113   0.599   6.588
 5033SOL    HW215999   2.118   0.604   6.751
 5034SOL     OW16000   4.635   6.518   4.538
 5034SOL    HW116001   4.605   6.568   4.457
 5034SOL    HW216002   4.581   6.435   4.548
 5035SOL     OW16003   2.101   3.622   3.986
 5035SOL    HW116004   2.027   3.566   3.947
 5035SOL    HW216005   2.118   3.700   3.927
 5036SOL     OW16006   0.173   2.527   5.301
 5036SOL    HW116007   0.097   2.476   5.260
 5036SOL    HW216008   0.252   2.468   5.311
 5037SOL     OW16009   4.290   3.945   1.415
 5037SOL    HW116010   4.273   3.997   1.498
 5037SOL    HW216011   4.345   3.864   1.436
 5038SOL     OW16012   4.091   3.689   4.062
 5038SOL    HW116013   4.094   3.625   4.139
 5038SOL    HW216014   4.036   3.769   4.086
 5039SOL     OW16015   1.275   3.385   6.896
 5039SOL    HW116016   1.244   3.462   6.841
 5039SOL    HW216017   1.196   3.341   6.940
 5040SOL     OW16018   0.179   0.664   5.543
 5040SOL    HW116019   0.230   0.692   5.461
 5040SOL    HW216020   0.237   0.605   5.599
 5041SOL     OW16021   6.904   2.999   1.783
 5041SOL    HW116022   6.871   3.009   1.877
 5041SOL    HW216023   6.963   3.077   1.760
 5042SOL     OW16024   0.593   2.672   6.088
 5042SOL    HW116025   0.567   2.627   6.173
 5042SOL    HW216026   0.620   2.766   6.107
 5043SOL     OW16027   4.214   6.282   1.417
 5043SOL    HW116028   4.268   6.354   1.373
 5043SOL    HW216029   4.158   6.236   1.348
 5044SOL     OW16030   6.354   4.561   0.510
 5044SOL    HW116031   6.409   4.534   0.431
 5044SOL    HW216032   6.394   4.524   0.594
 5045SOL     OW16033   6.263   3.415   6.537
 5045SOL    HW116034   6.308   3.360   6.466
 5045SOL    HW216035   6.323   3.422   6.617
 5046SOL     OW16036   3.492   3.184   2.884
 5046SOL    HW116037   3.478   3.159   2.980
 5046SOL    HW216038   3.475   3.105   2.825
 5047SOL     OW16039   0.822   3.910   3.514
 5047SOL    HW116040   0.800   4.000   3.550
 5047SOL    HW216041   0.841   3.847   3.591
 5048SOL     OW16042   1.883   1.018   5.779
 5048SOL    HW116043   1.857   1.077   5.702
 5048SOL    HW216044   1.903   1.075   5.859
 5049SOL     OW16045   4.947   1.547   6.570
 5049SOL    HW116046   4.925   1.456   6.535
 5049SOL    HW216047   5.044   1.552   6.594
 5050SOL     OW16048   1.619   0.558   0.675
 5050SOL    HW116049   1.655   0.633   0.730
 5050SOL    HW216050   1.692   0.522   0.616
 5051SOL     OW16051   4.692   5.549   1.239
 5051SOL    HW116052   4.612   5.608   1.239
 5051SOL    HW216053   4.665   5.456   1.266
 5052SOL     OW16054   2.540   1.169   4.992
 5052SOL    HW116055   2.555   1.089   4.935
 5052SOL    HW216056   2.478   1.145   5.067
 5053SOL     OW16057   0.165   0.081   1.517
 5053SOL    HW116058   0.222   0.067   1.436
 5053SOL    HW216059   0.220   0.125   1.589
 5054SOL     OW16060   3.779   4.877   4.047
 5054SOL    HW116061   3.688   4.873   4.087
 5054SOL    HW216062   3.825   4.789   4.058
 5055SOL     OW16063   6.940   3.418   6.885
 5055SOL    HW116064   0.017   3.385   6.890
 5055SOL    HW216065   6.922   3.451   6.792
 5056SOL     OW16066   5.539   4.398   4.871
 5056SOL    HW116067   5.615   4.462   4.866
 5056SOL    HW216068   5.563   4.314   4.822
 5057SOL     OW16069   0.794   5.943   2.037
 5057SOL    HW116070   0.762   5.851   2.060
 5057SOL    HW216071   0.894   5.946   2.043
 5058SOL     OW16072   2.904   5.299   5.544
 5058SOL    HW116073   2.961   5.250   5.477
 5058SOL    HW216074   2.958   5.371   5.588
 5059SOL     OW16075   0.178   0.435   1.986
 5059SOL    HW116076   0.260   0.428   2.042
 5059SOL    HW216077   0.098   0.413   2.042
 5060SOL     OW16078   6.461   1.962   5.486
 5060SOL    HW116079   6.535   2.018   5.523
 5060SOL    HW216080   6.466   1.962   5.386
 5061SOL     OW16081   5.610   4.279   0.167
 5061SOL    HW116082   5.558   4.195   0.185
 5061SOL    HW216083   5.693   4.279   0.223
 5062SOL     OW16084   0.308   0.397   0.859
 5062SOL    HW116085   0.241   0.443   0.917
 5062SOL    HW216086   0.393   0.384   0.911
 5063SOL     OW16087   1.459   6.684   1.254
 5063SOL    HW116088   1.451   6.731   1.343
 5063SOL    HW216089   1.399   6.605   1.253
 5064SOL     OW16090   5.203   3.060   6.982
 5064SOL    HW116091   5.262   3.122   0.016
 5064SOL    HW216092   5.241   3.048   6.891
 5065SOL     OW16093   2.335   5.807   5.381
 5065SOL    HW116094   2.326   5.903   5.406
 5065SOL    HW216095   2.356   5.752   5.462
 5066SOL     OW16096   4.957   4.957   1.181
 5066SOL    HW116097   4.912   4.875   1.145
 5066SOL    HW216098   5.004   4.934   1.266
 5067SOL     OW16099   4.758   1.300   6.999
 5067SOL    HW116100   4.700   1.359   0.037
 5067SOL    HW216101   4.801   1.231   0.039
 5068SOL     OW16102   2.807   5.081   1.795
 5068SOL    HW116103   2.816   4.986   1.823
 5068SOL    HW216104   2.893   5.129   1.813
 5069SOL     OW16105   0.585   5.069   3.347
 5069SOL    HW116106   0.487   5.053   3.346
 5069SOL    HW216107   0.629   5.008   3.414
 5070SOL     OW16108   4.848   3.212   4.530
 5070SOL    HW116109   4.806   3.296   4.562
 5070SOL    HW216110   4.894   3.165   4.606
 5071SOL     OW16111   4.323   0.906   6.554
 5071SOL    HW116112   4.332   1.005   6.545
 5071SOL    HW216113   4.351   0.863   6.468
 5072SOL     OW16114   1.300   4.168   1.275
 5072SOL    HW116115   1.334   4.261   1.270
 5072SOL    HW216116   1.254   4.144   1.189
 5073SOL     OW16117   4.369   1.998   3.668
 5073SOL    HW116118   4.291   1.937   3.678
 5073SOL    HW216119   4.338   2.086   3.632
 5074SOL     OW16120   3.296   4.206   5.632
 5074SOL    HW116121   3.224   4.142   5.606
 5074SOL    HW216122   3.375   4.193   5.572
 5075SOL     OW16123   0.174   5.839   4.540
 5075SOL    HW116124   0.136   5.752   4.509
 5075SOL    HW216125   0.224   5.824   4.626
 5076SOL     OW16126   3.511   0.268   1.227
 5076SOL    HW116127   3.462   0.286   1.141
 5076SOL    HW216128   3.571   0.345   1.247
 5077SOL     OW16129   0.412   2.129   2.178
 5077SOL    HW116130   0.363   2.137   2.265
 5077SOL    HW216131   0.352   2.086   2.111
 5078SOL     OW16132   1.159   0.993   3.780
 5078SOL    HW116133   1.109   0.972   3.696
 5078SOL    HW216134   1.096   0.987   3.858
 5079SOL     OW16135   4.093   4.833   5.161
 5079SOL    HW116136   4.063   4.841   5.066
 5079SOL    HW216137   4.096   4.924   5.203
 5080SOL     OW16138   5.865   6.545   5.980
 5080SOL    HW116139   5.864   6.467   6.042
 5080SOL    HW216140   5.952   6.548   5.931
 5081SOL     OW16141   3.395   3.480   3.375
 5081SOL    HW116142   3.352   3.467   3.465
 5081SOL    HW216143   3.478   3.536   3.385
 5082SOL     OW16144   6.321   6.383   4.857
 5082SOL    HW116145   6.304   6.361   4.953
 5082SOL    HW216146   6.252   6.447   4.824
 5083SOL     OW16147   1.425   6.082   1.674
 5083SOL    HW116148   1.328   6.090   1.698
 5083SOL    HW216149   1.433   6.048   1.580
 5084SOL     OW16150   2.359   5.849   3.135
 5084SOL    HW116151   2.442   5.858   3.191
 5084SOL    HW216152   2.319   5.939   3.120
 5085SOL     OW16153   6.552   3.015   5.918
 5085SOL    HW116154   6.508   2.928   5.939
 5085SOL    HW216155   6.489   3.073   5.866
 5086SOL     OW16156   6.408   5.227   3.620
 5086SOL    HW116157   6.348   5.212   3.699
 5086SOL    HW216158   6.501   5.243   3.652
 5087SOL     OW16159   0.372   5.979   5.246
 5087SOL    HW116160   0.325   5.896   5.276
 5087SOL    HW216161   0.448   5.954   5.186
 5088SOL     OW16162   5.930   0.361   6.923
 5088SOL    HW116163   5.978   0.433   6.974
 5088SOL    HW216164   5.897   0.292   6.988
 5089SOL     OW16165   5.111   2.944   3.214
 5089SOL    HW116166   5.037   2.883   3.186
 5089SOL    HW216167   5.101   2.966   3.311
 5090SOL     OW16168   1.343   4.831   0.916
 5090SOL    HW116169   1.334   4.759   0.847
 5090SOL    HW216170   1.306   4.799   1.003
 5091SOL     OW16171   1.644   6.006   2.334
 5091SOL    HW116172   1.707   6.075   2.370
 5091SOL    HW216173   1.601   5.956   2.409
 5092SOL     OW16174   3.591   2.750   1.649
 5092SOL    HW116175   3.495   2.762   1.671
 5092SOL    HW216176   3.641   2.835   1.667
 5093SOL     OW16177   0.669   2.165   1.106
 5093SOL    HW116178   0.656   2.225   1.027
 5093SOL    HW216179   0.766   2.146   1.118
 5094SOL     OW16180   6.657   0.461   6.579
 5094SOL    HW116181   6.629   0.366   6.593
 5094SOL    HW216182   6.681   0.475   6.483
 5095SOL     OW16183   3.172   0.004   5.201
 5095SOL    HW116184   3.258   0.027   5.155
 5095SOL    HW216185   3.125   6.951   5.149
 5096SOL     OW16186   4.323   5.121   2.010
 5096SOL    HW116187   4.382   5.181   1.956
 5096SOL    HW216188   4.227   5.138   1.986
 5097SOL     OW16189   0.523   0.558   6.623
 5097SOL    HW116190   0.427   0.529   6.621
 5097SOL    HW216191   0.528   0.657   6.607
 5098SOL     OW16192   6.955   2.596   2.208
 5098SOL    HW116193   6.917   2.505   2.218
 5098SOL    HW216194   0.024   2.602   2.257
 5099SOL     OW16195   1.039   6.596   4.379
 5099SOL    HW116196   1.105   6.628   4.447
 5099SOL    HW216197   1.023   6.498   4.391
 5100SOL     OW16198   5.119   6.138   6.301
 5100SOL    HW116199   5.187   6.095   6.360
 5100SOL    HW216200   5.041   6.077   6.290
 5101SOL     OW16201   4.470   5.893   0.522
 5101SOL    HW116202   4.405   5.966   0.499
 5101SOL    HW216203   4.441   5.808   0.478
 5102SOL     OW16204   3.502   6.114   4.980
 5102SOL    HW116205   3.513   6.024   5.022
 5102SOL    HW216206   3.557   6.118   4.897
 5103SOL     OW16207   1.259   0.337   4.665
 5103SOL    HW116208   1.223   0.298   4.579
 5103SOL    HW216209   1.358   0.324   4.668
 5104SOL     OW16210   1.407   6.819   1.028
 5104SOL    HW116211   1.397   6.732   0.981
 5104SOL    HW216212   1.407   6.803   1.127
 5105SOL     OW16213   2.239   3.269   6.505
 5105SOL    HW116214   2.237   3.300   6.601
 5105SOL    HW216215   2.334   3.266   6.474
 5106SOL     OW16216   3.546   0.708   2.180
 5106SOL    HW116217   3.487   0.628   2.192
 5106SOL    HW216218   3.498   0.790   2.211
 5107SOL     OW16219   1.254   0.110   5.727
 5107SOL    HW116220   1.199   0.029   5.712
 5107SOL    HW216221   1.233   0.148   5.817
 5108SOL     OW16222   3.153   3.969   3.670
 5108SOL    HW116223   3.098   3.892   3.702
 5108SOL    HW216224   3.250   3.946   3.677
 5109SOL     OW16225   0.004   1.417   1.014
 5109SOL    HW116226   0.072   1.491   1.015
 5109SOL    HW216227   6.933   1.454   0.987
 5110SOL     OW16228   1.866   5.837   5.450
 5110SOL    HW116229   1.948   5.876   5.408
 5110SOL    HW216230   1.889   5.750   5.493
 5111SOL     OW16231   1.601   1.286   0.187
 5111SOL    HW116232   1.657   1.268   0.106
 5111SOL    HW216233   1.563   1.378   0.182
 5112SOL     OW16234   0.250   6.895   3.621
 5112SOL    HW116235   0.258   6.817   3.683
 5112SOL    HW216236   0.217   6.864   3.532
 5113SOL     OW16237   0.839   0.093   6.607
 5113SOL    HW116238   0.910   0.055   6.666
 5113SOL    HW216239   0.859   0.189   6.588
 5114SOL     OW16240   3.689   4.689   6.980
 5114SOL    HW116241   3.591   4.685   6.999
 5114SOL    HW216242   3.715   4.783   6.959
 5115SOL     OW16243   1.898   4.079   5.224
 5115SOL    HW116244   1.939   4.097   5.135
 5115SOL    HW216245   1.932   3.992   5.259
 5116SOL     OW16246   0.042   3.435   1.365
 5116SOL    HW116247   0.135   3.447   1.400
 5116SOL    HW216248   0.045   3.438   1.265
 5117SOL     OW16249   2.459   4.468   3.802
 5117SOL    HW116250   2.391   4.431   3.738
 5117SOL    HW216251   2.427   4.455   3.896
 5118SOL     OW16252   4.538   6.977   1.431
 5118SOL    HW116253   4.474   0.033   1.410
 5118SOL    HW216254   4.627   7.017   1.455
 5119SOL     OW16255   6.741   0.184   2.695
 5119SOL    HW116256   6.776   0.245   2.766
 5119SOL    HW216257   6.804   0.106   2.685
 5120SOL     OW16258   4.625   1.165   2.732
 5120SOL    HW116259   4.717   1.198   2.754
 5120SOL    HW216260   4.622   1.066   2.739
 5121SOL     OW16261   1.154   3.765   4.785
 5121SOL    HW116262   1.130   3.815   4.868
 5121SOL    HW216263   1.166   3.668   4.807
 5122SOL     OW16264   2.006   5.825   3.390
 5122SOL    HW116265   2.024   5.794   3.483
 5122SOL    HW216266   1.908   5.829   3.375
 5123SOL     OW16267   6.116   4.240   1.929
 5123SOL    HW116268   6.168   4.247   1.844
 5123SOL    HW216269   6.024   4.207   1.909
 5124SOL     OW16270   2.731   5.963   0.437
 5124SOL    HW116271   2.672   5.910   0.376
 5124SOL    HW216272   2.676   6.033   0.483
 5125SOL     OW16273   6.847   2.428   5.960
 5125SOL    HW116274   6.771   2.421   5.895
 5125SOL    HW216275   6.900   2.511   5.942
 5126SOL     OW16276   4.422   2.779   6.659
 5126SOL    HW116277   4.450   2.875   6.662
 5126SOL    HW216278   4.427   2.740   6.751
 5127SOL     OW16279   5.381   3.200   6.602
 5127SOL    HW116280   5.348   3.273   6.543
 5127SOL    HW216281   5.401   3.237   6.693
 5128SOL     OW16282   0.588   6.909   6.923
 5128SOL    HW116283   0.646   6.890   6.843
 5128SOL    HW216284   0.521   6.836   6.933
 5129SOL     OW16285   4.002   2.063   2.216
 5129SOL    HW116286   4.061   1.991   2.179
 5129SOL    HW216287   4.027   2.083   2.310
 5130SOL     OW16288   1.038   6.753   5.036
 5130SOL    HW116289   1.090   6.838   5.039
 5130SOL    HW216290   1.010   6.727   5.128
 5131SOL     OW16291   3.546   4.923   3.506
 5131SOL    HW116292   3.545   4.914   3.407
 5131SOL    HW216293   3.631   4.886   3.542
 5132SOL     OW16294   3.666   1.353   6.589
 5132SOL    HW116295   3.714   1.357   6.501
 5132SOL    HW216296   3.576   1.395   6.580
 5133SOL     OW16297   4.847   4.725   6.933
 5133SOL    HW116298   4.765   4.779   6.911
 5133SOL    HW216299   4.916   4.739   6.862
 5134SOL     OW16300   5.892   5.956   0.501
 5134SOL    HW116301   5.850   5.907   0.577
 5134SOL    HW216302   5.973   5.906   0.470
 5135SOL     OW16303   0.178   2.626   2.374
 5135SOL    HW116304   0.248   2.680   2.421
 5135SOL    HW216305   0.157   2.544   2.427
 5136SOL     OW16306   1.109   1.285   5.823
 5136SOL    HW116307   1.014   1.314   5.819
 5136SOL    HW216308   1.123   1.207   5.761
 5137SOL     OW16309   5.155   0.566   3.771
 5137SOL    HW116310   5.188   0.487   3.719
 5137SOL    HW216311   5.094   0.621   3.714
 5138SOL     OW16312   2.929   3.254   3.284
 5138SOL    HW116313   2.938   3.213   3.194
 5138SOL    HW216314   2.848   3.312   3.287
 5139SOL     OW16315   3.076   0.614   5.824
 5139SOL    HW116316   3.139   0.600   5.747
 5139SOL    HW216317   3.102   0.696   5.874
 5140SOL     OW16318   3.389   3.337   6.503
 5140SOL    HW116319   3.417   3.424   6.544
 5140SOL    HW216320   3.356   3.276   6.574
 5141SOL     OW16321   6.936   2.741   1.409
 5141SOL    HW116322   6.922   2.649   1.446
 5141SOL    HW216323   6.883   2.806   1.464
 5142SOL     OW16324   0.347   0.006   2.212
 5142SOL    HW116325   0.394   0.074   2.268
 5142SOL    HW216326   0.326   0.046   2.122
 5143SOL     OW16327   6.777   6.427   2.768
 5143SOL    HW116328   6.809   6.499   2.830
 5143SOL    HW216329   6.741   6.350   2.821
 5144SOL     OW16330   2.217   2.866   5.271
 5144SOL    HW116331   2.153   2.827   5.205
 5144SOL    HW216332   2.292   2.911   5.222
 5145SOL     OW16333   2.481   5.675   6.014
 5145SOL    HW116334   2.429   5.760   6.025
 5145SOL    HW216335   2.423   5.605   5.972
 5146SOL     OW16336   5.629   6.331   6.814
 5146SOL    HW116337   5.609   6.390   6.892
 5146SOL    HW216338   5.615   6.235   6.839
 5147SOL     OW16339   4.602   2.406   3.268
 5147SOL    HW116340   4.573   2.460   3.189
 5147SOL    HW216341   4.536   2.332   3.284
 5148SOL     OW16342   0.243   0.643   6.371
 5148SOL    HW116343   0.304   0.705   6.321
 5148SOL    HW216344   0.151   0.682   6.375
 5149SOL     OW16345   4.195   5.625   4.324
 5149SOL    HW116346   4.162   5.540   4.283
 5149SOL    HW216347   4.224   5.688   4.252
 5150SOL     OW16348   6.295   6.953   3.179
 5150SOL    HW116349   6.326   6.918   3.091
 5150SOL    HW216350   6.331   6.895   3.252
 5151SOL     OW16351   6.013   6.141   2.033
 5151SOL    HW116352   6.088   6.091   2.077
 5151SOL    HW216353   6.046   6.181   1.947
 5152SOL     OW16354   2.006   1.769   6.883
 5152SOL    HW116355   2.002   1.799   6.979
 5152SOL    HW216356   2.056   1.683   6.877
 5153SOL     OW16357   1.088   2.123   0.544
 5153SOL    HW116358   1.163   2.100   0.606
 5153SOL    HW216359   1.101   2.216   0.508
 5154SOL     OW16360   0.416   3.057   0.891
 5154SOL    HW116361   0.331   3.009   0.914
 5154SOL    HW216362   0.447   3.109   0.970
 5155SOL     OW16363   1.853   1.733   0.147
 5155SOL    HW116364   1.797   1.811   0.174
 5155SOL    HW216365   1.799   1.671   0.090
 5156SOL     OW16366   6.307   6.415   5.515
 5156SOL    HW116367   6.364   6.348   5.467
 5156SOL    HW216368   6.351   6.505   5.510
 5157SOL     OW16369   3.474   0.422   1.617
 5157SOL    HW116370   3.553   0.399   1.674
 5157SOL    HW216371   3.464   0.353   1.545
 5158SOL     OW16372   1.026   2.006   1.919
 5158SOL    HW116373   1.032   1.956   1.832
 5158SOL    HW216374   1.102   2.070   1.926
 5159SOL     OW16375   6.123   3.250   5.714
 5159SOL    HW116376   6.051   3.183   5.699
 5159SOL    HW216377   6.105   3.331   5.658
 5160SOL     OW16378   6.283   6.802   2.728
 5160SOL    HW116379   6.303   6.785   2.631
 5160SOL    HW216380   6.216   6.876   2.735
 5161SOL     OW16381   1.240   3.319   0.173
 5161SOL    HW116382   1.329   3.344   0.133
 5161SOL    HW216383   1.242   3.223   0.200
 5162SOL     OW16384   7.004   6.873   4.408
 5162SOL    HW116385   6.909   6.853   4.434
 5162SOL    HW216386   0.024   6.794   4.358
 5163SOL     OW16387   3.713   0.431   2.331
 5163SOL    HW116388   3.768   0.440   2.414
 5163SOL    HW216389   3.621   0.399   2.356
 5164SOL     OW16390   2.816   3.541   0.239
 5164SOL    HW116391   2.829   3.562   0.335
 5164SOL    HW216392   2.754   3.463   0.230
 5165SOL     OW16393   1.608   3.951   5.832
 5165SOL    HW116394   1.636   4.047   5.832
 5165SOL    HW216395   1.686   3.893   5.810
 5166SOL     OW16396   0.937   4.388   0.677
 5166SOL    HW116397   0.959   4.363   0.582
 5166SOL    HW216398   0.944   4.307   0.735
 5167SOL     OW16399   5.460   3.430   5.617
 5167SOL    HW116400   5.407   3.382   5.547
 5167SOL    HW216401   5.479   3.523   5.587
 5168SOL     OW16402   4.140   2.252   2.859
 5168SOL    HW116403   4.213   2.269   2.792
 5168SOL    HW216404   4.169   2.286   2.948
 5169SOL     OW16405   4.921   5.939   4.599
 5169SOL    HW116406   4.931   6.019   4.539
 5169SOL    HW216407   4.844   5.952   4.660
 5170SOL     OW16408   2.071   3.677   6.420
 5170SOL    HW116409   2.029   3.600   6.371
 5170SOL    HW216410   1.999   3.735   6.458
 5171SOL     OW16411   2.044   6.124   5.963
 5171SOL    HW116412   1.949   6.133   5.991
 5171SOL    HW216413   2.089   6.054   6.018
 5172SOL     OW16414   5.787   5.404   5.288
 5172SOL    HW116415   5.835   5.420   5.374
 5172SOL    HW216416   5.777   5.490   5.240
 5173SOL     OW16417   4.863   5.542   5.591
 5173SOL    HW116418   4.883   5.613   5.524
 5173SOL    HW216419   4.873   5.452   5.548
 5174SOL     OW16420   2.213   6.671   3.182
 5174SOL    HW116421   2.287   6.605   3.168
 5174SOL    HW216422   2.126   6.622   3.188
 5175SOL     OW16423   2.588   3.010   0.038
 5175SOL    HW116424   2.586   2.912   0.017
 5175SOL    HW216425   2.536   3.027   0.121
 5176SOL     OW16426   6.392   5.797   6.637
 5176SOL    HW116427   6.411   5.750   6.723
 5176SOL    HW216428   6.335   5.877   6.654
 5177SOL     OW16429   6.017   0.026   0.583
 5177SOL    HW116430   6.063   6.970   0.534
 5177SOL    HW216431   6.084   0.077   0.638
 5178SOL     OW16432   1.098   4.045   1.493
 5178SOL    HW116433   1.131   3.957   1.457
 5178SOL    HW216434   1.155   4.119   1.458
 5179SOL     OW16435   4.611   6.140   3.359
 5179SOL    HW116436   4.691   6.086   3.334
 5179SOL    HW216437   4.553   6.153   3.279
 5180SOL     OW16438   1.891   4.741   2.744
 5180SOL    HW116439   1.981   4.782   2.759
 5180SOL    HW216440   1.901   4.656   2.692
 5181SOL     OW16441   6.326   0.749   5.792
 5181SOL    HW116442   6.410   0.726   5.842
 5181SOL    HW216443   6.345   0.748   5.694
 5182SOL     OW16444   2.180   6.230   2.835
 5182SOL    HW116445   2.216   6.319   2.810
 5182SOL    HW216446   2.128   6.192   2.759
 5183SOL     OW16447   4.093   2.180   3.933
 5183SOL    HW116448   4.186   2.213   3.917
 5183SOL    HW216449   4.061   2.210   4.023
 5184SOL     OW16450   1.806   1.193   3.129
 5184SOL    HW116451   1.719   1.150   3.107
 5184SOL    HW216452   1.852   1.142   3.201
 5185SOL     OW16453   6.922   0.442   2.597
 5185SOL    HW116454   6.900   0.445   2.695
 5185SOL    HW216455   6.838   0.424   2.545
 5186SOL     OW16456   6.686   3.937   6.811
 5186SOL    HW116457   6.629   3.876   6.865
 5186SOL    HW216458   6.644   4.028   6.808
 5187SOL     OW16459   1.257   4.726   5.119
 5187SOL    HW116460   1.273   4.758   5.026
 5187SOL    HW216461   1.344   4.725   5.169
 5188SOL     OW16462   5.933   0.484   2.331
 5188SOL    HW116463   5.924   0.457   2.427
 5188SOL    HW216464   6.027   0.510   2.312
 5189SOL     OW16465   4.803   6.346   6.913
 5189SOL    HW116466   4.874   6.413   6.889
 5189SOL    HW216467   4.774   6.360   7.007
 5190SOL     OW16468   1.860   4.626   6.921
 5190SOL    HW116469   1.779   4.663   6.876
 5190SOL    HW216470   1.903   4.557   6.863
 5191SOL     OW16471   2.707   4.839   2.021
 5191SOL    HW116472   2.786   4.781   2.002
 5191SOL    HW216473   2.648   4.842   1.940
 5192SOL     OW16474   1.105   4.791   2.279
 5192SOL    HW116475   1.023   4.843   2.302
 5192SOL    HW216476   1.107   4.706   2.333
 5193SOL     OW16477   5.724   1.098   5.509
 5193SOL    HW116478   5.752   1.192   5.492
 5193SOL    HW216479   5.804   1.039   5.508
 5194SOL     OW16480   4.878   1.264   5.776
 5194SOL    HW116481   4.802   1.239   5.716
 5194SOL    HW216482   4.893   1.362   5.773
 5195SOL     OW16483   0.286   0.699   5.286
 5195SOL    HW116484   0.379   0.714   5.255
 5195SOL    HW216485   0.255   0.608   5.257
 5196SOL     OW16486   5.813   6.903   3.658
 5196SOL    HW116487   5.718   6.871   3.659
 5196SOL    HW216488   5.870   6.835   3.612
 5197SOL     OW16489   0.936   2.475   4.869
 5197SOL    HW116490   0.945   2.541   4.944
 5197SOL    HW216491   0.878   2.513   4.798
 5198SOL     OW16492   6.134   5.069   3.337
 5198SOL    HW116493   6.149   5.127   3.417
 5198SOL    HW216494   6.121   4.974   3.367
 5199SOL     OW16495   0.187   4.729   1.081
 5199SOL    HW116496   0.097   4.753   1.118
 5199SOL    HW216497   0.245   4.810   1.081
 5200SOL     OW16498   6.785   3.720   4.697
 5200SOL    HW116499   6.783   3.622   4.714
 5200SOL    HW216500   6.716   3.744   4.629
 5201SOL     OW16501   0.410   5.231   4.309
 5201SOL    HW116502   0.416   5.195   4.215
 5201SOL    HW216503   0.362   5.318   4.308
 5202SOL     OW16504   0.923   4.518   1.107
 5202SOL    HW116505   1.018   4.489   1.117
 5202SOL    HW216506   0.884   4.533   1.198
 5203SOL     OW16507   0.401   2.785   0.081
 5203SOL    HW116508   0.337   2.781   0.005
 5203SOL    HW216509   0.371   2.722   0.154
 5204SOL     OW16510   4.601   4.557   6.760
 5204SOL    HW116511   4.641   4.636   6.808
 5204SOL    HW216512   4.527   4.587   6.701
 5205SOL     OW16513   1.229   0.208   0.720
 5205SOL    HW116514   1.264   0.203   0.627
 5205SOL    HW216515   1.129   0.201   0.719
 5206SOL     OW16516   0.632   4.301   4.859
 5206SOL    HW116517   0.644   4.389   4.813
 5206SOL    HW216518   0.562   4.247   4.812
 5207SOL     OW16519   1.728   4.693   3.493
 5207SOL    HW116520   1.776   4.680   3.406
 5207SOL    HW216521   1.734   4.788   3.521
 5208SOL     OW16522   4.548   1.081   0.391
 5208SOL    HW116523   4.479   1.086   0.319
 5208SOL    HW216524   4.552   0.988   0.427
 5209SOL     OW16525   5.336   5.762   2.842
 5209SOL    HW116526   5.345   5.841   2.903
 5209SOL    HW216527   5.401   5.770   2.767
 5210SOL     OW16528   4.723   4.111   3.266
 5210SOL    HW116529   4.682   4.160   3.344
 5210SOL    HW216530   4.741   4.016   3.292
 5211SOL     OW16531   3.758   3.882   2.543
 5211SOL    HW116532   3.727   3.810   2.605
 5211SOL    HW216533   3.854   3.867   2.519
 5212SOL     OW16534   0.726   0.974   0.094
 5212SOL    HW116535   0.702   1.068   0.118
 5212SOL    HW216536   0.821   0.957   0.117
 5213SOL     OW16537   4.474   2.357   6.578
 5213SOL    HW116538   4.568   2.390   6.566
 5213SOL    HW216539   4.410   2.434   6.568
 5214SOL     OW16540   5.783   1.734   6.714
 5214SOL    HW116541   5.882   1.742   6.722
 5214SOL    HW216542   5.746   1.684   6.792
 5215SOL     OW16543   5.899   5.128   2.572
 5215SOL    HW116544   5.879   5.140   2.670
 5215SOL    HW216545   5.981   5.180   2.548
 5216SOL     OW16546   4.767   5.536   1.502
 5216SOL    HW116547   4.818   5.597   1.441
 5216SOL    HW216548   4.682   5.508   1.457
 5217SOL     OW16549   2.965   4.945   3.524
 5217SOL    HW116550   2.876   4.909   3.552
 5217SOL    HW216551   3.030   4.937   3.599
 5218SOL     OW16552   1.745   6.486   4.543
 5218SOL    HW116553   1.668   6.424   4.527
 5218SOL    HW216554   1.738   6.523   4.636
 5219SOL     OW16555   2.757   5.904   0.770
 5219SOL    HW116556   2.772   5.944   0.861
 5219SOL    HW216557   2.803   5.960   0.701
 5220SOL     OW16558   0.776   6.992   2.233
 5220SOL    HW116559   0.727   0.004   2.315
 5220SOL    HW216560   0.801   6.896   2.242
 5221SOL     OW16561   4.943   1.823   5.075
 5221SOL    HW116562   4.846   1.823   5.101
 5221SOL    HW216563   4.954   1.870   4.988
 5222SOL     OW16564   0.983   6.592   2.523
 5222SOL    HW116565   0.893   6.600   2.566
 5222SOL    HW216566   1.050   6.643   2.577
 5223SOL     OW16567   5.209   0.067   0.664
 5223SOL    HW116568   5.184   0.061   0.567
 5223SOL    HW216569   5.281   0.002   0.684
 5224SOL     OW16570   5.186   1.398   3.095
 5224SOL    HW116571   5.103   1.379   3.043
 5224SOL    HW216572   5.229   1.481   3.060
 5225SOL     OW16573   6.079   6.386   5.285
 5225SOL    HW116574   5.985   6.400   5.252
 5225SOL    HW216575   6.082   6.402   5.384
 5226SOL     OW16576   1.977   6.159   3.513
 5226SOL    HW116577   1.909   6.136   3.444
 5226SOL    HW216578   2.032   6.078   3.533
 5227SOL     OW16579   5.378   3.718   3.459
 5227SOL    HW116580   5.344   3.733   3.366
 5227SOL    HW216581   5.334   3.638   3.498
 5228SOL     OW16582   5.260   0.330   1.344
 5228SOL    HW116583   5.325   0.390   1.390
 5228SOL    HW216584   5.309   0.255   1.299
 5229SOL     OW16585   1.142   4.336   4.009
 5229SOL    HW116586   1.202   4.395   4.062
 5229SOL    HW216587   1.079   4.288   4.070
 5230SOL     OW16588   1.561   6.155   6.662
 5230SOL    HW116589   1.500   6.227   6.695
 5230SOL    HW216590   1.542   6.136   6.566
 5231SOL     OW16591   3.576   2.918   3.711
 5231SOL    HW116592   3.504   2.866   3.664
 5231SOL    HW216593   3.612   2.988   3.648
 5232SOL     OW16594   5.330   3.316   5.420
 5232SOL    HW116595   5.386   3.287   5.341
 5232SOL    HW216596   5.281   3.400   5.396
 5233SOL     OW16597   0.546   0.768   2.674
 5233SOL    HW116598   0.563   0.711   2.755
 5233SOL    HW216599   0.529   0.862   2.703
 5234SOL     OW16600   4.294   6.015   1.006
 5234SOL    HW116601   4.292   6.087   0.937
 5234SOL    HW216602   4.304   5.926   0.961
 5235SOL     OW16603   0.856   3.636   1.317
 5235SOL    HW116604   0.767   3.656   1.275
 5235SOL    HW216605   0.902   3.565   1.264
 5236SOL     OW16606   5.252   3.199   1.225
 5236SOL    HW116607   5.218   3.152   1.143
 5236SOL    HW216608   5.222   3.150   1.306
 5237SOL     OW16609   2.252   1.782   4.501
 5237SOL    HW116610   2.328   1.761   4.563
 5237SOL    HW216611   2.276   1.860   4.443
 5238SOL     OW16612   1.772   3.955   1.202
 5238SOL    HW116613   1.828   3.986   1.126
 5238SOL    HW216614   1.803   4.000   1.286
 5239SOL     OW16615   3.275   3.086   5.150
 5239SOL    HW116616   3.301   2.997   5.111
 5239SOL    HW216617   3.191   3.118   5.108
 5240SOL     OW16618   2.705   1.858   5.012
 5240SOL    HW116619   2.653   1.803   5.078
 5240SOL    HW216620   2.669   1.951   5.011
 5241SOL     OW16621   2.836   5.606   5.836
 5241SOL    HW116622   2.887   5.523   5.857
 5241SOL    HW216623   2.787   5.637   5.917
 5242SOL     OW16624   4.779   0.941   6.283
 5242SOL    HW116625   4.800   1.008   6.211
 5242SOL    HW216626   4.680   0.934   6.294
 5243SOL     OW16627   0.537   3.905   0.121
 5243SOL    HW116628   0.541   3.949   0.211
 5243SOL    HW216629   0.584   3.817   0.125
 5244SOL     OW16630   5.821   3.922   6.999
 5244SOL    HW116631   5.758   3.999   6.986
 5244SOL    HW216632   5.836   3.877   6.911
 5245SOL     OW16633   4.648   4.076   6.555
 5245SOL    HW116634   4.709   4.055   6.631
 5245SOL    HW216635   4.688   4.043   6.469
 5246SOL     OW16636   0.879   3.555   2.863
 5246SOL    HW116637   0.803   3.552   2.928
 5246SOL    HW216638   0.966   3.551   2.912
 5247SOL     OW16639   0.394   4.967   1.448
 5247SOL    HW116640   0.441   4.884   1.419
 5247SOL    HW216641   0.405   5.038   1.379
 5248SOL     OW16642   4.275   0.543   6.791
 5248SOL    HW116643   4.215   0.617   6.823
 5248SOL    HW216644   4.369   0.561   6.820
 5249SOL     OW16645   1.534   5.426   5.181
 5249SOL    HW116646   1.566   5.520   5.173
 5249SOL    HW216647   1.591   5.377   5.247
 5250SOL     OW16648   0.413   1.480   6.004
 5250SOL    HW116649   0.422   1.563   5.947
 5250SOL    HW216650   0.344   1.420   5.964
 5251SOL     OW16651   0.146   2.846   1.290
 5251SOL    HW116652   0.213   2.781   1.255
 5251SOL    HW216653   0.085   2.799   1.355
 5252SOL     OW16654   4.036   6.089   0.399
 5252SOL    HW116655   3.973   6.053   0.468
 5252SOL    HW216656   4.097   6.016   0.368
 5253SOL     OW16657   5.963   2.662   3.735
 5253SOL    HW116658   6.016   2.716   3.800
 5253SOL    HW216659   6.018   2.648   3.652
 5254SOL     OW16660   4.562   1.270   4.078
 5254SOL    HW116661   4.641   1.227   4.034
 5254SOL    HW216662   4.490   1.284   4.011
 5255SOL     OW16663   3.489   6.669   4.507
 5255SOL    HW116664   3.521   6.581   4.542
 5255SOL    HW216665   3.403   6.693   4.552
 5256SOL     OW16666   5.715   6.702   3.014
 5256SOL    HW116667   5.773   6.766   3.064
 5256SOL    HW216668   5.658   6.650   3.078
 5257SOL     OW16669   3.376   1.521   2.208
 5257SOL    HW116670   3.293   1.468   2.195
 5257SOL    HW216671   3.360   1.617   2.183
 5258SOL     OW16672   5.773   2.395   2.126
 5258SOL    HW116673   5.718   2.312   2.135
 5258SOL    HW216674   5.854   2.374   2.071
 5259SOL     OW16675   4.923   4.438   2.342
 5259SOL    HW116676   4.975   4.356   2.318
 5259SOL    HW216677   4.831   4.432   2.305
 5260SOL     OW16678   5.168   3.316   1.605
 5260SOL    HW116679   5.227   3.247   1.565
 5260SOL    HW216680   5.173   3.400   1.551
 5261SOL     OW16681   2.063   2.352   4.521
 5261SOL    HW116682   2.084   2.292   4.598
 5261SOL    HW216683   2.106   2.441   4.535
 5262SOL     OW16684   2.402   0.484   1.892
 5262SOL    HW116685   2.408   0.570   1.841
 5262SOL    HW216686   2.417   0.502   1.989
 5263SOL     OW16687   0.854   6.587   0.646
 5263SOL    HW116688   0.869   6.518   0.717
 5263SOL    HW216689   0.828   6.673   0.689
 5264SOL     OW16690   0.787   2.254   0.592
 5264SOL    HW116691   0.841   2.184   0.638
 5264SOL    HW216692   0.833   2.282   0.507
 5265SOL     OW16693   5.656   4.718   2.485
 5265SOL    HW116694   5.652   4.815   2.459
 5265SOL    HW216695   5.666   4.711   2.584
 5266SOL     OW16696   1.702   6.809   0.996
 5266SOL    HW116697   1.746   6.883   1.047
 5266SOL    HW216698   1.603   6.814   1.009
 5267SOL     OW16699   4.915   4.300   4.791
 5267SOL    HW116700   4.870   4.354   4.720
 5267SOL    HW216701   4.849   4.239   4.835
 5268SOL     OW16702   5.831   4.974   5.513
 5268SOL    HW116703   5.888   5.054   5.530
 5268SOL    HW216704   5.794   4.977   5.420
 5269SOL     OW16705   0.963   5.421   4.619
 5269SOL    HW116706   0.909   5.383   4.694
 5269SOL    HW216707   1.038   5.475   4.656
 5270SOL     OW16708   6.547   3.063   3.148
 5270SOL    HW116709   6.570   2.966   3.141
 5270SOL    HW216710   6.486   3.089   3.073
 5271SOL     OW16711   4.992   4.504   4.947
 5271SOL    HW116712   4.964   4.423   4.896
 5271SOL    HW216713   5.068   4.549   4.899
 5272SOL     OW16714   1.586   1.138   4.025
 5272SOL    HW116715   1.581   1.226   3.977
 5272SOL    HW216716   1.499   1.090   4.014
 5273SOL     OW16717   0.540   0.597   4.720
 5273SOL    HW116718   0.550   0.695   4.704
 5273SOL    HW216719   0.592   0.547   4.651
 5274SOL     OW16720   6.451   5.398   4.389
 5274SOL    HW116721   6.368   5.390   4.334
 5274SOL    HW216722   6.528   5.359   4.338
 5275SOL     OW16723   2.611   6.767   6.717
 5275SOL    HW116724   2.520   6.793   6.684
 5275SOL    HW216725   2.611   6.672   6.746
 5276SOL     OW16726   0.018   0.526   1.038
 5276SOL    HW116727   6.941   0.497   1.036
 5276SOL    HW216728   0.078   0.447   1.053
 5277SOL     OW16729   0.777   1.709   2.574
 5277SOL    HW116730   0.829   1.627   2.552
 5277SOL    HW216731   0.775   1.721   2.673
 5278SOL     OW16732   0.804   4.113   6.378
 5278SOL    HW116733   0.803   4.149   6.472
 5278SOL    HW216734   0.795   4.190   6.314
 5279SOL     OW16735   2.320   5.976   6.553
 5279SOL    HW116736   2.400   6.007   6.502
 5279SOL    HW216737   2.313   5.876   6.545
 5280SOL     OW16738   4.454   6.508   5.114
 5280SOL    HW116739   4.375   6.448   5.103
 5280SOL    HW216740   4.496   6.525   5.025
 5281SOL     OW16741   2.838   6.980   5.196
 5281SOL    HW116742   2.826   6.958   5.293
 5281SOL    HW216743   2.896   6.910   5.153
 5282SOL     OW16744   1.164   6.734   1.599
 5282SOL    HW116745   1.100   6.801   1.560
 5282SOL    HW216746   1.214   6.689   1.525
 5283SOL     OW16747   0.922   0.778   4.351
 5283SOL    HW116748   0.939   0.680   4.358
 5283SOL    HW216749   0.826   0.793   4.326
 5284SOL     OW16750   4.353   2.590   1.518
 5284SOL    HW116751   4.267   2.636   1.542
 5284SOL    HW216752   4.408   2.577   1.600
 5285SOL     OW16753   1.583   2.090   4.152
 5285SOL    HW116754   1.608   2.065   4.059
 5285SOL    HW216755   1.487   2.119   4.155
 5286SOL     OW16756   6.066   3.070   1.369
 5286SOL    HW116757   6.161   3.101   1.361
 5286SOL    HW216758   6.060   2.997   1.436
 5287SOL     OW16759   2.019   5.087   1.475
 5287SOL    HW116760   2.053   5.019   1.540
 5287SOL    HW216761   2.084   5.096   1.400
 5288SOL     OW16762   3.993   0.536   1.463
 5288SOL    HW116763   3.904   0.578   1.446
 5288SOL    HW216764   4.059   0.569   1.395
 5289SOL     OW16765   2.484   4.904   6.157
 5289SOL    HW116766   2.477   4.804   6.160
 5289SOL    HW216767   2.423   4.944   6.226
 5290SOL     OW16768   1.588   3.132   4.573
 5290SOL    HW116769   1.496   3.140   4.536
 5290SOL    HW216770   1.649   3.093   4.503
 5291SOL     OW16771   2.724   4.720   4.574
 5291SOL    HW116772   2.633   4.762   4.562
 5291SOL    HW216773   2.742   4.659   4.497
 5292SOL     OW16774   0.255   3.833   5.812
 5292SOL    HW116775   0.336   3.880   5.779
 5292SOL    HW216776   0.173   3.883   5.783
 5293SOL     OW16777   2.163   6.291   4.153
 5293SOL    HW116778   2.252   6.260   4.186
 5293SOL    HW216779   2.170   6.320   4.058
 5294SOL     OW16780   4.248   7.015   5.176
 5294SOL    HW116781   4.235   6.923   5.215
 5294SOL    HW216782   4.346   0.018   5.173
 5295SOL     OW16783   3.009   1.565   2.534
 5295SOL    HW116784   2.912   1.569   2.556
 5295SOL    HW216785   3.030   1.631   2.462
 5296SOL     OW16786   4.725   4.807   1.468
 5296SOL    HW116787   4.699   4.847   1.380
 5296SOL    HW216788   4.735   4.880   1.536
 5297SOL     OW16789   2.738   5.248   0.423
 5297SOL    HW116790   2.754   5.160   0.469
 5297SOL    HW216791   2.721   5.318   0.492
 5298SOL     OW16792   1.934   0.551   6.947
 5298SOL    HW116793   1.931   0.469   6.889
 5298SOL    HW216794   1.852   0.554   7.004
 5299SOL     OW16795   2.778   1.314   1.578
 5299SOL    HW116796   2.877   1.305   1.566
 5299SOL    HW216797   2.732   1.260   1.507
 5300SOL     OW16798   2.240   4.551   6.796
 5300SOL    HW116799   2.161   4.492   6.780
 5300SOL    HW216800   2.316   4.521   6.739
 5301SOL     OW16801   5.245   0.008   6.059
 5301SOL    HW116802   5.252   6.935   6.019
 5301SOL    HW216803   5.177   0.062   6.009
 5302SOL     OW16804   5.670   6.160   3.298
 5302SOL    HW116805   5.573   6.154   3.322
 5302SOL    HW216806   5.721   6.092   3.350
 5303SOL     OW16807   0.777   5.390   5.736
 5303SOL    HW116808   0.768   5.439   5.823
 5303SOL    HW216809   0.793   5.455   5.662
 5304SOL     OW16810   6.895   0.790   2.261
 5304SOL    HW116811   6.931   0.715   2.316
 5304SOL    HW216812   6.804   0.764   2.226
 5305SOL     OW16813   1.031   5.195   3.182
 5305SOL    HW116814   1.042   5.134   3.104
 5305SOL    HW216815   1.093   5.273   3.171
 5306SOL     OW16816   0.248   3.180   6.329
 5306SOL    HW116817   0.296   3.268   6.337
 5306SOL    HW216818   0.158   3.195   6.288
 5307SOL     OW16819   6.150   1.554   1.694
 5307SOL    HW116820   6.053   1.577   1.700
 5307SOL    HW216821   6.162   1.455   1.695
 5308SOL     OW16822   1.668   3.935   3.138
 5308SOL    HW116823   1.642   3.945   3.234
 5308SOL    HW216824   1.620   4.003   3.083
 5309SOL     OW16825   6.182   6.188   2.591
 5309SOL    HW116826   6.248   6.114   2.577
 5309SOL    HW216827   6.136   6.208   2.504
 5310SOL     OW16828   5.435   2.754   2.681
 5310SOL    HW116829   5.518   2.792   2.640
 5310SOL    HW216830   5.447   2.656   2.697
 5311SOL     OW16831   5.743   0.132   0.387
 5311SOL    HW116832   5.768   0.090   0.474
 5311SOL    HW216833   5.803   0.211   0.370
 5312SOL     OW16834   0.027   6.582   0.641
 5312SOL    HW116835   0.003   6.668   0.685
 5312SOL    HW216836   6.981   6.565   0.566
 5313SOL     OW16837   0.845   5.627   5.574
 5313SOL    HW116838   0.940   5.611   5.601
 5313SOL    HW216839   0.828   5.725   5.568
 5314SOL     OW16840   6.135   0.680   2.075
 5314SOL    HW116841   6.165   0.626   2.154
 5314SOL    HW216842   6.172   0.639   1.991
 5315SOL     OW16843   4.471   1.118   4.402
 5315SOL    HW116844   4.492   1.215   4.411
 5315SOL    HW216845   4.528   1.078   4.331
 5316SOL     OW16846   0.627   2.191   4.704
 5316SOL    HW116847   0.540   2.241   4.706
 5316SOL    HW216848   0.649   2.158   4.796
 5317SOL     OW16849   6.227   2.073   6.585
 5317SOL    HW116850   6.301   2.031   6.637
 5317SOL    HW216851   6.146   2.080   6.644
 5318SOL     OW16852   6.888   3.946   6.581
 5318SOL    HW116853   6.798   3.965   6.620
 5318SOL    HW216854   6.947   3.905   6.650
 5319SOL     OW16855   4.647   6.826   1.196
 5319SOL    HW116856   4.560   6.843   1.151
 5319SOL    HW216857   4.655   6.885   1.277
 5320SOL     OW16858   2.979   5.735   1.155
 5320SOL    HW116859   2.934   5.822   1.135
 5320SOL    HW216860   2.998   5.687   1.069
 5321SOL     OW16861   1.623   4.292   4.828
 5321SOL    HW116862   1.549   4.344   4.872
 5321SOL    HW216863   1.704   4.293   4.888
 5322SOL     OW16864   5.641   6.515   2.240
 5322SOL    HW116865   5.541   6.518   2.251
 5322SOL    HW216866   5.681   6.598   2.278
 5323SOL     OW16867   3.933   1.000   5.752
 5323SOL    HW116868   3.906   0.992   5.848
 5323SOL    HW216869   3.867   0.954   5.694
 5324SOL     OW16870   2.195   1.606   0.491
 5324SOL    HW116871   2.138   1.679   0.452
 5324SOL    HW216872   2.170   1.519   0.449
 5325SOL     OW16873   2.052   1.804   4.784
 5325SOL    HW116874   2.130   1.833   4.840
 5325SOL    HW216875   2.076   1.811   4.687
 5326SOL     OW16876   6.410   6.681   2.519
 5326SOL    HW116877   6.502   6.719   2.531
 5326SOL    HW216878   6.409   6.587   2.552
 5327SOL     OW16879   6.235   2.596   4.811
 5327SOL    HW116880   6.242   2.562   4.905
 5327SOL    HW216881   6.226   2.518   4.748
 5328SOL     OW16882   4.059   4.665   0.016
 5328SOL    HW116883   4.131   4.610   0.059
 5328SOL    HW216884   3.973   4.651   0.065
 5329SOL     OW16885   1.429   6.572   6.438
 5329SOL    HW116886   1.464   6.630   6.364
 5329SOL    HW216887   1.490   6.494   6.451
 5330SOL     OW16888   2.299   3.658   0.621
 5330SOL    HW116889   2.385   3.706   0.638
 5330SOL    HW216890   2.266   3.678   0.529
 5331SOL     OW16891   6.200   0.717   6.395
 5331SOL    HW116892   6.145   0.686   6.318
 5331SOL    HW216893   6.217   0.815   6.388
 5332SOL     OW16894   1.114   5.258   2.332
 5332SOL    HW116895   1.200   5.281   2.287
 5332SOL    HW216896   1.040   5.264   2.265
 5333SOL     OW16897   0.713   6.107   4.261
 5333SOL    HW116898   0.751   6.152   4.181
 5333SOL    HW216899   0.784   6.053   4.306
 5334SOL     OW16900   2.931   0.252   4.218
 5334SOL    HW116901   3.014   0.245   4.274
 5334SOL    HW216902   2.850   0.247   4.276
 5335SOL     OW16903   6.573   5.960   0.716
 5335SOL    HW116904   6.661   5.974   0.762
 5335SOL    HW216905   6.518   5.895   0.769
 5336SOL     OW16906   1.326   4.117   1.821
 5336SOL    HW116907   1.395   4.095   1.753
 5336SOL    HW216908   1.349   4.074   1.908
 5337SOL     OW16909   4.751   4.462   1.273
 5337SOL    HW116910   4.696   4.517   1.337
 5337SOL    HW216911   4.810   4.401   1.325
 5338SOL     OW16912   6.454   2.222   6.281
 5338SOL    HW116913   6.382   2.237   6.349
 5338SOL    HW216914   6.493   2.309   6.253
 5339SOL     OW16915   6.453   1.593   3.330
 5339SOL    HW116916   6.458   1.604   3.231
 5339SOL    HW216917   6.508   1.663   3.375
 5340SOL     OW16918   5.287   2.407   6.222
 5340SOL    HW116919   5.286   2.307   6.227
 5340SOL    HW216920   5.332   2.444   6.303
 5341SOL     OW16921   4.189   0.249   0.302
 5341SOL    HW116922   4.208   0.151   0.297
 5341SOL    HW216923   4.096   0.267   0.268
 5342SOL     OW16924   3.635   0.864   5.476
 5342SOL    HW116925   3.593   0.835   5.390
 5342SOL    HW216926   3.648   0.784   5.535
 5343SOL     OW16927   4.047   3.867   2.499
 5343SOL    HW116928   4.118   3.812   2.454
 5343SOL    HW216929   4.084   3.958   2.520
 5344SOL     OW16930   2.410   2.175   3.028
 5344SOL    HW116931   2.327   2.212   3.071
 5344SOL    HW216932   2.465   2.250   2.992
 5345SOL     OW16933   4.561   6.727   1.788
 5345SOL    HW116934   4.573   6.765   1.696
 5345SOL    HW216935   4.504   6.645   1.783
 5346SOL     OW16936   2.705   6.366   2.907
 5346SOL    HW116937   2.790   6.350   2.857
 5346SOL    HW216938   2.726   6.402   2.997
 5347SOL     OW16939   0.546   2.009   1.296
 5347SOL    HW116940   0.554   1.910   1.304
 5347SOL    HW216941   0.611   2.043   1.228
 5348SOL     OW16942   0.499   1.068   6.795
 5348SOL    HW116943   0.431   1.061   6.868
 5348SOL    HW216944   0.473   1.140   6.731
 5349SOL     OW16945   6.166   0.997   1.469
 5349SOL    HW116946   6.126   0.943   1.395
 5349SOL    HW216947   6.251   0.954   1.500
 5350SOL     OW16948   2.512   1.365   6.198
 5350SOL    HW116949   2.551   1.375   6.290
 5350SOL    HW216950   2.539   1.444   6.143
 5351SOL     OW16951   4.149   6.954   1.948
 5351SOL    HW116952   4.235   7.003   1.954
 5351SOL    HW216953   4.113   6.960   1.855
 5352SOL     OW16954   3.297   5.393   3.574
 5352SOL    HW116955   3.275   5.467   3.637
 5352SOL    HW216956   3.357   5.326   3.619
 5353SOL     OW16957   6.074   6.090   5.292
 5353SOL    HW116958   6.114   6.054   5.208
 5353SOL    HW216959   6.080   6.189   5.292
 5354SOL     OW16960   0.755   3.905   1.487
 5354SOL    HW116961   0.766   3.968   1.409
 5354SOL    HW216962   0.831   3.918   1.551
 5355SOL     OW16963   4.869   2.013   4.876
 5355SOL    HW116964   4.785   1.959   4.879
 5355SOL    HW216965   4.853   2.102   4.919
 5356SOL     OW16966   6.488   3.714   1.296
 5356SOL    HW116967   6.574   3.758   1.268
 5356SOL    HW216968   6.507   3.618   1.318
 5357SOL     OW16969   3.731   6.976   0.242
 5357SOL    HW116970   3.637   6.988   0.211
 5357SOL    HW216971   3.791   0.017   0.188
 5358SOL     OW16972   4.697   2.895   0.563
 5358SOL    HW116973   4.727   2.889   0.468
 5358SOL    HW216974   4.776   2.910   0.623
 5359SOL     OW16975   2.107   0.908   6.718
 5359SOL    HW116976   2.121   0.921   6.816
 5359SOL    HW216977   2.025   0.854   6.702
 5360SOL     OW16978   3.781   0.036   6.897
 5360SOL    HW116979   3.862   0.003   6.847
 5360SOL    HW216980   3.714   6.980   6.904
 5361SOL     OW16981   2.050   0.766   5.992
 5361SOL    HW116982   1.966   0.739   6.038
 5361SOL    HW216983   2.034   0.771   5.893
 5362SOL     OW16984   4.751   5.468   2.654
 5362SOL    HW116985   4.816   5.493   2.583
 5362SOL    HW216986   4.722   5.373   2.641
 5363SOL     OW16987   0.824   5.582   5.955
 5363SOL    HW116988   0.731   5.615   5.974
 5363SOL    HW216989   0.862   5.540   6.038
 5364SOL     OW16990   0.933   6.374   0.801
 5364SOL    HW116991   1.020   6.414   0.830
 5364SOL    HW216992   0.873   6.364   0.880
 5365SOL     OW16993   4.404   2.059   5.916
 5365SOL    HW116994   4.481   2.056   5.980
 5365SOL    HW216995   4.409   1.980   5.854
 5366SOL     OW16996   3.852   3.230   0.166
 5366SOL    HW116997   3.848   3.252   0.069
 5366SOL    HW216998   3.762   3.202   0.197
 5367SOL     OW16999   0.119   5.092   1.018
 5367SOL    HW117000   0.030   5.078   1.061
 5367SOL    HW217001   0.156   5.180   1.046
 5368SOL     OW17002   6.287   1.789   3.968
 5368SOL    HW117003   6.353   1.752   4.034
 5368SOL    HW217004   6.210   1.828   4.018
 5369SOL     OW17005   2.044   4.007   2.995
 5369SOL    HW117006   2.012   3.914   3.014
 5369SOL    HW217007   2.005   4.039   2.908
 5370SOL     OW17008   3.756   3.091   1.006
 5370SOL    HW117009   3.750   3.020   1.076
 5370SOL    HW217010   3.675   3.149   1.010
 5371SOL     OW17011   0.698   3.906   5.069
 5371SOL    HW117012   0.748   3.981   5.025
 5371SOL    HW217013   0.729   3.819   5.030
 5372SOL     OW17014   2.853   5.321   2.527
 5372SOL    HW117015   2.795   5.402   2.535
 5372SOL    HW217016   2.926   5.338   2.461
 5373SOL     OW17017   2.970   4.815   3.262
 5373SOL    HW117018   2.871   4.802   3.272
 5373SOL    HW217019   3.005   4.867   3.340
 5374SOL     OW17020   2.779   2.113   0.355
 5374SOL    HW117021   2.747   2.035   0.301
 5374SOL    HW217022   2.794   2.084   0.449
 5375SOL     OW17023   1.525   4.841   3.856
 5375SOL    HW117024   1.495   4.928   3.818
 5375SOL    HW217025   1.560   4.855   3.948
 5376SOL     OW17026   1.556   3.393   0.951
 5376SOL    HW117027   1.538   3.475   1.007
 5376SOL    HW217028   1.616   3.417   0.875
 5377SOL     OW17029   0.341   1.283   0.890
 5377SOL    HW117030   0.315   1.193   0.924
 5377SOL    HW217031   0.391   1.332   0.962
 5378SOL     OW17032   5.449   0.637   0.737
 5378SOL    HW117033   5.468   0.545   0.702
 5378SOL    HW217034   5.427   0.698   0.661
 5379SOL     OW17035   0.221   6.142   1.931
 5379SOL    HW117036   0.242   6.058   1.982
 5379SOL    HW217037   0.261   6.221   1.978
 5380SOL     OW17038   3.024   0.410   3.853
 5380SOL    HW117039   3.053   0.504   3.838
 5380SOL    HW217040   3.100   0.356   3.890
 5381SOL     OW17041   5.594   4.159   1.264
 5381SOL    HW117042   5.567   4.094   1.193
 5381SOL    HW217043   5.687   4.138   1.294
 5382SOL     OW17044   1.809   0.288   1.397
 5382SOL    HW117045   1.811   0.192   1.425
 5382SOL    HW217046   1.715   0.315   1.378
 5383SOL     OW17047   2.299   1.895   4.931
 5383SOL    HW117048   2.266   1.824   4.993
 5383SOL    HW217049   2.359   1.957   4.980
 5384SOL     OW17050   5.859   6.357   3.924
 5384SOL    HW117051   5.772   6.310   3.911
 5384SOL    HW217052   5.899   6.328   4.011
 5385SOL     OW17053   3.654   4.105   2.407
 5385SOL    HW117054   3.701   4.021   2.432
 5385SOL    HW217055   3.556   4.095   2.422
 5386SOL     OW17056   5.391   6.504   4.821
 5386SOL    HW117057   5.435   6.454   4.747
 5386SOL    HW217058   5.441   6.490   4.906
 5387SOL     OW17059   2.984   5.464   1.742
 5387SOL    HW117060   2.939   5.534   1.799
 5387SOL    HW217061   3.030   5.399   1.801
 5388SOL     OW17062   5.625   0.455   2.658
 5388SOL    HW117063   5.558   0.524   2.628
 5388SOL    HW217064   5.626   0.380   2.592
 5389SOL     OW17065   4.776   2.284   0.817
 5389SOL    HW117066   4.801   2.195   0.780
 5389SOL    HW217067   4.846   2.351   0.793
 5390SOL     OW17068   6.242   4.665   6.096
 5390SOL    HW117069   6.326   4.696   6.140
 5390SOL    HW217070   6.216   4.576   6.133
 5391SOL     OW17071   2.331   3.109   6.837
 5391SOL    HW117072   2.386   3.193   6.837
 5391SOL    HW217073   2.361   3.050   6.762
 5392SOL     OW17074   6.630   3.072   2.420
 5392SOL    HW117075   6.666   2.994   2.369
 5392SOL    HW217076   6.677   3.156   2.390
 5393SOL     OW17077   6.746   0.229   6.866
 5393SOL    HW117078   6.686   0.200   6.791
 5393SOL    HW217079   6.829   0.174   6.866
 5394SOL     OW17080   0.747   4.033   5.744
 5394SOL    HW117081   0.650   4.042   5.768
 5394SOL    HW217082   0.799   4.109   5.785
 5395SOL     OW17083   3.882   1.618   0.261
 5395SOL    HW117084   3.943   1.543   0.237
 5395SOL    HW217085   3.792   1.581   0.284
 5396SOL     OW17086   4.987   3.437   2.241
 5396SOL    HW117087   4.964   3.351   2.194
 5396SOL    HW217088   5.028   3.415   2.330
 5397SOL     OW17089   0.323   3.418   1.528
 5397SOL    HW117090   0.336   3.451   1.621
 5397SOL    HW217091   0.405   3.440   1.474
 5398SOL     OW17092   3.012   2.641   1.667
 5398SOL    HW117093   3.103   2.612   1.639
 5398SOL    HW217094   2.965   2.565   1.711
 5399SOL     OW17095   1.412   6.027   0.958
 5399SOL    HW117096   1.492   6.084   0.976
 5399SOL    HW217097   1.329   6.084   0.958
 5400SOL     OW17098   2.606   4.404   0.758
 5400SOL    HW117099   2.538   4.477   0.757
 5400SOL    HW217100   2.663   4.412   0.840
 5401SOL     OW17101   6.291   3.166   1.454
 5401SOL    HW117102   6.354   3.172   1.376
 5401SOL    HW217103   6.328   3.218   1.530
 5402SOL     OW17104   1.011   6.220   2.045
 5402SOL    HW117105   0.926   6.266   2.069
 5402SOL    HW217106   1.085   6.287   2.038
 5403SOL     OW17107   0.443   2.612   6.337
 5403SOL    HW117108   0.388   2.529   6.353
 5403SOL    HW217109   0.402   2.689   6.385
 5404SOL     OW17110   1.950   2.647   3.285
 5404SOL    HW117111   2.034   2.618   3.332
 5404SOL    HW217112   1.962   2.637   3.186
 5405SOL     OW17113   6.782   5.067   6.152
 5405SOL    HW117114   6.838   5.034   6.227
 5405SOL    HW217115   6.691   5.091   6.186
 5406SOL     OW17116   2.138   0.566   5.499
 5406SOL    HW117117   2.128   0.606   5.408
 5406SOL    HW217118   2.203   0.620   5.553
 5407SOL     OW17119   3.996   3.159   6.522
 5407SOL    HW117120   4.066   3.213   6.474
 5407SOL    HW217121   3.905   3.192   6.495
 5408SOL     OW17122   2.907   0.805   6.556
 5408SOL    HW117123   2.912   0.876   6.486
 5408SOL    HW217124   2.818   0.808   6.600
 5409SOL     OW17125   3.957   0.720   2.482
 5409SOL    HW117126   3.877   0.752   2.431
 5409SOL    HW217127   4.031   0.787   2.474
 5410SOL     OW17128   2.400   2.332   2.295
 5410SOL    HW117129   2.480   2.352   2.238
 5410SOL    HW217130   2.327   2.294   2.238
 5411SOL     OW17131   0.548   5.561   4.999
 5411SOL    HW117132   0.644   5.586   4.995
 5411SOL    HW217133   0.520   5.523   4.910
 5412SOL     OW17134   6.353   2.900   1.118
 5412SOL    HW117135   6.381   2.915   1.213
 5412SOL    HW217136   6.397   2.967   1.059
 5413SOL     OW17137   2.064   0.804   1.549
 5413SOL    HW117138   1.976   0.798   1.502
 5413SOL    HW217139   2.136   0.819   1.482
 5414SOL     OW17140   3.946   1.012   5.272
 5414SOL    HW117141   3.969   1.110   5.277
 5414SOL    HW217142   3.909   0.992   5.181
 5415SOL     OW17143   6.130   4.997   1.916
 5415SOL    HW117144   6.152   4.996   1.819
 5415SOL    HW217145   6.162   5.082   1.957
 5416SOL     OW17146   4.536   5.779   4.843
 5416SOL    HW117147   4.536   5.783   4.943
 5416SOL    HW217148   4.546   5.684   4.813
 5417SOL     OW17149   3.366   6.743   4.793
 5417SOL    HW117150   3.285   6.797   4.817
 5417SOL    HW217151   3.441   6.803   4.766
 5418SOL     OW17152   3.792   0.448   2.895
 5418SOL    HW117153   3.890   0.429   2.888
 5418SOL    HW217154   3.778   0.530   2.951
 5419SOL     OW17155   3.445   4.238   6.582
 5419SOL    HW117156   3.402   4.180   6.652
 5419SOL    HW217157   3.384   4.313   6.558
 5420SOL     OW17158   1.127   1.657   2.489
 5420SOL    HW117159   1.186   1.736   2.501
 5420SOL    HW217160   1.056   1.678   2.422
 5421SOL     OW17161   1.733   3.518   1.696
 5421SOL    HW117162   1.775   3.524   1.606
 5421SOL    HW217163   1.799   3.484   1.762
 5422SOL     OW17164   2.237   3.353   1.119
 5422SOL    HW117165   2.252   3.404   1.204
 5422SOL    HW217166   2.215   3.258   1.141
 5423SOL     OW17167   5.937   3.456   6.990
 5423SOL    HW117168   5.934   3.418   0.064
 5423SOL    HW217169   5.845   3.479   6.959
 5424SOL     OW17170   5.091   4.088   4.734
 5424SOL    HW117171   5.045   4.177   4.734
 5424SOL    HW217172   5.023   4.016   4.753
 5425SOL     OW17173   4.927   0.534   5.178
 5425SOL    HW117174   4.916   0.633   5.191
 5425SOL    HW217175   4.885   0.507   5.091
 5426SOL     OW17176   6.158   0.206   5.357
 5426SOL    HW117177   6.105   0.226   5.275
 5426SOL    HW217178   6.096   0.188   5.433
 5427SOL     OW17179   3.834   5.689   6.691
 5427SOL    HW117180   3.851   5.700   6.789
 5427SOL    HW217181   3.921   5.695   6.642
 5428SOL     OW17182   1.495   0.368   6.930
 5428SOL    HW117183   1.444   0.310   6.994
 5428SOL    HW217184   1.481   0.335   6.837
 5429SOL     OW17185   0.969   2.465   6.520
 5429SOL    HW117186   0.983   2.385   6.462
 5429SOL    HW217187   1.048   2.478   6.580
 5430SOL     OW17188   2.282   2.784   5.756
 5430SOL    HW117189   2.305   2.687   5.748
 5430SOL    HW217190   2.307   2.817   5.847
 5431SOL     OW17191   3.702   6.107   4.763
 5431SOL    HW117192   3.801   6.124   4.756
 5431SOL    HW217193   3.665   6.092   4.671
 5432SOL     OW17194   5.217   6.610   1.390
 5432SOL    HW117195   5.178   6.697   1.358
 5432SOL    HW217196   5.241   6.554   1.311
 5433SOL     OW17197   0.433   1.923   4.767
 5433SOL    HW117198   0.453   1.976   4.685
 5433SOL    HW217199   0.456   1.827   4.751
 5434SOL     OW17200   2.756   0.297   5.894
 5434SOL    HW117201   2.686   0.335   5.955
 5434SOL    HW217202   2.784   0.367   5.828
 5435SOL     OW17203   4.619   0.724   1.911
 5435SOL    HW117204   4.568   0.638   1.906
 5435SOL    HW217205   4.671   0.727   1.996
 5436SOL     OW17206   4.837   3.892   2.900
 5436SOL    HW117207   4.838   3.895   2.800
 5436SOL    HW217208   4.804   3.980   2.935
 5437SOL     OW17209   3.025   3.580   0.059
 5437SOL    HW117210   2.996   3.528   6.996
 5437SOL    HW217211   2.955   3.572   0.130
 5438SOL     OW17212   6.512   2.336   0.740
 5438SOL    HW117213   6.601   2.309   0.777
 5438SOL    HW217214   6.485   2.273   0.667
 5439SOL     OW17215   1.354   2.119   1.404
 5439SOL    HW117216   1.322   2.180   1.476
 5439SOL    HW217217   1.318   2.027   1.419
 5440SOL     OW17218   0.944   1.884   1.039
 5440SOL    HW117219   1.031   1.836   1.048
 5440SOL    HW217220   0.919   1.923   1.128
 5441SOL     OW17221   3.786   2.102   3.234
 5441SOL    HW117222   3.760   2.125   3.328
 5441SOL    HW217223   3.735   2.021   3.205
 5442SOL     OW17224   4.100   0.498   2.338
 5442SOL    HW117225   4.032   0.482   2.410
 5442SOL    HW217226   4.191   0.493   2.377
 5443SOL     OW17227   3.437   6.890   5.348
 5443SOL    HW117228   3.405   6.961   5.285
 5443SOL    HW217229   3.358   6.846   5.391
 5444SOL     OW17230   6.891   6.765   3.248
 5444SOL    HW117231   6.952   6.841   3.227
 5444SOL    HW217232   6.825   6.793   3.318
 5445SOL     OW17233   5.848   3.713   1.956
 5445SOL    HW117234   5.834   3.616   1.974
 5445SOL    HW217235   5.872   3.760   2.041
 5446SOL     OW17236   6.667   5.542   5.853
 5446SOL    HW117237   6.580   5.530   5.806
 5446SOL    HW217238   6.740   5.556   5.785
 5447SOL     OW17239   3.744   2.000   0.182
 5447SOL    HW117240   3.793   1.931   0.236
 5447SOL    HW217241   3.688   1.954   0.114
 5448SOL     OW17242   5.646   2.486   5.571
 5448SOL    HW117243   5.577   2.416   5.585
 5448SOL    HW217244   5.610   2.575   5.600
 5449SOL     OW17245   0.957   3.515   6.517
 5449SOL    HW117246   1.026   3.459   6.470
 5449SOL    HW217247   0.903   3.457   6.578
 5450SOL     OW17248   1.804   7.013   1.133
 5450SOL    HW117249   1.902   7.000   1.119
 5450SOL    HW217250   1.776   0.085   1.100
 5451SOL     OW17251   0.845   6.805   2.931
 5451SOL    HW117252   0.929   6.751   2.942
 5451SOL    HW217253   0.868   6.894   2.891
 5452SOL     OW17254   2.492   3.943   6.499
 5452SOL    HW117255   2.507   4.035   6.461
 5452SOL    HW217256   2.532   3.939   6.591
 5453SOL     OW17257   6.054   5.314   6.795
 5453SOL    HW117258   6.111   5.374   6.739
 5453SOL    HW217259   6.105   5.287   6.877
 5454SOL     OW17260   6.854   4.552   6.741
 5454SOL    HW117261   6.858   4.490   6.819
 5454SOL    HW217262   6.936   4.542   6.685
 5455SOL     OW17263   6.542   3.450   1.340
 5455SOL    HW117264   6.517   3.377   1.276
 5455SOL    HW217265   6.640   3.446   1.360
 5456SOL     OW17266   3.130   6.784   0.436
 5456SOL    HW117267   3.140   6.696   0.389
 5456SOL    HW217268   3.163   6.775   0.530
 5457SOL     OW17269   6.335   3.238   0.793
 5457SOL    HW117270   6.351   3.334   0.816
 5457SOL    HW217271   6.339   3.225   0.694
 5458SOL     OW17272   2.032   4.202   6.858
 5458SOL    HW117273   2.128   4.187   6.838
 5458SOL    HW217274   1.979   4.121   6.833
 5459SOL     OW17275   1.563   4.519   6.028
 5459SOL    HW117276   1.530   4.428   6.055
 5459SOL    HW217277   1.522   4.588   6.088
 5460SOL     OW17278   2.771   0.485   1.215
 5460SOL    HW117279   2.823   0.424   1.155
 5460SOL    HW217280   2.734   0.432   1.292
 5461SOL     OW17281   4.685   6.873   5.093
 5461SOL    HW117282   4.700   6.903   4.998
 5461SOL    HW217283   4.647   6.781   5.093
 5462SOL     OW17284   0.834   0.515   0.616
 5462SOL    HW117285   0.743   0.476   0.628
 5462SOL    HW217286   0.885   0.461   0.549
 5463SOL     OW17287   6.859   2.902   0.802
 5463SOL    HW117288   6.920   2.864   0.872
 5463SOL    HW217289   6.873   2.854   0.716
 5464SOL     OW17290   2.045   6.876   4.399
 5464SOL    HW117291   1.988   6.931   4.460
 5464SOL    HW217292   2.089   6.935   4.331
 5465SOL     OW17293   2.795   7.002   5.466
 5465SOL    HW117294   2.837   6.969   5.550
 5465SOL    HW217295   2.721   0.048   5.488
 5466SOL     OW17296   4.678   4.674   4.538
 5466SOL    HW117297   4.629   4.650   4.454
 5466SOL    HW217298   4.708   4.590   4.584
 5467SOL     OW17299   5.511   1.447   2.194
 5467SOL    HW117300   5.596   1.499   2.186
 5467SOL    HW217301   5.524   1.369   2.254
 5468SOL     OW17302   4.205   1.770   5.238
 5468SOL    HW117303   4.170   1.704   5.304
 5468SOL    HW217304   4.128   1.821   5.199
 5469SOL     OW17305   4.239   4.266   6.504
 5469SOL    HW117306   4.290   4.346   6.471
 5469SOL    HW217307   4.162   4.248   6.442
 5470SOL     OW17308   1.575   5.312   3.719
 5470SOL    HW117309   1.607   5.342   3.628
 5470SOL    HW217310   1.653   5.310   3.782
 5471SOL     OW17311   6.691   5.586   1.994
 5471SOL    HW117312   6.622   5.520   1.964
 5471SOL    HW217313   6.781   5.558   1.961
 5472SOL     OW17314   3.879   5.136   5.700
 5472SOL    HW117315   3.824   5.120   5.618
 5472SOL    HW217316   3.971   5.097   5.686
 5473SOL     OW17317   1.114   3.526   3.583
 5473SOL    HW117318   1.209   3.549   3.601
 5473SOL    HW217319   1.108   3.468   3.502
 5474SOL     OW17320   1.422   5.707   3.576
 5474SOL    HW117321   1.385   5.705   3.669
 5474SOL    HW217322   1.509   5.658   3.574
 5475SOL     OW17323   2.798   2.408   1.167
 5475SOL    HW117324   2.871   2.464   1.207
 5475SOL    HW217325   2.836   2.351   1.094
 5476SOL     OW17326   1.290   3.378   5.768
 5476SOL    HW117327   1.369   3.383   5.830
 5476SOL    HW217328   1.323   3.363   5.675
 5477SOL     OW17329   2.141   3.104   3.182
 5477SOL    HW117330   2.108   3.192   3.147
 5477SOL    HW217331   2.096   3.084   3.269
 5478SOL     OW17332   6.445   6.083   5.712
 5478SOL    HW117333   6.495   6.131   5.784
 5478SOL    HW217334   6.452   5.984   5.726
 5479SOL     OW17335   4.765   0.431   4.890
 5479SOL    HW117336   4.708   0.513   4.893
 5479SOL    HW217337   4.710   0.351   4.912
 5480SOL     OW17338   0.391   3.617   4.227
 5480SOL    HW117339   0.455   3.645   4.299
 5480SOL    HW217340   0.332   3.544   4.261
 5481SOL     OW17341   4.508   6.363   3.867
 5481SOL    HW117342   4.496   6.264   3.877
 5481SOL    HW217343   4.600   6.382   3.832
 5482SOL     OW17344   1.765   4.360   1.501
 5482SOL    HW117345   1.666   4.368   1.515
 5482SOL    HW217346   1.797   4.272   1.535
 5483SOL     OW17347   0.418   2.470   5.693
 5483SOL    HW117348   0.414   2.488   5.791
 5483SOL    HW217349   0.349   2.525   5.646
 5484SOL     OW17350   4.647   0.453   5.238
 5484SOL    HW117351   4.723   0.478   5.297
 5484SOL    HW217352   4.635   0.523   5.168
 5485SOL     OW17353   3.071   0.240   5.084
 5485SOL    HW117354   3.152   0.287   5.118
 5485SOL    HW217355   3.066   0.148   5.123
 5486SOL     OW17356   2.890   6.264   5.071
 5486SOL    HW117357   2.974   6.261   5.126
 5486SOL    HW217358   2.888   6.348   5.017
 5487SOL     OW17359   3.084   5.451   5.787
 5487SOL    HW117360   3.120   5.533   5.832
 5487SOL    HW217361   3.072   5.378   5.854
 5488SOL     OW17362   5.860   2.133   0.576
 5488SOL    HW117363   5.939   2.082   0.609
 5488SOL    HW217364   5.869   2.230   0.602
 5489SOL     OW17365   6.681   4.361   2.979
 5489SOL    HW117366   6.664   4.292   3.050
 5489SOL    HW217367   6.685   4.452   3.021
 5490SOL     OW17368   1.925   6.360   3.016
 5490SOL    HW117369   1.987   6.388   2.942
 5490SOL    HW217370   1.852   6.304   2.978
 5491SOL     OW17371   6.678   4.388   0.500
 5491SOL    HW117372   6.702   4.385   0.597
 5491SOL    HW217373   6.583   4.358   0.488
 5492SOL     OW17374   0.081   2.259   5.924
 5492SOL    HW117375   0.138   2.279   5.845
 5492SOL    HW217376   7.014   2.311   5.918
 5493SOL     OW17377   4.028   3.682   1.182
 5493SOL    HW117378   3.945   3.630   1.202
 5493SOL    HW217379   4.029   3.707   1.085
 5494SOL     OW17380   5.782   3.997   5.236
 5494SOL    HW117381   5.828   3.908   5.235
 5494SOL    HW217382   5.829   4.058   5.300
 5495SOL     OW17383   5.622   6.811   0.456
 5495SOL    HW117384   5.645   6.831   0.361
 5495SOL    HW217385   5.653   6.719   0.479
 5496SOL     OW17386   4.154   0.522   4.422
 5496SOL    HW117387   4.211   0.604   4.408
 5496SOL    HW217388   4.067   0.534   4.375
 5497SOL     OW17389   1.110   0.738   5.821
 5497SOL    HW117390   1.162   0.671   5.876
 5497SOL    HW217391   1.033   0.693   5.777
 5498SOL     OW17392   0.591   5.336   1.290
 5498SOL    HW117393   0.575   5.410   1.355
 5498SOL    HW217394   0.663   5.276   1.324
 5499SOL     OW17395   1.852   0.402   4.858
 5499SOL    HW117396   1.903   0.485   4.835
 5499SOL    HW217397   1.755   0.424   4.869
 5500SOL     OW17398   2.762   0.930   0.704
 5500SOL    HW117399   2.747   0.980   0.789
 5500SOL    HW217400   2.681   0.940   0.645
 5501SOL     OW17401   3.851   3.497   6.719
 5501SOL    HW117402   3.773   3.557   6.736
 5501SOL    HW217403   3.864   3.436   6.797
 5502SOL     OW17404   4.842   2.861   0.110
 5502SOL    HW117405   4.784   2.919   0.167
 5502SOL    HW217406   4.785   2.797   0.059
 5503SOL     OW17407   6.354   3.842   0.899
 5503SOL    HW117408   6.428   3.776   0.903
 5503SOL    HW217409   6.300   3.837   0.983
 5504SOL     OW17410   3.565   1.558   0.009
 5504SOL    HW117411   3.651   1.608   0.024
 5504SOL    HW217412   3.584   1.475   6.973
 5505SOL     OW17413   3.084   5.384   3.027
 5505SOL    HW117414   3.013   5.436   3.074
 5505SOL    HW217415   3.100   5.298   3.076
 5506SOL     OW17416   0.419   3.318   5.690
 5506SOL    HW117417   0.465   3.230   5.675
 5506SOL    HW217418   0.487   3.390   5.702
 5507SOL     OW17419   2.563   6.943   6.949
 5507SOL    HW117420   2.596   6.883   6.876
 5507SOL    HW217421   2.632   7.011   6.970
 5508SOL     OW17422   6.747   1.091   6.468
 5508SOL    HW117423   6.786   1.161   6.528
 5508SOL    HW217424   6.687   1.032   6.522
 5509SOL     OW17425   6.497   5.077   0.894
 5509SOL    HW117426   6.463   4.983   0.900
 5509SOL    HW217427   6.441   5.137   0.950
 5510SOL     OW17428   4.228   4.838   0.239
 5510SOL    HW117429   4.141   4.864   0.280
 5510SOL    HW217430   4.228   4.740   0.217
 5511SOL     OW17431   0.201   2.209   5.405
 5511SOL    HW117432   0.179   2.142   5.335
 5511SOL    HW217433   0.299   2.225   5.407
 5512SOL     OW17434   2.498   0.844   2.049
 5512SOL    HW117435   2.447   0.804   2.126
 5512SOL    HW217436   2.584   0.795   2.037
 5513SOL     OW17437   4.301   4.092   0.382
 5513SOL    HW117438   4.246   4.060   0.459
 5513SOL    HW217439   4.241   4.112   0.305
 5514SOL     OW17440   3.172   1.248   0.496
 5514SOL    HW117441   3.099   1.212   0.554
 5514SOL    HW217442   3.170   1.348   0.497
 5515SOL     OW17443   2.895   5.752   2.279
 5515SOL    HW117444   2.986   5.788   2.256
 5515SOL    HW217445   2.901   5.654   2.294
 5516SOL     OW17446   1.587   2.210   5.399
 5516SOL    HW117447   1.531   2.247   5.324
 5516SOL    HW217448   1.576   2.267   5.480
 5517SOL     OW17449   1.187   2.379   3.296
 5517SOL    HW117450   1.103   2.421   3.332
 5517SOL    HW217451   1.252   2.451   3.271
 5518SOL     OW17452   4.631   4.848   6.819
 5518SOL    HW117453   4.561   4.845   6.890
 5518SOL    HW217454   4.641   4.943   6.788
 5519SOL     OW17455   4.570   2.596   3.956
 5519SOL    HW117456   4.545   2.559   4.045
 5519SOL    HW217457   4.500   2.571   3.888
 5520SOL     OW17458   4.970   0.067   1.674
 5520SOL    HW117459   5.002   6.997   1.640
 5520SOL    HW217460   5.029   0.098   1.748
 5521SOL     OW17461   4.635   6.291   2.208
 5521SOL    HW117462   4.619   6.364   2.141
 5521SOL    HW217463   4.674   6.331   2.291
 5522SOL     OW17464   5.933   6.451   1.116
 5522SOL    HW117465   5.945   6.388   1.039
 5522SOL    HW217466   5.870   6.410   1.183
 5523SOL     OW17467   5.236   1.085   0.958
 5523SOL    HW117468   5.244   1.169   1.011
 5523SOL    HW217469   5.321   1.069   0.907
 5524SOL     OW17470   2.464   1.408   3.876
 5524SOL    HW117471   2.455   1.446   3.784
 5524SOL    HW217472   2.396   1.337   3.890
 5525SOL     OW17473   5.914   1.335   1.773
 5525SOL    HW117474   5.864   1.261   1.729
 5525SOL    HW217475   5.883   1.423   1.737
 5526SOL     OW17476   5.316   4.803   4.124
 5526SOL    HW117477   5.223   4.828   4.152
 5526SOL    HW217478   5.365   4.765   4.203
 5527SOL     OW17479   5.761   1.017   3.820
 5527SOL    HW117480   5.787   1.017   3.916
 5527SOL    HW217481   5.818   1.082   3.769
 5528SOL     OW17482   0.742   1.070   6.700
 5528SOL    HW117483   0.791   1.148   6.740
 5528SOL    HW217484   0.649   1.067   6.736
 5529SOL     OW17485   3.682   0.831   1.976
 5529SOL    HW117486   3.651   0.770   2.049
 5529SOL    HW217487   3.768   0.875   2.005
 5530SOL     OW17488   6.573   2.311   1.067
 5530SOL    HW117489   6.603   2.334   1.159
 5530SOL    HW217490   6.515   2.230   1.069
 5531SOL     OW17491   2.149   4.013   1.447
 5531SOL    HW117492   2.200   4.020   1.362
 5531SOL    HW217493   2.205   4.046   1.523
 5532SOL     OW17494   1.426   2.988   6.971
 5532SOL    HW117495   1.512   3.039   6.969
 5532SOL    HW217496   1.392   2.983   0.047
 5533SOL     OW17497   3.122   1.750   2.374
 5533SOL    HW117498   3.085   1.837   2.406
 5533SOL    HW217499   3.177   1.764   2.292
 5534SOL     OW17500   1.560   0.033   4.886
 5534SOL    HW117501   1.579   6.955   4.908
 5534SOL    HW217502   1.567   0.046   4.787
 5535SOL     OW17503   0.355   1.814   3.152
 5535SOL    HW117504   0.282   1.882   3.165
 5535SOL    HW217505   0.407   1.837   3.070
 5536SOL     OW17506   3.990   6.130   4.339
 5536SOL    HW117507   3.967   6.226   4.355
 5536SOL    HW217508   4.021   6.088   4.425
 5537SOL     OW17509   3.003   1.581   3.197
 5537SOL    HW117510   2.972   1.490   3.225
 5537SOL    HW217511   2.944   1.616   3.125
 5538SOL     OW17512   4.546   5.519   4.838
 5538SOL    HW117513   4.573   5.492   4.931
 5538SOL    HW217514   4.457   5.479   4.817
 5539SOL     OW17515   2.293   4.831   0.629
 5539SOL    HW117516   2.215   4.784   0.671
 5539SOL    HW217517   2.335   4.772   0.561
 5540SOL     OW17518   4.880   5.078   1.640
 5540SOL    HW117519   4.917   5.128   1.562
 5540SOL    HW217520   4.781   5.092   1.645
 5541SOL     OW17521   4.729   1.583   5.482
 5541SOL    HW117522   4.685   1.671   5.461
 5541SOL    HW217523   4.710   1.559   5.577
 5542SOL     OW17524   5.317   4.579   6.749
 5542SOL    HW117525   5.258   4.605   6.673
 5542SOL    HW217526   5.377   4.505   6.721
 5543SOL     OW17527   6.822   1.930   5.894
 5543SOL    HW117528   6.737   1.971   5.925
 5543SOL    HW217529   6.803   1.858   5.827
 5544SOL     OW17530   5.751   0.911   0.015
 5544SOL    HW117531   5.682   0.839   0.015
 5544SOL    HW217532   5.749   0.960   6.946
 5545SOL     OW17533   2.665   2.481   1.809
 5545SOL    HW117534   2.759   2.472   1.841
 5545SOL    HW217535   2.648   2.414   1.737
 5546SOL     OW17536   3.202   4.929   5.630
 5546SOL    HW117537   3.265   4.989   5.678
 5546SOL    HW217538   3.250   4.882   5.556
 5547SOL     OW17539   3.586   5.802   3.900
 5547SOL    HW117540   3.548   5.768   3.986
 5547SOL    HW217541   3.612   5.898   3.910
 5548SOL     OW17542   0.198   2.810   5.219
 5548SOL    HW117543   0.238   2.825   5.310
 5548SOL    HW217544   0.204   2.713   5.196
 5549SOL     OW17545   3.460   4.366   0.591
 5549SOL    HW117546   3.528   4.439   0.597
 5549SOL    HW217547   3.476   4.300   0.664
 5550SOL     OW17548   3.438   6.720   2.306
 5550SOL    HW117549   3.360   6.675   2.349
 5550SOL    HW217550   3.509   6.652   2.286
 5551SOL     OW17551   0.206   1.415   2.657
 5551SOL    HW117552   0.158   1.477   2.595
 5551SOL    HW217553   0.172   1.427   2.750
 5552SOL     OW17554   0.952   2.584   1.510
 5552SOL    HW117555   0.952   2.670   1.561
 5552SOL    HW217556   0.893   2.518   1.556
 5553SOL     OW17557   4.860   6.086   6.857
 5553SOL    HW117558   4.834   6.028   6.934
 5553SOL    HW217559   4.842   6.182   6.879
 5554SOL     OW17560   3.554   1.321   4.532
 5554SOL    HW117561   3.463   1.360   4.516
 5554SOL    HW217562   3.544   1.231   4.575
 5555SOL     OW17563   0.563   6.054   1.861
 5555SOL    HW117564   0.500   6.053   1.939
 5555SOL    HW217565   0.640   6.115   1.881
 5556SOL     OW17566   0.716   1.001   4.406
 5556SOL    HW117567   0.678   0.935   4.341
 5556SOL    HW217568   0.760   0.952   4.481
 5557SOL     OW17569   2.819   1.004   3.281
 5557SOL    HW117570   2.860   1.075   3.338
 5557SOL    HW217571   2.736   1.040   3.237
 5558SOL     OW17572   4.995   2.669   5.135
 5558SOL    HW117573   4.908   2.624   5.153
 5558SOL    HW217574   5.012   2.738   5.206
 5559SOL     OW17575   2.564   0.846   1.381
 5559SOL    HW117576   2.578   0.902   1.299
 5559SOL    HW217577   2.652   0.830   1.426
 5560SOL     OW17578   6.763   0.906   4.439
 5560SOL    HW117579   6.853   0.949   4.447
 5560SOL    HW217580   6.694   0.963   4.484
 5561SOL     OW17581   1.857   3.692   2.661
 5561SOL    HW117582   1.895   3.605   2.629
 5561SOL    HW217583   1.801   3.676   2.743
 5562SOL     OW17584   3.071   2.172   6.528
 5562SOL    HW117585   3.151   2.151   6.473
 5562SOL    HW217586   3.096   2.234   6.602
 5563SOL     OW17587   3.921   4.285   1.719
 5563SOL    HW117588   3.864   4.364   1.699
 5563SOL    HW217589   3.874   4.225   1.784
 5564SOL     OW17590   5.934   3.430   2.011
 5564SOL    HW117591   5.843   3.388   1.999
 5564SOL    HW217592   6.001   3.377   1.958
 5565SOL     OW17593   3.328   3.031   5.508
 5565SOL    HW117594   3.360   3.102   5.572
 5565SOL    HW217595   3.230   3.042   5.492
 5566SOL     OW17596   1.877   4.706   0.511
 5566SOL    HW117597   1.817   4.659   0.576
 5566SOL    HW217598   1.848   4.685   0.418
 5567SOL     OW17599   1.724   5.212   3.096
 5567SOL    HW117600   1.754   5.298   3.056
 5567SOL    HW217601   1.803   5.161   3.129
 5568SOL     OW17602   3.808   2.601   1.121
 5568SOL    HW117603   3.870   2.654   1.178
 5568SOL    HW217604   3.796   2.509   1.160
 5569SOL     OW17605   5.202   2.097   6.693
 5569SOL    HW117606   5.152   2.174   6.733
 5569SOL    HW217607   5.151   2.061   6.615
 5570SOL     OW17608   0.554   3.643   5.284
 5570SOL    HW117609   0.621   3.693   5.340
 5570SOL    HW217610   0.530   3.558   5.330
 5571SOL     OW17611   6.406   4.822   6.806
 5571SOL    HW117612   6.399   4.804   6.708
 5571SOL    HW217613   6.418   4.736   6.856
 5572SOL     OW17614   5.895   2.568   4.971
 5572SOL    HW117615   5.805   2.599   5.002
 5572SOL    HW217616   5.965   2.601   5.035
 5573SOL     OW17617   6.929   4.168   0.151
 5573SOL    HW117618   6.890   4.100   0.089
 5573SOL    HW217619   6.874   4.174   0.234
 5574SOL     OW17620   0.717   6.415   4.408
 5574SOL    HW117621   0.679   6.323   4.415
 5574SOL    HW217622   0.779   6.419   4.330
 5575SOL     OW17623   0.833   1.254   1.437
 5575SOL    HW117624   0.848   1.245   1.536
 5575SOL    HW217625   0.806   1.166   1.399
 5576SOL     OW17626   5.719   6.062   6.901
 5576SOL    HW117627   5.668   5.991   6.853
 5576SOL    HW217628   5.792   6.019   6.955
 5577SOL     OW17629   2.268   4.233   4.772
 5577SOL    HW117630   2.247   4.160   4.836
 5577SOL    HW217631   2.364   4.226   4.744
 5578SOL     OW17632   3.173   1.882   6.541
 5578SOL    HW117633   3.198   1.955   6.478
 5578SOL    HW217634   3.255   1.847   6.586
 5579SOL     OW17635   4.923   5.306   1.959
 5579SOL    HW117636   4.978   5.260   1.890
 5579SOL    HW217637   4.864   5.240   2.005
 5580SOL     OW17638   5.157   0.944   1.450
 5580SOL    HW117639   5.170   1.041   1.466
 5580SOL    HW217640   5.136   0.928   1.353
 5581SOL     OW17641   2.608   3.018   0.544
 5581SOL    HW117642   2.708   3.017   0.547
 5581SOL    HW217643   2.574   2.928   0.571
 5582SOL     OW17644   3.035   3.153   3.734
 5582SOL    HW117645   3.001   3.060   3.740
 5582SOL    HW217646   3.135   3.153   3.740
 5583SOL     OW17647   4.758   0.835   0.140
 5583SOL    HW117648   4.660   0.818   0.143
 5583SOL    HW217649   4.802   0.790   0.217
 5584SOL     OW17650   5.264   3.196   3.038
 5584SOL    HW117651   5.280   3.137   3.117
 5584SOL    HW217652   5.168   3.188   3.010
 5585SOL     OW17653   0.337   6.379   4.484
 5585SOL    HW117654   0.362   6.285   4.506
 5585SOL    HW217655   0.272   6.413   4.552
 5586SOL     OW17656   2.666   1.395   6.417
 5586SOL    HW117657   2.684   1.314   6.474
 5586SOL    HW217658   2.753   1.432   6.384
 5587SOL     OW17659   3.416   6.648   4.244
 5587SOL    HW117660   3.333   6.592   4.244
 5587SOL    HW217661   3.453   6.652   4.337
 5588SOL     OW17662   5.122   0.315   6.101
 5588SOL    HW117663   5.109   0.412   6.078
 5588SOL    HW217664   5.178   0.307   6.183
 5589SOL     OW17665   2.883   3.967   6.892
 5589SOL    HW117666   2.969   3.960   6.840
 5589SOL    HW217667   2.884   4.051   6.946
 5590SOL     OW17668   6.658   6.939   3.613
 5590SOL    HW117669   6.624   6.856   3.658
 5590SOL    HW217670   6.752   6.956   3.642
 5591SOL     OW17671   5.374   0.249   0.244
 5591SOL    HW117672   5.282   0.226   0.213
 5591SOL    HW217673   5.386   0.218   0.338
 5592SOL     OW17674   1.680   2.365   2.691
 5592SOL    HW117675   1.697   2.358   2.593
 5592SOL    HW217676   1.639   2.454   2.712
 5593SOL     OW17677   2.168   4.432   4.634
 5593SOL    HW117678   2.208   4.359   4.690
 5593SOL    HW217679   2.187   4.520   4.676
 5594SOL     OW17680   3.214   1.447   6.296
 5594SOL    HW117681   3.152   1.499   6.355
 5594SOL    HW217682   3.271   1.511   6.243
 5595SOL     OW17683   0.378   1.957   5.873
 5595SOL    HW117684   0.304   2.013   5.910
 5595SOL    HW217685   0.466   2.002   5.889
 5596SOL     OW17686   4.932   2.699   3.839
 5596SOL    HW117687   4.911   2.788   3.879
 5596SOL    HW217688   4.947   2.709   3.741
 5597SOL     OW17689   0.033   2.100   6.371
 5597SOL    HW117690   6.992   2.075   6.447
 5597SOL    HW217691   7.017   2.058   6.287
 5598SOL     OW17692   6.863   1.618   3.986
 5598SOL    HW117693   6.856   1.704   3.936
 5598SOL    HW217694   6.918   1.553   3.934
 5599SOL     OW17695   5.254   2.264   2.817
 5599SOL    HW117696   5.176   2.326   2.821
 5599SOL    HW217697   5.257   2.208   2.900
 5600SOL     OW17698   2.014   2.252   2.109
 5600SOL    HW117699   2.113   2.260   2.093
 5600SOL    HW217700   1.983   2.162   2.080
 5601SOL     OW17701   5.638   3.490   5.906
 5601SOL    HW117702   5.618   3.551   5.829
 5601SOL    HW217703   5.626   3.540   5.992
 5602SOL     OW17704   6.526   2.329   2.428
 5602SOL    HW117705   6.454   2.262   2.447
 5602SOL    HW217706   6.499   2.418   2.464
 5603SOL     OW17707   3.512   2.086   5.954
 5603SOL    HW117708   3.487   1.995   5.986
 5603SOL    HW217709   3.579   2.126   6.016
 5604SOL     OW17710   0.954   6.514   3.753
 5604SOL    HW117711   0.966   6.598   3.700
 5604SOL    HW217712   1.025   6.448   3.729
 5605SOL     OW17713   4.264   0.325   3.878
 5605SOL    HW117714   4.182   0.301   3.825
 5605SOL    HW217715   4.327   0.377   3.821
 5606SOL     OW17716   4.701   3.016   0.288
 5606SOL    HW117717   4.696   3.104   0.240
 5606SOL    HW217718   4.616   2.966   0.275
 5607SOL     OW17719   0.267   2.367   3.383
 5607SOL    HW117720   0.277   2.285   3.440
 5607SOL    HW217721   0.353   2.384   3.334
 5608SOL     OW17722   5.132   0.197   4.025
 5608SOL    HW117723   5.168   0.177   3.934
 5608SOL    HW217724   5.070   0.275   4.021
 5609SOL     OW17725   6.503   0.946   6.865
 5609SOL    HW117726   6.464   0.900   6.786
 5609SOL    HW217727   6.583   0.999   6.838
 5610SOL     OW17728   6.014   5.903   6.405
 5610SOL    HW117729   6.049   5.820   6.447
 5610SOL    HW217730   5.977   5.963   6.476
 5611SOL     OW17731   6.131   3.903   2.026
 5611SOL    HW117732   6.222   3.883   2.063
 5611SOL    HW217733   6.109   3.999   2.046
 5612SOL     OW17734   3.854   2.428   0.407
 5612SOL    HW117735   3.809   2.354   0.457
 5612SOL    HW217736   3.819   2.516   0.438
 5613SOL     OW17737   6.273   5.030   5.986
 5613SOL    HW117738   6.212   5.076   5.922
 5613SOL    HW217739   6.219   4.985   6.057
 5614SOL     OW17740   4.882   2.530   4.887
 5614SOL    HW117741   4.826   2.535   4.970
 5614SOL    HW217742   4.970   2.490   4.909
 5615SOL     OW17743   0.424   3.223   3.671
 5615SOL    HW117744   0.416   3.314   3.631
 5615SOL    HW217745   0.518   3.207   3.700
 5616SOL     OW17746   1.918   3.437   2.567
 5616SOL    HW117747   1.969   3.410   2.486
 5616SOL    HW217748   1.930   3.368   2.639
 5617SOL     OW17749   1.419   4.731   6.130
 5617SOL    HW117750   1.330   4.693   6.103
 5617SOL    HW217751   1.406   4.796   6.205
 5618SOL     OW17752   4.703   6.700   2.498
 5618SOL    HW117753   4.723   6.691   2.595
 5618SOL    HW217754   4.613   6.742   2.486
 5619SOL     OW17755   3.306   3.421   2.799
 5619SOL    HW117756   3.215   3.379   2.804
 5619SOL    HW217757   3.367   3.376   2.864
 5620SOL     OW17758   4.958   4.779   4.416
 5620SOL    HW117759   4.933   4.818   4.504
 5620SOL    HW217760   4.968   4.680   4.425
 5621SOL     OW17761   1.121   2.697   6.364
 5621SOL    HW117762   1.137   2.644   6.447
 5621SOL    HW217763   1.025   2.690   6.337
 5622SOL     OW17764   4.739   5.195   4.050
 5622SOL    HW117765   4.648   5.155   4.062
 5622SOL    HW217766   4.730   5.287   4.012
 5623SOL     OW17767   4.461   4.582   3.866
 5623SOL    HW117768   4.380   4.639   3.854
 5623SOL    HW217769   4.508   4.571   3.779
 5624SOL     OW17770   4.886   4.485   3.470
 5624SOL    HW117771   4.973   4.436   3.472
 5624SOL    HW217772   4.866   4.521   3.562
 5625SOL     OW17773   2.740   6.389   5.945
 5625SOL    HW117774   2.824   6.435   5.972
 5625SOL    HW217775   2.671   6.402   6.016
 5626SOL     OW17776   0.962   4.351   6.422
 5626SOL    HW117777   0.984   4.364   6.519
 5626SOL    HW217778   1.014   4.273   6.387
 5627SOL     OW17779   1.195   5.263   0.326
 5627SOL    HW117780   1.108   5.304   0.298
 5627SOL    HW217781   1.183   5.216   0.414
 5628SOL     OW17782   1.913   3.621   0.137
 5628SOL    HW117783   1.931   3.698   0.200
 5628SOL    HW217784   2.000   3.579   0.111
 5629SOL     OW17785   6.882   3.620   3.358
 5629SOL    HW117786   6.958   3.622   3.423
 5629SOL    HW217787   6.890   3.539   3.300
 5630SOL     OW17788   0.761   3.554   0.635
 5630SOL    HW117789   0.842   3.587   0.586
 5630SOL    HW217790   0.765   3.455   0.642
 5631SOL     OW17791   3.506   1.361   1.326
 5631SOL    HW117792   3.497   1.305   1.408
 5631SOL    HW217793   3.594   1.407   1.327
 5632SOL     OW17794   4.856   6.577   5.903
 5632SOL    HW117795   4.779   6.605   5.845
 5632SOL    HW217796   4.822   6.538   5.988
 5633SOL     OW17797   1.288   5.366   5.551
 5633SOL    HW117798   1.382   5.337   5.533
 5633SOL    HW217799   1.249   5.404   5.467
 5634SOL     OW17800   2.834   0.708   1.405
 5634SOL    HW117801   2.930   0.734   1.419
 5634SOL    HW217802   2.829   0.629   1.344
 5635SOL     OW17803   3.373   0.712   1.851
 5635SOL    HW117804   3.405   0.621   1.874
 5635SOL    HW217805   3.306   0.743   1.918
 5636SOL     OW17806   5.152   0.471   5.679
 5636SOL    HW117807   5.143   0.493   5.777
 5636SOL    HW217808   5.194   0.548   5.632
 5637SOL     OW17809   5.077   6.889   4.976
 5637SOL    HW117810   5.101   6.931   4.888
 5637SOL    HW217811   5.112   6.946   5.051
 5638SOL     OW17812   6.345   5.385   0.612
 5638SOL    HW117813   6.382   5.443   0.540
 5638SOL    HW217814   6.420   5.348   0.667
 5639SOL     OW17815   2.771   0.456   1.710
 5639SOL    HW117816   2.740   0.543   1.749
 5639SOL    HW217817   2.870   0.457   1.699
 5640SOL     OW17818   3.047   6.734   3.484
 5640SOL    HW117819   3.138   6.699   3.461
 5640SOL    HW217820   3.052   6.832   3.505
 5641SOL     OW17821   6.859   4.006   3.893
 5641SOL    HW117822   6.759   4.009   3.890
 5641SOL    HW217823   6.895   4.097   3.910
 5642SOL     OW17824   2.313   3.609   6.552
 5642SOL    HW117825   2.280   3.535   6.612
 5642SOL    HW217826   2.235   3.649   6.503
 5643SOL     OW17827   6.105   2.422   4.420
 5643SOL    HW117828   6.203   2.403   4.434
 5643SOL    HW217829   6.089   2.445   4.324
 5644SOL     OW17830   3.938   0.431   4.989
 5644SOL    HW117831   4.012   0.445   5.055
 5644SOL    HW217832   3.937   0.335   4.960
 5645SOL     OW17833   6.376   6.165   3.689
 5645SOL    HW117834   6.278   6.176   3.674
 5645SOL    HW217835   6.422   6.252   3.673
 5646SOL     OW17836   6.473   6.330   3.948
 5646SOL    HW117837   6.482   6.267   4.025
 5646SOL    HW217838   6.409   6.292   3.882
 5647SOL     OW17839   6.936   4.186   6.765
 5647SOL    HW117840   6.930   4.134   6.680
 5647SOL    HW217841   0.003   4.164   6.812
 5648SOL     OW17842   2.588   1.041   4.660
 5648SOL    HW117843   2.531   1.122   4.658
 5648SOL    HW217844   2.563   0.980   4.585
 5649SOL     OW17845   1.192   6.950   5.148
 5649SOL    HW117846   1.285   6.911   5.145
 5649SOL    HW217847   1.172   6.982   5.241
 5650SOL     OW17848   6.661   4.820   6.337
 5650SOL    HW117849   6.616   4.903   6.372
 5650SOL    HW217850   6.755   4.842   6.311
 5651SOL     OW17851   5.656   1.356   2.444
 5651SOL    HW117852   5.730   1.310   2.492
 5651SOL    HW217853   5.650   1.451   2.474
 5652SOL     OW17854   5.728   3.882   0.537
 5652SOL    HW117855   5.724   3.974   0.575
 5652SOL    HW217856   5.721   3.886   0.437
 5653SOL     OW17857   2.094   5.961   6.862
 5653SOL    HW117858   2.038   5.980   6.781
 5653SOL    HW217859   2.114   6.046   6.910
 5654SOL     OW17860   1.478   6.044   6.392
 5654SOL    HW117861   1.445   6.133   6.362
 5654SOL    HW217862   1.460   5.975   6.322
 5655SOL     OW17863   0.235   5.561   3.142
 5655SOL    HW117864   0.322   5.552   3.188
 5655SOL    HW217865   0.185   5.640   3.179
 5656SOL     OW17866   3.622   5.540   6.604
 5656SOL    HW117867   3.684   5.612   6.635
 5656SOL    HW217868   3.618   5.539   6.504
 5657SOL     OW17869   4.120   5.553   1.838
 5657SOL    HW117870   4.214   5.572   1.809
 5657SOL    HW217871   4.119   5.530   1.935
 5658SOL     OW17872   5.540   6.990   5.763
 5658SOL    HW117873   5.556   0.006   5.670
 5658SOL    HW217874   5.616   7.017   5.822
 5659SOL     OW17875   3.390   4.130   2.871
 5659SOL    HW117876   3.297   4.098   2.856
 5659SOL    HW217877   3.435   4.147   2.783
 5660SOL     OW17878   6.546   6.472   1.259
 5660SOL    HW117879   6.636   6.499   1.225
 5660SOL    HW217880   6.481   6.469   1.183
 5661SOL     OW17881   6.201   5.968   4.659
 5661SOL    HW117882   6.250   5.958   4.746
 5661SOL    HW217883   6.180   5.878   4.622
 5662SOL     OW17884   2.213   4.665   4.741
 5662SOL    HW117885   2.235   4.698   4.833
 5662SOL    HW217886   2.173   4.740   4.687
 5663SOL     OW17887   2.412   3.940   1.202
 5663SOL    HW117888   2.328   3.981   1.166
 5663SOL    HW217889   2.445   3.870   1.138
 5664SOL     OW17890   0.080   6.044   2.532
 5664SOL    HW117891   0.162   6.094   2.557
 5664SOL    HW217892   0.066   5.968   2.595
 5665SOL     OW17893   1.563   1.162   5.876
 5665SOL    HW117894   1.489   1.114   5.828
 5665SOL    HW217895   1.531   1.187   5.968
 5666SOL     OW17896   5.919   6.127   0.129
 5666SOL    HW117897   5.924   6.206   0.190
 5666SOL    HW217898   5.955   6.153   0.039
 5667SOL     OW17899   6.400   6.027   3.038
 5667SOL    HW117900   6.450   6.082   2.971
 5667SOL    HW217901   6.397   5.932   3.007
 5668SOL     OW17902   6.392   3.160   5.668
 5668SOL    HW117903   6.300   3.175   5.704
 5668SOL    HW217904   6.436   3.249   5.651
 5669SOL     OW17905   6.780   3.438   4.822
 5669SOL    HW117906   6.799   3.365   4.888
 5669SOL    HW217907   6.847   3.433   4.747
 5670SOL     OW17908   1.693   3.571   2.840
 5670SOL    HW117909   1.692   3.471   2.840
 5670SOL    HW217910   1.650   3.605   2.924
 5671SOL     OW17911   1.412   1.149   5.490
 5671SOL    HW117912   1.431   1.051   5.482
 5671SOL    HW217913   1.354   1.165   5.569
 5672SOL     OW17914   5.639   3.750   5.753
 5672SOL    HW117915   5.608   3.836   5.794
 5672SOL    HW217916   5.574   3.721   5.683
 5673SOL     OW17917   1.368   0.736   1.217
 5673SOL    HW117918   1.327   0.818   1.257
 5673SOL    HW217919   1.338   0.726   1.122
 5674SOL     OW17920   6.843   3.059   1.156
 5674SOL    HW117921   6.782   3.054   1.077
 5674SOL    HW217922   6.797   3.022   1.236
 5675SOL     OW17923   3.811   0.984   6.289
 5675SOL    HW117924   3.874   1.041   6.343
 5675SOL    HW217925   3.728   0.967   6.343
 5676SOL     OW17926   3.625   6.641   1.661
 5676SOL    HW117927   3.691   6.578   1.701
 5676SOL    HW217928   3.590   6.603   1.575
 5677SOL     OW17929   6.945   1.133   4.193
 5677SOL    HW117930   6.882   1.143   4.116
 5677SOL    HW217931   6.995   1.218   4.207
 5678SOL     OW17932   1.817   5.174   3.535
 5678SOL    HW117933   1.849   5.236   3.607
 5678SOL    HW217934   1.744   5.219   3.483
 5679SOL     OW17935   3.137   5.585   5.387
 5679SOL    HW117936   3.218   5.628   5.348
 5679SOL    HW217937   3.055   5.624   5.346
 5680SOL     OW17938   1.726   6.875   6.434
 5680SOL    HW117939   1.666   6.913   6.364
 5680SOL    HW217940   1.819   6.910   6.420
 5681SOL     OW17941   2.229   4.049   0.211
 5681SOL    HW117942   2.293   4.085   0.279
 5681SOL    HW217943   2.280   4.003   0.139
 5682SOL     OW17944   0.879   3.867   4.185
 5682SOL    HW117945   0.937   3.894   4.109
 5682SOL    HW217946   0.803   3.932   4.193
 5683SOL     OW17947   4.133   3.332   4.500
 5683SOL    HW117948   4.090   3.399   4.440
 5683SOL    HW217949   4.232   3.335   4.487
 5684SOL     OW17950   2.955   3.842   3.243
 5684SOL    HW117951   2.872   3.891   3.219
 5684SOL    HW217952   3.012   3.899   3.303
 5685SOL     OW17953   0.890   5.443   1.907
 5685SOL    HW117954   0.800   5.465   1.870
 5685SOL    HW217955   0.922   5.518   1.964
 5686SOL     OW17956   3.475   5.228   0.135
 5686SOL    HW117957   3.479   5.177   0.049
 5686SOL    HW217958   3.381   5.231   0.168
 5687SOL     OW17959   4.225   5.678   6.350
 5687SOL    HW117960   4.287   5.753   6.326
 5687SOL    HW217961   4.149   5.675   6.285
 5688SOL     OW17962   5.846   1.777   2.863
 5688SOL    HW117963   5.815   1.682   2.871
 5688SOL    HW217964   5.909   1.798   2.937
 5689SOL     OW17965   4.562   2.935   6.277
 5689SOL    HW117966   4.496   2.967   6.209
 5689SOL    HW217967   4.514   2.893   6.353
 5690SOL     OW17968   4.701   6.707   2.166
 5690SOL    HW117969   4.729   6.755   2.250
 5690SOL    HW217970   4.641   6.767   2.113
 5691SOL     OW17971   2.456   0.013   3.281
 5691SOL    HW117972   2.448   0.112   3.273
 5691SOL    HW217973   2.373   6.989   3.243
 5692SOL     OW17974   6.076   3.364   0.238
 5692SOL    HW117975   6.082   3.269   0.210
 5692SOL    HW217976   6.159   3.389   0.289
 5693SOL     OW17977   4.662   2.751   2.625
 5693SOL    HW117978   4.564   2.733   2.622
 5693SOL    HW217979   4.702   2.733   2.535
 5694SOL     OW17980   1.407   1.741   4.187
 5694SOL    HW117981   1.388   1.821   4.130
 5694SOL    HW217982   1.435   1.771   4.278
 5695SOL     OW17983   1.806   3.806   3.625
 5695SOL    HW117984   1.744   3.732   3.598
 5695SOL    HW217985   1.773   3.892   3.588
 5696SOL     OW17986   3.313   0.256   6.023
 5696SOL    HW117987   3.397   0.224   5.979
 5696SOL    HW217988   3.322   0.353   6.045
 5697SOL     OW17989   6.361   3.470   0.186
 5697SOL    HW117990   6.331   3.479   0.281
 5697SOL    HW217991   6.286   3.497   0.125
 5698SOL     OW17992   0.992   4.360   2.688
 5698SOL    HW117993   1.037   4.433   2.740
 5698SOL    HW217994   0.904   4.338   2.729
 5699SOL     OW17995   6.442   1.590   4.873
 5699SOL    HW117996   6.402   1.585   4.782
 5699SOL    HW217997   6.460   1.686   4.897
 5700SOL     OW17998   1.133   5.325   2.782
 5700SOL    HW117999   1.035   5.307   2.787
 5700SOL    HW218000   1.164   5.318   2.688
 5701SOL     OW18001   5.194   5.099   2.051
 5701SOL    HW118002   5.135   5.136   1.980
 5701SOL    HW218003   5.258   5.170   2.081
 5702SOL     OW18004   2.640   0.496   6.949
 5702SOL    HW118005   2.544   0.483   6.977
 5702SOL    HW218006   2.654   0.456   6.859
 5703SOL     OW18007   4.607   4.176   1.654
 5703SOL    HW118008   4.538   4.197   1.723
 5703SOL    HW218009   4.658   4.095   1.681
 5704SOL     OW18010   4.675   4.957   3.786
 5704SOL    HW118011   4.599   5.022   3.779
 5704SOL    HW218012   4.752   4.990   3.731
 5705SOL     OW18013   5.788   1.523   2.840
 5705SOL    HW118014   5.710   1.464   2.864
 5705SOL    HW218015   5.863   1.466   2.807
 5706SOL     OW18016   2.149   0.935   6.981
 5706SOL    HW118017   2.071   0.982   0.004
 5706SOL    HW218018   2.231   0.951   0.017
 5707SOL     OW18019   3.089   1.706   6.108
 5707SOL    HW118020   3.036   1.791   6.113
 5707SOL    HW218021   3.026   1.628   6.114
 5708SOL     OW18022   6.209   0.305   2.040
 5708SOL    HW118023   6.155   0.249   2.103
 5708SOL    HW218024   6.298   0.261   2.025
 5709SOL     OW18025   0.995   1.260   2.351
 5709SOL    HW118026   1.084   1.299   2.375
 5709SOL    HW218027   0.964   1.300   2.265
 5710SOL     OW18028   3.283   4.433   6.537
 5710SOL    HW118029   3.263   4.452   6.441
 5710SOL    HW218030   3.223   4.488   6.595
 5711SOL     OW18031   4.876   1.441   4.904
 5711SOL    HW118032   4.881   1.347   4.937
 5711SOL    HW218033   4.953   1.493   4.941
 5712SOL     OW18034   6.959   6.052   6.491
 5712SOL    HW118035   6.928   6.145   6.472
 5712SOL    HW218036   6.994   6.011   6.408
 5713SOL     OW18037   0.075   2.445   2.560
 5713SOL    HW118038   0.111   2.408   2.645
 5713SOL    HW218039   6.994   2.451   2.565
 5714SOL     OW18040   2.174   0.623   6.414
 5714SOL    HW118041   2.177   0.722   6.425
 5714SOL    HW218042   2.078   0.593   6.412
 5715SOL     OW18043   1.700   6.602   3.147
 5715SOL    HW118044   1.699   6.503   3.135
 5715SOL    HW218045   1.751   6.644   3.071
 5716SOL     OW18046   1.756   2.803   4.975
 5716SOL    HW118047   1.838   2.804   5.031
 5716SOL    HW218048   1.759   2.726   4.912
 5717SOL     OW18049   0.494   3.598   0.189
 5717SOL    HW118050   0.569   3.579   0.253
 5717SOL    HW218051   0.509   3.548   0.104
 5718SOL     OW18052   2.152   5.102   5.111
 5718SOL    HW118053   2.213   5.068   5.182
 5718SOL    HW218054   2.123   5.027   5.052
 5719SOL     OW18055   2.688   0.260   0.299
 5719SOL    HW118056   2.783   0.262   0.269
 5719SOL    HW218057   2.681   0.304   0.388
 5720SOL     OW18058   2.011   5.540   3.999
 5720SOL    HW118059   2.108   5.565   3.998
 5720SOL    HW218060   1.958   5.611   4.045
 5721SOL     OW18061   6.838   4.137   0.558
 5721SOL    HW118062   6.879   4.225   0.584
 5721SOL    HW218063   6.779   4.105   0.632
 5722SOL     OW18064   5.543   1.091   4.118
 5722SOL    HW118065   5.601   1.021   4.077
 5722SOL    HW218066   5.577   1.114   4.209
 5723SOL     OW18067   1.461   4.549   0.769
 5723SOL    HW118068   1.422   4.483   0.833
 5723SOL    HW218069   1.396   4.565   0.694
 5724SOL     OW18070   4.875   2.179   6.420
 5724SOL    HW118071   4.902   2.257   6.364
 5724SOL    HW218072   4.956   2.142   6.466
 5725SOL     OW18073   5.295   5.398   5.900
 5725SOL    HW118074   5.314   5.341   5.820
 5725SOL    HW218075   5.370   5.464   5.912
 5726SOL     OW18076   4.490   3.579   5.871
 5726SOL    HW118077   4.476   3.485   5.838
 5726SOL    HW218078   4.509   3.639   5.793
 5727SOL     OW18079   5.927   2.287   3.939
 5727SOL    HW118080   5.993   2.312   3.868
 5727SOL    HW218081   5.853   2.354   3.941
 5728SOL     OW18082   5.166   0.643   6.329
 5728SOL    HW118083   5.101   0.683   6.265
 5728SOL    HW218084   5.155   0.685   6.419
 5729SOL     OW18085   1.176   3.006   5.015
 5729SOL    HW118086   1.089   3.010   5.063
 5729SOL    HW218087   1.226   3.092   5.027
 5730SOL     OW18088   3.941   5.105   0.116
 5730SOL    HW118089   4.040   5.103   0.101
 5730SOL    HW218090   3.897   5.161   0.046
 5731SOL     OW18091   4.116   1.010   4.629
 5731SOL    HW118092   4.211   1.023   4.602
 5731SOL    HW218093   4.077   1.099   4.654
 5732SOL     OW18094   5.836   3.942   4.048
 5732SOL    HW118095   5.748   3.974   4.081
 5732SOL    HW218096   5.892   3.912   4.125
 5733SOL     OW18097   2.679   0.165   0.905
 5733SOL    HW118098   2.603   0.101   0.891
 5733SOL    HW218099   2.649   0.238   0.966
 5734SOL     OW18100   1.886   6.155   6.449
 5734SOL    HW118101   1.916   6.147   6.544
 5734SOL    HW218102   1.966   6.161   6.390
 5735SOL     OW18103   4.884   0.683   2.050
 5735SOL    HW118104   4.913   0.696   1.956
 5735SOL    HW218105   4.878   0.772   2.096
 5736SOL     OW18106   6.142   5.041   6.894
 5736SOL    HW118107   6.107   4.960   6.847
 5736SOL    HW218108   6.224   5.074   6.846
 5737SOL     OW18109   4.498   5.400   1.420
 5737SOL    HW118110   4.426   5.356   1.473
 5737SOL    HW218111   4.487   5.500   1.425
 5738SOL     OW18112   2.722   1.054   0.381
 5738SOL    HW118113   2.821   1.050   0.377
 5738SOL    HW218114   2.684   0.962   0.384
 5739SOL     OW18115   2.225   1.023   5.623
 5739SOL    HW118116   2.168   0.944   5.648
 5739SOL    HW218117   2.230   1.086   5.701
 5740SOL     OW18118   4.865   3.703   2.204
 5740SOL    HW118119   4.814   3.703   2.118
 5740SOL    HW218120   4.883   3.609   2.232
 5741SOL     OW18121   0.240   3.393   4.376
 5741SOL    HW118122   0.262   3.339   4.294
 5741SOL    HW218123   0.239   3.332   4.456
 5742SOL     OW18124   5.357   0.344   3.723
 5742SOL    HW118125   5.365   0.320   3.626
 5742SOL    HW218126   5.445   0.331   3.768
 5743SOL     OW18127   3.149   5.381   6.756
 5743SOL    HW118128   3.217   5.452   6.773
 5743SOL    HW218129   3.128   5.378   6.658
 5744SOL     OW18130   5.331   6.823   3.241
 5744SOL    HW118131   5.269   6.860   3.171
 5744SOL    HW218132   5.288   6.747   3.287
 5745SOL     OW18133   1.190   3.065   1.880
 5745SOL    HW118134   1.151   3.022   1.961
 5745SOL    HW218135   1.287   3.043   1.874
 5746SOL     OW18136   5.181   6.637   3.351
 5746SOL    HW118137   5.120   6.628   3.272
 5746SOL    HW218138   5.156   6.568   3.420
 5747SOL     OW18139   1.805   6.919   0.722
 5747SOL    HW118140   1.886   6.973   0.700
 5747SOL    HW218141   1.811   6.889   0.818
 5748SOL     OW18142   0.155   6.120   1.110
 5748SOL    HW118143   0.081   6.184   1.129
 5748SOL    HW218144   0.221   6.122   1.186
 5749SOL     OW18145   1.809   5.649   6.137
 5749SOL    HW118146   1.712   5.672   6.128
 5749SOL    HW218147   1.820   5.570   6.197
 5750SOL     OW18148   0.139   3.037   4.551
 5750SOL    HW118149   0.211   3.106   4.558
 5750SOL    HW218150   0.050   3.081   4.560
 5751SOL     OW18151   1.285   4.001   4.758
 5751SOL    HW118152   1.250   3.909   4.744
 5751SOL    HW218153   1.328   4.007   4.849
 5752SOL     OW18154   4.676   0.643   0.849
 5752SOL    HW118155   4.690   0.737   0.880
 5752SOL    HW218156   4.765   0.598   0.837
 5753SOL     OW18157   4.000   4.068   5.126
 5753SOL    HW118158   4.048   3.999   5.072
 5753SOL    HW218159   3.902   4.057   5.115
 5754SOL     OW18160   0.711   5.540   1.168
 5754SOL    HW118161   0.658   5.457   1.185
 5754SOL    HW218162   0.724   5.552   1.070
 5755SOL     OW18163   1.237   2.564   6.696
 5755SOL    HW118164   1.246   2.540   6.792
 5755SOL    HW218165   1.327   2.568   6.653
 5756SOL     OW18166   5.733   6.279   1.893
 5756SOL    HW118167   5.750   6.316   1.802
 5756SOL    HW218168   5.761   6.183   1.896
 5757SOL     OW18169   6.761   0.745   4.226
 5757SOL    HW118170   6.851   0.746   4.182
 5757SOL    HW218171   6.761   0.810   4.302
 5758SOL     OW18172   5.874   6.878   3.135
 5758SOL    HW118173   5.952   6.825   3.169
 5758SOL    HW218174   5.864   6.962   3.189
 5759SOL     OW18175   3.130   0.435   1.232
 5759SOL    HW118176   3.132   0.505   1.161
 5759SOL    HW218177   3.185   0.357   1.204
 5760SOL     OW18178   1.419   2.998   0.471
 5760SOL    HW118179   1.345   3.014   0.536
 5760SOL    HW218180   1.506   2.996   0.520
 5761SOL     OW18181   6.073   0.363   4.910
 5761SOL    HW118182   6.127   0.292   4.865
 5761SOL    HW218183   6.058   0.439   4.846
 5762SOL     OW18184   0.149   5.398   6.862
 5762SOL    HW118185   0.050   5.379   6.864
 5762SOL    HW218186   0.198   5.320   6.901
 5763SOL     OW18187   5.824   0.134   0.065
 5763SOL    HW118188   5.754   0.183   0.116
 5763SOL    HW218189   5.885   0.086   0.129
 5764SOL     OW18190   5.116   6.486   4.046
 5764SOL    HW118191   5.072   6.503   3.957
 5764SOL    HW218192   5.068   6.413   4.094
 5765SOL     OW18193   6.322   5.176   2.323
 5765SOL    HW118194   6.389   5.211   2.388
 5765SOL    HW218195   6.341   5.079   2.306
 5766SOL     OW18196   7.017   1.009   4.459
 5766SOL    HW118197   0.015   1.079   4.390
 5766SOL    HW218198   0.068   0.937   4.451
 5767SOL     OW18199   3.955   6.329   6.952
 5767SOL    HW118200   4.005   6.347   0.019
 5767SOL    HW218201   3.874   6.274   6.973
 5768SOL     OW18202   0.530   0.485   5.106
 5768SOL    HW118203   0.499   0.395   5.076
 5768SOL    HW218204   0.615   0.509   5.060
 5769SOL     OW18205   1.816   3.774   5.786
 5769SOL    HW118206   1.773   3.684   5.797
 5769SOL    HW218207   1.909   3.763   5.751
 5770SOL     OW18208   1.550   4.319   1.924
 5770SOL    HW118209   1.645   4.328   1.897
 5770SOL    HW218210   1.534   4.228   1.962
 5771SOL     OW18211   3.432   5.155   3.923
 5771SOL    HW118212   3.360   5.093   3.956
 5771SOL    HW218213   3.417   5.246   3.961
 5772SOL     OW18214   3.140   0.186   2.600
 5772SOL    HW118215   3.135   0.220   2.694
 5772SOL    HW218216   3.064   0.122   2.584
 5773SOL     OW18217   4.972   1.539   2.213
 5773SOL    HW118218   5.034   1.471   2.251
 5773SOL    HW218219   4.877   1.509   2.228
 5774SOL     OW18220   0.466   6.750   2.005
 5774SOL    HW118221   0.373   6.728   2.034
 5774SOL    HW218222   0.464   6.822   1.936
 5775SOL     OW18223   6.689   5.510   1.231
 5775SOL    HW118224   6.651   5.587   1.283
 5775SOL    HW218225   6.660   5.517   1.136
 5776SOL     OW18226   2.489   1.159   4.058
 5776SOL    HW118227   2.428   1.091   4.098
 5776SOL    HW218228   2.453   1.251   4.074
 5777SOL     OW18229   1.701   6.478   2.373
 5777SOL    HW118230   1.627   6.462   2.438
 5777SOL    HW218231   1.721   6.393   2.323
 5778SOL     OW18232   0.566   1.828   0.691
 5778SOL    HW118233   0.630   1.898   0.720
 5778SOL    HW218234   0.595   1.739   0.726
 5779SOL     OW18235   5.934   1.465   6.023
 5779SOL    HW118236   5.950   1.366   6.014
 5779SOL    HW218237   5.860   1.480   6.088
 5780SOL     OW18238   4.664   5.559   4.356
 5780SOL    HW118239   4.681   5.592   4.449
 5780SOL    HW218240   4.645   5.637   4.296
 5781SOL     OW18241   0.660   5.236   5.074
 5781SOL    HW118242   0.735   5.299   5.053
 5781SOL    HW218243   0.575   5.269   5.033
 5782SOL     OW18244   0.400   0.653   0.464
 5782SOL    HW118245   0.349   0.675   0.381
 5782SOL    HW218246   0.339   0.658   0.543
 5783SOL     OW18247   1.591   2.056   0.736
 5783SOL    HW118248   1.565   2.102   0.821
 5783SOL    HW218249   1.690   2.049   0.731
 5784SOL     OW18250   6.719   6.053   6.672
 5784SOL    HW118251   6.698   5.961   6.704
 5784SOL    HW218252   6.817   6.060   6.651
 5785SOL     OW18253   0.863   1.252   0.464
 5785SOL    HW118254   0.777   1.204   0.446
 5785SOL    HW218255   0.856   1.302   0.551
 5786SOL     OW18256   5.914   5.234   1.518
 5786SOL    HW118257   5.974   5.263   1.444
 5786SOL    HW218258   5.935   5.287   1.600
 5787SOL     OW18259   2.512   2.569   5.924
 5787SOL    HW118260   2.588   2.522   5.880
 5787SOL    HW218261   2.528   2.667   5.926
 5788SOL     OW18262   2.521   0.997   3.431
 5788SOL    HW118263   2.519   1.012   3.332
 5788SOL    HW218264   2.559   0.906   3.450
 5789SOL     OW18265   4.049   4.999   6.095
 5789SOL    HW118266   4.066   4.932   6.022
 5789SOL    HW218267   3.966   5.050   6.073
 5790SOL     OW18268   0.996   3.066   3.529
 5790SOL    HW118269   0.965   3.147   3.479
 5790SOL    HW218270   1.034   2.999   3.465
 5791SOL     OW18271   2.350   0.761   3.143
 5791SOL    HW118272   2.358   0.673   3.097
 5791SOL    HW218273   2.316   0.747   3.236
 5792SOL     OW18274   6.981   2.039   2.335
 5792SOL    HW118275   0.018   2.122   2.327
 5792SOL    HW218276   6.891   2.062   2.372
 5793SOL     OW18277   0.074   0.475   3.856
 5793SOL    HW118278   0.099   0.444   3.764
 5793SOL    HW218279   0.001   0.417   3.892
 5794SOL     OW18280   4.803   4.354   6.827
 5794SOL    HW118281   4.896   4.355   6.791
 5794SOL    HW218282   4.748   4.422   6.779
 5795SOL     OW18283   6.003   4.473   0.040
 5795SOL    HW118284   5.980   4.525   6.976
 5795SOL    HW218285   6.040   4.384   0.015
 5796SOL     OW18286   3.730   2.021   0.736
 5796SOL    HW118287   3.631   2.012   0.747
 5796SOL    HW218288   3.776   1.977   0.813
 5797SOL     OW18289   3.129   1.868   5.730
 5797SOL    HW118290   3.192   1.935   5.766
 5797SOL    HW218291   3.067   1.911   5.664
 5798SOL     OW18292   0.008   4.566   4.148
 5798SOL    HW118293   0.052   4.477   4.135
 5798SOL    HW218294   0.031   4.626   4.072
 5799SOL     OW18295   5.579   0.326   3.932
 5799SOL    HW118296   5.537   0.248   3.977
 5799SOL    HW218297   5.611   0.391   4.001
 5800SOL     OW18298   5.798   5.541   1.199
 5800SOL    HW118299   5.710   5.549   1.152
 5800SOL    HW218300   5.843   5.630   1.200
 5801SOL     OW18301   2.378   1.768   3.128
 5801SOL    HW118302   2.418   1.819   3.051
 5801SOL    HW218303   2.436   1.689   3.148
 5802SOL     OW18304   0.773   3.302   5.281
 5802SOL    HW118305   0.799   3.256   5.366
 5802SOL    HW218306   0.839   3.375   5.262
 5803SOL     OW18307   1.630   4.843   0.237
 5803SOL    HW118308   1.678   4.758   0.262
 5803SOL    HW218309   1.678   4.921   0.277
 5804SOL     OW18310   6.330   3.357   4.936
 5804SOL    HW118311   6.373   3.286   4.992
 5804SOL    HW218312   6.392   3.382   4.862
 5805SOL     OW18313   5.243   3.438   6.546
 5805SOL    HW118314   5.167   3.469   6.488
 5805SOL    HW218315   5.313   3.509   6.550
 5806SOL     OW18316   0.418   6.410   0.064
 5806SOL    HW118317   0.347   6.358   0.112
 5806SOL    HW218318   0.508   6.376   0.093
 5807SOL     OW18319   1.966   3.573   1.927
 5807SOL    HW118320   2.031   3.500   1.946
 5807SOL    HW218321   2.007   3.641   1.866
 5808SOL     OW18322   6.711   3.468   2.939
 5808SOL    HW118323   6.709   3.418   2.853
 5808SOL    HW218324   6.627   3.449   2.991
 5809SOL     OW18325   6.825   3.385   4.078
 5809SOL    HW118326   6.744   3.338   4.041
 5809SOL    HW218327   6.797   3.445   4.152
 5810SOL     OW18328   2.644   2.156   2.371
 5810SOL    HW118329   2.597   2.144   2.459
 5810SOL    HW218330   2.594   2.108   2.300
 5811SOL     OW18331   2.373   1.350   3.553
 5811SOL    HW118332   2.410   1.268   3.597
 5811SOL    HW218333   2.360   1.332   3.456
 5812SOL     OW18334   4.336   0.594   5.014
 5812SOL    HW118335   4.273   0.528   5.056
 5812SOL    HW218336   4.304   0.616   4.921
 5813SOL     OW18337   1.784   0.533   5.236
 5813SOL    HW118338   1.818   0.606   5.177
 5813SOL    HW218339   1.701   0.494   5.196
 5814SOL     OW18340   0.179   4.941   0.803
 5814SOL    HW118341   0.122   4.859   0.791
 5814SOL    HW218342   0.147   4.992   0.882
 5815SOL     OW18343   3.193   1.806   2.992
 5815SOL    HW118344   3.147   1.740   3.052
 5815SOL    HW218345   3.178   1.781   2.897
 5816SOL     OW18346   4.757   0.373   0.665
 5816SOL    HW118347   4.676   0.324   0.698
 5816SOL    HW218348   4.815   0.398   0.742
 5817SOL     OW18349   5.091   2.770   4.906
 5817SOL    HW118350   5.025   2.760   4.832
 5817SOL    HW218351   5.052   2.736   4.991
 5818SOL     OW18352   5.955   6.271   6.141
 5818SOL    HW118353   5.872   6.227   6.108
 5818SOL    HW218354   6.027   6.263   6.072
 5819SOL     OW18355   6.103   0.470   1.307
 5819SOL    HW118356   6.126   0.510   1.395
 5819SOL    HW218357   6.186   0.443   1.259
 5820SOL     OW18358   5.146   6.284   3.294
 5820SOL    HW118359   5.129   6.367   3.347
 5820SOL    HW218360   5.059   6.244   3.264
 5821SOL     OW18361   2.745   0.716   1.770
 5821SOL    HW118362   2.744   0.743   1.866
 5821SOL    HW218363   2.820   0.762   1.722
 5822SOL     OW18364   6.955   1.336   2.294
 5822SOL    HW118365   6.987   1.244   2.318
 5822SOL    HW218366   6.930   1.339   2.197
 5823SOL     OW18367   2.600   1.903   3.835
 5823SOL    HW118368   2.593   1.946   3.925
 5823SOL    HW218369   2.586   1.972   3.764
 5824SOL     OW18370   4.725   0.112   3.720
 5824SOL    HW118371   4.789   0.162   3.662
 5824SOL    HW218372   4.687   0.173   3.790
 5825SOL     OW18373   2.525   0.957   0.592
 5825SOL    HW118374   2.498   1.020   0.519
 5825SOL    HW218375   2.473   0.978   0.675
 5826SOL     OW18376   6.564   0.595   4.361
 5826SOL    HW118377   6.569   0.632   4.454
 5826SOL    HW218378   6.625   0.647   4.302
 5827SOL     OW18379   1.176   5.737   4.832
 5827SOL    HW118380   1.096   5.698   4.878
 5827SOL    HW218381   1.165   5.836   4.824
 5828SOL     OW18382   0.090   3.166   1.764
 5828SOL    HW118383   0.115   3.180   1.860
 5828SOL    HW218384   0.095   3.253   1.716
 5829SOL     OW18385   1.738   1.641   1.787
 5829SOL    HW118386   1.832   1.649   1.753
 5829SOL    HW218387   1.740   1.616   1.884
 5830SOL     OW18388   2.065   1.428   5.866
 5830SOL    HW118389   1.975   1.393   5.840
 5830SOL    HW218390   2.056   1.518   5.909
 5831SOL     OW18391   5.388   6.427   3.209
 5831SOL    HW118392   5.313   6.361   3.210
 5831SOL    HW218393   5.368   6.500   3.144
 5832SOL     OW18394   3.760   3.550   5.166
 5832SOL    HW118395   3.802   3.460   5.175
 5832SOL    HW218396   3.812   3.616   5.220
 5833SOL     OW18397   3.548   3.255   5.037
 5833SOL    HW118398   3.576   3.347   5.062
 5833SOL    HW218399   3.487   3.218   5.108
 5834SOL     OW18400   6.039   1.081   0.645
 5834SOL    HW118401   6.012   1.174   0.670
 5834SOL    HW218402   6.128   1.084   0.600
 5835SOL     OW18403   5.094   2.649   4.085
 5835SOL    HW118404   5.055   2.637   3.994
 5835SOL    HW218405   5.184   2.604   4.089
 5836SOL     OW18406   3.432   6.165   2.358
 5836SOL    HW118407   3.399   6.070   2.362
 5836SOL    HW218408   3.469   6.183   2.267
 5837SOL     OW18409   4.547   4.597   6.421
 5837SOL    HW118410   4.595   4.510   6.436
 5837SOL    HW218411   4.471   4.604   6.486
 5838SOL     OW18412   0.935   0.913   5.512
 5838SOL    HW118413   0.886   0.985   5.561
 5838SOL    HW218414   0.942   0.938   5.415
 5839SOL     OW18415   0.149   3.153   2.658
 5839SOL    HW118416   0.241   3.186   2.640
 5839SOL    HW218417   0.107   3.208   2.731
 5840SOL     OW18418   1.988   4.840   6.361
 5840SOL    HW118419   1.971   4.744   6.341
 5840SOL    HW218420   1.985   4.855   6.460
 5841SOL     OW18421   0.222   2.142   3.606
 5841SOL    HW118422   0.141   2.083   3.607
 5841SOL    HW218423   0.240   2.176   3.698
 5842SOL     OW18424   3.488   3.435   0.835
 5842SOL    HW118425   3.457   3.399   0.922
 5842SOL    HW218426   3.542   3.366   0.787
 5843SOL     OW18427   1.488   3.530   1.835
 5843SOL    HW118428   1.584   3.530   1.807
 5843SOL    HW218429   1.430   3.523   1.754
 5844SOL     OW18430   1.203   6.210   6.752
 5844SOL    HW118431   1.140   6.276   6.711
 5844SOL    HW218432   1.294   6.252   6.758
 5845SOL     OW18433   0.901   2.480   4.530
 5845SOL    HW118434   0.855   2.532   4.602
 5845SOL    HW218435   0.884   2.382   4.544
 5846SOL     OW18436   6.766   3.120   6.415
 5846SOL    HW118437   6.712   3.039   6.391
 5846SOL    HW218438   6.791   3.169   6.332
 5847SOL     OW18439   2.328   2.831   2.917
 5847SOL    HW118440   2.370   2.918   2.889
 5847SOL    HW218441   2.268   2.848   2.995
 5848SOL     OW18442   1.468   4.452   3.306
 5848SOL    HW118443   1.547   4.411   3.351
 5848SOL    HW218444   1.386   4.397   3.323
 5849SOL     OW18445   2.265   6.682   5.600
 5849SOL    HW118446   2.209   6.652   5.523
 5849SOL    HW218447   2.231   6.639   5.684
 5850SOL     OW18448   0.927   4.984   2.710
 5850SOL    HW118449   0.930   4.946   2.802
 5850SOL    HW218450   0.849   5.046   2.703
 5851SOL     OW18451   6.249   3.571   2.263
 5851SOL    HW118452   6.257   3.607   2.170
 5851SOL    HW218453   6.155   3.544   2.280
 5852SOL     OW18454   4.038   5.756   2.850
 5852SOL    HW118455   4.008   5.781   2.942
 5852SOL    HW218456   4.011   5.661   2.831
 5853SOL     OW18457   3.559   4.840   5.848
 5853SOL    HW118458   3.620   4.795   5.783
 5853SOL    HW218459   3.570   4.798   5.938
 5854SOL     OW18460   6.886   1.285   6.268
 5854SOL    HW118461   6.900   1.377   6.305
 5854SOL    HW218462   6.935   1.276   6.181
 5855SOL     OW18463   1.535   0.769   4.930
 5855SOL    HW118464   1.563   0.820   4.849
 5855SOL    HW218465   1.494   0.682   4.902
 5856SOL     OW18466   2.146   4.633   3.720
 5856SOL    HW118467   2.224   4.621   3.658
 5856SOL    HW218468   2.157   4.574   3.800
 5857SOL     OW18469   6.753   2.662   5.203
 5857SOL    HW118470   6.832   2.707   5.246
 5857SOL    HW218471   6.703   2.729   5.148
 5858SOL     OW18472   4.137   0.915   2.437
 5858SOL    HW118473   4.233   0.932   2.415
 5858SOL    HW218474   4.080   0.984   2.392
 5859SOL     OW18475   6.212   6.758   1.049
 5859SOL    HW118476   6.191   6.836   0.990
 5859SOL    HW218477   6.129   6.731   1.098
 5860SOL     OW18478   1.370   3.655   1.032
 5860SOL    HW118479   1.299   3.609   0.977
 5860SOL    HW218480   1.330   3.686   1.118
 5861SOL     OW18481   6.314   2.462   4.148
 5861SOL    HW118482   6.220   2.496   4.150
 5861SOL    HW218483   6.354   2.478   4.058
 5862SOL     OW18484   4.710   4.140   2.986
 5862SOL    HW118485   4.695   4.098   3.075
 5862SOL    HW218486   4.715   4.239   2.996
 5863SOL     OW18487   2.149   1.523   6.874
 5863SOL    HW118488   2.175   1.430   6.850
 5863SOL    HW218489   2.231   1.581   6.879
 5864SOL     OW18490   4.830   4.669   1.112
 5864SOL    HW118491   4.803   4.596   1.176
 5864SOL    HW218492   4.756   4.684   1.046
 5865SOL     OW18493   4.243   0.419   3.029
 5865SOL    HW118494   4.213   0.331   3.067
 5865SOL    HW218495   4.337   0.437   3.057
 5866SOL     OW18496   4.241   0.296   6.649
 5866SOL    HW118497   4.256   0.388   6.684
 5866SOL    HW218498   4.319   0.268   6.594
 5867SOL     OW18499   0.321   2.722   1.561
 5867SOL    HW118500   0.390   2.658   1.527
 5867SOL    HW218501   0.261   2.676   1.626
 5868SOL     OW18502   1.768   6.824   5.253
 5868SOL    HW118503   1.771   6.731   5.216
 5868SOL    HW218504   1.844   6.877   5.216
 5869SOL     OW18505   2.673   4.862   3.594
 5869SOL    HW118506   2.592   4.887   3.540
 5869SOL    HW218507   2.675   4.763   3.606
 5870SOL     OW18508   5.277   5.065   5.026
 5870SOL    HW118509   5.367   5.024   5.040
 5870SOL    HW218510   5.270   5.098   4.932
 5871SOL     OW18511   2.934   3.399   6.887
 5871SOL    HW118512   2.880   3.482   6.876
 5871SOL    HW218513   2.879   3.320   6.862
 5872SOL     OW18514   3.240   5.909   5.376
 5872SOL    HW118515   3.165   5.911   5.311
 5872SOL    HW218516   3.245   5.998   5.423
 5873SOL     OW18517   2.721   3.689   0.058
 5873SOL    HW118518   2.699   3.783   0.085
 5873SOL    HW218519   2.749   3.637   0.139
 5874SOL     OW18520   1.589   4.154   0.951
 5874SOL    HW118521   1.552   4.082   1.010
 5874SOL    HW218522   1.614   4.116   0.862
 5875SOL     OW18523   4.300   1.951   0.065
 5875SOL    HW118524   4.214   1.979   0.022
 5875SOL    HW218525   4.288   1.945   0.164
 5876SOL     OW18526   3.242   4.658   5.760
 5876SOL    HW118527   3.228   4.656   5.859
 5876SOL    HW218528   3.257   4.752   5.730
 5877SOL     OW18529   0.403   6.984   2.779
 5877SOL    HW118530   0.319   0.015   2.756
 5877SOL    HW218531   0.382   6.910   2.843
 5878SOL     OW18532   5.041   4.463   2.586
 5878SOL    HW118533   4.992   4.513   2.658
 5878SOL    HW218534   4.992   4.473   2.499
 5879SOL     OW18535   3.609   3.493   5.835
 5879SOL    HW118536   3.517   3.480   5.872
 5879SOL    HW218537   3.615   3.454   5.743
 5880SOL     OW18538   5.413   2.664   5.591
 5880SOL    HW118539   5.331   2.653   5.535
 5880SOL    HW218540   5.399   2.738   5.657
 5881SOL     OW18541   1.426   6.193   2.351
 5881SOL    HW118542   1.389   6.258   2.417
 5881SOL    HW218543   1.477   6.122   2.399
 5882SOL     OW18544   1.337   5.078   5.662
 5882SOL    HW118545   1.430   5.077   5.627
 5882SOL    HW218546   1.307   4.984   5.681
 5883SOL     OW18547   6.664   4.657   0.856
 5883SOL    HW118548   6.742   4.640   0.916
 5883SOL    HW218549   6.696   4.687   0.767
 5884SOL     OW18550   6.436   2.156   3.014
 5884SOL    HW118551   6.495   2.232   3.040
 5884SOL    HW218552   6.443   2.082   3.081
 5885SOL     OW18553   6.591   5.843   0.150
 5885SOL    HW118554   6.508   5.788   0.153
 5885SOL    HW218555   6.644   5.829   0.234
 5886SOL     OW18556   1.976   4.394   3.653
 5886SOL    HW118557   2.042   4.465   3.678
 5886SOL    HW218558   1.959   4.335   3.733
 5887SOL     OW18559   2.373   2.868   1.051
 5887SOL    HW118560   2.426   2.932   0.995
 5887SOL    HW218561   2.432   2.792   1.080
 5888SOL     OW18562   3.179   6.932   1.196
 5888SOL    HW118563   3.152   6.858   1.257
 5888SOL    HW218564   3.278   6.947   1.203
 5889SOL     OW18565   5.948   0.888   2.093
 5889SOL    HW118566   6.008   0.809   2.101
 5889SOL    HW218567   5.925   0.903   1.997
 5890SOL     OW18568   1.902   5.599   2.690
 5890SOL    HW118569   1.836   5.612   2.764
 5890SOL    HW218570   1.891   5.508   2.651
 5891SOL     OW18571   2.303   3.308   0.188
 5891SOL    HW118572   2.252   3.223   0.170
 5891SOL    HW218573   2.250   3.386   0.152
 5892SOL     OW18574   1.023   3.345   0.409
 5892SOL    HW118575   0.939   3.314   0.454
 5892SOL    HW218576   1.102   3.315   0.462
 5893SOL     OW18577   0.837   6.214   1.341
 5893SOL    HW118578   0.892   6.213   1.425
 5893SOL    HW218579   0.740   6.202   1.365
 5894SOL     OW18580   2.325   5.373   6.859
 5894SOL    HW118581   2.360   5.396   6.950
 5894SOL    HW218582   2.401   5.342   6.801
 5895SOL     OW18583   5.244   4.075   3.990
 5895SOL    HW118584   5.326   4.130   4.004
 5895SOL    HW218585   5.246   4.036   3.898
 5896SOL     OW18586   5.700   2.368   2.479
 5896SOL    HW118587   5.692   2.440   2.411
 5896SOL    HW218588   5.725   2.407   2.567
 5897SOL     OW18589   3.917   2.447   0.130
 5897SOL    HW118590   3.900   2.430   0.227
 5897SOL    HW218591   3.931   2.545   0.115
 5898SOL     OW18592   2.280   1.352   5.714
 5898SOL    HW118593   2.230   1.439   5.706
 5898SOL    HW218594   2.246   1.302   5.794
 5899SOL     OW18595   6.839   6.329   6.508
 5899SOL    HW118596   6.753   6.339   6.558
 5899SOL    HW218597   6.916   6.336   6.571
 5900SOL     OW18598   5.862   6.360   3.234
 5900SOL    HW118599   5.822   6.450   3.251
 5900SOL    HW218600   5.792   6.290   3.247
 5901SOL     OW18601   2.426   0.638   5.126
 5901SOL    HW118602   2.486   0.585   5.065
 5901SOL    HW218603   2.389   0.716   5.076
 5902SOL     OW18604   4.526   4.029   6.153
 5902SOL    HW118605   4.561   3.942   6.186
 5902SOL    HW218606   4.428   4.020   6.133
 5903SOL     OW18607   6.163   2.061   5.714
 5903SOL    HW118608   6.214   2.002   5.776
 5903SOL    HW218609   6.100   2.118   5.767
 5904SOL     OW18610   1.349   4.433   1.779
 5904SOL    HW118611   1.292   4.352   1.791
 5904SOL    HW218612   1.433   4.422   1.832
 5905SOL     OW18613   5.654   1.075   4.632
 5905SOL    HW118614   5.582   1.045   4.694
 5905SOL    HW218615   5.709   0.996   4.603
 5906SOL     OW18616   5.055   1.069   5.841
 5906SOL    HW118617   4.993   1.148   5.839
 5906SOL    HW218618   5.025   1.007   5.914
 5907SOL     OW18619   1.897   3.536   5.475
 5907SOL    HW118620   1.883   3.473   5.398
 5907SOL    HW218621   1.816   3.594   5.485
 5908SOL     OW18622   5.577   3.227   6.285
 5908SOL    HW118623   5.535   3.313   6.314
 5908SOL    HW218624   5.520   3.184   6.215
 5909SOL     OW18625   6.336   4.623   3.651
 5909SOL    HW118626   6.365   4.536   3.610
 5909SOL    HW218627   6.309   4.687   3.579
 5910SOL     OW18628   2.686   4.670   0.943
 5910SOL    HW118629   2.641   4.593   0.987
 5910SOL    HW218630   2.617   4.737   0.913
 5911SOL     OW18631   5.139   6.878   7.010
 5911SOL    HW118632   5.167   6.801   0.050
 5911SOL    HW218633   5.219   6.932   6.986
 5912SOL     OW18634   6.999   3.088   6.171
 5912SOL    HW118635   0.004   3.170   6.119
 5912SOL    HW218636   6.957   3.020   6.110
 5913SOL     OW18637   1.182   1.820   5.325
 5913SOL    HW118638   1.105   1.773   5.368
 5913SOL    HW218639   1.161   1.839   5.229
 5914SOL     OW18640   1.960   6.007   1.285
 5914SOL    HW118641   1.909   6.018   1.199
 5914SOL    HW218642   1.900   6.026   1.362
 5915SOL     OW18643   5.000   3.166   3.013
 5915SOL    HW118644   4.998   3.184   2.915
 5915SOL    HW218645   4.952   3.080   3.032
 5916SOL     OW18646   2.946   0.041   6.150
 5916SOL    HW118647   2.997   0.125   6.171
 5916SOL    HW218648   2.948   0.025   6.051
 5917SOL     OW18649   3.799   2.953   2.675
 5917SOL    HW118650   3.784   2.908   2.587
 5917SOL    HW218651   3.741   3.034   2.682
 5918SOL     OW18652   2.266   2.836   3.983
 5918SOL    HW118653   2.276   2.861   4.080
 5918SOL    HW218654   2.178   2.870   3.950
 5919SOL     OW18655   1.293   3.037   0.219
 5919SOL    HW118656   1.216   2.989   0.261
 5919SOL    HW218657   1.368   3.043   0.285
 5920SOL     OW18658   2.986   5.474   6.992
 5920SOL    HW118659   3.038   5.423   6.923
 5920SOL    HW218660   2.908   5.419   0.005
 5921SOL     OW18661   3.995   5.467   5.184
 5921SOL    HW118662   4.053   5.475   5.103
 5921SOL    HW218663   3.935   5.547   5.190
 5922SOL     OW18664   5.835   4.158   1.836
 5922SOL    HW118665   5.766   4.226   1.812
 5922SOL    HW218666   5.863   4.108   1.754
 5923SOL     OW18667   0.175   6.790   3.383
 5923SOL    HW118668   0.157   6.859   3.313
 5923SOL    HW218669   0.192   6.702   3.338
 5924SOL     OW18670   5.371   2.329   4.291
 5924SOL    HW118671   5.276   2.330   4.323
 5924SOL    HW218672   5.412   2.419   4.306
 5925SOL     OW18673   6.328   6.042   1.033
 5925SOL    HW118674   6.369   6.133   1.028
 5925SOL    HW218675   6.399   5.973   1.020
 5926SOL     OW18676   3.628   5.046   1.951
 5926SOL    HW118677   3.547   5.069   2.004
 5926SOL    HW218678   3.642   4.947   1.952
 5927SOL     OW18679   2.406   5.473   1.911
 5927SOL    HW118680   2.402   5.566   1.947
 5927SOL    HW218681   2.471   5.470   1.835
 5928SOL     OW18682   1.005   6.641   1.836
 5928SOL    HW118683   1.027   6.557   1.787
 5928SOL    HW218684   1.065   6.650   1.916
 5929SOL     OW18685   1.609   6.791   5.569
 5929SOL    HW118686   1.555   6.874   5.580
 5929SOL    HW218687   1.675   6.803   5.495
 5930SOL     OW18688   6.994   1.586   4.980
 5930SOL    HW118689   6.907   1.542   4.955
 5930SOL    HW218690   0.049   1.518   4.979
 5931SOL     OW18691   5.614   5.284   1.303
 5931SOL    HW118692   5.665   5.331   1.374
 5931SOL    HW218693   5.659   5.297   1.215
 5932SOL     OW18694   2.204   6.559   0.115
 5932SOL    HW118695   2.196   6.539   0.213
 5932SOL    HW218696   2.240   6.652   0.103
 5933SOL     OW18697   6.243   3.502   2.984
 5933SOL    HW118698   6.312   3.575   2.983
 5933SOL    HW218699   6.248   3.453   3.071
 5934SOL     OW18700   3.974   3.907   3.281
 5934SOL    HW118701   4.018   3.905   3.191
 5934SOL    HW218702   3.891   3.963   3.277
 5935SOL     OW18703   3.467   3.033   3.118
 5935SOL    HW118704   3.550   3.000   3.162
 5935SOL    HW218705   3.409   3.079   3.185
 5936SOL     OW18706   5.768   5.749   6.336
 5936SOL    HW118707   5.862   5.778   6.354
 5936SOL    HW218708   5.724   5.813   6.274
 5937SOL     OW18709   1.286   3.769   0.730
 5937SOL    HW118710   1.368   3.781   0.786
 5937SOL    HW218711   1.218   3.838   0.754
 5938SOL     OW18712   1.850   4.068   1.443
 5938SOL    HW118713   1.944   4.069   1.476
 5938SOL    HW218714   1.807   3.981   1.467
 5939SOL     OW18715   2.910   0.730   3.299
 5939SOL    HW118716   2.916   0.829   3.286
 5939SOL    HW218717   2.955   0.684   3.223
 5940SOL     OW18718   4.482   5.621   3.876
 5940SOL    HW118719   4.437   5.686   3.815
 5940SOL    HW218720   4.426   5.538   3.883
 5941SOL     OW18721   6.454   4.361   2.380
 5941SOL    HW118722   6.493   4.445   2.343
 5941SOL    HW218723   6.494   4.282   2.332
 5942SOL     OW18724   5.890   1.803   5.459
 5942SOL    HW118725   5.979   1.789   5.502
 5942SOL    HW218726   5.818   1.769   5.520
 5943SOL     OW18727   1.415   5.809   6.882
 5943SOL    HW118728   1.402   5.842   6.976
 5943SOL    HW218729   1.404   5.710   6.880
 5944SOL     OW18730   4.418   2.013   2.560
 5944SOL    HW118731   4.334   1.980   2.603
 5944SOL    HW218732   4.476   2.056   2.629
 5945SOL     OW18733   0.016   4.710   5.615
 5945SOL    HW118734   0.067   4.793   5.595
 5945SOL    HW218735   0.080   4.636   5.636
 5946SOL     OW18736   3.633   2.711   5.366
 5946SOL    HW118737   3.577   2.738   5.288
 5946SOL    HW218738   3.721   2.677   5.334
 5947SOL     OW18739   4.161   3.555   1.675
 5947SOL    HW118740   4.122   3.593   1.760
 5947SOL    HW218741   4.086   3.535   1.611
 5948SOL     OW18742   3.928   4.827   2.609
 5948SOL    HW118743   3.989   4.802   2.684
 5948SOL    HW218744   3.841   4.858   2.645
 5949SOL     OW18745   4.590   4.781   2.096
 5949SOL    HW118746   4.499   4.795   2.056
 5949SOL    HW218747   4.614   4.684   2.092
 5950SOL     OW18748   6.286   2.639   3.906
 5950SOL    HW118749   6.302   2.715   3.968
 5950SOL    HW218750   6.371   2.615   3.860
 5951SOL     OW18751   2.110   5.751   3.661
 5951SOL    HW118752   2.192   5.694   3.670
 5951SOL    HW218753   2.132   5.845   3.688
 5952SOL     OW18754   6.814   6.667   4.740
 5952SOL    HW118755   6.829   6.569   4.728
 5952SOL    HW218756   6.882   6.703   4.804
 5953SOL     OW18757   0.428   3.012   6.404
 5953SOL    HW118758   0.361   3.069   6.357
 5953SOL    HW218759   0.381   2.945   6.461
 5954SOL     OW18760   0.965   5.167   0.028
 5954SOL    HW118761   1.030   5.110   6.994
 5954SOL    HW218762   0.976   5.262   0.002
 5955SOL     OW18763   5.192   5.917   2.389
 5955SOL    HW118764   5.140   5.874   2.315
 5955SOL    HW218765   5.250   5.849   2.433
 5956SOL     OW18766   6.263   2.438   6.900
 5956SOL    HW118767   6.210   2.434   6.985
 5956SOL    HW218768   6.312   2.525   6.895
 5957SOL     OW18769   5.344   6.817   5.885
 5957SOL    HW118770   5.406   6.882   5.842
 5957SOL    HW218771   5.383   6.786   5.972
 5958SOL     OW18772   0.479   5.444   2.137
 5958SOL    HW118773   0.574   5.452   2.167
 5958SOL    HW218774   0.441   5.357   2.171
 5959SOL     OW18775   2.189   1.492   6.150
 5959SOL    HW118776   2.265   1.453   6.098
 5959SOL    HW218777   2.201   1.470   6.247
 5960SOL     OW18778   3.438   0.648   4.491
 5960SOL    HW118779   3.494   0.572   4.524
 5960SOL    HW218780   3.479   0.685   4.408
 5961SOL     OW18781   3.136   0.855   5.972
 5961SOL    HW118782   3.086   0.924   6.024
 5961SOL    HW218783   3.228   0.888   5.951
 5962SOL     OW18784   5.826   5.444   2.482
 5962SOL    HW118785   5.840   5.346   2.498
 5962SOL    HW218786   5.805   5.459   2.386
 5963SOL     OW18787   4.146   3.580   2.238
 5963SOL    HW118788   4.165   3.533   2.324
 5963SOL    HW218789   4.230   3.622   2.204
 5964SOL     OW18790   1.318   4.369   5.845
 5964SOL    HW118791   1.351   4.441   5.783
 5964SOL    HW218792   1.324   4.281   5.799
 5965SOL     OW18793   2.448   1.727   4.690
 5965SOL    HW118794   2.538   1.743   4.648
 5965SOL    HW218795   2.460   1.711   4.788
 5966SOL     OW18796   1.585   6.662   3.731
 5966SOL    HW118797   1.652   6.593   3.703
 5966SOL    HW218798   1.625   6.719   3.802
 5967SOL     OW18799   4.838   0.076   2.274
 5967SOL    HW118800   4.865   0.020   2.352
 5967SOL    HW218801   4.919   0.106   2.224
 5968SOL     OW18802   0.378   2.102   4.481
 5968SOL    HW118803   0.389   2.185   4.536
 5968SOL    HW218804   0.404   2.122   4.386
 5969SOL     OW18805   5.664   2.882   2.580
 5969SOL    HW118806   5.728   2.816   2.541
 5969SOL    HW218807   5.655   2.960   2.518
 5970SOL     OW18808   1.736   2.463   3.393
 5970SOL    HW118809   1.796   2.540   3.372
 5970SOL    HW218810   1.690   2.479   3.481
 5971SOL     OW18811   2.410   0.034   2.469
 5971SOL    HW118812   2.339   6.990   2.502
 5971SOL    HW218813   2.443   0.002   2.380
 5972SOL     OW18814   4.694   6.107   1.459
 5972SOL    HW118815   4.738   6.178   1.405
 5972SOL    HW218816   4.620   6.147   1.513
 5973SOL     OW18817   1.048   4.651   3.476
 5973SOL    HW118818   1.121   4.712   3.506
 5973SOL    HW218819   1.047   4.569   3.534
 5974SOL     OW18820   0.666   3.828   6.007
 5974SOL    HW118821   0.766   3.827   6.003
 5974SOL    HW218822   0.636   3.793   6.096
 5975SOL     OW18823   2.139   2.510   0.109
 5975SOL    HW118824   2.220   2.497   0.052
 5975SOL    HW218825   2.058   2.516   0.051
 5976SOL     OW18826   3.473   3.939   5.376
 5976SOL    HW118827   3.427   3.932   5.287
 5976SOL    HW218828   3.562   3.892   5.370
 5977SOL     OW18829   1.069   3.248   3.137
 5977SOL    HW118830   1.142   3.233   3.204
 5977SOL    HW218831   1.044   3.160   3.095
 5978SOL     OW18832   5.364   5.461   2.869
 5978SOL    HW118833   5.280   5.428   2.913
 5978SOL    HW218834   5.361   5.560   2.859
 5979SOL     OW18835   0.008   0.731   3.213
 5979SOL    HW118836   0.073   0.763   3.281
 5979SOL    HW218837   6.960   0.803   3.193
 5980SOL     OW18838   6.546   3.786   6.447
 5980SOL    HW118839   6.525   3.739   6.362
 5980SOL    HW218840   6.566   3.882   6.429
 5981SOL     OW18841   3.919   1.120   1.718
 5981SOL    HW118842   3.903   1.192   1.651
 5981SOL    HW218843   3.913   1.031   1.674
 5982SOL     OW18844   5.997   2.339   6.614
 5982SOL    HW118845   5.948   2.338   6.702
 5982SOL    HW218846   5.990   2.430   6.573
 5983SOL     OW18847   0.904   0.893   4.673
 5983SOL    HW118848   0.900   0.958   4.748
 5983SOL    HW218849   0.935   0.939   4.590
 5984SOL     OW18850   6.924   0.151   5.610
 5984SOL    HW118851   7.002   0.096   5.581
 5984SOL    HW218852   6.957   0.239   5.644
 5985SOL     OW18853   4.476   2.497   4.213
 5985SOL    HW118854   4.404   2.448   4.263
 5985SOL    HW218855   4.502   2.579   4.264
 5986SOL     OW18856   3.173   2.935   2.402
 5986SOL    HW118857   3.162   2.873   2.324
 5986SOL    HW218858   3.152   3.028   2.374
 5987SOL     OW18859   4.127   6.810   5.492
 5987SOL    HW118860   4.175   6.794   5.406
 5987SOL    HW218861   4.164   6.891   5.536
 5988SOL     OW18862   4.214   1.106   3.991
 5988SOL    HW118863   4.151   1.153   4.053
 5988SOL    HW218864   4.273   1.045   4.043
 5989SOL     OW18865   2.855   1.039   6.354
 5989SOL    HW118866   2.902   1.116   6.312
 5989SOL    HW218867   2.786   1.004   6.291
 5990SOL     OW18868   3.055   4.727   1.859
 5990SOL    HW118869   3.079   4.683   1.772
 5990SOL    HW218870   2.987   4.671   1.906
 5991SOL     OW18871   2.950   5.261   3.697
 5991SOL    HW118872   2.993   5.232   3.611
 5991SOL    HW218873   2.851   5.245   3.691
 5992SOL     OW18874   4.633   0.740   3.976
 5992SOL    HW118875   4.607   0.816   4.034
 5992SOL    HW218876   4.725   0.756   3.940
 5993SOL     OW18877   3.593   5.541   4.575
 5993SOL    HW118878   3.677   5.490   4.553
 5993SOL    HW218879   3.603   5.583   4.665
 5994SOL     OW18880   6.998   2.300   1.877
 5994SOL    HW118881   0.043   2.276   1.951
 5994SOL    HW218882   6.987   2.222   1.816
 5995SOL     OW18883   0.248   4.329   1.438
 5995SOL    HW118884   0.230   4.233   1.461
 5995SOL    HW218885   0.224   4.345   1.342
 5996SOL     OW18886   0.803   4.997   6.222
 5996SOL    HW118887   0.759   5.070   6.274
 5996SOL    HW218888   0.851   5.035   6.144
 5997SOL     OW18889   0.626   0.013   1.985
 5997SOL    HW118890   0.538   0.034   2.028
 5997SOL    HW218891   0.696   0.005   2.055
 5998SOL     OW18892   4.463   2.167   3.327
 5998SOL    HW118893   4.508   2.163   3.417
 5998SOL    HW218894   4.508   2.103   3.265
 5999SOL     OW18895   1.575   1.613   2.449
 5999SOL    HW118896   1.667   1.592   2.484
 5999SOL    HW218897   1.518   1.645   2.524
 6000SOL     OW18898   4.389   6.681   2.600
 6000SOL    HW118899   4.441   6.610   2.648
 6000SOL    HW218900   4.317   6.638   2.545
 6001SOL     OW18901   6.189   2.167   6.904
 6001SOL    HW118902   6.090   2.160   6.889
 6001SOL    HW218903   6.219   2.261   6.886
 6002SOL     OW18904   1.815   0.274   1.749
 6002SOL    HW118905   1.877   0.323   1.810
 6002SOL    HW218906   1.769   0.339   1.688
 6003SOL     OW18907   4.712   4.253   4.196
 6003SOL    HW118908   4.801   4.281   4.159
 6003SOL    HW218909   4.640   4.304   4.150
 6004SOL     OW18910   6.980   3.740   2.488
 6004SOL    HW118911   6.962   3.776   2.579
 6004SOL    HW218912   6.905   3.767   2.426
 6005SOL     OW18913   3.137   6.114   2.552
 6005SOL    HW118914   3.167   6.141   2.644
 6005SOL    HW218915   3.073   6.038   2.559
 6006SOL     OW18916   2.455   6.125   6.917
 6006SOL    HW118917   2.500   6.050   6.967
 6006SOL    HW218918   2.356   6.117   6.928
 6007SOL     OW18919   5.379   2.445   3.750
 6007SOL    HW118920   5.370   2.516   3.680
 6007SOL    HW218921   5.475   2.422   3.763
 6008SOL     OW18922   3.631   4.376   6.731
 6008SOL    HW118923   3.583   4.442   6.789
 6008SOL    HW218924   3.568   4.340   6.662
 6009SOL     OW18925   3.066   1.935   4.588
 6009SOL    HW118926   3.007   1.873   4.640
 6009SOL    HW218927   3.052   1.920   4.490
 6010SOL     OW18928   1.642   2.689   3.024
 6010SOL    HW118929   1.734   2.724   3.045
 6010SOL    HW218930   1.625   2.606   3.076
 6011SOL     OW18931   6.398   3.154   2.918
 6011SOL    HW118932   6.330   3.112   2.859
 6011SOL    HW218933   6.352   3.206   2.990
 6012SOL     OW18934   6.740   3.136   0.847
 6012SOL    HW118935   6.802   3.212   0.865
 6012SOL    HW218936   6.792   3.056   0.819
 6013SOL     OW18937   5.721   1.591   2.559
 6013SOL    HW118938   5.811   1.569   2.521
 6013SOL    HW218939   5.732   1.651   2.639
 6014SOL     OW18940   5.749   0.276   1.135
 6014SOL    HW118941   5.650   0.267   1.144
 6014SOL    HW218942   5.770   0.345   1.067
 6015SOL     OW18943   4.976   1.849   4.573
 6015SOL    HW118944   4.905   1.817   4.635
 6015SOL    HW218945   4.946   1.933   4.527
 6016SOL     OW18946   2.095   6.832   5.054
 6016SOL    HW118947   2.013   6.890   5.051
 6016SOL    HW218948   2.151   6.850   4.973
 6017SOL     OW18949   6.743   4.725   2.479
 6017SOL    HW118950   6.669   4.748   2.542
 6017SOL    HW218951   6.814   4.676   2.529
 6018SOL     OW18952   2.473   4.860   0.883
 6018SOL    HW118953   2.454   4.933   0.818
 6018SOL    HW218954   2.433   4.774   0.850
 6019SOL     OW18955   4.348   6.737   4.074
 6019SOL    HW118956   4.289   6.808   4.112
 6019SOL    HW218957   4.419   6.779   4.018
 6020SOL     OW18958   3.766   0.716   2.953
 6020SOL    HW118959   3.831   0.766   2.896
 6020SOL    HW218960   3.680   0.704   2.903
 6021SOL     OW18961   4.356   1.006   2.654
 6021SOL    HW118962   4.312   1.085   2.698
 6021SOL    HW218963   4.365   1.024   2.556
 6022SOL     OW18964   4.355   1.920   5.394
 6022SOL    HW118965   4.410   1.983   5.338
 6022SOL    HW218966   4.296   1.865   5.334
 6023SOL     OW18967   6.767   1.722   2.677
 6023SOL    HW118968   6.770   1.740   2.579
 6023SOL    HW218969   6.717   1.636   2.693
 6024SOL     OW18970   0.900   4.741   2.544
 6024SOL    HW118971   0.884   4.807   2.617
 6024SOL    HW218972   0.875   4.780   2.456
 6025SOL     OW18973   4.265   1.985   1.593
 6025SOL    HW118974   4.204   2.016   1.520
 6025SOL    HW218975   4.212   1.957   1.673
 6026SOL     OW18976   0.585   4.787   5.374
 6026SOL    HW118977   0.497   4.760   5.337
 6026SOL    HW218978   0.614   4.874   5.334
 6027SOL     OW18979   2.916   3.318   0.527
 6027SOL    HW118980   2.919   3.339   0.625
 6027SOL    HW218981   2.826   3.279   0.504
 6028SOL     OW18982   1.606   3.889   0.095
 6028SOL    HW118983   1.516   3.915   0.059
 6028SOL    HW218984   1.620   3.791   0.082
 6029SOL     OW18985   1.445   4.828   1.386
 6029SOL    HW118986   1.350   4.798   1.372
 6029SOL    HW218987   1.506   4.771   1.331
 6030SOL     OW18988   2.146   0.483   0.567
 6030SOL    HW118989   2.216   0.484   0.639
 6030SOL    HW218990   2.167   0.410   0.501
 6031SOL     OW18991   5.426   0.029   5.342
 6031SOL    HW118992   5.381   7.004   5.420
 6031SOL    HW218993   5.368   0.019   5.260
 6032SOL     OW18994   0.407   3.273   2.634
 6032SOL    HW118995   0.466   3.253   2.712
 6032SOL    HW218996   0.381   3.370   2.636
 6033SOL     OW18997   1.284   0.216   4.413
 6033SOL    HW118998   1.350   0.270   4.362
 6033SOL    HW218999   1.324   0.128   4.438
 6034SOL     OW19000   2.009   4.121   4.968
 6034SOL    HW119001   2.093   4.069   4.983
 6034SOL    HW219002   1.954   4.075   4.899
 6035SOL     OW19003   6.114   0.760   4.075
 6035SOL    HW119004   6.178   0.751   3.999
 6035SOL    HW219005   6.115   0.854   4.108
 6036SOL     OW19006   0.313   0.830   4.452
 6036SOL    HW119007   0.369   0.909   4.477
 6036SOL    HW219008   0.364   0.746   4.472
 6037SOL     OW19009   6.785   4.876   4.808
 6037SOL    HW119010   6.765   4.964   4.763
 6037SOL    HW219011   6.737   4.871   4.895
 6038SOL     OW19012   4.774   4.031   6.314
 6038SOL    HW119013   4.865   4.056   6.281
 6038SOL    HW219014   4.709   4.036   6.239
 6039SOL     OW19015   3.349   3.831   3.226
 6039SOL    HW119016   3.289   3.905   3.195
 6039SOL    HW219017   3.362   3.838   3.325
 6040SOL     OW19018   0.715   1.843   0.102
 6040SOL    HW119019   0.738   1.826   0.198
 6040SOL    HW219020   0.662   1.927   0.094
 6041SOL     OW19021   0.780   2.444   0.180
 6041SOL    HW119022   0.772   2.536   0.219
 6041SOL    HW219023   0.718   2.435   0.102
 6042SOL     OW19024   5.344   5.049   3.992
 6042SOL    HW119025   5.425   5.025   3.938
 6042SOL    HW219026   5.309   4.968   4.039
 6043SOL     OW19027   0.407   4.683   3.845
 6043SOL    HW119028   0.338   4.611   3.841
 6043SOL    HW219029   0.366   4.766   3.881
 6044SOL     OW19030   0.917   0.413   1.560
 6044SOL    HW119031   0.857   0.451   1.631
 6044SOL    HW219032   1.003   0.463   1.560
 6045SOL     OW19033   0.470   4.095   1.344
 6045SOL    HW119034   0.469   3.995   1.350
 6045SOL    HW219035   0.487   4.133   1.435
 6046SOL     OW19036   2.635   2.605   0.447
 6046SOL    HW119037   2.699   2.589   0.372
 6046SOL    HW219038   2.659   2.546   0.524
 6047SOL     OW19039   0.063   6.476   5.053
 6047SOL    HW119040   0.152   6.444   5.020
 6047SOL    HW219041   0.074   6.522   5.141
 6048SOL     OW19042   4.707   6.489   4.913
 6048SOL    HW119043   4.778   6.540   4.962
 6048SOL    HW219044   4.655   6.552   4.855
 6049SOL     OW19045   6.305   5.273   1.417
 6049SOL    HW119046   6.402   5.266   1.395
 6049SOL    HW219047   6.254   5.205   1.364
 6050SOL     OW19048   4.875   4.236   5.438
 6050SOL    HW119049   4.876   4.260   5.341
 6050SOL    HW219050   4.817   4.301   5.488
 6051SOL     OW19051   1.805   2.160   3.039
 6051SOL    HW119052   1.728   2.156   2.976
 6051SOL    HW219053   1.837   2.067   3.058
 6052SOL     OW19054   6.680   1.110   0.362
 6052SOL    HW119055   6.759   1.097   0.422
 6052SOL    HW219056   6.709   1.106   0.266
 6053SOL     OW19057   2.248   0.144   6.470
 6053SOL    HW119058   2.315   0.217   6.484
 6053SOL    HW219059   2.260   0.105   6.379
 6054SOL     OW19060   2.422   4.925   0.273
 6054SOL    HW119061   2.421   4.856   0.345
 6054SOL    HW219062   2.415   5.016   0.314
 6055SOL     OW19063   5.286   0.514   4.205
 6055SOL    HW119064   5.256   0.574   4.280
 6055SOL    HW219065   5.212   0.453   4.179
 6056SOL     OW19066   4.762   2.781   6.211
 6056SOL    HW119067   4.702   2.704   6.187
 6056SOL    HW219068   4.707   2.854   6.252
 6057SOL     OW19069   3.722   0.699   6.141
 6057SOL    HW119070   3.702   0.707   6.043
 6057SOL    HW219071   3.816   0.726   6.158
 6058SOL     OW19072   5.392   1.918   4.334
 6058SOL    HW119073   5.296   1.894   4.346
 6058SOL    HW219074   5.435   1.851   4.273
 6059SOL     OW19075   0.237   5.392   6.462
 6059SOL    HW119076   0.248   5.367   6.366
 6059SOL    HW219077   0.170   5.467   6.469
 6060SOL     OW19078   3.834   6.580   6.044
 6060SOL    HW119079   3.918   6.568   5.991
 6060SOL    HW219080   3.849   6.648   6.115
 6061SOL     OW19081   2.448   1.985   6.335
 6061SOL    HW119082   2.386   1.907   6.330
 6061SOL    HW219083   2.446   2.023   6.428
 6062SOL     OW19084   2.278   0.508   4.372
 6062SOL    HW119085   2.216   0.547   4.439
 6062SOL    HW219086   2.352   0.572   4.352
 6063SOL     OW19087   4.218   6.991   0.282
 6063SOL    HW119088   4.168   6.970   0.366
 6063SOL    HW219089   4.315   6.998   0.303
 6064SOL     OW19090   0.930   6.108   3.554
 6064SOL    HW119091   1.003   6.042   3.533
 6064SOL    HW219092   0.968   6.200   3.550
 6065SOL     OW19093   6.976   0.680   0.811
 6065SOL    HW119094   0.001   0.633   0.735
 6065SOL    HW219095   7.002   0.636   0.897
 6066SOL     OW19096   4.476   2.499   6.883
 6066SOL    HW119097   4.409   2.441   6.929
 6066SOL    HW219098   4.550   2.442   6.846
 6067SOL     OW19099   5.766   2.583   6.915
 6067SOL    HW119100   5.854   2.572   6.960
 6067SOL    HW219101   5.723   2.493   6.903
 6068SOL     OW19102   4.745   2.563   5.118
 6068SOL    HW119103   4.711   2.476   5.155
 6068SOL    HW219104   4.672   2.631   5.121
 6069SOL     OW19105   6.067   3.844   4.204
 6069SOL    HW119106   6.011   3.798   4.273
 6069SOL    HW219107   6.064   3.943   4.219
 6070SOL     OW19108   3.569   1.957   6.414
 6070SOL    HW119109   3.598   2.029   6.477
 6070SOL    HW219110   3.630   1.879   6.422
 6071SOL     OW19111   4.587   6.098   5.240
 6071SOL    HW119112   4.513   6.131   5.298
 6071SOL    HW219113   4.636   6.176   5.201
 6072SOL     OW19114   0.098   2.046   0.795
 6072SOL    HW119115   0.024   2.109   0.818
 6072SOL    HW219116   0.156   2.032   0.875
 6073SOL     OW19117   6.639   2.331   1.352
 6073SOL    HW119118   6.695   2.392   1.408
 6073SOL    HW219119   6.556   2.307   1.403
 6074SOL     OW19120   0.460   7.018   4.558
 6074SOL    HW119121   0.391   0.009   4.630
 6074SOL    HW219122   0.536   0.062   4.577
 6075SOL     OW19123   5.503   4.352   6.726
 6075SOL    HW119124   5.541   4.388   6.812
 6075SOL    HW219125   5.576   4.343   6.659
 6076SOL     OW19126   2.416   6.441   3.544
 6076SOL    HW119127   2.491   6.497   3.580
 6076SOL    HW219128   2.351   6.500   3.496
 6077SOL     OW19129   5.716   5.790   2.027
 6077SOL    HW119130   5.641   5.747   2.079
 6077SOL    HW219131   5.706   5.889   2.031
 6078SOL     OW19132   2.465   4.871   3.397
 6078SOL    HW119133   2.442   4.950   3.339
 6078SOL    HW219134   2.481   4.791   3.340
 6079SOL     OW19135   2.133   1.352   0.365
 6079SOL    HW119136   2.091   1.384   0.280
 6079SOL    HW219137   2.063   1.310   0.423
 6080SOL     OW19138   5.839   2.134   2.519
 6080SOL    HW119139   5.864   2.177   2.606
 6080SOL    HW219140   5.809   2.203   2.454
 6081SOL     OW19141   0.399   4.392   3.265
 6081SOL    HW119142   0.453   4.308   3.274
 6081SOL    HW219143   0.317   4.385   3.322
 6082SOL     OW19144   3.905   1.717   4.465
 6082SOL    HW119145   3.887   1.702   4.368
 6082SOL    HW219146   3.823   1.694   4.518
 6083SOL     OW19147   2.062   6.780   0.458
 6083SOL    HW119148   1.979   6.727   0.445
 6083SOL    HW219149   2.048   6.873   0.426
 6084SOL     OW19150   0.961   5.122   5.911
 6084SOL    HW119151   0.920   5.191   5.971
 6084SOL    HW219152   1.019   5.167   5.842
 6085SOL     OW19153   4.455   4.189   1.393
 6085SOL    HW119154   4.505   4.200   1.479
 6085SOL    HW219155   4.397   4.107   1.399
 6086SOL     OW19156   2.638   1.602   3.157
 6086SOL    HW119157   2.608   1.573   3.248
 6086SOL    HW219158   2.683   1.526   3.111
 6087SOL     OW19159   4.679   6.730   0.167
 6087SOL    HW119160   4.744   6.789   0.215
 6087SOL    HW219161   4.692   6.739   0.069
 6088SOL     OW19162   0.040   6.760   4.837
 6088SOL    HW119163   7.016   6.845   4.870
 6088SOL    HW219164   0.139   6.771   4.833
 6089SOL     OW19165   0.444   3.004   0.254
 6089SOL    HW119166   0.467   2.933   0.187
 6089SOL    HW219167   0.348   2.995   0.280
 6090SOL     OW19168   0.263   5.775   4.231
 6090SOL    HW119169   0.312   5.846   4.181
 6090SOL    HW219170   0.191   5.817   4.287
 6091SOL     OW19171   5.864   2.291   1.781
 6091SOL    HW119172   5.962   2.301   1.767
 6091SOL    HW219173   5.818   2.376   1.756
 6092SOL     OW19174   1.765   2.676   1.229
 6092SOL    HW119175   1.850   2.699   1.182
 6092SOL    HW219176   1.717   2.761   1.253
 6093SOL     OW19177   1.260   3.134   1.342
 6093SOL    HW119178   1.339   3.183   1.307
 6093SOL    HW219179   1.268   3.037   1.321
 6094SOL     OW19180   1.176   0.941   0.940
 6094SOL    HW119181   1.190   0.862   0.999
 6094SOL    HW219182   1.244   1.011   0.963
 6095SOL     OW19183   6.851   4.063   5.488
 6095SOL    HW119184   6.915   4.025   5.422
 6095SOL    HW219185   6.842   4.001   5.566
 6096SOL     OW19186   4.030   1.915   2.853
 6096SOL    HW119187   3.970   1.860   2.910
 6096SOL    HW219188   3.981   1.996   2.820
 6097SOL     OW19189   2.893   1.972   1.688
 6097SOL    HW119190   2.919   2.000   1.596
 6097SOL    HW219191   2.935   2.034   1.755
 6098SOL     OW19192   1.783   1.514   5.673
 6098SOL    HW119193   1.700   1.554   5.713
 6098SOL    HW219194   1.802   1.426   5.717
 6099SOL     OW19195   6.069   5.322   4.913
 6099SOL    HW119196   6.150   5.373   4.942
 6099SOL    HW219197   6.096   5.230   4.884
 6100SOL     OW19198   6.314   2.954   0.312
 6100SOL    HW119199   6.336   2.999   0.226
 6100SOL    HW219200   6.221   2.916   0.308
 6101SOL     OW19201   5.805   1.858   4.380
 6101SOL    HW119202   5.828   1.907   4.296
 6101SOL    HW219203   5.779   1.764   4.357
 6102SOL     OW19204   3.272   0.411   5.206
 6102SOL    HW119205   3.329   0.343   5.252
 6102SOL    HW219206   3.329   0.468   5.147
 6103SOL     OW19207   6.127   0.581   5.864
 6103SOL    HW119208   6.208   0.627   5.829
 6103SOL    HW219209   6.154   0.503   5.920
 6104SOL     OW19210   1.806   2.943   0.425
 6104SOL    HW119211   1.893   2.988   0.406
 6104SOL    HW219212   1.767   2.981   0.509
 6105SOL     OW19213   3.518   5.680   4.146
 6105SOL    HW119214   3.535   5.731   4.230
 6105SOL    HW219215   3.557   5.589   4.153
 6106SOL     OW19216   3.159   5.633   4.790
 6106SOL    HW119217   3.209   5.577   4.724
 6106SOL    HW219218   3.219   5.703   4.827
 6107SOL     OW19219   2.144   4.808   5.228
 6107SOL    HW119220   2.061   4.863   5.241
 6107SOL    HW219221   2.190   4.796   5.316
 6108SOL     OW19222   6.898   2.032   4.327
 6108SOL    HW119223   6.970   2.084   4.374
 6108SOL    HW219224   6.915   2.033   4.229
 6109SOL     OW19225   6.453   4.490   1.743
 6109SOL    HW119226   6.392   4.526   1.814
 6109SOL    HW219227   6.492   4.566   1.691
 6110SOL     OW19228   3.309   2.112   4.360
 6110SOL    HW119229   3.320   2.146   4.454
 6110SOL    HW219230   3.391   2.062   4.333
 6111SOL     OW19231   0.901   4.926   2.960
 6111SOL    HW119232   0.923   4.837   3.000
 6111SOL    HW219233   0.812   4.956   2.995
 6112SOL     OW19234   0.542   1.659   2.458
 6112SOL    HW119235   0.514   1.721   2.384
 6112SOL    HW219236   0.629   1.689   2.496
 6113SOL     OW19237   1.493   5.781   5.220
 6113SOL    HW119238   1.473   5.751   5.126
 6113SOL    HW219239   1.460   5.712   5.284
 6114SOL     OW19240   5.360   5.451   0.665
 6114SOL    HW119241   5.385   5.360   0.632
 6114SOL    HW219242   5.320   5.443   0.756
 6115SOL     OW19243   5.966   4.815   2.721
 6115SOL    HW119244   6.063   4.793   2.725
 6115SOL    HW219245   5.937   4.824   2.625
 6116SOL     OW19246   3.807   1.248   1.495
 6116SOL    HW119247   3.893   1.298   1.510
 6116SOL    HW219248   3.813   1.196   1.410
 6117SOL     OW19249   5.414   0.141   4.370
 6117SOL    HW119250   5.328   0.176   4.406
 6117SOL    HW219251   5.397   0.059   4.316
 6118SOL     OW19252   5.908   0.169   3.108
 6118SOL    HW119253   5.861   0.130   3.188
 6118SOL    HW219254   5.867   0.258   3.086
 6119SOL     OW19255   6.280   5.176   3.859
 6119SOL    HW119256   6.317   5.244   3.923
 6119SOL    HW219257   6.258   5.092   3.908
 6120SOL     OW19258   2.870   1.051   2.907
 6120SOL    HW119259   2.857   1.076   2.811
 6120SOL    HW219260   2.783   1.025   2.947
 6121SOL     OW19261   6.703   2.185   4.556
 6121SOL    HW119262   6.762   2.172   4.636
 6121SOL    HW219263   6.732   2.123   4.483
 6122SOL     OW19264   4.817   5.482   3.408
 6122SOL    HW119265   4.803   5.547   3.482
 6122SOL    HW219266   4.782   5.520   3.322
 6123SOL     OW19267   6.439   1.301   2.578
 6123SOL    HW119268   6.446   1.253   2.490
 6123SOL    HW219269   6.397   1.241   2.646
 6124SOL     OW19270   3.094   0.242   5.798
 6124SOL    HW119271   3.137   0.254   5.709
 6124SOL    HW219272   3.099   0.328   5.849
 6125SOL     OW19273   1.792   5.368   1.884
 6125SOL    HW119274   1.804   5.280   1.839
 6125SOL    HW219275   1.882   5.405   1.907
 6126SOL     OW19276   5.261   5.611   2.444
 6126SOL    HW119277   5.229   5.525   2.482
 6126SOL    HW219278   5.195   5.643   2.376
 6127SOL     OW19279   1.896   4.513   1.676
 6127SOL    HW119280   1.827   4.472   1.618
 6127SOL    HW219281   1.953   4.576   1.622
 6128SOL     OW19282   4.958   2.643   0.946
 6128SOL    HW119283   5.005   2.696   1.016
 6128SOL    HW219284   4.879   2.596   0.986
 6129SOL     OW19285   5.976   4.357   4.177
 6129SOL    HW119286   5.890   4.332   4.132
 6129SOL    HW219287   5.964   4.443   4.225
 6130SOL     OW19288   5.378   4.065   2.532
 6130SOL    HW119289   5.429   4.109   2.458
 6130SOL    HW219290   5.292   4.114   2.547
 6131SOL     OW19291   6.741   0.850   4.986
 6131SOL    HW119292   6.824   0.806   5.021
 6131SOL    HW219293   6.766   0.931   4.933
 6132SOL     OW19294   6.371   2.502   0.337
 6132SOL    HW119295   6.299   2.467   0.278
 6132SOL    HW219296   6.351   2.598   0.360
 6133SOL     OW19297   1.568   3.900   0.461
 6133SOL    HW119298   1.629   3.977   0.443
 6133SOL    HW219299   1.495   3.900   0.393
 6134SOL     OW19300   4.931   3.036   6.906
 6134SOL    HW119301   5.026   3.066   6.920
 6134SOL    HW219302   4.906   2.972   6.978
 6135SOL     OW19303   5.488   0.128   1.465
 6135SOL    HW119304   5.529   0.213   1.433
 6135SOL    HW219305   5.449   0.078   1.387
 6136SOL     OW19306   0.014   1.550   1.572
 6136SOL    HW119307   6.989   1.619   1.630
 6136SOL    HW219308   6.998   1.558   1.478
 6137SOL     OW19309   2.557   6.821   5.881
 6137SOL    HW119310   2.535   6.773   5.796
 6137SOL    HW219311   2.560   6.919   5.863
 6138SOL     OW19312   4.688   0.273   2.924
 6138SOL    HW119313   4.670   0.370   2.943
 6138SOL    HW219314   4.738   0.265   2.838
 6139SOL     OW19315   1.694   4.681   4.155
 6139SOL    HW119316   1.716   4.689   4.252
 6139SOL    HW219317   1.778   4.675   4.101
 6140SOL     OW19318   2.177   6.699   0.918
 6140SOL    HW119319   2.165   6.641   0.998
 6140SOL    HW219320   2.235   6.778   0.941
 6141SOL     OW19321   6.163   6.523   5.834
 6141SOL    HW119322   6.200   6.615   5.830
 6141SOL    HW219323   6.127   6.497   5.745
 6142SOL     OW19324   0.991   4.769   3.153
 6142SOL    HW119325   0.924   4.810   3.216
 6142SOL    HW219326   0.972   4.672   3.143
 6143SOL     OW19327   6.668   4.533   6.397
 6143SOL    HW119328   6.766   4.527   6.420
 6143SOL    HW219329   6.645   4.627   6.372
 6144SOL     OW19330   6.940   5.481   3.862
 6144SOL    HW119331   6.947   5.573   3.899
 6144SOL    HW219332   6.909   5.419   3.934
 6145SOL     OW19333   4.955   5.761   3.295
 6145SOL    HW119334   5.005   5.815   3.227
 6145SOL    HW219335   4.881   5.711   3.249
 6146SOL     OW19336   5.360   1.046   3.301
 6146SOL    HW119337   5.370   1.137   3.342
 6146SOL    HW219338   5.424   0.983   3.345
 6147SOL     OW19339   1.680   3.653   3.093
 6147SOL    HW119340   1.649   3.581   3.155
 6147SOL    HW219341   1.653   3.743   3.129
 6148SOL     OW19342   6.418   5.879   3.749
 6148SOL    HW119343   6.334   5.837   3.785
 6148SOL    HW219344   6.416   5.977   3.764
 6149SOL     OW19345   2.030   6.411   3.698
 6149SOL    HW119346   2.089   6.418   3.617
 6149SOL    HW219347   1.939   6.444   3.675
 6150SOL     OW19348   4.400   5.427   6.072
 6150SOL    HW119349   4.403   5.354   6.141
 6150SOL    HW219350   4.483   5.482   6.077
 6151SOL     OW19351   4.406   1.367   5.674
 6151SOL    HW119352   4.380   1.444   5.616
 6151SOL    HW219353   4.331   1.344   5.735
 6152SOL     OW19354   6.953   4.634   6.395
 6152SOL    HW119355   6.935   4.710   6.457
 6152SOL    HW219356   6.987   4.556   6.448
 6153SOL     OW19357   5.054   3.550   0.320
 6153SOL    HW119358   5.001   3.631   0.343
 6153SOL    HW219359   5.067   3.494   0.402
 6154SOL     OW19360   5.283   3.084   2.375
 6154SOL    HW119361   5.285   3.031   2.460
 6154SOL    HW219362   5.263   3.023   2.298
 6155SOL     OW19363   1.218   3.683   4.281
 6155SOL    HW119364   1.265   3.765   4.316
 6155SOL    HW219365   1.121   3.702   4.272
 6156SOL     OW19366   6.666   0.365   3.749
 6156SOL    HW119367   6.631   0.407   3.664
 6156SOL    HW219368   6.680   0.436   3.817
 6157SOL     OW19369   1.786   1.668   3.288
 6157SOL    HW119370   1.811   1.714   3.373
 6157SOL    HW219371   1.858   1.602   3.264
 6158SOL     OW19372   4.301   0.722   0.402
 6158SOL    HW119373   4.225   0.787   0.407
 6158SOL    HW219374   4.295   0.658   0.479
 6159SOL     OW19375   5.145   3.285   6.778
 6159SOL    HW119376   5.068   3.235   6.738
 6159SOL    HW219377   5.190   3.339   6.707
 6160SOL     OW19378   6.483   5.118   1.965
 6160SOL    HW119379   6.553   5.168   1.913
 6160SOL    HW219380   6.415   5.182   2.000
 6161SOL     OW19381   5.444   0.584   6.523
 6161SOL    HW119382   5.384   0.649   6.569
 6161SOL    HW219383   5.390   0.520   6.469
 6162SOL     OW19384   5.900   5.522   4.129
 6162SOL    HW119385   5.839   5.593   4.095
 6162SOL    HW219386   5.868   5.432   4.098
 6163SOL     OW19387   6.979   4.102   2.066
 6163SOL    HW119388   0.038   4.145   2.112
 6163SOL    HW219389   7.008   4.017   2.023
 6164SOL     OW19390   4.129   2.599   0.372
 6164SOL    HW119391   4.043   2.644   0.349
 6164SOL    HW219392   4.138   2.593   0.471
 6165SOL     OW19393   4.496   6.287   0.704
 6165SOL    HW119394   4.440   6.230   0.644
 6165SOL    HW219395   4.554   6.230   0.761
 6166SOL     OW19396   3.405   1.858   6.689
 6166SOL    HW119397   3.407   1.924   6.764
 6166SOL    HW219398   3.493   1.859   6.641
 6167SOL     OW19399   6.664   4.815   3.543
 6167SOL    HW119400   6.658   4.845   3.448
 6167SOL    HW219401   6.743   4.755   3.554
 6168SOL     OW19402   1.022   2.328   1.709
 6168SOL    HW119403   1.046   2.338   1.805
 6168SOL    HW219404   0.925   2.348   1.697
 6169SOL     OW19405   1.730   3.988   2.135
 6169SOL    HW119406   1.725   3.994   2.234
 6169SOL    HW219407   1.824   4.005   2.104
 6170SOL     OW19408   0.007   2.657   3.946
 6170SOL    HW119409   0.098   2.631   3.977
 6170SOL    HW219410   7.002   2.748   3.981
 6171SOL     OW19411   6.718   0.634   6.124
 6171SOL    HW119412   6.701   0.707   6.191
 6171SOL    HW219413   6.816   0.625   6.108
 6172SOL     OW19414   1.017   4.251   3.785
 6172SOL    HW119415   0.940   4.189   3.801
 6172SOL    HW219416   1.028   4.310   3.865
 6173SOL     OW19417   5.768   5.922   3.389
 6173SOL    HW119418   5.810   5.909   3.299
 6173SOL    HW219419   5.763   5.834   3.437
 6174SOL     OW19420   6.277   3.016   2.090
 6174SOL    HW119421   6.376   3.031   2.090
 6174SOL    HW219422   6.237   3.054   2.006
 6175SOL     OW19423   3.107   2.346   6.069
 6175SOL    HW119424   3.013   2.337   6.035
 6175SOL    HW219425   3.109   2.413   6.143
 6176SOL     OW19426   4.129   4.358   6.064
 6176SOL    HW119427   4.031   4.361   6.079
 6176SOL    HW219428   4.176   4.393   6.146
 6177SOL     OW19429   5.910   0.272   1.359
 6177SOL    HW119430   5.867   0.255   1.270
 6177SOL    HW219431   5.999   0.315   1.344
 6178SOL     OW19432   4.166   4.720   1.810
 6178SOL    HW119433   4.199   4.630   1.782
 6178SOL    HW219434   4.066   4.719   1.814
 6179SOL     OW19435   6.105   5.068   4.844
 6179SOL    HW119436   6.198   5.034   4.860
 6179SOL    HW219437   6.064   5.018   4.767
 6180SOL     OW19438   2.870   4.449   6.819
 6180SOL    HW119439   2.940   4.378   6.811
 6180SOL    HW219440   2.781   4.410   6.796
 6181SOL     OW19441   6.115   6.289   7.014
 6181SOL    HW119442   6.204   6.285   6.968
 6181SOL    HW219443   6.063   6.367   6.981
 6182SOL     OW19444   3.388   2.514   0.568
 6182SOL    HW119445   3.323   2.567   0.622
 6182SOL    HW219446   3.466   2.572   0.543
 6183SOL     OW19447   0.416   6.885   0.441
 6183SOL    HW119448   0.357   6.817   0.485
 6183SOL    HW219449   0.360   6.944   0.381
 6184SOL     OW19450   2.521   6.726   5.634
 6184SOL    HW119451   2.438   6.689   5.593
 6184SOL    HW219452   2.587   6.747   5.561
 6185SOL     OW19453   3.473   3.172   4.612
 6185SOL    HW119454   3.466   3.217   4.523
 6185SOL    HW219455   3.546   3.104   4.610
 6186SOL     OW19456   0.158   1.394   2.060
 6186SOL    HW119457   0.217   1.444   2.123
 6186SOL    HW219458   0.186   1.298   2.056
 6187SOL     OW19459   3.826   1.004   6.024
 6187SOL    HW119460   3.834   0.995   6.123
 6187SOL    HW219461   3.763   0.935   5.988
 6188SOL     OW19462   1.049   1.214   5.008
 6188SOL    HW119463   1.117   1.231   5.080
 6188SOL    HW219464   1.087   1.150   4.941
 6189SOL     OW19465   6.651   5.936   1.183
 6189SOL    HW119466   6.624   6.019   1.232
 6189SOL    HW219467   6.678   5.865   1.249
 6190SOL     OW19468   0.747   3.397   4.907
 6190SOL    HW119469   0.723   3.313   4.956
 6190SOL    HW219470   0.808   3.374   4.830
 6191SOL     OW19471   3.408   3.606   0.401
 6191SOL    HW119472   3.385   3.559   0.486
 6191SOL    HW219473   3.354   3.569   0.326
 6192SOL     OW19474   3.123   1.427   0.763
 6192SOL    HW119475   3.143   1.467   0.674
 6192SOL    HW219476   3.024   1.432   0.781
 6193SOL     OW19477   4.080   5.708   6.944
 6193SOL    HW119478   4.135   5.790   6.929
 6193SOL    HW219479   4.101   5.640   6.874
 6194SOL     OW19480   5.368   0.014   6.938
 6194SOL    HW119481   5.460   0.047   6.959
 6194SOL    HW219482   5.352   0.022   6.840
 6195SOL     OW19483   5.692   6.126   6.460
 6195SOL    HW119484   5.617   6.122   6.393
 6195SOL    HW219485   5.687   6.046   6.521
 6196SOL     OW19486   5.691   3.609   2.720
 6196SOL    HW119487   5.770   3.551   2.737
 6196SOL    HW219488   5.623   3.558   2.667
 6197SOL     OW19489   1.336   5.374   1.362
 6197SOL    HW119490   1.238   5.377   1.341
 6197SOL    HW219491   1.352   5.306   1.433
 6198SOL     OW19492   5.788   1.361   6.752
 6198SOL    HW119493   5.733   1.280   6.773
 6198SOL    HW219494   5.801   1.368   6.653
 6199SOL     OW19495   1.963   0.133   6.168
 6199SOL    HW119496   2.003   0.110   6.079
 6199SOL    HW219497   1.996   0.223   6.196
 6200SOL     OW19498   1.362   0.548   1.953
 6200SOL    HW119499   1.446   0.579   1.999
 6200SOL    HW219500   1.283   0.578   2.006
 6201SOL     OW19501   0.443   5.087   2.881
 6201SOL    HW119502   0.462   5.026   2.804
 6201SOL    HW219503   0.504   5.063   2.957
 6202SOL     OW19504   5.641   1.280   2.933
 6202SOL    HW119505   5.575   1.247   3.000
 6202SOL    HW219506   5.717   1.216   2.926
 6203SOL     OW19507   6.513   0.609   1.825
 6203SOL    HW119508   6.482   0.598   1.731
 6203SOL    HW219509   6.590   0.546   1.842
 6204SOL     OW19510   1.686   6.274   4.941
 6204SOL    HW119511   1.615   6.339   4.967
 6204SOL    HW219512   1.664   6.183   4.976
 6205SOL     OW19513   5.346   4.291   3.754
 6205SOL    HW119514   5.407   4.212   3.751
 6205SOL    HW219515   5.349   4.332   3.845
 6206SOL     OW19516   5.761   1.840   3.992
 6206SOL    HW119517   5.752   1.854   3.893
 6206SOL    HW219518   5.742   1.744   4.014
 6207SOL     OW19519   1.200   5.281   4.338
 6207SOL    HW119520   1.200   5.188   4.300
 6207SOL    HW219521   1.138   5.339   4.285
 6208SOL     OW19522   4.162   4.242   5.826
 6208SOL    HW119523   4.133   4.299   5.903
 6208SOL    HW219524   4.259   4.256   5.809
 6209SOL     OW19525   3.259   2.578   1.612
 6209SOL    HW119526   3.330   2.539   1.671
 6209SOL    HW219527   3.287   2.570   1.516
 6210SOL     OW19528   5.159   2.119   4.530
 6210SOL    HW119529   5.176   2.215   4.550
 6210SOL    HW219530   5.235   2.063   4.562
 6211SOL     OW19531   5.801   4.435   5.072
 6211SOL    HW119532   5.773   4.339   5.061
 6211SOL    HW219533   5.791   4.483   4.985
 6212SOL     OW19534   4.691   5.075   5.337
 6212SOL    HW119535   4.719   4.983   5.365
 6212SOL    HW219536   4.707   5.086   5.239
 6213SOL     OW19537   4.410   5.651   0.412
 6213SOL    HW119538   4.329   5.596   0.432
 6213SOL    HW219539   4.448   5.624   0.324
 6214SOL     OW19540   6.017   6.799   6.558
 6214SOL    HW119541   5.922   6.806   6.529
 6214SOL    HW219542   6.063   6.886   6.541
 6215SOL     OW19543   5.363   2.621   5.205
 6215SOL    HW119544   5.326   2.580   5.288
 6215SOL    HW219545   5.456   2.587   5.189
 6216SOL     OW19546   4.383   1.870   4.229
 6216SOL    HW119547   4.332   1.805   4.285
 6216SOL    HW219548   4.331   1.888   4.145
 6217SOL     OW19549   0.114   4.854   3.116
 6217SOL    HW119550   0.164   4.789   3.059
 6217SOL    HW219551   0.127   4.947   3.080
 6218SOL     OW19552   4.589   6.104   0.138
 6218SOL    HW119553   4.495   6.073   0.152
 6218SOL    HW219554   4.649   6.025   0.128
 6219SOL     OW19555   2.103   1.164   6.360
 6219SOL    HW119556   2.135   1.225   6.432
 6219SOL    HW219557   2.178   1.145   6.296
 6220SOL     OW19558   3.583   6.424   0.573
 6220SOL    HW119559   3.510   6.490   0.592
 6220SOL    HW219560   3.585   6.404   0.475
 6221SOL     OW19561   5.408   6.081   6.691
 6221SOL    HW119562   5.398   6.174   6.655
 6221SOL    HW219563   5.419   6.085   6.790
 6222SOL     OW19564   6.533   1.337   2.034
 6222SOL    HW119565   6.624   1.302   2.057
 6222SOL    HW219566   6.538   1.436   2.021
 6223SOL     OW19567   6.965   4.979   4.032
 6223SOL    HW119568   7.001   5.048   3.968
 6223SOL    HW219569   6.869   4.963   4.012
 6224SOL     OW19570   3.892   0.123   0.141
 6224SOL    HW119571   3.988   0.114   0.113
 6224SOL    HW219572   3.837   0.148   0.061
 6225SOL     OW19573   4.514   5.620   6.827
 6225SOL    HW119574   4.433   5.580   6.870
 6225SOL    HW219575   4.497   5.631   6.729
 6226SOL     OW19576   1.214   0.662   4.466
 6226SOL    HW119577   1.174   0.732   4.407
 6226SOL    HW219578   1.142   0.616   4.518
 6227SOL     OW19579   2.984   4.891   5.480
 6227SOL    HW119580   3.059   4.907   5.544
 6227SOL    HW219581   3.020   4.871   5.389
 6228SOL     OW19582   0.867   3.241   3.355
 6228SOL    HW119583   0.912   3.232   3.266
 6228SOL    HW219584   0.787   3.299   3.347
 6229SOL     OW19585   0.522   2.801   4.169
 6229SOL    HW119586   0.564   2.710   4.170
 6229SOL    HW219587   0.576   2.862   4.111
 6230SOL     OW19588   6.704   0.912   1.528
 6230SOL    HW119589   6.781   0.858   1.563
 6230SOL    HW219590   6.622   0.891   1.581
 6231SOL     OW19591   2.318   4.945   6.386
 6231SOL    HW119592   2.311   5.023   6.449
 6231SOL    HW219593   2.263   4.870   6.422
 6232SOL     OW19594   4.081   0.238   6.020
 6232SOL    HW119595   4.143   0.162   6.036
 6232SOL    HW219596   4.041   0.268   6.107
 6233SOL     OW19597   0.060   3.529   1.026
 6233SOL    HW119598   6.980   3.545   1.013
 6233SOL    HW219599   0.103   3.611   1.064
 6234SOL     OW19600   4.577   5.260   4.368
 6234SOL    HW119601   4.478   5.248   4.364
 6234SOL    HW219602   4.600   5.355   4.344
 6235SOL     OW19603   0.315   0.410   2.715
 6235SOL    HW119604   0.408   0.382   2.736
 6235SOL    HW219605   0.307   0.428   2.616
 6236SOL     OW19606   6.918   5.486   1.377
 6236SOL    HW119607   6.850   5.488   1.303
 6236SOL    HW219608   6.878   5.523   1.461
 6237SOL     OW19609   3.452   1.181   2.153
 6237SOL    HW119610   3.523   1.244   2.184
 6237SOL    HW219611   3.362   1.225   2.163
 6238SOL     OW19612   2.187   0.197   3.967
 6238SOL    HW119613   2.238   0.118   4.000
 6238SOL    HW219614   2.198   0.273   4.030
 6239SOL     OW19615   4.843   1.166   4.526
 6239SOL    HW119616   4.942   1.159   4.542
 6239SOL    HW219617   4.798   1.082   4.556
 6240SOL     OW19618   3.786   2.960   3.936
 6240SOL    HW119619   3.735   2.968   3.851
 6240SOL    HW219620   3.737   2.899   3.999
 6241SOL     OW19621   3.295   0.297   3.752
 6241SOL    HW119622   3.308   0.264   3.659
 6241SOL    HW219623   3.308   0.222   3.817
 6242SOL     OW19624   2.750   1.842   3.158
 6242SOL    HW119625   2.735   1.744   3.166
 6242SOL    HW219626   2.811   1.861   3.081
 6243SOL     OW19627   4.478   1.607   6.411
 6243SOL    HW119628   4.555   1.640   6.357
 6243SOL    HW219629   4.452   1.516   6.379
 6244SOL     OW19630   4.767   2.635   1.746
 6244SOL    HW119631   4.842   2.625   1.812
 6244SOL    HW219632   4.764   2.730   1.714
 6245SOL     OW19633   0.157   5.060   2.078
 6245SOL    HW119634   0.153   5.155   2.109
 6245SOL    HW219635   0.169   5.058   1.979
 6246SOL     OW19636   6.935   6.578   4.031
 6246SOL    HW119637   6.874   6.537   4.099
 6246SOL    HW219638   6.918   6.535   3.942
 6247SOL     OW19639   6.101   6.075   3.897
 6247SOL    HW119640   6.005   6.052   3.881
 6247SOL    HW219641   6.128   6.152   3.838
 6248SOL     OW19642   3.990   2.965   5.330
 6248SOL    HW119643   3.914   3.008   5.378
 6248SOL    HW219644   3.963   2.873   5.300
 6249SOL     OW19645   5.915   3.211   2.388
 6249SOL    HW119646   5.908   3.310   2.376
 6249SOL    HW219647   5.875   3.186   2.477
 6250SOL     OW19648   5.733   0.157   6.553
 6250SOL    HW119649   5.672   0.235   6.553
 6250SOL    HW219650   5.827   0.188   6.539
 6251SOL     OW19651   2.490   0.178   4.301
 6251SOL    HW119652   2.494   0.089   4.257
 6251SOL    HW219653   2.578   0.225   4.289
 6252SOL     OW19654   3.100   5.383   6.479
 6252SOL    HW119655   3.044   5.427   6.409
 6252SOL    HW219656   3.097   5.284   6.467
 6253SOL     OW19657   3.917   5.509   3.602
 6253SOL    HW119658   3.941   5.438   3.536
 6253SOL    HW219659   3.821   5.500   3.628
 6254SOL     OW19660   0.322   0.337   1.350
 6254SOL    HW119661   0.319   0.401   1.427
 6254SOL    HW219662   0.417   0.310   1.333
 6255SOL     OW19663   1.142   1.922   0.810
 6255SOL    HW119664   1.221   1.882   0.764
 6255SOL    HW219665   1.115   1.863   0.887
 6256SOL     OW19666   5.537   5.953   2.446
 6256SOL    HW119667   5.634   5.929   2.440
 6256SOL    HW219668   5.527   6.038   2.497
 6257SOL     OW19669   3.144   4.390   0.763
 6257SOL    HW119670   3.160   4.445   0.681
 6257SOL    HW219671   3.118   4.451   0.838
 6258SOL     OW19672   4.461   5.294   5.114
 6258SOL    HW119673   4.481   5.260   5.022
 6258SOL    HW219674   4.541   5.343   5.150
 6259SOL     OW19675   4.192   1.205   4.896
 6259SOL    HW119676   4.198   1.216   4.995
 6259SOL    HW219677   4.214   1.111   4.872
 6260SOL     OW19678   1.864   1.424   6.725
 6260SOL    HW119679   1.842   1.433   6.822
 6260SOL    HW219680   1.916   1.340   6.710
 6261SOL     OW19681   3.392   0.305   0.458
 6261SOL    HW119682   3.369   0.232   0.522
 6261SOL    HW219683   3.394   0.268   0.365
 6262SOL     OW19684   5.879   1.229   2.588
 6262SOL    HW119685   5.913   1.264   2.675
 6262SOL    HW219686   5.797   1.173   2.604
 6263SOL     OW19687   6.104   5.808   5.888
 6263SOL    HW119688   6.160   5.793   5.806
 6263SOL    HW219689   6.111   5.904   5.916
 6264SOL     OW19690   2.611   6.457   6.728
 6264SOL    HW119691   2.525   6.437   6.776
 6264SOL    HW219692   2.681   6.393   6.756
 6265SOL     OW19693   4.728   6.625   6.695
 6265SOL    HW119694   4.633   6.637   6.664
 6265SOL    HW219695   4.755   6.530   6.684
 6266SOL     OW19696   3.137   5.121   2.825
 6266SOL    HW119697   3.166   5.186   2.895
 6266SOL    HW219698   3.129   5.167   2.737
 6267SOL     OW19699   1.760   6.197   4.691
 6267SOL    HW119700   1.753   6.211   4.790
 6267SOL    HW219701   1.668   6.195   4.651
 6268SOL     OW19702   3.162   1.523   0.502
 6268SOL    HW119703   3.210   1.600   0.460
 6268SOL    HW219704   3.069   1.519   0.467
 6269SOL     OW19705   6.902   5.324   6.890
 6269SOL    HW119706   6.839   5.384   6.842
 6269SOL    HW219707   6.871   5.229   6.882
 6270SOL     OW19708   2.033   6.227   0.963
 6270SOL    HW119709   1.989   6.140   0.983
 6270SOL    HW219710   2.098   6.249   1.036
 6271SOL     OW19711   6.724   3.147   5.481
 6271SOL    HW119712   6.670   3.210   5.426
 6271SOL    HW219713   6.792   3.102   5.423
 6272SOL     OW19714   0.039   0.129   0.219
 6272SOL    HW119715   0.063   0.160   0.311
 6272SOL    HW219716   0.108   0.065   0.185
 6273SOL     OW19717   0.893   6.718   2.267
 6273SOL    HW119718   0.973   6.690   2.213
 6273SOL    HW219719   0.895   6.672   2.356
 6274SOL     OW19720   2.994   5.651   3.638
 6274SOL    HW119721   3.012   5.748   3.656
 6274SOL    HW219722   2.901   5.628   3.667
 6275SOL     OW19723   3.116   5.874   6.804
 6275SOL    HW119724   3.205   5.832   6.821
 6275SOL    HW219725   3.128   5.958   6.752
 6276SOL     OW19726   1.308   5.544   2.413
 6276SOL    HW119727   1.390   5.493   2.439
 6276SOL    HW219728   1.297   5.541   2.313
 6277SOL     OW19729   5.211   2.981   1.382
 6277SOL    HW119730   5.148   2.904   1.385
 6277SOL    HW219731   5.286   2.961   1.318
 6278SOL     OW19732   4.051   2.223   0.401
 6278SOL    HW119733   4.023   2.138   0.358
 6278SOL    HW219734   3.975   2.288   0.400
 6279SOL     OW19735   3.688   6.921   1.374
 6279SOL    HW119736   3.771   6.942   1.424
 6279SOL    HW219737   3.655   6.830   1.401
 6280SOL     OW19738   5.409   2.733   6.129
 6280SOL    HW119739   5.465   2.777   6.059
 6280SOL    HW219740   5.418   2.782   6.215
 6281SOL     OW19741   5.067   4.083   6.276
 6281SOL    HW119742   5.108   4.082   6.185
 6281SOL    HW219743   5.124   4.136   6.338
 6282SOL     OW19744   0.441   3.456   6.081
 6282SOL    HW119745   0.439   3.505   5.994
 6282SOL    HW219746   0.517   3.391   6.081
 6283SOL     OW19747   2.020   6.413   4.337
 6283SOL    HW119748   2.073   6.348   4.284
 6283SOL    HW219749   1.928   6.421   4.298
 6284SOL     OW19750   1.021   3.428   5.259
 6284SOL    HW119751   1.059   3.438   5.351
 6284SOL    HW219752   1.019   3.517   5.214
 6285SOL     OW19753   1.472   3.346   3.051
 6285SOL    HW119754   1.417   3.414   3.002
 6285SOL    HW219755   1.552   3.322   2.995
 6286SOL     OW19756   0.765   2.269   6.681
 6286SOL    HW119757   0.846   2.323   6.705
 6286SOL    HW219758   0.683   2.326   6.689
 6287SOL     OW19759   4.946   4.846   5.379
 6287SOL    HW119760   4.973   4.839   5.283
 6287SOL    HW219761   4.924   4.755   5.414
 6288SOL     OW19762   2.820   3.657   6.088
 6288SOL    HW119763   2.811   3.587   6.160
 6288SOL    HW219764   2.902   3.711   6.105
 6289SOL     OW19765   2.122   4.389   5.567
 6289SOL    HW119766   2.209   4.420   5.528
 6289SOL    HW219767   2.069   4.342   5.496
 6290SOL     OW19768   5.906   6.653   4.307
 6290SOL    HW119769   5.874   6.650   4.213
 6290SOL    HW219770   5.997   6.610   4.313
 6291SOL     OW19771   3.688   3.636   2.344
 6291SOL    HW119772   3.688   3.722   2.395
 6291SOL    HW219773   3.773   3.629   2.291
 6292SOL     OW19774   1.327   4.458   3.755
 6292SOL    HW119775   1.271   4.420   3.829
 6292SOL    HW219776   1.307   4.555   3.745
 6293SOL     OW19777   2.855   1.552   6.292
 6293SOL    HW119778   2.793   1.630   6.296
 6293SOL    HW219779   2.922   1.559   6.366
 6294SOL     OW19780   1.794   1.183   2.256
 6294SOL    HW119781   1.890   1.198   2.277
 6294SOL    HW219782   1.779   1.087   2.234
 6295SOL     OW19783   4.329   3.018   6.151
 6295SOL    HW119784   4.306   3.105   6.195
 6295SOL    HW219785   4.262   2.948   6.177
 6296SOL     OW19786   1.102   2.897   0.359
 6296SOL    HW119787   1.023   2.958   0.371
 6296SOL    HW219788   1.074   2.818   0.304
 6297SOL     OW19789   6.281   1.560   3.830
 6297SOL    HW119790   6.265   1.654   3.858
 6297SOL    HW219791   6.379   1.544   3.821
 6298SOL     OW19792   0.653   6.412   0.871
 6298SOL    HW119793   0.622   6.467   0.793
 6298SOL    HW219794   0.605   6.324   0.871
 6299SOL     OW19795   3.939   1.774   3.785
 6299SOL    HW119796   3.953   1.698   3.722
 6299SOL    HW219797   3.949   1.860   3.735
 6300SOL     OW19798   2.665   1.580   6.746
 6300SOL    HW119799   2.746   1.522   6.744
 6300SOL    HW219800   2.689   1.671   6.780
 6301SOL     OW19801   4.320   5.977   0.196
 6301SOL    HW119802   4.226   5.949   0.210
 6301SOL    HW219803   4.374   5.899   0.162
 6302SOL     OW19804   2.315   2.520   6.376
 6302SOL    HW119805   2.238   2.457   6.371
 6302SOL    HW219806   2.336   2.554   6.284
 6303SOL     OW19807   0.567   5.828   4.436
 6303SOL    HW119808   0.643   5.799   4.378
 6303SOL    HW219809   0.483   5.783   4.406
 6304SOL     OW19810   3.320   0.626   4.721
 6304SOL    HW119811   3.343   0.648   4.627
 6304SOL    HW219812   3.220   0.625   4.732
 6305SOL     OW19813   1.156   5.643   5.662
 6305SOL    HW119814   1.240   5.690   5.689
 6305SOL    HW219815   1.124   5.586   5.737
 6306SOL     OW19816   0.417   4.469   5.093
 6306SOL    HW119817   0.360   4.387   5.102
 6306SOL    HW219818   0.512   4.446   5.116
 6307SOL     OW19819   3.451   2.845   2.014
 6307SOL    HW119820   3.372   2.844   2.075
 6307SOL    HW219821   3.535   2.834   2.067
 6308SOL     OW19822   0.452   2.160   0.258
 6308SOL    HW119823   0.505   2.157   0.173
 6308SOL    HW219824   0.511   2.138   0.336
 6309SOL     OW19825   2.390   6.295   4.980
 6309SOL    HW119826   2.474   6.242   4.966
 6309SOL    HW219827   2.331   6.248   5.046
 6310SOL     OW19828   1.554   6.985   2.896
 6310SOL    HW119829   1.497   0.004   2.970
 6310SOL    HW219830   1.642   6.957   2.934
 6311SOL     OW19831   6.346   1.055   6.603
 6311SOL    HW119832   6.339   1.105   6.689
 6311SOL    HW219833   6.268   1.079   6.545
 6312SOL     OW19834   3.210   5.666   0.057
 6312SOL    HW119835   3.145   5.678   7.000
 6312SOL    HW219836   3.168   5.610   0.128
 6313SOL     OW19837   6.252   4.654   4.204
 6313SOL    HW119838   6.237   4.652   4.105
 6313SOL    HW219839   6.348   4.632   4.223
 6314SOL     OW19840   1.896   6.641   2.481
 6314SOL    HW119841   1.965   6.571   2.498
 6314SOL    HW219842   1.809   6.598   2.459
 6315SOL     OW19843   1.875   1.647   3.810
 6315SOL    HW119844   1.806   1.586   3.772
 6315SOL    HW219845   1.841   1.689   3.894
 6316SOL     OW19846   4.325   0.911   4.869
 6316SOL    HW119847   4.285   0.820   4.881
 6316SOL    HW219848   4.351   0.924   4.773
 6317SOL     OW19849   5.377   4.718   2.687
 6317SOL    HW119850   5.326   4.647   2.638
 6317SOL    HW219851   5.456   4.676   2.733
 6318SOL     OW19852   6.538   6.830   0.256
 6318SOL    HW119853   6.564   6.734   0.268
 6318SOL    HW219854   6.619   6.888   0.264
 6319SOL     OW19855   5.052   1.895   4.144
 6319SOL    HW119856   5.109   1.929   4.070
 6319SOL    HW219857   4.956   1.899   4.115
 6320SOL     OW19858   6.092   1.714   5.610
 6320SOL    HW119859   6.047   1.665   5.684
 6320SOL    HW219860   6.176   1.758   5.644
 6321SOL     OW19861   0.323   2.504   0.193
 6321SOL    HW119862   0.229   2.475   0.211
 6321SOL    HW219863   0.367   2.438   0.131
 6322SOL     OW19864   1.165   1.430   2.644
 6322SOL    HW119865   1.163   1.523   2.608
 6322SOL    HW219866   1.237   1.422   2.712
 6323SOL     OW19867   1.981   4.859   0.950
 6323SOL    HW119868   2.042   4.932   0.918
 6323SOL    HW219869   1.912   4.898   1.011
 6324SOL     OW19870   4.751   3.693   1.113
 6324SOL    HW119871   4.785   3.677   1.020
 6324SOL    HW219872   4.718   3.607   1.152
 6325SOL     OW19873   1.293   2.895   4.079
 6325SOL    HW119874   1.285   2.947   3.994
 6325SOL    HW219875   1.342   2.950   4.147
 6326SOL     OW19876   5.464   5.471   5.510
 6326SOL    HW119877   5.557   5.464   5.472
 6326SOL    HW219878   5.408   5.396   5.475
 6327SOL     OW19879   0.648   1.204   3.599
 6327SOL    HW119880   0.622   1.294   3.563
 6327SOL    HW219881   0.678   1.215   3.694
 6328SOL     OW19882   4.669   3.853   5.300
 6328SOL    HW119883   4.644   3.757   5.287
 6328SOL    HW219884   4.687   3.870   5.397
 6329SOL     OW19885   0.653   2.088   5.846
 6329SOL    HW119886   0.600   2.139   5.913
 6329SOL    HW219887   0.736   2.052   5.889
 6330SOL     OW19888   4.805   1.213   3.976
 6330SOL    HW119889   4.839   1.284   4.038
 6330SOL    HW219890   4.879   1.181   3.918
 6331SOL     OW19891   1.098   3.240   4.021
 6331SOL    HW119892   1.192   3.242   3.989
 6331SOL    HW219893   1.042   3.300   3.964
 6332SOL     OW19894   3.263   1.578   6.668
 6332SOL    HW119895   3.326   1.655   6.684
 6332SOL    HW219896   3.315   1.499   6.635
 6333SOL     OW19897   6.005   1.119   1.255
 6333SOL    HW119898   6.089   1.144   1.302
 6333SOL    HW219899   5.944   1.071   1.318
 6334SOL     OW19900   1.419   1.150   1.412
 6334SOL    HW119901   1.374   1.240   1.406
 6334SOL    HW219902   1.373   1.095   1.481
 6335SOL     OW19903   6.326   3.057   6.231
 6335SOL    HW119904   6.254   3.057   6.299
 6335SOL    HW219905   6.288   3.030   6.142
 6336SOL     OW19906   0.489   3.963   5.255
 6336SOL    HW119907   0.542   3.982   5.338
 6336SOL    HW219908   0.551   3.939   5.180
 6337SOL     OW19909   5.181   6.735   5.336
 6337SOL    HW119910   5.174   6.675   5.416
 6337SOL    HW219911   5.134   6.821   5.355
 6338SOL     OW19912   0.983   0.729   3.341
 6338SOL    HW119913   0.914   0.724   3.413
 6338SOL    HW219914   0.947   0.781   3.264
 6339SOL     OW19915   0.399   4.279   3.784
 6339SOL    HW119916   0.371   4.185   3.770
 6339SOL    HW219917   0.460   4.308   3.710
 6340SOL     OW19918   2.502   4.159   0.693
 6340SOL    HW119919   2.559   4.101   0.753
 6340SOL    HW219920   2.527   4.255   0.707
 6341SOL     OW19921   0.587   5.769   1.791
 6341SOL    HW119922   0.498   5.724   1.794
 6341SOL    HW219923   0.577   5.864   1.823
 6342SOL     OW19924   1.683   1.222   1.527
 6342SOL    HW119925   1.612   1.186   1.467
 6342SOL    HW219926   1.663   1.318   1.547
 6343SOL     OW19927   1.349   5.548   0.601
 6343SOL    HW119928   1.351   5.466   0.658
 6343SOL    HW219929   1.285   5.614   0.640
 6344SOL     OW19930   0.944   1.089   3.952
 6344SOL    HW119931   0.893   1.021   3.901
 6344SOL    HW219932   0.925   1.180   3.914
 6345SOL     OW19933   6.085   2.682   2.751
 6345SOL    HW119934   6.153   2.748   2.718
 6345SOL    HW219935   6.072   2.693   2.849
 6346SOL     OW19936   0.055   4.196   5.151
 6346SOL    HW119937   0.148   4.159   5.148
 6346SOL    HW219938   0.010   4.181   5.062
 6347SOL     OW19939   2.115   2.407   3.677
 6347SOL    HW119940   2.070   2.496   3.693
 6347SOL    HW219941   2.047   2.342   3.644
 6348SOL     OW19942   1.068   2.465   6.030
 6348SOL    HW119943   0.972   2.473   6.055
 6348SOL    HW219944   1.082   2.381   5.977
 6349SOL     OW19945   6.445   1.055   0.791
 6349SOL    HW119946   6.407   1.133   0.841
 6349SOL    HW219947   6.417   0.970   0.836
 6350SOL     OW19948   1.260   6.466   1.351
 6350SOL    HW119949   1.239   6.393   1.286
 6350SOL    HW219950   1.328   6.435   1.416
 6351SOL     OW19951   5.933   4.042   1.630
 6351SOL    HW119952   5.896   3.987   1.555
 6351SOL    HW219953   6.026   4.011   1.651
 6352SOL     OW19954   3.901   1.219   4.619
 6352SOL    HW119955   3.828   1.285   4.634
 6352SOL    HW219956   3.966   1.256   4.553
 6353SOL     OW19957   3.846   6.428   5.504
 6353SOL    HW119958   3.886   6.502   5.559
 6353SOL    HW219959   3.905   6.347   5.509
 6354SOL     OW19960   4.949   5.417   2.237
 6354SOL    HW119961   4.941   5.391   2.141
 6354SOL    HW219962   4.967   5.335   2.292
 6355SOL     OW19963   3.529   5.599   0.535
 6355SOL    HW119964   3.454   5.571   0.475
 6355SOL    HW219965   3.586   5.520   0.556
 6356SOL     OW19966   0.226   6.034   5.793
 6356SOL    HW119967   0.171   5.965   5.745
 6356SOL    HW219968   0.271   6.093   5.726
 6357SOL     OW19969   5.313   0.749   2.350
 6357SOL    HW119970   5.342   0.824   2.290
 6357SOL    HW219971   5.264   0.681   2.296
 6358SOL     OW19972   1.172   2.063   4.920
 6358SOL    HW119973   1.194   2.117   4.839
 6358SOL    HW219974   1.192   2.116   5.002
 6359SOL     OW19975   5.607   6.029   1.382
 6359SOL    HW119976   5.630   5.933   1.400
 6359SOL    HW219977   5.512   6.035   1.352
 6360SOL     OW19978   1.177   1.714   1.057
 6360SOL    HW119979   1.197   1.635   0.998
 6360SOL    HW219980   1.187   1.687   1.153
 6361SOL     OW19981   0.346   1.390   0.650
 6361SOL    HW119982   0.331   1.487   0.629
 6361SOL    HW219983   0.343   1.377   0.749
 6362SOL     OW19984   1.579   5.771   0.768
 6362SOL    HW119985   1.568   5.791   0.866
 6362SOL    HW219986   1.572   5.672   0.753
 6363SOL     OW19987   2.106   3.859   2.062
 6363SOL    HW119988   2.136   3.784   2.120
 6363SOL    HW219989   2.184   3.897   2.013
 6364SOL     OW19990   2.475   2.330   4.505
 6364SOL    HW119991   2.442   2.278   4.426
 6364SOL    HW219992   2.401   2.389   4.537
 6365SOL     OW19993   5.730   0.078   3.300
 6365SOL    HW119994   5.786   0.090   3.382
 6365SOL    HW219995   5.679   7.010   3.307
 6366SOL     OW19996   6.221   1.018   5.357
 6366SOL    HW119997   6.304   1.041   5.306
 6366SOL    HW219998   6.226   1.058   5.449
 6367SOL     OW19999   1.208   2.284   3.039
 6367SOL    HW120000   1.212   2.364   2.980
 6367SOL    HW220001   1.208   2.313   3.135
 6368SOL     OW20002   4.855   3.894   4.758
 6368SOL    HW120003   4.777   3.944   4.795
 6368SOL    HW220004   4.881   3.822   4.822
 6369SOL     OW20005   4.636   5.142   0.665
 6369SOL    HW120006   4.549   5.189   0.652
 6369SOL    HW220007   4.710   5.209   0.671
 6370SOL     OW20008   5.733   4.011   4.410
 6370SOL    HW120009   5.688   4.055   4.487
 6370SOL    HW220010   5.682   4.029   4.326
 6371SOL     OW20011   5.515   4.761   1.214
 6371SOL    HW120012   5.608   4.726   1.207
 6371SOL    HW220013   5.449   4.686   1.208
 6372SOL     OW20014   6.332   1.947   1.726
 6372SOL    HW120015   6.351   1.850   1.739
 6372SOL    HW220016   6.233   1.963   1.731
 6373SOL     OW20017   5.005   3.456   1.849
 6373SOL    HW120018   4.939   3.381   1.858
 6373SOL    HW220019   5.098   3.419   1.853
 6374SOL     OW20020   4.518   3.642   6.793
 6374SOL    HW120021   4.528   3.569   6.726
 6374SOL    HW220022   4.542   3.608   6.884
 6375SOL     OW20023   4.577   1.299   2.027
 6375SOL    HW120024   4.595   1.209   1.986
 6375SOL    HW220025   4.495   1.338   1.986
 6376SOL     OW20026   2.612   0.266   0.605
 6376SOL    HW120027   2.611   0.209   0.687
 6376SOL    HW220028   2.706   0.292   0.584
 6377SOL     OW20029   0.314   0.657   6.935
 6377SOL    HW120030   0.391   0.719   6.927
 6377SOL    HW220031   0.259   0.661   6.851
 6378SOL     OW20032   5.577   4.495   2.348
 6378SOL    HW120033   5.594   4.575   2.405
 6378SOL    HW220034   5.618   4.415   2.390
 6379SOL     OW20035   1.991   5.214   6.379
 6379SOL    HW120036   1.995   5.227   6.478
 6379SOL    HW220037   1.997   5.117   6.357
 6380SOL     OW20038   0.692   4.049   5.463
 6380SOL    HW120039   0.783   4.075   5.432
 6380SOL    HW220040   0.697   4.024   5.560
 6381SOL     OW20041   4.185   3.373   0.548
 6381SOL    HW120042   4.217   3.280   0.568
 6381SOL    HW220043   4.122   3.371   0.471
 6382SOL     OW20044   1.411   1.564   0.455
 6382SOL    HW120045   1.417   1.664   0.452
 6382SOL    HW220046   1.484   1.528   0.514
 6383SOL     OW20047   2.444   2.563   2.457
 6383SOL    HW120048   2.476   2.539   2.548
 6383SOL    HW220049   2.437   2.481   2.401
 6384SOL     OW20050   6.468   2.357   2.160
 6384SOL    HW120051   6.463   2.342   2.259
 6384SOL    HW220052   6.376   2.369   2.124
 6385SOL     OW20053   6.858   3.953   7.016
 6385SOL    HW120054   6.808   3.939   6.931
 6385SOL    HW220055   6.894   3.866   0.031
 6386SOL     OW20056   2.763   2.683   0.913
 6386SOL    HW120057   2.689   2.673   0.979
 6386SOL    HW220058   2.739   2.637   0.827
 6387SOL     OW20059   0.134   6.787   7.011
 6387SOL    HW120060   0.203   6.715   7.000
 6387SOL    HW220061   0.055   6.751   0.043
 6388SOL     OW20062   5.619   5.443   1.996
 6388SOL    HW120063   5.689   5.478   2.058
 6388SOL    HW220064   5.644   5.351   1.966
 6389SOL     OW20065   6.718   6.592   0.741
 6389SOL    HW120066   6.737   6.660   0.671
 6389SOL    HW220067   6.783   6.516   0.732
 6390SOL     OW20068   5.345   0.852   0.103
 6390SOL    HW120069   5.351   0.761   0.143
 6390SOL    HW220070   5.330   0.919   0.175
 6391SOL     OW20071   1.058   1.846   5.040
 6391SOL    HW120072   1.139   1.902   5.021
 6391SOL    HW220073   0.983   1.875   4.980
 6392SOL     OW20074   4.199   0.034   3.897
 6392SOL    HW120075   4.130   0.102   3.872
 6392SOL    HW220076   4.273   0.079   3.947
 6393SOL     OW20077   1.407   5.161   0.089
 6393SOL    HW120078   1.343   5.210   0.149
 6393SOL    HW220079   1.499   5.199   0.100
 6394SOL     OW20080   1.906   4.855   1.613
 6394SOL    HW120081   1.836   4.828   1.680
 6394SOL    HW220082   1.892   4.951   1.588
 6395SOL     OW20083   1.987   3.998   4.039
 6395SOL    HW120084   1.951   3.951   4.121
 6395SOL    HW220085   1.990   3.933   3.963
 6396SOL     OW20086   1.886   3.031   5.219
 6396SOL    HW120087   1.975   3.060   5.183
 6396SOL    HW220088   1.888   2.933   5.238
 6397SOL     OW20089   5.724   3.934   4.965
 6397SOL    HW120090   5.688   3.841   4.973
 6397SOL    HW220091   5.769   3.960   5.050
 6398SOL     OW20092   2.601   7.000   2.767
 6398SOL    HW120093   2.614   6.925   2.701
 6398SOL    HW220094   2.601   0.069   2.717
 6399SOL     OW20095   3.276   6.908   6.893
 6399SOL    HW120096   3.255   6.998   6.931
 6399SOL    HW220097   3.323   6.853   6.962
 6400SOL     OW20098   0.569   6.225   3.006
 6400SOL    HW120099   0.612   6.215   3.096
 6400SOL    HW220100   0.500   6.297   3.009
 6401SOL     OW20101   4.192   5.217   2.830
 6401SOL    HW120102   4.130   5.271   2.887
 6401SOL    HW220103   4.233   5.276   2.761
 6402SOL     OW20104   2.907   4.394   5.856
 6402SOL    HW120105   2.953   4.418   5.770
 6402SOL    HW220106   2.814   4.364   5.837
 6403SOL     OW20107   5.684   5.291   5.555
 6403SOL    HW120108   5.706   5.247   5.467
 6403SOL    HW220109   5.752   5.361   5.576
 6404SOL     OW20110   4.699   6.399   1.218
 6404SOL    HW120111   4.764   6.473   1.237
 6404SOL    HW220112   4.629   6.398   1.289
 6405SOL     OW20113   4.915   1.278   2.706
 6405SOL    HW120114   4.986   1.227   2.657
 6405SOL    HW220115   4.889   1.358   2.652
 6406SOL     OW20116   0.669   3.542   3.060
 6406SOL    HW120117   0.577   3.574   3.038
 6406SOL    HW220118   0.685   3.551   3.158
 6407SOL     OW20119   0.484   6.754   2.600
 6407SOL    HW120120   0.466   6.843   2.642
 6407SOL    HW220121   0.434   6.748   2.513
 6408SOL     OW20122   7.014   0.918   2.074
 6408SOL    HW120123   0.061   0.868   2.016
 6408SOL    HW220124   6.969   0.855   2.137
 6409SOL     OW20125   5.176   4.490   3.922
 6409SOL    HW120126   5.104   4.432   3.883
 6409SOL    HW220127   5.152   4.586   3.909
 6410SOL     OW20128   1.981   1.114   0.134
 6410SOL    HW120129   2.065   1.168   0.142
 6410SOL    HW220130   1.982   1.043   0.205
 6411SOL     OW20131   0.256   3.000   2.292
 6411SOL    HW120132   0.261   2.953   2.381
 6411SOL    HW220133   0.208   2.941   2.227
 6412SOL     OW20134   3.846   1.107   6.882
 6412SOL    HW120135   3.813   1.191   6.925
 6412SOL    HW220136   3.816   1.105   6.786
 6413SOL     OW20137   4.794   5.995   3.596
 6413SOL    HW120138   4.723   5.927   3.580
 6413SOL    HW220139   4.884   5.950   3.593
 6414SOL     OW20140   2.505   0.419   0.829
 6414SOL    HW120141   2.580   0.376   0.778
 6414SOL    HW220142   2.515   0.398   0.926
 6415SOL     OW20143   0.811   2.326   4.249
 6415SOL    HW120144   0.784   2.284   4.336
 6415SOL    HW220145   0.817   2.425   4.261
 6416SOL     OW20146   2.625   4.928   0.052
 6416SOL    HW120147   2.539   4.959   0.093
 6416SOL    HW220148   2.650   4.988   6.995
 6417SOL     OW20149   4.121   2.818   6.951
 6417SOL    HW120150   4.210   2.780   6.974
 6417SOL    HW220151   4.111   2.909   6.991
 6418SOL     OW20152   5.081   4.354   0.413
 6418SOL    HW120153   4.986   4.361   0.382
 6418SOL    HW220154   5.120   4.268   0.381
 6419SOL     OW20155   1.116   6.544   6.189
 6419SOL    HW120156   1.126   6.584   6.097
 6419SOL    HW220157   1.096   6.617   6.255
 6420SOL     OW20158   2.722   4.673   4.290
 6420SOL    HW120159   2.775   4.758   4.288
 6420SOL    HW220160   2.711   4.638   4.197
 6421SOL     OW20161   4.255   0.711   2.221
 6421SOL    HW120162   4.247   0.753   2.131
 6421SOL    HW220163   4.164   0.695   2.259
 6422SOL     OW20164   6.628   2.644   4.623
 6422SOL    HW120165   6.621   2.581   4.545
 6422SOL    HW220166   6.714   2.695   4.617
 6423SOL     OW20167   1.345   5.012   4.545
 6423SOL    HW120168   1.416   4.949   4.515
 6423SOL    HW220169   1.255   4.970   4.531
 6424SOL     OW20170   6.847   4.391   5.860
 6424SOL    HW120171   6.799   4.474   5.887
 6424SOL    HW220172   6.942   4.396   5.890
 6425SOL     OW20173   6.753   6.224   4.301
 6425SOL    HW120174   6.689   6.214   4.377
 6425SOL    HW220175   6.844   6.195   4.331
 6426SOL     OW20176   4.438   4.993   4.661
 6426SOL    HW120177   4.513   5.014   4.598
 6426SOL    HW220178   4.428   4.894   4.667
 6427SOL     OW20179   3.618   2.891   3.306
 6427SOL    HW120180   3.648   2.915   3.398
 6427SOL    HW220181   3.695   2.896   3.243
 6428SOL     OW20182   5.764   2.655   0.408
 6428SOL    HW120183   5.693   2.723   0.423
 6428SOL    HW220184   5.726   2.563   0.422
 6429SOL     OW20185   2.296   1.151   5.115
 6429SOL    HW120186   2.258   1.149   5.207
 6429SOL    HW220187   2.228   1.116   5.050
 6430SOL     OW20188   5.975   0.952   5.487
 6430SOL    HW120189   5.968   0.867   5.434
 6430SOL    HW220190   6.011   1.024   5.428
 6431SOL     OW20191   3.461   4.903   2.237
 6431SOL    HW120192   3.415   4.962   2.170
 6431SOL    HW220193   3.548   4.871   2.199
 6432SOL     OW20194   5.169   3.503   6.027
 6432SOL    HW120195   5.093   3.445   6.055
 6432SOL    HW220196   5.248   3.446   6.006
 6433SOL     OW20197   3.327   4.698   5.261
 6433SOL    HW120198   3.318   4.602   5.287
 6433SOL    HW220199   3.410   4.711   5.208
 6434SOL     OW20200   5.320   5.213   6.145
 6434SOL    HW120201   5.292   5.252   6.057
 6434SOL    HW220202   5.419   5.225   6.156
 6435SOL     OW20203   4.484   1.620   1.268
 6435SOL    HW120204   4.486   1.610   1.367
 6435SOL    HW220205   4.559   1.567   1.228
 6436SOL     OW20206   6.875   3.360   3.246
 6436SOL    HW120207   6.823   3.301   3.184
 6436SOL    HW220208   6.883   3.316   3.335
 6437SOL     OW20209   1.315   2.201   5.720
 6437SOL    HW120210   1.288   2.122   5.665
 6437SOL    HW220211   1.379   2.258   5.669
 6438SOL     OW20212   0.574   4.970   6.954
 6438SOL    HW120213   0.596   5.024   6.873
 6438SOL    HW220214   0.522   4.889   6.928
 6439SOL     OW20215   5.278   6.633   2.773
 6439SOL    HW120216   5.295   6.539   2.803
 6439SOL    HW220217   5.335   6.696   2.825
 6440SOL     OW20218   3.203   1.177   6.161
 6440SOL    HW120219   3.175   1.128   6.244
 6440SOL    HW220220   3.253   1.260   6.187
 6441SOL     OW20221   6.778   1.813   2.397
 6441SOL    HW120222   6.867   1.854   2.380
 6441SOL    HW220223   6.729   1.802   2.310
 6442SOL     OW20224   2.338   2.038   4.701
 6442SOL    HW120225   2.273   2.107   4.733
 6442SOL    HW220226   2.334   1.958   4.760
 6443SOL     OW20227   3.934   3.108   6.769
 6443SOL    HW120228   3.979   3.129   6.683
 6443SOL    HW220229   4.003   3.083   6.837
 6444SOL     OW20230   6.770   4.514   5.054
 6444SOL    HW120231   6.749   4.472   4.966
 6444SOL    HW220232   6.791   4.443   5.121
 6445SOL     OW20233   2.950   3.556   3.351
 6445SOL    HW120234   3.009   3.480   3.322
 6445SOL    HW220235   2.987   3.642   3.317
 6446SOL     OW20236   1.196   1.614   6.655
 6446SOL    HW120237   1.187   1.519   6.628
 6446SOL    HW220238   1.195   1.672   6.573
 6447SOL     OW20239   5.630   3.542   2.052
 6447SOL    HW120240   5.563   3.508   2.118
 6447SOL    HW220241   5.653   3.470   1.987
 6448SOL     OW20242   3.978   4.564   1.235
 6448SOL    HW120243   3.998   4.520   1.148
 6448SOL    HW220244   3.945   4.496   1.301
 6449SOL     OW20245   3.419   5.036   0.460
 6449SOL    HW120246   3.380   4.990   0.381
 6449SOL    HW220247   3.445   5.130   0.434
 6450SOL     OW20248   6.529   4.581   6.651
 6450SOL    HW120249   6.480   4.652   6.601
 6450SOL    HW220250   6.614   4.558   6.602
 6451SOL     OW20251   3.959   2.977   1.439
 6451SOL    HW120252   3.967   2.892   1.387
 6451SOL    HW220253   4.033   2.982   1.507
 6452SOL     OW20254   3.656   1.978   4.647
 6452SOL    HW120255   3.609   1.890   4.653
 6452SOL    HW220256   3.630   2.024   4.562
 6453SOL     OW20257   2.389   0.549   2.958
 6453SOL    HW120258   2.362   0.458   2.990
 6453SOL    HW220259   2.475   0.542   2.907
 6454SOL     OW20260   5.283   2.676   3.247
 6454SOL    HW120261   5.273   2.743   3.173
 6454SOL    HW220262   5.278   2.584   3.209
 6455SOL     OW20263   6.919   2.861   4.370
 6455SOL    HW120264   7.003   2.915   4.357
 6455SOL    HW220265   6.848   2.894   4.308
 6456SOL     OW20266   5.775   1.527   2.218
 6456SOL    HW120267   5.841   1.521   2.143
 6456SOL    HW220268   5.817   1.492   2.302
 6457SOL     OW20269   3.426   6.659   2.714
 6457SOL    HW120270   3.384   6.575   2.679
 6457SOL    HW220271   3.404   6.735   2.653
 6458SOL     OW20272   0.089   6.702   4.227
 6458SOL    HW120273   0.187   6.710   4.208
 6458SOL    HW220274   0.039   6.690   4.140
 6459SOL     OW20275   0.791   3.287   3.010
 6459SOL    HW120276   0.891   3.277   3.005
 6459SOL    HW220277   0.769   3.377   3.047
 6460SOL     OW20278   0.737   5.570   6.858
 6460SOL    HW120279   0.744   5.628   6.777
 6460SOL    HW220280   0.651   5.520   6.856
 6461SOL     OW20281   1.417   6.588   0.883
 6461SOL    HW120282   1.505   6.581   0.931
 6461SOL    HW220283   1.433   6.603   0.786
 6462SOL     OW20284   1.583   3.593   4.971
 6462SOL    HW120285   1.611   3.672   4.916
 6462SOL    HW220286   1.638   3.514   4.946
 6463SOL     OW20287   4.599   3.135   0.990
 6463SOL    HW120288   4.617   3.201   0.917
 6463SOL    HW220289   4.613   3.180   1.079
 6464SOL     OW20290   0.829   4.045   3.863
 6464SOL    HW120291   0.772   4.067   3.943
 6464SOL    HW220292   0.834   3.945   3.853
 6465SOL     OW20293   3.276   0.938   3.957
 6465SOL    HW120294   3.178   0.958   3.952
 6465SOL    HW220295   3.315   0.943   3.865
 6466SOL     OW20296   6.864   4.726   6.997
 6466SOL    HW120297   6.807   4.808   7.007
 6466SOL    HW220298   6.931   4.723   0.053
 6467SOL     OW20299   1.900   2.403   6.520
 6467SOL    HW120300   1.826   2.394   6.454
 6467SOL    HW220301   1.986   2.376   6.478
 6468SOL     OW20302   2.363   0.524   1.079
 6468SOL    HW120303   2.311   0.582   1.142
 6468SOL    HW220304   2.380   0.436   1.122
 6469SOL     OW20305   1.945   1.185   1.600
 6469SOL    HW120306   1.845   1.179   1.610
 6469SOL    HW220307   1.988   1.108   1.649
 6470SOL     OW20308   6.831   2.059   6.973
 6470SOL    HW120309   6.880   1.973   6.960
 6470SOL    HW220310   6.733   2.044   6.957
 6471SOL     OW20311   0.468   6.346   5.774
 6471SOL    HW120312   0.510   6.425   5.729
 6471SOL    HW220313   0.371   6.340   5.749
 6472SOL     OW20314   6.813   6.225   3.158
 6472SOL    HW120315   6.839   6.311   3.202
 6472SOL    HW220316   6.791   6.242   3.062
 6473SOL     OW20317   2.348   1.440   3.110
 6473SOL    HW120318   2.287   1.516   3.087
 6473SOL    HW220319   2.318   1.398   3.196
 6474SOL     OW20320   3.668   6.143   4.491
 6474SOL    HW120321   3.720   6.228   4.494
 6474SOL    HW220322   3.636   6.126   4.398
 6475SOL     OW20323   5.877   5.742   2.268
 6475SOL    HW120324   5.854   5.797   2.348
 6475SOL    HW220325   5.824   5.774   2.190
 6476SOL     OW20326   3.801   2.536   6.826
 6476SOL    HW120327   3.833   2.530   6.731
 6476SOL    HW220328   3.879   2.533   6.888
 6477SOL     OW20329   0.228   6.274   1.688
 6477SOL    HW120330   0.226   6.205   1.759
 6477SOL    HW220331   0.298   6.343   1.710
 6478SOL     OW20332   2.824   5.977   1.048
 6478SOL    HW120333   2.745   5.933   1.090
 6478SOL    HW220334   2.827   6.073   1.076
 6479SOL     OW20335   4.546   5.863   3.591
 6479SOL    HW120336   4.474   5.851   3.660
 6479SOL    HW220337   4.525   5.943   3.535
 6480SOL     OW20338   4.155   1.322   6.247
 6480SOL    HW120339   4.161   1.268   6.162
 6480SOL    HW220340   4.247   1.343   6.280
 6481SOL     OW20341   3.719   2.961   2.137
 6481SOL    HW120342   3.796   2.939   2.077
 6481SOL    HW220343   3.713   3.060   2.149
 6482SOL     OW20344   5.186   4.107   6.034
 6482SOL    HW120345   5.184   4.083   5.937
 6482SOL    HW220346   5.236   4.193   6.046
 6483SOL     OW20347   2.361   5.812   4.945
 6483SOL    HW120348   2.427   5.763   4.887
 6483SOL    HW220349   2.410   5.882   4.998
 6484SOL     OW20350   3.079   1.231   2.986
 6484SOL    HW120351   3.022   1.156   2.951
 6484SOL    HW220352   3.096   1.298   2.914
 6485SOL     OW20353   2.671   6.104   4.999
 6485SOL    HW120354   2.701   6.049   4.921
 6485SOL    HW220355   2.751   6.140   5.047
 6486SOL     OW20356   0.487   4.925   2.612
 6486SOL    HW120357   0.504   4.832   2.645
 6486SOL    HW220358   0.391   4.935   2.588
 6487SOL     OW20359   6.580   4.726   3.800
 6487SOL    HW120360   6.484   4.706   3.778
 6487SOL    HW220361   6.626   4.764   3.720
 6488SOL     OW20362   3.648   5.428   4.062
 6488SOL    HW120363   3.696   5.340   4.069
 6488SOL    HW220364   3.710   5.497   4.024
 6489SOL     OW20365   5.391   2.949   5.387
 6489SOL    HW120366   5.419   2.874   5.327
 6489SOL    HW220367   5.414   3.036   5.343
 6490SOL     OW20368   2.131   2.309   0.592
 6490SOL    HW120369   2.219   2.338   0.553
 6490SOL    HW220370   2.100   2.226   0.546
 6491SOL     OW20371   1.763   7.014   1.719
 6491SOL    HW120372   1.673   0.002   1.676
 6491SOL    HW220373   1.800   0.088   1.732
 6492SOL     OW20374   4.086   3.286   4.083
 6492SOL    HW120375   4.132   3.343   4.015
 6492SOL    HW220376   4.088   3.332   4.172
 6493SOL     OW20377   1.367   4.454   4.166
 6493SOL    HW120378   1.392   4.476   4.260
 6493SOL    HW220379   1.434   4.392   4.126
 6494SOL     OW20380   6.665   1.094   2.219
 6494SOL    HW120381   6.744   1.136   2.174
 6494SOL    HW220382   6.628   1.022   2.161
 6495SOL     OW20383   6.685   0.066   2.991
 6495SOL    HW120384   6.684   0.076   3.090
 6495SOL    HW220385   6.610   0.005   2.963
 6496SOL     OW20386   3.237   2.130   1.857
 6496SOL    HW120387   3.161   2.096   1.913
 6496SOL    HW220388   3.324   2.102   1.898
 6497SOL     OW20389   0.034   1.176   0.415
 6497SOL    HW120390   6.968   1.219   0.446
 6497SOL    HW220391   0.090   1.150   0.494
 6498SOL     OW20392   2.307   4.175   4.270
 6498SOL    HW120393   2.353   4.117   4.338
 6498SOL    HW220394   2.269   4.256   4.316
 6499SOL     OW20395   4.995   2.683   3.246
 6499SOL    HW120396   4.943   2.613   3.295
 6499SOL    HW220397   5.074   2.710   3.301
 6500SOL     OW20398   1.409   3.714   3.395
 6500SOL    HW120399   1.437   3.806   3.368
 6500SOL    HW220400   1.418   3.704   3.494
 6501SOL     OW20401   5.790   2.026   2.980
 6501SOL    HW120402   5.790   1.944   2.924
 6501SOL    HW220403   5.703   2.075   2.969
 6502SOL     OW20404   0.088   3.882   1.974
 6502SOL    HW120405   0.067   3.879   1.876
 6502SOL    HW220406   0.031   3.816   2.023
 6503SOL     OW20407   0.213   3.391   5.854
 6503SOL    HW120408   0.289   3.351   5.803
 6503SOL    HW220409   0.238   3.484   5.883
 6504SOL     OW20410   3.920   6.729   6.273
 6504SOL    HW120411   3.977   6.664   6.323
 6504SOL    HW220412   3.875   6.791   6.338
 6505SOL     OW20413   0.400   6.204   0.361
 6505SOL    HW120414   0.321   6.208   0.300
 6505SOL    HW220415   0.433   6.296   0.379
 6506SOL     OW20416   0.759   3.980   2.357
 6506SOL    HW120417   0.662   3.956   2.363
 6506SOL    HW220418   0.815   3.899   2.374
 6507SOL     OW20419   4.357   5.225   0.575
 6507SOL    HW120420   4.266   5.206   0.613
 6507SOL    HW220421   4.384   5.317   0.600
 6508SOL     OW20422   0.275   0.181   3.728
 6508SOL    HW120423   0.254   0.089   3.695
 6508SOL    HW220424   0.282   0.180   3.828
 6509SOL     OW20425   2.448   1.626   6.906
 6509SOL    HW120426   2.434   1.721   6.879
 6509SOL    HW220427   2.541   1.598   6.884
 6510SOL     OW20428   3.228   6.168   5.016
 6510SOL    HW120429   3.325   6.144   5.017
 6510SOL    HW220430   3.187   6.143   4.929
 6511SOL     OW20431   3.008   2.720   0.615
 6511SOL    HW120432   3.075   2.753   0.681
 6511SOL    HW220433   3.053   2.659   0.550
 6512SOL     OW20434   4.704   1.409   0.455
 6512SOL    HW120435   4.766   1.330   0.452
 6512SOL    HW220436   4.682   1.437   0.362
 6513SOL     OW20437   2.517   4.545   2.754
 6513SOL    HW120438   2.433   4.496   2.777
 6513SOL    HW220439   2.514   4.571   2.657
 6514SOL     OW20440   5.540   6.599   5.822
 6514SOL    HW120441   5.441   6.615   5.817
 6514SOL    HW220442   5.587   6.671   5.770
 6515SOL     OW20443   1.122   5.045   2.979
 6515SOL    HW120444   1.031   5.005   2.970
 6515SOL    HW220445   1.155   5.075   2.890
 6516SOL     OW20446   6.719   2.829   2.338
 6516SOL    HW120447   6.782   2.809   2.413
 6516SOL    HW220448   6.697   2.744   2.289
 6517SOL     OW20449   6.555   3.268   0.395
 6517SOL    HW120450   6.615   3.346   0.408
 6517SOL    HW220451   6.539   3.253   0.298
 6518SOL     OW20452   0.629   1.000   2.108
 6518SOL    HW120453   0.581   1.085   2.131
 6518SOL    HW220454   0.586   0.923   2.155
 6519SOL     OW20455   1.243   0.689   3.471
 6519SOL    HW120456   1.298   0.772   3.464
 6519SOL    HW220457   1.157   0.701   3.421
 6520SOL     OW20458   0.387   5.564   0.622
 6520SOL    HW120459   0.397   5.610   0.710
 6520SOL    HW220460   0.474   5.523   0.595
 6521SOL     OW20461   1.928   4.672   3.996
 6521SOL    HW120462   1.861   4.682   3.923
 6521SOL    HW220463   1.993   4.600   3.972
 6522SOL     OW20464   2.516   2.743   5.298
 6522SOL    HW120465   2.519   2.833   5.256
 6522SOL    HW220466   2.426   2.727   5.337
 6523SOL     OW20467   6.120   6.491   0.450
 6523SOL    HW120468   6.044   6.441   0.493
 6523SOL    HW220469   6.206   6.461   0.490
 6524SOL     OW20470   2.898   3.071   1.274
 6524SOL    HW120471   2.911   3.074   1.373
 6524SOL    HW220472   2.848   2.988   1.249
 6525SOL     OW20473   0.990   5.089   3.425
 6525SOL    HW120474   1.057   5.121   3.492
 6525SOL    HW220475   1.013   5.128   3.335
 6526SOL     OW20476   0.872   5.834   0.641
 6526SOL    HW120477   0.909   5.913   0.689
 6526SOL    HW220478   0.773   5.846   0.629
 6527SOL     OW20479   5.836   1.640   0.737
 6527SOL    HW120480   5.923   1.681   0.767
 6527SOL    HW220481   5.761   1.682   0.788
 6528SOL     OW20482   4.307   6.426   0.120
 6528SOL    HW120483   4.359   6.433   0.206
 6528SOL    HW220484   4.326   6.338   0.077
 6529SOL     OW20485   5.127   6.948   2.211
 6529SOL    HW120486   5.124   0.030   2.208
 6529SOL    HW220487   5.222   6.917   2.207
 6530SOL     OW20488   0.597   2.719   3.168
 6530SOL    HW120489   0.525   2.692   3.104
 6530SOL    HW220490   0.574   2.807   3.210
 6531SOL     OW20491   3.739   3.717   4.926
 6531SOL    HW120492   3.647   3.729   4.890
 6531SOL    HW220493   3.736   3.657   5.006
 6532SOL     OW20494   1.572   6.664   0.298
 6532SOL    HW120495   1.579   6.583   0.240
 6532SOL    HW220496   1.476   6.683   0.318
 6533SOL     OW20497   4.872   4.557   1.886
 6533SOL    HW120498   4.850   4.490   1.815
 6533SOL    HW220499   4.947   4.523   1.942
 6534SOL     OW20500   6.942   4.653   3.136
 6534SOL    HW120501   6.941   4.621   3.041
 6534SOL    HW220502   7.003   4.731   3.145
 6535SOL     OW20503   4.964   3.790   5.498
 6535SOL    HW120504   4.972   3.751   5.406
 6535SOL    HW220505   5.020   3.873   5.505
 6536SOL     OW20506   0.840   4.689   5.385
 6536SOL    HW120507   0.751   4.734   5.391
 6536SOL    HW220508   0.903   4.747   5.335
 6537SOL     OW20509   6.059   5.412   3.787
 6537SOL    HW120510   5.986   5.344   3.800
 6537SOL    HW220511   6.027   5.500   3.821
 6538SOL     OW20512   1.156   2.511   4.679
 6538SOL    HW120513   1.114   2.500   4.769
 6538SOL    HW220514   1.085   2.527   4.610
 6539SOL     OW20515   4.786   6.726   6.309
 6539SOL    HW120516   4.737   6.779   6.240
 6539SOL    HW220517   4.806   6.786   6.388
 6540SOL     OW20518   6.930   3.011   5.361
 6540SOL    HW120519   6.912   2.941   5.292
 6540SOL    HW220520   6.972   2.967   5.441
 6541SOL     OW20521   5.046   1.914   5.670
 6541SOL    HW120522   5.124   1.976   5.662
 6541SOL    HW220523   5.060   1.833   5.613
 6542SOL     OW20524   1.259   3.753   2.806
 6542SOL    HW120525   1.197   3.723   2.734
 6542SOL    HW220526   1.239   3.847   2.831
 6543SOL     OW20527   3.982   1.427   4.905
 6543SOL    HW120528   4.051   1.492   4.873
 6543SOL    HW220529   4.024   1.336   4.914
 6544SOL     OW20530   0.581   7.017   0.594
 6544SOL    HW120531   0.532   0.062   0.654
 6544SOL    HW220532   0.516   6.964   0.541
 6545SOL     OW20533   4.847   6.652   1.474
 6545SOL    HW120534   4.748   6.648   1.481
 6545SOL    HW220535   4.876   6.619   1.384
 6546SOL     OW20536   5.434   4.393   6.357
 6546SOL    HW120537   5.476   4.470   6.405
 6546SOL    HW220538   5.492   4.367   6.280
 6547SOL     OW20539   0.712   6.305   5.558
 6547SOL    HW120540   0.644   6.347   5.498
 6547SOL    HW220541   0.666   6.237   5.617
 6548SOL     OW20542   0.090   1.150   6.000
 6548SOL    HW120543   0.040   1.162   5.914
 6548SOL    HW220544   0.143   1.065   5.996
 6549SOL     OW20545   4.204   1.517   2.705
 6549SOL    HW120546   4.267   1.503   2.781
 6549SOL    HW220547   4.134   1.445   2.705
 6550SOL     OW20548   6.008   6.329   2.966
 6550SOL    HW120549   5.974   6.333   3.060
 6550SOL    HW220550   5.972   6.406   2.914
 6551SOL     OW20551   2.619   4.028   0.892
 6551SOL    HW120552   2.585   3.945   0.937
 6551SOL    HW220553   2.719   4.030   0.898
 6552SOL     OW20554   1.857   5.032   6.990
 6552SOL    HW120555   1.844   5.130   7.008
 6552SOL    HW220556   1.773   4.994   6.952
 6553SOL     OW20557   0.721   1.692   3.367
 6553SOL    HW120558   0.803   1.640   3.392
 6553SOL    HW220559   0.748   1.781   3.331
 6554SOL     OW20560   1.520   2.342   4.352
 6554SOL    HW120561   1.597   2.363   4.292
 6554SOL    HW220562   1.548   2.274   4.420
 6555SOL     OW20563   0.216   4.062   3.789
 6555SOL    HW120564   0.177   4.024   3.873
 6555SOL    HW220565   0.203   3.997   3.714
 6556SOL     OW20566   4.800   2.957   2.722
 6556SOL    HW120567   4.772   2.982   2.814
 6556SOL    HW220568   4.755   2.872   2.695
 6557SOL     OW20569   1.883   0.644   2.341
 6557SOL    HW120570   1.786   0.653   2.318
 6557SOL    HW220571   1.939   0.688   2.271
 6558SOL     OW20572   5.166   6.590   0.099
 6558SOL    HW120573   5.238   6.618   0.162
 6558SOL    HW220574   5.169   6.491   0.087
 6559SOL     OW20575   6.626   2.963   6.223
 6559SOL    HW120576   6.670   2.950   6.134
 6559SOL    HW220577   6.529   2.982   6.209
 6560SOL     OW20578   6.695   5.013   0.114
 6560SOL    HW120579   6.690   4.941   0.182
 6560SOL    HW220580   6.790   5.039   0.099
 6561SOL     OW20581   2.904   4.336   0.406
 6561SOL    HW120582   2.892   4.276   0.486
 6561SOL    HW220583   3.001   4.342   0.384
 6562SOL     OW20584   5.391   2.703   1.765
 6562SOL    HW120585   5.306   2.751   1.747
 6562SOL    HW220586   5.451   2.711   1.686
 6563SOL     OW20587   6.022   5.267   5.263
 6563SOL    HW120588   5.966   5.348   5.246
 6563SOL    HW220589   5.982   5.188   5.216
 6564SOL     OW20590   5.776   3.197   2.608
 6564SOL    HW120591   5.773   3.116   2.667
 6564SOL    HW220592   5.694   3.201   2.552
 6565SOL     OW20593   5.430   6.655   3.061
 6565SOL    HW120594   5.446   6.701   2.974
 6565SOL    HW220595   5.401   6.722   3.129
 6566SOL     OW20596   5.188   5.637   3.767
 6566SOL    HW120597   5.288   5.648   3.761
 6566SOL    HW220598   5.157   5.582   3.690
 6567SOL     OW20599   3.930   0.600   2.140
 6567SOL    HW120600   3.842   0.566   2.174
 6567SOL    HW220601   4.005   0.548   2.181
 6568SOL     OW20602   4.299   1.386   0.958
 6568SOL    HW120603   4.296   1.480   0.992
 6568SOL    HW220604   4.208   1.360   0.924
 6569SOL     OW20605   0.886   4.556   4.284
 6569SOL    HW120606   0.935   4.555   4.197
 6569SOL    HW220607   0.869   4.651   4.311
 6570SOL     OW20608   4.376   6.956   2.219
 6570SOL    HW120609   4.396   6.926   2.126
 6570SOL    HW220610   4.460   6.961   2.271
 6571SOL     OW20611   2.884   6.153   3.356
 6571SOL    HW120612   2.914   6.064   3.321
 6571SOL    HW220613   2.793   6.174   3.319
 6572SOL     OW20614   1.744   5.846   3.631
 6572SOL    HW120615   1.667   5.897   3.669
 6572SOL    HW220616   1.764   5.878   3.539
 6573SOL     OW20617   0.777   2.140   3.175
 6573SOL    HW120618   0.776   2.239   3.158
 6573SOL    HW220619   0.683   2.108   3.186
 6574SOL     OW20620   1.571   4.444   2.172
 6574SOL    HW120621   1.592   4.402   2.084
 6574SOL    HW220622   1.551   4.541   2.159
 6575SOL     OW20623   0.486   1.383   3.458
 6575SOL    HW120624   0.477   1.350   3.364
 6575SOL    HW220625   0.449   1.476   3.464
 6576SOL     OW20626   4.584   6.696   1.504
 6576SOL    HW120627   4.511   6.639   1.464
 6576SOL    HW220628   4.577   6.788   1.467
 6577SOL     OW20629   3.328   1.399   3.966
 6577SOL    HW120630   3.327   1.363   4.059
 6577SOL    HW220631   3.258   1.352   3.912
 6578SOL     OW20632   1.009   4.880   0.476
 6578SOL    HW120633   1.032   4.788   0.444
 6578SOL    HW220634   0.918   4.879   0.517
 6579SOL     OW20635   0.443   0.888   4.090
 6579SOL    HW120636   0.450   0.912   3.993
 6579SOL    HW220637   0.369   0.941   4.132
 6580SOL     OW20638   2.266   1.834   0.659
 6580SOL    HW120639   2.166   1.845   0.662
 6580SOL    HW220640   2.289   1.751   0.609
 6581SOL     OW20641   0.694   2.281   0.855
 6581SOL    HW120642   0.701   2.315   0.762
 6581SOL    HW220643   0.641   2.196   0.856
 6582SOL     OW20644   5.863   1.472   3.115
 6582SOL    HW120645   5.825   1.475   3.023
 6582SOL    HW220646   5.836   1.386   3.159
 6583SOL     OW20647   3.166   4.340   0.304
 6583SOL    HW120648   3.202   4.433   0.303
 6583SOL    HW220649   3.226   4.280   0.252
 6584SOL     OW20650   4.396   2.183   6.371
 6584SOL    HW120651   4.428   2.235   6.450
 6584SOL    HW220652   4.307   2.143   6.392
 6585SOL     OW20653   5.786   0.080   2.216
 6585SOL    HW120654   5.817   0.099   2.310
 6585SOL    HW220655   5.822   0.149   2.154
 6586SOL     OW20656   6.859   1.269   6.645
 6586SOL    HW120657   6.957   1.250   6.647
 6586SOL    HW220658   6.842   1.364   6.673
 6587SOL     OW20659   2.278   4.765   5.003
 6587SOL    HW120660   2.249   4.795   5.094
 6587SOL    HW220661   2.330   4.679   5.012
 6588SOL     OW20662   0.270   2.287   0.468
 6588SOL    HW120663   0.306   2.217   0.529
 6588SOL    HW220664   0.309   2.274   0.377
 6589SOL     OW20665   0.078   6.755   2.338
 6589SOL    HW120666   0.049   6.676   2.392
 6589SOL    HW220667   7.016   6.797   2.296
 6590SOL     OW20668   0.935   6.401   4.190
 6590SOL    HW120669   0.995   6.462   4.138
 6590SOL    HW220670   0.986   6.318   4.213
 6591SOL     OW20671   6.420   3.956   3.598
 6591SOL    HW120672   6.435   3.857   3.601
 6591SOL    HW220673   6.343   3.976   3.537
 6592SOL     OW20674   6.244   6.657   4.057
 6592SOL    HW120675   6.208   6.615   3.974
 6592SOL    HW220676   6.208   6.610   4.137
 6593SOL     OW20677   1.757   1.082   1.850
 6593SOL    HW120678   1.820   1.145   1.894
 6593SOL    HW220679   1.676   1.071   1.907
 6594SOL     OW20680   4.902   6.968   6.922
 6594SOL    HW120681   4.983   6.924   6.961
 6594SOL    HW220682   4.826   6.904   6.922
 6595SOL     OW20683   0.794   1.860   5.173
 6595SOL    HW120684   0.883   1.833   5.136
 6595SOL    HW220685   0.807   1.931   5.242
 6596SOL     OW20686   5.130   0.802   2.615
 6596SOL    HW120687   5.100   0.796   2.520
 6596SOL    HW220688   5.186   0.722   2.638
 6597SOL     OW20689   0.483   4.506   1.171
 6597SOL    HW120690   0.469   4.479   1.266
 6597SOL    HW220691   0.402   4.481   1.118
 6598SOL     OW20692   2.039   4.877   3.702
 6598SOL    HW120693   2.070   4.783   3.692
 6598SOL    HW220694   1.939   4.879   3.702
 6599SOL     OW20695   0.209   5.689   5.941
 6599SOL    HW120696   0.264   5.770   5.920
 6599SOL    HW220697   0.257   5.607   5.911
 6600SOL     OW20698   4.564   0.069   5.525
 6600SOL    HW120699   4.617   0.013   5.461
 6600SOL    HW220700   4.608   0.158   5.535
 6601SOL     OW20701   1.500   2.207   1.830
 6601SOL    HW120702   1.510   2.141   1.755
 6601SOL    HW220703   1.590   2.244   1.854
 6602SOL     OW20704   0.349   5.596   1.750
 6602SOL    HW120705   0.277   5.535   1.781
 6602SOL    HW220706   0.318   5.646   1.669
 6603SOL     OW20707   0.100   3.873   2.793
 6603SOL    HW120708   0.003   3.877   2.817
 6603SOL    HW220709   0.112   3.815   2.713
 6604SOL     OW20710   1.691   5.695   3.112
 6604SOL    HW120711   1.653   5.759   3.179
 6604SOL    HW220712   1.723   5.613   3.158
 6605SOL     OW20713   0.224   5.861   1.092
 6605SOL    HW120714   0.259   5.839   1.001
 6605SOL    HW220715   0.192   5.956   1.094
 6606SOL     OW20716   1.715   3.005   2.726
 6606SOL    HW120717   1.757   3.066   2.659
 6606SOL    HW220718   1.616   3.005   2.714
 6607SOL     OW20719   5.875   3.301   3.655
 6607SOL    HW120720   5.814   3.340   3.724
 6607SOL    HW220721   5.839   3.212   3.625
 6608SOL     OW20722   1.634   6.737   5.904
 6608SOL    HW120723   1.632   6.669   5.830
 6608SOL    HW220724   1.670   6.695   5.987
 6609SOL     OW20725   4.161   1.629   6.836
 6609SOL    HW120726   4.217   1.646   6.918
 6609SOL    HW220727   4.213   1.655   6.755
 6610SOL     OW20728   2.745   5.470   1.053
 6610SOL    HW120729   2.771   5.455   1.148
 6610SOL    HW220730   2.708   5.562   1.043
 6611SOL     OW20731   2.912   1.803   4.799
 6611SOL    HW120732   2.927   1.886   4.852
 6611SOL    HW220733   2.931   1.723   4.856
 6612SOL     OW20734   0.250   0.486   6.623
 6612SOL    HW120735   0.171   0.466   6.681
 6612SOL    HW220736   0.230   0.564   6.564
 6613SOL     OW20737   4.247   0.126   0.740
 6613SOL    HW120738   4.321   0.059   0.734
 6613SOL    HW220739   4.268   0.204   0.682
 6614SOL     OW20740   4.038   5.209   0.681
 6614SOL    HW120741   3.996   5.233   0.594
 6614SOL    HW220742   3.990   5.132   0.722
 6615SOL     OW20743   4.014   5.624   5.914
 6615SOL    HW120744   3.982   5.629   5.819
 6615SOL    HW220745   4.054   5.534   5.930
 6616SOL     OW20746   4.100   1.266   0.051
 6616SOL    HW120747   4.057   1.317   6.994
 6616SOL    HW220748   4.044   1.186   0.073
 6617SOL     OW20749   3.637   0.820   3.906
 6617SOL    HW120750   3.594   0.766   3.977
 6617SOL    HW220751   3.682   0.899   3.947
 6618SOL     OW20752   6.018   2.481   4.147
 6618SOL    HW120753   6.000   2.404   4.086
 6618SOL    HW220754   5.946   2.549   4.137
 6619SOL     OW20755   5.218   5.527   4.028
 6619SOL    HW120756   5.219   5.554   3.932
 6619SOL    HW220757   5.176   5.599   4.083
 6620SOL     OW20758   1.267   2.779   3.102
 6620SOL    HW120759   1.315   2.697   3.134
 6620SOL    HW220760   1.333   2.854   3.093
 6621SOL     OW20761   3.378   3.734   4.514
 6621SOL    HW120762   3.278   3.723   4.520
 6621SOL    HW220763   3.407   3.721   4.419
 6622SOL     OW20764   0.411   5.356   0.978
 6622SOL    HW120765   0.453   5.285   1.035
 6622SOL    HW220766   0.314   5.364   1.001
 6623SOL     OW20767   3.064   3.997   4.658
 6623SOL    HW120768   3.118   4.027   4.736
 6623SOL    HW220769   3.003   3.923   4.687
 6624SOL     OW20770   2.559   2.090   2.640
 6624SOL    HW120771   2.606   2.012   2.682
 6624SOL    HW220772   2.609   2.174   2.662
 6625SOL     OW20773   6.426   4.002   5.463
 6625SOL    HW120774   6.474   4.090   5.469
 6625SOL    HW220775   6.393   3.989   5.369
 6626SOL     OW20776   3.083   6.067   5.642
 6626SOL    HW120777   3.177   6.055   5.676
 6626SOL    HW220778   3.037   5.978   5.644
 6627SOL     OW20779   2.144   6.029   3.987
 6627SOL    HW120780   2.056   5.998   3.950
 6627SOL    HW220781   2.130   6.070   4.077
 6628SOL     OW20782   3.547   6.036   3.593
 6628SOL    HW120783   3.511   6.026   3.685
 6628SOL    HW220784   3.498   5.976   3.530
 6629SOL     OW20785   5.322   5.763   5.904
 6629SOL    HW120786   5.253   5.831   5.928
 6629SOL    HW220787   5.299   5.721   5.816
 6630SOL     OW20788   1.444   0.954   0.313
 6630SOL    HW120789   1.369   1.000   0.362
 6630SOL    HW220790   1.531   0.996   0.338
 6631SOL     OW20791   1.984   3.323   5.733
 6631SOL    HW120792   1.998   3.375   5.649
 6631SOL    HW220793   1.969   3.386   5.809
 6632SOL     OW20794   1.423   0.043   0.240
 6632SOL    HW120795   1.505   0.090   0.210
 6632SOL    HW220796   1.419   6.970   0.198
 6633SOL     OW20797   3.965   5.313   6.358
 6633SOL    HW120798   4.005   5.327   6.267
 6633SOL    HW220799   4.003   5.380   6.422
 6634SOL     OW20800   3.666   2.081   3.874
 6634SOL    HW120801   3.673   1.987   3.908
 6634SOL    HW220802   3.570   2.102   3.853
 6635SOL     OW20803   4.836   5.241   4.899
 6635SOL    HW120804   4.899   5.310   4.862
 6635SOL    HW220805   4.746   5.252   4.856
 6636SOL     OW20806   4.479   0.841   0.210
 6636SOL    HW120807   4.422   0.901   0.153
 6636SOL    HW220808   4.420   0.792   0.275
 6637SOL     OW20809   0.354   2.081   0.645
 6637SOL    HW120810   0.265   2.058   0.683
 6637SOL    HW220811   0.422   2.085   0.718
 6638SOL     OW20812   3.190   4.032   3.938
 6638SOL    HW120813   3.170   4.027   3.840
 6638SOL    HW220814   3.126   3.975   3.988
 6639SOL     OW20815   5.094   2.872   0.636
 6639SOL    HW120816   5.181   2.900   0.675
 6639SOL    HW220817   5.020   2.893   0.700
 6640SOL     OW20818   1.493   4.369   5.245
 6640SOL    HW120819   1.559   4.423   5.297
 6640SOL    HW220820   1.538   4.289   5.207
 6641SOL     OW20821   5.960   2.220   0.874
 6641SOL    HW120822   5.954   2.312   0.837
 6641SOL    HW220823   6.037   2.172   0.832
 6642SOL     OW20824   1.638   5.920   0.115
 6642SOL    HW120825   1.707   5.954   0.180
 6642SOL    HW220826   1.551   5.909   0.162
 6643SOL     OW20827   3.328   6.028   6.112
 6643SOL    HW120828   3.375   5.995   6.030
 6643SOL    HW220829   3.389   6.021   6.191
 6644SOL     OW20830   1.818   6.168   3.749
 6644SOL    HW120831   1.882   6.194   3.676
 6644SOL    HW220832   1.852   6.085   3.794
 6645SOL     OW20833   5.793   3.060   6.417
 6645SOL    HW120834   5.720   3.039   6.482
 6645SOL    HW220835   5.754   3.109   6.339
 6646SOL     OW20836   3.917   6.843   5.823
 6646SOL    HW120837   3.877   6.902   5.893
 6646SOL    HW220838   4.006   6.879   5.795
 6647SOL     OW20839   4.475   5.151   1.147
 6647SOL    HW120840   4.472   5.052   1.164
 6647SOL    HW220841   4.560   5.188   1.184
 6648SOL     OW20842   3.115   6.262   5.250
 6648SOL    HW120843   3.184   6.239   5.319
 6648SOL    HW220844   3.152   6.245   5.158
 6649SOL     OW20845   5.010   2.705   6.344
 6649SOL    HW120846   4.929   2.749   6.305
 6649SOL    HW220847   5.075   2.684   6.271
 6650SOL     OW20848   1.759   1.472   5.373
 6650SOL    HW120849   1.823   1.541   5.339
 6650SOL    HW220850   1.753   1.478   5.473
 6651SOL     OW20851   6.805   1.691   5.702
 6651SOL    HW120852   6.711   1.679   5.734
 6651SOL    HW220853   6.842   1.603   5.671
 6652SOL     OW20854   6.733   4.495   0.022
 6652SOL    HW120855   6.776   4.571   6.992
 6652SOL    HW220856   6.636   4.515   0.036
 6653SOL     OW20857   5.833   4.810   0.114
 6653SOL    HW120858   5.912   4.869   0.098
 6653SOL    HW220859   5.818   4.800   0.212
 6654SOL     OW20860   6.408   3.685   3.602
 6654SOL    HW120861   6.317   3.663   3.565
 6654SOL    HW220862   6.464   3.602   3.602
 6655SOL     OW20863   0.039   5.710   1.933
 6655SOL    HW120864   0.125   5.679   1.972
 6655SOL    HW220865   0.057   5.766   1.852
 6656SOL     OW20866   4.280   1.499   3.628
 6656SOL    HW120867   4.349   1.433   3.659
 6656SOL    HW220868   4.283   1.580   3.686
 6657SOL     OW20869   5.428   1.937   3.945
 6657SOL    HW120870   5.330   1.957   3.946
 6657SOL    HW220871   5.453   1.898   3.856
 6658SOL     OW20872   6.772   5.799   5.520
 6658SOL    HW120873   6.744   5.804   5.424
 6658SOL    HW220874   6.809   5.708   5.540
 6659SOL     OW20875   0.893   4.850   1.390
 6659SOL    HW120876   0.955   4.928   1.380
 6659SOL    HW220877   0.808   4.868   1.342
 6660SOL     OW20878   6.758   6.821   4.499
 6660SOL    HW120879   6.764   6.747   4.567
 6660SOL    HW220880   6.661   6.838   4.479
 6661SOL     OW20881   4.100   5.685   3.891
 6661SOL    HW120882   4.125   5.700   3.795
 6661SOL    HW220883   4.121   5.766   3.945
 6662SOL     OW20884   3.903   6.809   2.073
 6662SOL    HW120885   3.968   6.747   2.117
 6662SOL    HW220886   3.952   6.886   2.033
 6663SOL     OW20887   0.806   4.446   5.888
 6663SOL    HW120888   0.754   4.409   5.811
 6663SOL    HW220889   0.762   4.529   5.921
 6664SOL     OW20890   2.582   0.343   1.089
 6664SOL    HW120891   2.637   0.410   1.138
 6664SOL    HW220892   2.542   0.278   1.154
 6665SOL     OW20893   2.661   0.799   6.643
 6665SOL    HW120894   2.677   0.821   6.739
 6665SOL    HW220895   2.589   0.859   6.607
 6666SOL     OW20896   3.795   6.115   5.159
 6666SOL    HW120897   3.881   6.071   5.136
 6666SOL    HW220898   3.724   6.085   5.095
 6667SOL     OW20899   1.106   5.877   6.522
 6667SOL    HW120900   1.193   5.839   6.489
 6667SOL    HW220901   1.112   5.891   6.620
 6668SOL     OW20902   0.123   4.197   0.391
 6668SOL    HW120903   0.111   4.275   0.453
 6668SOL    HW220904   0.038   4.181   0.340
 6669SOL     OW20905   1.398   1.972   2.723
 6669SOL    HW120906   1.314   2.016   2.691
 6669SOL    HW220907   1.449   2.035   2.781
 6670SOL     OW20908   3.502   2.821   6.945
 6670SOL    HW120909   3.503   2.908   6.994
 6670SOL    HW220910   3.573   2.821   6.875
 6671SOL     OW20911   4.477   4.828   0.055
 6671SOL    HW120912   4.531   4.836   0.139
 6671SOL    HW220913   4.381   4.849   0.076
 6672SOL     OW20914   1.292   2.280   1.640
 6672SOL    HW120915   1.362   2.292   1.711
 6672SOL    HW220916   1.202   2.272   1.682
 6673SOL     OW20917   6.460   2.838   4.130
 6673SOL    HW120918   6.485   2.882   4.216
 6673SOL    HW220919   6.365   2.807   4.135
 6674SOL     OW20920   0.573   1.418   0.543
 6674SOL    HW120921   0.617   1.340   0.497
 6674SOL    HW220922   0.478   1.394   0.564
 6675SOL     OW20923   4.622   0.580   6.643
 6675SOL    HW120924   4.668   0.666   6.622
 6675SOL    HW220925   4.594   0.581   6.739
 6676SOL     OW20926   0.687   4.052   4.215
 6676SOL    HW120927   0.644   4.018   4.299
 6676SOL    HW220928   0.643   4.137   4.186
 6677SOL     OW20929   0.665   1.570   6.088
 6677SOL    HW120930   0.715   1.623   6.019
 6677SOL    HW220931   0.573   1.551   6.055
 6678SOL     OW20932   2.560   4.160   6.358
 6678SOL    HW120933   2.520   4.249   6.334
 6678SOL    HW220934   2.603   4.120   6.277
 6679SOL     OW20935   1.562   0.633   3.621
 6679SOL    HW120936   1.496   0.689   3.670
 6679SOL    HW220937   1.544   0.536   3.640
 6680SOL     OW20938   6.592   6.190   1.284
 6680SOL    HW120939   6.585   6.217   1.381
 6680SOL    HW220940   6.557   6.264   1.227
 6681SOL     OW20941   3.249   5.905   1.480
 6681SOL    HW120942   3.192   5.829   1.450
 6681SOL    HW220943   3.269   5.965   1.403
 6682SOL     OW20944   3.288   5.708   6.103
 6682SOL    HW120945   3.301   5.802   6.135
 6682SOL    HW220946   3.262   5.708   6.006
 6683SOL     OW20947   0.178   4.737   6.259
 6683SOL    HW120948   0.201   4.826   6.300
 6683SOL    HW220949   0.092   4.705   6.298
 6684SOL     OW20950   3.221   6.144   0.072
 6684SOL    HW120951   3.138   6.195   0.091
 6684SOL    HW220952   3.218   6.056   0.119
 6685SOL     OW20953   5.408   3.023   0.275
 6685SOL    HW120954   5.421   3.120   0.255
 6685SOL    HW220955   5.405   2.972   0.189
 6686SOL     OW20956   5.140   5.321   4.986
 6686SOL    HW120957   5.162   5.230   5.021
 6686SOL    HW220958   5.214   5.353   4.927
 6687SOL     OW20959   6.683   1.640   1.604
 6687SOL    HW120960   6.671   1.683   1.515
 6687SOL    HW220961   6.757   1.685   1.654
 6688SOL     OW20962   4.453   4.895   0.987
 6688SOL    HW120963   4.527   4.962   0.982
 6688SOL    HW220964   4.489   4.803   0.971
 6689SOL     OW20965   2.595   4.498   5.626
 6689SOL    HW120966   2.670   4.542   5.576
 6689SOL    HW220967   2.548   4.567   5.681
 6690SOL     OW20968   0.603   0.547   6.212
 6690SOL    HW120969   0.679   0.515   6.269
 6690SOL    HW220970   0.522   0.491   6.230
 6691SOL     OW20971   3.119   2.051   2.373
 6691SOL    HW120972   3.052   2.106   2.323
 6691SOL    HW220973   3.115   2.075   2.470
 6692SOL     OW20974   4.219   5.426   2.584
 6692SOL    HW120975   4.250   5.506   2.533
 6692SOL    HW220976   4.132   5.445   2.628
 6693SOL     OW20977   3.144   1.669   5.219
 6693SOL    HW120978   3.218   1.681   5.152
 6693SOL    HW220979   3.173   1.603   5.288
 6694SOL     OW20980   3.651   4.174   1.442
 6694SOL    HW120981   3.591   4.120   1.501
 6694SOL    HW220982   3.679   4.119   1.364
 6695SOL     OW20983   2.612   1.864   0.761
 6695SOL    HW120984   2.613   1.963   0.778
 6695SOL    HW220985   2.599   1.847   0.664
 6696SOL     OW20986   3.878   3.118   4.149
 6696SOL    HW120987   3.961   3.169   4.126
 6696SOL    HW220988   3.859   3.051   4.077
 6697SOL     OW20989   4.355   2.006   1.975
 6697SOL    HW120990   4.283   1.982   1.910
 6697SOL    HW220991   4.326   2.085   2.029
 6698SOL     OW20992   3.279   4.280   1.604
 6698SOL    HW120993   3.287   4.184   1.630
 6698SOL    HW220994   3.361   4.329   1.634
 6699SOL     OW20995   1.248   3.880   5.500
 6699SOL    HW120996   1.161   3.863   5.545
 6699SOL    HW220997   1.319   3.823   5.542
 6700SOL     OW20998   5.561   0.429   0.633
 6700SOL    HW120999   5.649   0.399   0.670
 6700SOL    HW221000   5.522   0.356   0.577
 6701SOL     OW21001   6.240   0.145   1.613
 6701SOL    HW121002   6.333   0.182   1.622
 6701SOL    HW221003   6.244   0.046   1.606
 6702SOL     OW21004   3.461   3.150   1.002
 6702SOL    HW121005   3.423   3.140   0.910
 6702SOL    HW221006   3.387   3.171   1.066
 6703SOL     OW21007   6.831   1.340   0.501
 6703SOL    HW121008   6.778   1.350   0.417
 6703SOL    HW221009   6.769   1.332   0.579
 6704SOL     OW21010   3.435   6.639   5.905
 6704SOL    HW121011   3.400   6.572   5.840
 6704SOL    HW221012   3.530   6.662   5.881
 6705SOL     OW21013   0.221   4.309   2.447
 6705SOL    HW121014   0.216   4.407   2.461
 6705SOL    HW221015   0.310   4.285   2.407
 6706SOL     OW21016   0.138   6.657   1.537
 6706SOL    HW121017   0.086   6.573   1.523
 6706SOL    HW221018   0.140   6.709   1.451
 6707SOL     OW21019   5.073   1.126   2.229
 6707SOL    HW121020   5.121   1.140   2.143
 6707SOL    HW221021   5.138   1.135   2.305
 6708SOL     OW21022   0.905   3.806   0.471
 6708SOL    HW121023   0.857   3.872   0.528
 6708SOL    HW221024   0.969   3.754   0.527
 6709SOL     OW21025   2.391   4.274   2.258
 6709SOL    HW121026   2.338   4.263   2.174
 6709SOL    HW221027   2.483   4.307   2.235
 6710SOL     OW21028   4.644   1.456   1.132
 6710SOL    HW121029   4.740   1.430   1.138
 6710SOL    HW221030   4.626   1.499   1.044
 6711SOL     OW21031   2.949   6.071   6.392
 6711SOL    HW121032   3.048   6.057   6.395
 6711SOL    HW221033   2.906   6.019   6.466
 6712SOL     OW21034   5.544   4.511   1.698
 6712SOL    HW121035   5.551   4.599   1.744
 6712SOL    HW221036   5.540   4.525   1.599
 6713SOL     OW21037   1.773   5.192   4.231
 6713SOL    HW121038   1.811   5.184   4.138
 6713SOL    HW221039   1.786   5.106   4.280
 6714SOL     OW21040   5.366   1.244   1.613
 6714SOL    HW121041   5.412   1.158   1.639
 6714SOL    HW221042   5.431   1.319   1.618
 6715SOL     OW21043   1.789   0.609   6.686
 6715SOL    HW121044   1.887   0.626   6.700
 6715SOL    HW221045   1.776   0.543   6.612
 6716SOL     OW21046   6.825   6.057   2.458
 6716SOL    HW121047   6.905   6.102   2.500
 6716SOL    HW221048   6.825   6.075   2.360
 6717SOL     OW21049   5.682   1.806   5.890
 6717SOL    HW121050   5.594   1.845   5.918
 6717SOL    HW221051   5.746   1.880   5.869
 6718SOL     OW21052   4.464   1.753   0.703
 6718SOL    HW121053   4.492   1.742   0.608
 6718SOL    HW221054   4.364   1.753   0.710
 6719SOL     OW21055   1.838   1.126   6.794
 6719SOL    HW121056   1.898   1.145   6.717
 6719SOL    HW221057   1.832   1.027   6.808
 6720SOL     OW21058   1.445   0.796   5.985
 6720SOL    HW121059   1.409   0.717   6.034
 6720SOL    HW221060   1.545   0.788   5.979
 6721SOL     OW21061   6.003   0.382   0.906
 6721SOL    HW121062   6.040   0.470   0.874
 6721SOL    HW221063   6.079   0.320   0.928
 6722SOL     OW21064   5.766   3.699   0.126
 6722SOL    HW121065   5.728   3.640   0.054
 6722SOL    HW221066   5.802   3.783   0.086
 6723SOL     OW21067   1.257   2.609   5.681
 6723SOL    HW121068   1.306   2.686   5.723
 6723SOL    HW221069   1.160   2.630   5.676
 6724SOL     OW21070   2.047   3.666   4.256
 6724SOL    HW121071   2.027   3.763   4.263
 6724SOL    HW221072   2.058   3.641   4.159
 6725SOL     OW21073   5.252   2.421   3.167
 6725SOL    HW121074   5.290   2.335   3.201
 6725SOL    HW221075   5.218   2.408   3.074
 6726SOL     OW21076   0.376   0.424   5.637
 6726SOL    HW121077   0.339   0.354   5.576
 6726SOL    HW221078   0.458   0.465   5.596
 6727SOL     OW21079   1.362   5.181   5.915
 6727SOL    HW121080   1.330   5.159   5.823
 6727SOL    HW221081   1.448   5.135   5.934
 6728SOL     OW21082   3.341   1.442   2.893
 6728SOL    HW121083   3.367   1.470   2.986
 6728SOL    HW221084   3.358   1.344   2.881
 6729SOL     OW21085   4.211   1.341   2.368
 6729SOL    HW121086   4.224   1.282   2.289
 6729SOL    HW221087   4.267   1.308   2.444
 6730SOL     OW21088   0.209   1.582   1.011
 6730SOL    HW121089   0.187   1.661   0.954
 6730SOL    HW221090   0.297   1.543   0.984
 6731SOL     OW21091   3.581   0.129   6.527
 6731SOL    HW121092   3.648   0.195   6.559
 6731SOL    HW221093   3.530   0.092   6.605
 6732SOL     OW21094   6.557   5.249   5.763
 6732SOL    HW121095   6.544   5.154   5.794
 6732SOL    HW221096   6.654   5.268   5.754
 6733SOL     OW21097   4.880   4.620   6.066
 6733SOL    HW121098   4.800   4.574   6.030
 6733SOL    HW221099   4.949   4.629   5.994
 6734SOL     OW21100   6.121   2.072   3.958
 6734SOL    HW121101   6.199   2.110   4.010
 6734SOL    HW221102   6.063   2.147   3.927
 6735SOL     OW21103   6.614   2.397   3.013
 6735SOL    HW121104   6.526   2.434   2.985
 6735SOL    HW221105   6.666   2.468   3.061
 6736SOL     OW21106   3.534   3.730   0.805
 6736SOL    HW121107   3.456   3.784   0.835
 6736SOL    HW221108   3.510   3.633   0.805
 6737SOL     OW21109   6.890   3.649   0.126
 6737SOL    HW121110   6.864   3.706   0.204
 6737SOL    HW221111   6.811   3.637   0.066
 6738SOL     OW21112   1.162   6.330   3.660
 6738SOL    HW121113   1.176   6.233   3.678
 6738SOL    HW221114   1.217   6.384   3.725
 6739SOL     OW21115   6.939   7.002   4.895
 6739SOL    HW121116   6.908   0.031   4.978
 6739SOL    HW221117   6.867   7.007   4.825
 6740SOL     OW21118   0.316   6.740   3.030
 6740SOL    HW121119   0.414   6.729   3.045
 6740SOL    HW221120   0.290   6.835   3.048
 6741SOL     OW21121   3.927   1.776   6.804
 6741SOL    HW121122   3.869   1.784   6.723
 6741SOL    HW221123   4.014   1.735   6.779
 6742SOL     OW21124   5.645   4.415   4.083
 6742SOL    HW121125   5.625   4.470   4.002
 6742SOL    HW221126   5.664   4.475   4.160
 6743SOL     OW21127   3.999   3.781   0.576
 6743SOL    HW121128   3.969   3.877   0.569
 6743SOL    HW221129   4.099   3.778   0.578
 6744SOL     OW21130   6.117   6.821   6.077
 6744SOL    HW121131   6.143   6.780   6.164
 6744SOL    HW221132   6.156   6.768   6.002
 6745SOL     OW21133   0.163   4.439   5.334
 6745SOL    HW121134   0.120   4.508   5.276
 6745SOL    HW221135   0.167   4.352   5.285
 6746SOL     OW21136   0.814   1.999   2.531
 6746SOL    HW121137   0.875   2.038   2.462
 6746SOL    HW221138   0.814   1.899   2.523
 6747SOL     OW21139   1.816   6.312   5.598
 6747SOL    HW121140   1.762   6.381   5.647
 6747SOL    HW221141   1.768   6.225   5.601
 6748SOL     OW21142   2.249   1.029   4.617
 6748SOL    HW121143   2.244   1.126   4.641
 6748SOL    HW221144   2.158   0.995   4.594
 6749SOL     OW21145   4.072   5.230   1.956
 6749SOL    HW121146   4.046   5.271   1.868
 6749SOL    HW221147   4.087   5.302   2.024
 6750SOL     OW21148   3.894   1.330   5.201
 6750SOL    HW121149   3.918   1.345   5.105
 6750SOL    HW221150   3.801   1.294   5.207
 6751SOL     OW21151   4.558   0.082   4.060
 6751SOL    HW121152   4.466   0.108   4.091
 6751SOL    HW221153   4.623   0.154   4.087
 6752SOL     OW21154   2.060   4.629   2.105
 6752SOL    HW121155   1.986   4.633   2.039
 6752SOL    HW221156   2.059   4.711   2.162
 6753SOL     OW21157   3.935   3.278   5.656
 6753SOL    HW121158   3.942   3.210   5.729
 6753SOL    HW221159   4.006   3.347   5.667
 6754SOL     OW21160   6.099   1.782   0.809
 6754SOL    HW121161   6.139   1.872   0.826
 6754SOL    HW221162   6.092   1.731   0.894
 6755SOL     OW21163   2.821   5.744   6.306
 6755SOL    HW121164   2.751   5.765   6.375
 6755SOL    HW221165   2.878   5.824   6.290
 6756SOL     OW21166   2.912   1.753   5.891
 6756SOL    HW121167   2.991   1.794   5.846
 6756SOL    HW221168   2.936   1.662   5.925
 6757SOL     OW21169   4.118   6.939   0.898
 6757SOL    HW121170   4.143   0.017   0.908
 6757SOL    HW221171   4.063   6.910   0.977
 6758SOL     OW21172   5.162   1.944   3.253
 6758SOL    HW121173   5.162   2.044   3.248
 6758SOL    HW221174   5.067   1.910   3.252
 6759SOL     OW21175   0.204   2.155   2.713
 6759SOL    HW121176   0.109   2.178   2.690
 6759SOL    HW221177   0.221   2.060   2.690
 6760SOL     OW21178   5.301   2.601   4.316
 6760SOL    HW121179   5.237   2.524   4.315
 6760SOL    HW221180   5.293   2.649   4.404
 6761SOL     OW21181   4.150   1.619   4.795
 6761SOL    HW121182   4.172   1.552   4.724
 6761SOL    HW221183   4.164   1.711   4.760
 6762SOL     OW21184   6.300   5.502   3.966
 6762SOL    HW121185   6.311   5.486   3.868
 6762SOL    HW221186   6.299   5.600   3.984
 6763SOL     OW21187   5.445   5.617   4.996
 6763SOL    HW121188   5.406   5.678   4.928
 6763SOL    HW221189   5.417   5.523   4.978
 6764SOL     OW21190   1.473   5.280   0.678
 6764SOL    HW121191   1.503   5.362   0.727
 6764SOL    HW221192   1.544   5.250   0.615
 6765SOL     OW21193   0.189   5.062   2.966
 6765SOL    HW121194   0.126   5.131   2.931
 6765SOL    HW221195   0.283   5.086   2.943
 6766SOL     OW21196   5.926   0.736   1.408
 6766SOL    HW121197   5.969   0.735   1.498
 6766SOL    HW221198   5.996   0.733   1.337
 6767SOL     OW21199   3.137   0.651   0.656
 6767SOL    HW121200   3.145   0.749   0.637
 6767SOL    HW221201   3.043   0.622   0.642
 6768SOL     OW21202   1.873   0.921   0.674
 6768SOL    HW121203   1.917   0.836   0.643
 6768SOL    HW221204   1.776   0.918   0.652
 6769SOL     OW21205   4.147   3.034   1.654
 6769SOL    HW121206   4.238   3.074   1.666
 6769SOL    HW221207   4.078   3.103   1.676
 6770SOL     OW21208   0.362   0.503   1.768
 6770SOL    HW121209   0.296   0.478   1.839
 6770SOL    HW221210   0.454   0.503   1.807
 6771SOL     OW21211   4.220   2.273   3.334
 6771SOL    HW121212   4.292   2.206   3.315
 6771SOL    HW221213   4.131   2.233   3.314
 6772SOL     OW21214   3.372   1.729   3.317
 6772SOL    HW121215   3.349   1.656   3.253
 6772SOL    HW221216   3.370   1.817   3.269
 6773SOL     OW21217   0.520   4.106   2.111
 6773SOL    HW121218   0.431   4.068   2.085
 6773SOL    HW221219   0.589   4.080   2.043
 6774SOL     OW21220   0.626   1.534   6.366
 6774SOL    HW121221   0.626   1.508   6.270
 6774SOL    HW221222   0.679   1.617   6.379
 6775SOL     OW21223   2.354   4.615   0.044
 6775SOL    HW121224   2.435   4.567   0.078
 6775SOL    HW221225   2.316   4.565   6.984
 6776SOL     OW21226   5.875   5.804   6.826
 6776SOL    HW121227   5.884   5.792   6.925
 6776SOL    HW221228   5.793   5.756   6.794
 6777SOL     OW21229   5.015   4.654   6.662
 6777SOL    HW121230   4.933   4.669   6.607
 6777SOL    HW221231   5.029   4.555   6.675
 6778SOL     OW21232   0.365   6.054   2.894
 6778SOL    HW121233   0.372   5.957   2.915
 6778SOL    HW221234   0.428   6.106   2.952
 6779SOL     OW21235   0.459   4.348   0.352
 6779SOL    HW121236   0.433   4.288   0.428
 6779SOL    HW221237   0.549   4.389   0.372
 6780SOL     OW21238   0.074   2.863   2.151
 6780SOL    HW121239   0.008   2.788   2.143
 6780SOL    HW221240   0.025   2.950   2.154
 6781SOL     OW21241   6.111   4.926   6.151
 6781SOL    HW121242   6.016   4.953   6.135
 6781SOL    HW221243   6.119   4.827   6.152
 6782SOL     OW21244   6.140   1.421   3.129
 6782SOL    HW121245   6.042   1.412   3.110
 6782SOL    HW221246   6.162   1.369   3.212
 6783SOL     OW21247   0.401   6.283   6.501
 6783SOL    HW121248   0.375   6.345   6.575
 6783SOL    HW221249   0.409   6.190   6.536
 6784SOL     OW21250   3.292   2.968   0.193
 6784SOL    HW121251   3.378   2.983   0.143
 6784SOL    HW221252   3.303   2.888   0.253
 6785SOL     OW21253   6.127   6.667   2.403
 6785SOL    HW121254   6.142   6.590   2.341
 6785SOL    HW221255   6.212   6.718   2.414
 6786SOL     OW21256   2.329   3.003   6.287
 6786SOL    HW121257   2.383   3.063   6.346
 6786SOL    HW221258   2.244   2.978   6.334
 6787SOL     OW21259   1.142   3.697   2.042
 6787SOL    HW121260   1.182   3.607   2.025
 6787SOL    HW221261   1.082   3.694   2.122
 6788SOL     OW21262   2.738   3.602   0.990
 6788SOL    HW121263   2.837   3.605   0.980
 6788SOL    HW221264   2.699   3.543   0.919
 6789SOL     OW21265   0.507   6.455   2.693
 6789SOL    HW121266   0.515   6.553   2.675
 6789SOL    HW221267   0.442   6.440   2.768
 6790SOL     OW21268   1.821   2.857   6.962
 6790SOL    HW121269   1.863   2.835   0.032
 6790SOL    HW221270   1.749   2.791   6.942
 6791SOL     OW21271   4.427   3.286   6.335
 6791SOL    HW121272   4.496   3.214   6.342
 6791SOL    HW221273   4.452   3.349   6.261
 6792SOL     OW21274   0.203   5.613   0.843
 6792SOL    HW121275   0.226   5.533   0.788
 6792SOL    HW221276   0.105   5.611   0.865
 6793SOL     OW21277   6.565   1.774   1.380
 6793SOL    HW121278   6.592   1.763   1.284
 6793SOL    HW221279   6.486   1.835   1.385
 6794SOL     OW21280   4.696   1.019   5.378
 6794SOL    HW121281   4.627   1.090   5.390
 6794SOL    HW221282   4.783   1.060   5.352
 6795SOL     OW21283   3.387   5.838   6.879
 6795SOL    HW121284   3.348   5.809   6.966
 6795SOL    HW221285   3.476   5.880   6.895
 6796SOL     OW21286   4.488   1.825   2.997
 6796SOL    HW121287   4.524   1.759   3.063
 6796SOL    HW221288   4.394   1.800   2.973
 6797SOL     OW21289   6.435   3.622   2.695
 6797SOL    HW121290   6.392   3.706   2.661
 6797SOL    HW221291   6.507   3.594   2.632
 6798SOL     OW21292   6.376   6.444   2.606
 6798SOL    HW121293   6.445   6.382   2.568
 6798SOL    HW221294   6.300   6.391   2.642
 6799SOL     OW21295   5.191   6.222   1.045
 6799SOL    HW121296   5.092   6.214   1.033
 6799SOL    HW221297   5.235   6.225   0.956
 6800SOL     OW21298   2.655   4.697   6.846
 6800SOL    HW121299   2.693   4.786   6.824
 6800SOL    HW221300   2.677   4.673   6.940
 6801SOL     OW21301   1.565   1.971   2.475
 6801SOL    HW121302   1.519   1.948   2.561
 6801SOL    HW221303   1.512   1.935   2.398
 6802SOL     OW21304   2.192   6.020   2.482
 6802SOL    HW121305   2.129   6.034   2.558
 6802SOL    HW221306   2.278   5.983   2.517
 6803SOL     OW21307   5.411   2.323   0.208
 6803SOL    HW121308   5.368   2.249   0.157
 6803SOL    HW221309   5.395   2.311   0.306
 6804SOL     OW21310   1.750   6.453   3.607
 6804SOL    HW121311   1.713   6.363   3.626
 6804SOL    HW221312   1.711   6.488   3.522
 6805SOL     OW21313   5.754   0.324   4.673
 6805SOL    HW121314   5.829   0.362   4.620
 6805SOL    HW221315   5.766   0.225   4.681
 6806SOL     OW21316   4.506   0.667   5.673
 6806SOL    HW121317   4.596   0.624   5.680
 6806SOL    HW221318   4.500   0.719   5.588
 6807SOL     OW21319   2.872   2.952   0.478
 6807SOL    HW121320   2.946   2.909   0.530
 6807SOL    HW221321   2.899   2.963   0.383
 6808SOL     OW21322   1.480   2.821   5.087
 6808SOL    HW121323   1.452   2.914   5.063
 6808SOL    HW221324   1.560   2.795   5.034
 6809SOL     OW21325   2.093   3.360   6.211
 6809SOL    HW121326   2.134   3.345   6.120
 6809SOL    HW221327   2.158   3.333   6.282
 6810SOL     OW21328   5.978   1.508   2.459
 6810SOL    HW121329   6.023   1.473   2.377
 6810SOL    HW221330   6.046   1.552   2.518
 6811SOL     OW21331   5.682   5.465   1.512
 6811SOL    HW121332   5.769   5.514   1.510
 6811SOL    HW221333   5.678   5.407   1.593
 6812SOL     OW21334   3.266   3.678   2.923
 6812SOL    HW121335   3.270   3.590   2.875
 6812SOL    HW221336   3.352   3.692   2.973
 6813SOL     OW21337   4.286   3.674   0.900
 6813SOL    HW121338   4.381   3.655   0.877
 6813SOL    HW221339   4.276   3.682   0.999
 6814SOL     OW21340   2.121   3.616   0.403
 6814SOL    HW121341   2.047   3.566   0.446
 6814SOL    HW221342   2.199   3.555   0.388
 6815SOL     OW21343   2.023   0.413   1.846
 6815SOL    HW121344   2.101   0.394   1.785
 6815SOL    HW221345   1.991   0.507   1.831
 6816SOL     OW21346   6.575   4.365   1.208
 6816SOL    HW121347   6.528   4.316   1.282
 6816SOL    HW221348   6.522   4.357   1.124
 6817SOL     OW21349   0.142   1.414   6.069
 6817SOL    HW121350   0.199   1.433   6.149
 6817SOL    HW221351   0.132   1.315   6.059
 6818SOL     OW21352   3.728   6.476   2.866
 6818SOL    HW121353   3.705   6.544   2.936
 6818SOL    HW221354   3.681   6.499   2.781
 6819SOL     OW21355   2.952   1.507   3.967
 6819SOL    HW121356   2.981   1.455   3.887
 6819SOL    HW221357   2.852   1.503   3.975
 6820SOL     OW21358   0.813   4.358   3.385
 6820SOL    HW121359   0.839   4.432   3.322
 6820SOL    HW221360   0.816   4.271   3.336
 6821SOL     OW21361   2.672   2.003   4.456
 6821SOL    HW121362   2.573   2.009   4.467
 6821SOL    HW221363   2.694   1.962   4.367
 6822SOL     OW21364   5.303   2.148   5.818
 6822SOL    HW121365   5.332   2.088   5.744
 6822SOL    HW221366   5.299   2.242   5.785
 6823SOL     OW21367   3.029   3.381   2.874
 6823SOL    HW121368   3.000   3.451   2.939
 6823SOL    HW221369   3.009   3.411   2.781
 6824SOL     OW21370   1.349   3.820   6.569
 6824SOL    HW121371   1.370   3.883   6.494
 6824SOL    HW221372   1.273   3.856   6.623
 6825SOL     OW21373   4.938   0.522   2.931
 6825SOL    HW121374   4.981   0.595   2.984
 6825SOL    HW221375   4.843   0.547   2.910
 6826SOL     OW21376   1.447   2.993   2.726
 6826SOL    HW121377   1.421   3.038   2.641
 6826SOL    HW221378   1.406   2.902   2.729
 6827SOL     OW21379   5.651   5.820   5.079
 6827SOL    HW121380   5.574   5.774   5.034
 6827SOL    HW221381   5.702   5.754   5.134
 6828SOL     OW21382   1.593   2.552   1.415
 6828SOL    HW121383   1.498   2.564   1.385
 6828SOL    HW221384   1.655   2.585   1.343
 6829SOL     OW21385   4.614   5.770   4.162
 6829SOL    HW121386   4.660   5.829   4.229
 6829SOL    HW221387   4.637   5.799   4.070
 6830SOL     OW21388   5.492   2.263   3.997
 6830SOL    HW121389   5.400   2.274   3.958
 6830SOL    HW221390   5.504   2.169   4.028
 6831SOL     OW21391   0.253   0.937   5.996
 6831SOL    HW121392   0.316   0.949   6.073
 6831SOL    HW221393   0.215   0.844   5.999
 6832SOL     OW21394   3.040   5.211   2.149
 6832SOL    HW121395   3.060   5.228   2.053
 6832SOL    HW221396   2.981   5.130   2.157
 6833SOL     OW21397   3.947   4.862   0.258
 6833SOL    HW121398   3.948   4.954   0.220
 6833SOL    HW221399   3.865   4.813   0.227
 6834SOL     OW21400   3.844   5.433   2.252
 6834SOL    HW121401   3.812   5.490   2.176
 6834SOL    HW221402   3.824   5.479   2.339
 6835SOL     OW21403   3.936   6.915   4.790
 6835SOL    HW121404   4.022   6.902   4.839
 6835SOL    HW221405   3.937   6.858   4.707
 6836SOL     OW21406   3.652   6.457   0.274
 6836SOL    HW121407   3.742   6.416   0.267
 6836SOL    HW221408   3.608   6.456   0.184
 6837SOL     OW21409   1.380   3.165   2.180
 6837SOL    HW121410   1.475   3.146   2.208
 6837SOL    HW221411   1.359   3.261   2.197
 6838SOL     OW21412   2.264   1.433   6.417
 6838SOL    HW121413   2.303   1.519   6.452
 6838SOL    HW221414   2.337   1.366   6.404
 6839SOL     OW21415   4.518   1.228   1.019
 6839SOL    HW121416   4.437   1.276   0.985
 6839SOL    HW221417   4.563   1.283   1.089
 6840SOL     OW21418   0.984   1.949   6.305
 6840SOL    HW121419   1.015   1.869   6.355
 6840SOL    HW221420   0.918   2.000   6.360
 6841SOL     OW21421   6.838   3.708   6.452
 6841SOL    HW121422   6.747   3.700   6.410
 6841SOL    HW221423   6.848   3.800   6.491
 6842SOL     OW21424   1.839   4.450   2.866
 6842SOL    HW121425   1.833   4.433   2.768
 6842SOL    HW221426   1.858   4.364   2.914
 6843SOL     OW21427   4.565   6.336   6.817
 6843SOL    HW121428   4.661   6.340   6.845
 6843SOL    HW221429   4.515   6.272   6.875
 6844SOL     OW21430   5.275   0.720   5.552
 6844SOL    HW121431   5.205   0.751   5.616
 6844SOL    HW221432   5.341   0.793   5.537
 6845SOL     OW21433   5.167   1.747   2.200
 6845SOL    HW121434   5.079   1.712   2.231
 6845SOL    HW221435   5.159   1.845   2.181
 6846SOL     OW21436   2.413   3.737   0.254
 6846SOL    HW121437   2.414   3.653   0.307
 6846SOL    HW221438   2.504   3.780   0.257
 6847SOL     OW21439   6.571   3.288   4.021
 6847SOL    HW121440   6.512   3.232   3.963
 6847SOL    HW221441   6.557   3.384   4.000
 6848SOL     OW21442   5.953   4.463   3.435
 6848SOL    HW121443   5.854   4.452   3.449
 6848SOL    HW221444   5.968   4.518   3.353
 6849SOL     OW21445   3.344   4.038   6.741
 6849SOL    HW121446   3.250   4.010   6.761
 6849SOL    HW221447   3.401   4.028   6.822
 6850SOL     OW21448   4.238   1.935   4.003
 6850SOL    HW121449   4.150   1.905   4.039
 6850SOL    HW221450   4.232   2.030   3.974
 6851SOL     OW21451   2.052   3.142   3.856
 6851SOL    HW121452   2.088   3.194   3.934
 6851SOL    HW221453   2.058   3.044   3.876
 6852SOL     OW21454   2.449   4.711   0.430
 6852SOL    HW121455   2.527   4.651   0.445
 6852SOL    HW221456   2.365   4.657   0.425
 6853SOL     OW21457   4.932   3.331   6.590
 6853SOL    HW121458   4.908   3.387   6.670
 6853SOL    HW221459   4.985   3.386   6.526
 6854SOL     OW21460   5.778   5.404   6.313
 6854SOL    HW121461   5.772   5.369   6.407
 6854SOL    HW221462   5.730   5.491   6.307
 6855SOL     OW21463   4.130   5.185   3.555
 6855SOL    HW121464   4.230   5.182   3.550
 6855SOL    HW221465   4.098   5.275   3.526
 6856SOL     OW21466   0.727   1.525   6.801
 6856SOL    HW121467   0.797   1.572   6.746
 6856SOL    HW221468   0.681   1.592   6.859
 6857SOL     OW21469   1.013   3.849   4.988
 6857SOL    HW121470   0.937   3.788   5.008
 6857SOL    HW221471   0.994   3.940   5.027
 6858SOL     OW21472   2.294   3.723   1.756
 6858SOL    HW121473   2.303   3.631   1.792
 6858SOL    HW221474   2.373   3.745   1.699
 6859SOL     OW21475   0.900   1.502   2.198
 6859SOL    HW121476   0.897   1.590   2.245
 6859SOL    HW221477   0.970   1.505   2.127
 6860SOL     OW21478   0.779   6.351   2.132
 6860SOL    HW121479   0.741   6.443   2.134
 6860SOL    HW221480   0.706   6.286   2.109
 6861SOL     OW21481   5.657   2.858   5.232
 6861SOL    HW121482   5.707   2.775   5.258
 6861SOL    HW221483   5.616   2.846   5.142
 6862SOL     OW21484   0.849   4.563   5.119
 6862SOL    HW121485   0.770   4.502   5.110
 6862SOL    HW221486   0.863   4.586   5.216
 6863SOL     OW21487   5.912   0.752   5.282
 6863SOL    HW121488   5.966   0.671   5.263
 6863SOL    HW221489   5.830   0.726   5.333
 6864SOL     OW21490   1.473   3.401   5.969
 6864SOL    HW121491   1.405   3.442   6.030
 6864SOL    HW221492   1.533   3.340   6.021
 6865SOL     OW21493   2.286   6.635   3.747
 6865SOL    HW121494   2.205   6.670   3.794
 6865SOL    HW221495   2.310   6.697   3.672
 6866SOL     OW21496   1.094   4.615   0.703
 6866SOL    HW121497   1.041   4.531   0.713
 6866SOL    HW221498   1.068   4.680   0.773
 6867SOL     OW21499   1.993   3.906   6.687
 6867SOL    HW121500   1.915   3.865   6.638
 6867SOL    HW221501   2.012   3.853   6.769
 6868SOL     OW21502   2.521   5.084   4.145
 6868SOL    HW121503   2.442   5.126   4.099
 6868SOL    HW221504   2.534   4.992   4.109
 6869SOL     OW21505   3.266   0.814   6.289
 6869SOL    HW121506   3.296   0.794   6.383
 6869SOL    HW221507   3.331   0.775   6.224
 6870SOL     OW21508   6.036   2.569   0.837
 6870SOL    HW121509   6.082   2.643   0.886
 6870SOL    HW221510   6.100   2.526   0.774
 6871SOL     OW21511   0.459   3.930   2.388
 6871SOL    HW121512   0.450   4.025   2.360
 6871SOL    HW221513   0.439   3.870   2.311
 6872SOL     OW21514   1.552   3.933   0.756
 6872SOL    HW121515   1.542   3.960   0.660
 6872SOL    HW221516   1.639   3.883   0.767
 6873SOL     OW21517   0.661   4.612   3.780
 6873SOL    HW121518   0.566   4.619   3.811
 6873SOL    HW221519   0.708   4.698   3.798
 6874SOL     OW21520   5.427   6.220   3.473
 6874SOL    HW121521   5.464   6.313   3.477
 6874SOL    HW221522   5.330   6.224   3.450
 6875SOL     OW21523   2.356   1.617   0.149
 6875SOL    HW121524   2.394   1.635   0.058
 6875SOL    HW221525   2.272   1.670   0.161
 6876SOL     OW21526   5.034   4.964   3.778
 6876SOL    HW121527   5.038   4.878   3.830
 6876SOL    HW221528   4.958   5.019   3.811
 6877SOL     OW21529   1.295   3.608   2.411
 6877SOL    HW121530   1.255   3.641   2.326
 6877SOL    HW221531   1.387   3.646   2.421
 6878SOL     OW21532   2.061   0.579   4.550
 6878SOL    HW121533   2.009   0.660   4.576
 6878SOL    HW221534   2.117   0.549   4.626
 6879SOL     OW21535   2.208   1.174   0.620
 6879SOL    HW121536   2.247   1.126   0.698
 6879SOL    HW221537   2.256   1.260   0.605
 6880SOL     OW21538   1.621   5.345   6.588
 6880SOL    HW121539   1.573   5.263   6.618
 6880SOL    HW221540   1.592   5.368   6.495
 6881SOL     OW21541   1.106   2.701   0.765
 6881SOL    HW121542   1.156   2.734   0.685
 6881SOL    HW221543   1.085   2.604   0.754
 6882SOL     OW21544   2.561   6.729   6.350
 6882SOL    HW121545   2.610   6.650   6.388
 6882SOL    HW221546   2.612   6.764   6.272
 6883SOL     OW21547   4.688   0.544   0.315
 6883SOL    HW121548   4.688   0.547   0.415
 6883SOL    HW221549   4.748   0.470   0.284
 6884SOL     OW21550   2.272   4.096   3.159
 6884SOL    HW121551   2.362   4.071   3.123
 6884SOL    HW221552   2.204   4.092   3.086
 6885SOL     OW21553   5.699   5.616   4.666
 6885SOL    HW121554   5.604   5.588   4.659
 6885SOL    HW221555   5.748   5.553   4.727
 6886SOL     OW21556   4.795   1.654   6.808
 6886SOL    HW121557   4.811   1.587   6.735
 6886SOL    HW221558   4.766   1.741   6.768
 6887SOL     OW21559   5.747   5.617   5.754
 6887SOL    HW121560   5.668   5.575   5.798
 6887SOL    HW221561   5.785   5.688   5.814
 6888SOL     OW21562   6.557   5.036   6.460
 6888SOL    HW121563   6.479   5.069   6.406
 6888SOL    HW221564   6.570   5.096   6.539
 6889SOL     OW21565   0.002   2.301   6.696
 6889SOL    HW121566   0.022   2.203   6.692
 6889SOL    HW221567   7.017   2.339   6.604
 6890SOL     OW21568   4.556   4.449   3.258
 6890SOL    HW121569   4.599   4.403   3.335
 6890SOL    HW221570   4.600   4.421   3.173
 6891SOL     OW21571   1.782   1.211   0.905
 6891SOL    HW121572   1.879   1.221   0.884
 6891SOL    HW221573   1.728   1.225   0.821
 6892SOL     OW21574   2.837   0.750   4.814
 6892SOL    HW121575   2.775   0.811   4.863
 6892SOL    HW221576   2.813   0.747   4.717
 6893SOL     OW21577   5.459   3.358   0.987
 6893SOL    HW121578   5.418   3.410   0.913
 6893SOL    HW221579   5.522   3.289   0.950
 6894SOL     OW21580   5.937   5.550   0.351
 6894SOL    HW121581   5.955   5.612   0.275
 6894SOL    HW221582   5.985   5.464   0.336
 6895SOL     OW21583   0.360   6.476   1.798
 6895SOL    HW121584   0.349   6.574   1.781
 6895SOL    HW221585   0.431   6.462   1.867
 6896SOL     OW21586   4.616   1.344   4.596
 6896SOL    HW121587   4.702   1.296   4.580
 6896SOL    HW221588   4.587   1.390   4.512
 6897SOL     OW21589   4.868   3.333   5.201
 6897SOL    HW121590   4.871   3.377   5.291
 6897SOL    HW221591   4.818   3.391   5.137
 6898SOL     OW21592   1.807   0.023   1.394
 6898SOL    HW121593   1.815   0.004   1.296
 6898SOL    HW221594   1.790   6.956   1.443
 6899SOL     OW21595   6.475   5.979   2.172
 6899SOL    HW121596   6.540   5.919   2.127
 6899SOL    HW221597   6.520   6.028   2.247
 6900SOL     OW21598   6.361   3.729   5.324
 6900SOL    HW121599   6.458   3.750   5.341
 6900SOL    HW221600   6.320   3.802   5.270
 6901SOL     OW21601   5.196   4.717   6.956
 6901SOL    HW121602   5.165   4.802   6.912
 6901SOL    HW221603   5.242   4.660   6.888
 6902SOL     OW21604   0.705   5.956   5.822
 6902SOL    HW121605   0.691   5.996   5.912
 6902SOL    HW221606   0.793   5.909   5.820
 6903SOL     OW21607   1.497   5.712   4.537
 6903SOL    HW121608   1.539   5.800   4.558
 6903SOL    HW221609   1.397   5.723   4.535
 6904SOL     OW21610   6.829   6.742   5.215
 6904SOL    HW121611   6.808   6.730   5.312
 6904SOL    HW221612   6.768   6.809   5.174
 6905SOL     OW21613   4.850   6.086   5.992
 6905SOL    HW121614   4.894   6.150   5.930
 6905SOL    HW221615   4.766   6.051   5.951
 6906SOL     OW21616   3.330   1.453   3.599
 6906SOL    HW121617   3.413   1.503   3.574
 6906SOL    HW221618   3.287   1.497   3.678
 6907SOL     OW21619   5.954   2.830   0.547
 6907SOL    HW121620   5.964   2.816   0.645
 6907SOL    HW221621   5.904   2.753   0.507
 6908SOL     OW21622   2.863   4.812   0.728
 6908SOL    HW121623   2.940   4.749   0.715
 6908SOL    HW221624   2.800   4.774   0.796
 6909SOL     OW21625   6.500   5.753   2.368
 6909SOL    HW121626   6.557   5.768   2.288
 6909SOL    HW221627   6.426   5.821   2.369
 6910SOL     OW21628   1.359   2.730   2.734
 6910SOL    HW121629   1.378   2.634   2.714
 6910SOL    HW221630   1.270   2.738   2.779
 6911SOL     OW21631   2.068   6.678   5.322
 6911SOL    HW121632   1.995   6.688   5.389
 6911SOL    HW221633   2.059   6.748   5.252
 6912SOL     OW21634   2.405   3.793   6.769
 6912SOL    HW121635   2.354   3.734   6.707
 6912SOL    HW221636   2.494   3.813   6.730
 6913SOL     OW21637   5.262   6.215   6.065
 6913SOL    HW121638   5.205   6.169   6.133
 6913SOL    HW221639   5.254   6.168   5.977
 6914SOL     OW21640   6.258   2.887   2.684
 6914SOL    HW121641   6.229   2.979   2.710
 6914SOL    HW221642   6.312   2.891   2.600
 6915SOL     OW21643   6.650   3.484   3.644
 6915SOL    HW121644   6.656   3.557   3.711
 6915SOL    HW221645   6.672   3.520   3.553
 6916SOL     OW21646   5.037   6.032   6.658
 6916SOL    HW121647   4.978   6.057   6.734
 6916SOL    HW221648   5.065   5.936   6.668
 6917SOL     OW21649   5.231   6.177   1.439
 6917SOL    HW121650   5.180   6.092   1.452
 6917SOL    HW221651   5.171   6.255   1.457
 6918SOL     OW21652   2.205   3.079   1.163
 6918SOL    HW121653   2.257   3.089   1.248
 6918SOL    HW221654   2.235   2.996   1.115
 6919SOL     OW21655   5.628   5.784   3.670
 6919SOL    HW121656   5.613   5.762   3.574
 6919SOL    HW221657   5.725   5.803   3.685
 6920SOL     OW21658   5.935   1.204   5.980
 6920SOL    HW121659   5.996   1.140   5.932
 6920SOL    HW221660   5.864   1.152   6.027
 6921SOL     OW21661   4.274   0.306   4.356
 6921SOL    HW121662   4.230   0.395   4.369
 6921SOL    HW221663   4.264   0.252   4.439
 6922SOL     OW21664   1.726   4.229   5.857
 6922SOL    HW121665   1.733   4.329   5.861
 6922SOL    HW221666   1.818   4.190   5.853
 6923SOL     OW21667   5.755   0.148   2.697
 6923SOL    HW121668   5.734   0.060   2.740
 6923SOL    HW221669   5.747   0.221   2.765
 6924SOL     OW21670   2.899   5.976   1.411
 6924SOL    HW121671   2.815   5.958   1.360
 6924SOL    HW221672   2.973   5.920   1.373
 6925SOL     OW21673   5.753   6.309   5.506
 6925SOL    HW121674   5.689   6.302   5.582
 6925SOL    HW221675   5.779   6.217   5.475
 6926SOL     OW21676   3.142   2.566   0.424
 6926SOL    HW121677   3.128   2.565   0.325
 6926SOL    HW221678   3.218   2.505   0.447
 6927SOL     OW21679   4.871   0.816   0.497
 6927SOL    HW121680   4.903   0.789   0.588
 6927SOL    HW221681   4.781   0.859   0.504
 6928SOL     OW21682   4.708   5.039   0.906
 6928SOL    HW121683   4.807   5.031   0.898
 6928SOL    HW221684   4.671   5.079   0.822
 6929SOL     OW21685   6.316   5.310   1.695
 6929SOL    HW121686   6.368   5.344   1.616
 6929SOL    HW221687   6.311   5.210   1.691
 6930SOL     OW21688   0.617   0.232   0.803
 6930SOL    HW121689   0.581   0.270   0.889
 6930SOL    HW221690   0.619   0.305   0.734
 6931SOL     OW21691   2.626   3.450   1.184
 6931SOL    HW121692   2.678   3.508   1.122
 6931SOL    HW221693   2.602   3.365   1.138
 6932SOL     OW21694   4.093   6.087   6.903
 6932SOL    HW121695   4.038   6.068   6.984
 6932SOL    HW221696   4.034   6.086   6.822
 6933SOL     OW21697   3.478   5.984   6.345
 6933SOL    HW121698   3.548   6.048   6.313
 6933SOL    HW221699   3.520   5.895   6.363
 6934SOL     OW21700   5.280   4.194   6.676
 6934SOL    HW121701   5.359   4.255   6.685
 6934SOL    HW221702   5.301   4.105   6.717
 6935SOL     OW21703   4.312   6.061   2.096
 6935SOL    HW121704   4.258   6.023   2.021
 6935SOL    HW221705   4.310   6.160   2.091
 6936SOL     OW21706   0.149   2.005   5.229
 6936SOL    HW121707   0.165   2.003   5.130
 6936SOL    HW221708   0.128   1.912   5.261
 6937SOL     OW21709   5.688   5.586   0.060
 6937SOL    HW121710   5.733   5.505   0.023
 6937SOL    HW221711   5.595   5.562   0.088
 6938SOL     OW21712   2.013   0.840   4.931
 6938SOL    HW121713   1.941   0.794   4.983
 6938SOL    HW221714   1.994   0.830   4.833
 6939SOL     OW21715   5.981   3.375   3.381
 6939SOL    HW121716   5.921   3.379   3.462
 6939SOL    HW221717   5.950   3.442   3.314
 6940SOL     OW21718   2.926   6.134   0.623
 6940SOL    HW121719   2.855   6.195   0.588
 6940SOL    HW221720   2.988   6.109   0.548
 6941SOL     OW21721   3.495   3.661   3.070
 6941SOL    HW121722   3.462   3.722   3.142
 6941SOL    HW221723   3.550   3.588   3.110
 6942SOL     OW21724   6.315   6.335   1.643
 6942SOL    HW121725   6.399   6.390   1.651
 6942SOL    HW221726   6.328   6.248   1.691
 6943SOL     OW21727   4.175   4.483   6.680
 6943SOL    HW121728   4.177   4.385   6.661
 6943SOL    HW221729   4.099   4.503   6.743
 6944SOL     OW21730   1.221   4.483   5.198
 6944SOL    HW121731   1.305   4.429   5.194
 6944SOL    HW221732   1.241   4.577   5.170
 6945SOL     OW21733   5.345   2.027   0.972
 6945SOL    HW121734   5.291   2.090   1.027
 6945SOL    HW221735   5.420   2.077   0.929
 6946SOL     OW21736   4.597   5.167   3.030
 6946SOL    HW121737   4.664   5.182   3.104
 6946SOL    HW221738   4.646   5.158   2.943
 6947SOL     OW21739   5.796   4.603   5.401
 6947SOL    HW121740   5.745   4.521   5.429
 6947SOL    HW221741   5.810   4.662   5.480
 6948SOL     OW21742   0.181   4.566   6.864
 6948SOL    HW121743   0.233   4.504   6.807
 6948SOL    HW221744   0.117   4.514   6.920
 6949SOL     OW21745   2.265   1.996   4.145
 6949SOL    HW121746   2.309   2.015   4.234
 6949SOL    HW221747   2.169   1.974   4.159
 6950SOL     OW21748   0.293   0.351   4.536
 6950SOL    HW121749   0.196   0.330   4.534
 6950SOL    HW221750   0.326   0.350   4.631
 6951SOL     OW21751   0.688   4.209   6.919
 6951SOL    HW121752   0.594   4.241   6.935
 6951SOL    HW221753   0.750   4.255   6.983
 6952SOL     OW21754   4.732   5.509   3.934
 6952SOL    HW121755   4.642   5.551   3.927
 6952SOL    HW221756   4.793   5.550   3.866
 6953SOL     OW21757   6.159   1.857   1.165
 6953SOL    HW121758   6.139   1.786   1.232
 6953SOL    HW221759   6.227   1.824   1.100
 6954SOL     OW21760   6.169   4.751   0.119
 6954SOL    HW121761   6.137   4.845   0.108
 6954SOL    HW221762   6.209   4.719   0.033
 6955SOL     OW21763   4.527   6.490   3.042
 6955SOL    HW121764   4.598   6.516   3.107
 6955SOL    HW221765   4.469   6.569   3.022
 6956SOL     OW21766   6.111   5.245   2.487
 6956SOL    HW121767   6.119   5.343   2.506
 6956SOL    HW221768   6.172   5.222   2.410
 6957SOL     OW21769   6.165   5.541   5.921
 6957SOL    HW121770   6.137   5.636   5.919
 6957SOL    HW221771   6.195   5.513   5.830
 6958SOL     OW21772   3.154   3.980   3.410
 6958SOL    HW121773   3.218   4.057   3.406
 6958SOL    HW221774   3.144   3.950   3.504
 6959SOL     OW21775   1.251   4.382   2.554
 6959SOL    HW121776   1.164   4.351   2.593
 6959SOL    HW221777   1.313   4.304   2.545
 6960SOL     OW21778   3.563   4.201   0.792
 6960SOL    HW121779   3.616   4.118   0.775
 6960SOL    HW221780   3.557   4.217   0.890
 6961SOL     OW21781   4.488   2.476   4.986
 6961SOL    HW121782   4.522   2.478   4.892
 6961SOL    HW221783   4.388   2.469   4.985
 6962SOL     OW21784   2.385   6.794   6.552
 6962SOL    HW121785   2.376   6.695   6.557
 6962SOL    HW221786   2.410   6.821   6.459
 6963SOL     OW21787   6.411   6.041   0.516
 6963SOL    HW121788   6.384   5.986   0.437
 6963SOL    HW221789   6.491   6.001   0.560
 6964SOL     OW21790   1.493   1.353   5.286
 6964SOL    HW121791   1.471   1.303   5.369
 6964SOL    HW221792   1.570   1.414   5.304
 6965SOL     OW21793   0.501   1.670   6.972
 6965SOL    HW121794   0.565   1.742   7.001
 6965SOL    HW221795   0.512   1.590   0.014
 6966SOL     OW21796   1.829   6.625   1.103
 6966SOL    HW121797   1.787   6.701   1.054
 6966SOL    HW221798   1.877   6.566   1.038
 6967SOL     OW21799   4.407   1.350   6.378
 6967SOL    HW121800   4.485   1.316   6.325
 6967SOL    HW221801   4.403   1.302   6.465
 6968SOL     OW21802   3.809   6.623   3.283
 6968SOL    HW121803   3.827   6.526   3.298
 6968SOL    HW221804   3.743   6.635   3.209
 6969SOL     OW21805   1.932   1.550   2.271
 6969SOL    HW121806   1.958   1.485   2.342
 6969SOL    HW221807   1.991   1.539   2.191
 6970SOL     OW21808   3.778   5.673   5.393
 6970SOL    HW121809   3.742   5.610   5.324
 6970SOL    HW221810   3.705   5.733   5.425
 6971SOL     OW21811   6.461   3.992   0.510
 6971SOL    HW121812   6.483   3.953   0.599
 6971SOL    HW221813   6.428   4.085   0.521
 6972SOL     OW21814   5.254   3.949   1.387
 6972SOL    HW121815   5.288   3.974   1.477
 6972SOL    HW221816   5.184   4.015   1.359
 6973SOL     OW21817   1.945   2.352   3.212
 6973SOL    HW121818   1.889   2.432   3.235
 6973SOL    HW221819   1.899   2.298   3.141
 6974SOL     OW21820   3.608   3.305   3.204
 6974SOL    HW121821   3.511   3.282   3.212
 6974SOL    HW221822   3.622   3.365   3.125
 6975SOL     OW21823   2.926   5.137   4.623
 6975SOL    HW121824   3.000   5.168   4.683
 6975SOL    HW221825   2.838   5.163   4.662
 6976SOL     OW21826   4.645   4.342   6.452
 6976SOL    HW121827   4.740   4.340   6.420
 6976SOL    HW221828   4.621   4.252   6.488
 6977SOL     OW21829   4.527   5.265   1.903
 6977SOL    HW121830   4.555   5.359   1.921
 6977SOL    HW221831   4.495   5.258   1.809
 6978SOL     OW21832   6.969   3.586   1.625
 6978SOL    HW121833   6.961   3.545   1.716
 6978SOL    HW221834   0.007   3.527   1.566
 6979SOL     OW21835   1.725   2.669   2.239
 6979SOL    HW121836   1.638   2.626   2.263
 6979SOL    HW221837   1.788   2.599   2.206
 6980SOL     OW21838   1.761   5.803   1.979
 6980SOL    HW121839   1.853   5.771   1.958
 6980SOL    HW221840   1.720   5.744   2.049
 6981SOL     OW21841   4.028   2.690   6.693
 6981SOL    HW121842   4.032   2.740   6.779
 6981SOL    HW221843   4.041   2.753   6.617
 6982SOL     OW21844   1.601   0.547   2.630
 6982SOL    HW121845   1.506   0.537   2.658
 6982SOL    HW221846   1.609   0.621   2.564
 6983SOL     OW21847   5.732   0.760   4.182
 6983SOL    HW121848   5.721   0.673   4.135
 6983SOL    HW221849   5.732   0.744   4.281
 6984SOL     OW21850   1.033   2.658   3.086
 6984SOL    HW121851   0.954   2.719   3.098
 6984SOL    HW221852   1.117   2.710   3.097
 6985SOL     OW21853   5.640   3.518   6.980
 6985SOL    HW121854   5.575   3.442   6.974
 6985SOL    HW221855   5.622   3.583   6.907
 6986SOL     OW21856   4.852   4.589   5.423
 6986SOL    HW121857   4.789   4.613   5.349
 6986SOL    HW221858   4.813   4.515   5.478
 6987SOL     OW21859   0.244   0.882   6.622
 6987SOL    HW121860   0.188   0.813   6.668
 6987SOL    HW221861   0.260   0.959   6.684
 6988SOL     OW21862   3.013   1.916   6.787
 6988SOL    HW121863   3.076   1.960   6.723
 6988SOL    HW221864   3.014   1.817   6.772
 6989SOL     OW21865   0.691   5.108   2.646
 6989SOL    HW121866   0.699   5.166   2.565
 6989SOL    HW221867   0.613   5.047   2.636
 6990SOL     OW21868   3.872   3.329   0.688
 6990SOL    HW121869   3.902   3.319   0.783
 6990SOL    HW221870   3.910   3.254   0.634
 6991SOL     OW21871   6.574   3.080   2.720
 6991SOL    HW121872   6.493   3.095   2.776
 6991SOL    HW221873   6.550   3.094   2.623
 6992SOL     OW21874   1.343   5.947   0.077
 6992SOL    HW121875   1.251   5.943   0.038
 6992SOL    HW221876   1.365   6.042   0.100
 6993SOL     OW21877   4.871   1.805   1.034
 6993SOL    HW121878   4.795   1.830   1.094
 6993SOL    HW221879   4.853   1.715   0.994
 6994SOL     OW21880   2.588   0.666   3.847
 6994SOL    HW121881   2.666   0.703   3.797
 6994SOL    HW221882   2.526   0.620   3.783
 6995SOL     OW21883   0.243   4.108   1.112
 6995SOL    HW121884   0.281   4.102   1.204
 6995SOL    HW221885   0.289   4.042   1.052
 6996SOL     OW21886   1.211   1.362   6.565
 6996SOL    HW121887   1.135   1.298   6.574
 6996SOL    HW221888   1.267   1.359   6.647
 6997SOL     OW21889   5.687   5.283   5.889
 6997SOL    HW121890   5.742   5.222   5.832
 6997SOL    HW221891   5.633   5.344   5.831
 6998SOL     OW21892   6.765   1.406   0.216
 6998SOL    HW121893   6.816   1.346   0.154
 6998SOL    HW221894   6.817   1.490   0.231
 6999SOL     OW21895   0.263   3.036   6.882
 6999SOL    HW121896   0.229   3.119   6.928
 6999SOL    HW221897   0.193   2.965   6.888
 7000SOL     OW21898   6.669   5.683   3.301
 7000SOL    HW121899   6.642   5.779   3.309
 7000SOL    HW221900   6.768   5.675   3.314
 7001SOL     OW21901   0.030   2.294   4.028
 7001SOL    HW121902   6.987   2.328   3.957
 7001SOL    HW221903   0.105   2.358   4.041
 7002SOL     OW21904   0.861   5.760   2.778
 7002SOL    HW121905   0.776   5.808   2.758
 7002SOL    HW221906   0.888   5.777   2.873
 7003SOL     OW21907   6.575   3.798   0.685
 7003SOL    HW121908   6.650   3.750   0.640
 7003SOL    HW221909   6.541   3.744   0.762
 7004SOL     OW21910   1.667   6.396   0.825
 7004SOL    HW121911   1.683   6.477   0.769
 7004SOL    HW221912   1.740   6.387   0.893
 7005SOL     OW21913   1.133   6.306   1.172
 7005SOL    HW121914   1.140   6.239   1.098
 7005SOL    HW221915   1.057   6.368   1.154
 7006SOL     OW21916   0.946   6.927   3.891
 7006SOL    HW121917   0.893   6.938   3.808
 7006SOL    HW221918   0.985   6.835   3.894
 7007SOL     OW21919   2.492   0.618   6.013
 7007SOL    HW121920   2.555   0.578   6.079
 7007SOL    HW221921   2.434   0.686   6.058
 7008SOL     OW21922   5.400   3.660   2.798
 7008SOL    HW121923   5.307   3.693   2.818
 7008SOL    HW221924   5.401   3.560   2.804
 7009SOL     OW21925   4.529   5.913   2.316
 7009SOL    HW121926   4.506   6.009   2.330
 7009SOL    HW221927   4.628   5.904   2.302
 7010SOL     OW21928   5.168   3.781   1.708
 7010SOL    HW121929   5.074   3.795   1.740
 7010SOL    HW221930   5.226   3.755   1.786
 7011SOL     OW21931   3.445   6.573   6.808
 7011SOL    HW121932   3.405   6.600   6.720
 7011SOL    HW221933   3.540   6.545   6.795
 7012SOL     OW21934   6.751   2.683   0.290
 7012SOL    HW121935   6.674   2.740   0.317
 7012SOL    HW221936   6.745   2.594   0.336
 7013SOL     OW21937   3.063   2.008   0.373
 7013SOL    HW121938   3.021   2.032   0.460
 7013SOL    HW221939   2.995   2.018   0.300
 7014SOL     OW21940   5.816   3.373   0.880
 7014SOL    HW121941   5.775   3.451   0.927
 7014SOL    HW221942   5.748   3.301   0.868
 7015SOL     OW21943   5.563   6.502   1.360
 7015SOL    HW121944   5.620   6.428   1.324
 7015SOL    HW221945   5.468   6.474   1.361
 7016SOL     OW21946   3.323   5.148   0.856
 7016SOL    HW121947   3.351   5.104   0.942
 7016SOL    HW221948   3.229   5.180   0.865
 7017SOL     OW21949   6.041   4.896   5.225
 7017SOL    HW121950   5.979   4.955   5.174
 7017SOL    HW221951   6.073   4.821   5.167
 7018SOL     OW21952   5.329   3.785   4.533
 7018SOL    HW121953   5.271   3.731   4.595
 7018SOL    HW221954   5.385   3.723   4.477
 7019SOL     OW21955   4.189   5.822   2.493
 7019SOL    HW121956   4.252   5.769   2.550
 7019SOL    HW221957   4.237   5.852   2.410
 7020SOL     OW21958   0.611   2.449   6.478
 7020SOL    HW121959   0.683   2.503   6.522
 7020SOL    HW221960   0.561   2.506   6.413
 7021SOL     OW21961   0.693   1.972   4.912
 7021SOL    HW121962   0.744   2.046   4.956
 7021SOL    HW221963   0.595   1.987   4.927
 7022SOL     OW21964   3.371   2.066   0.865
 7022SOL    HW121965   3.394   1.999   0.936
 7022SOL    HW221966   3.318   2.140   0.906
 7023SOL     OW21967   0.300   1.936   0.332
 7023SOL    HW121968   0.338   1.903   0.419
 7023SOL    HW221969   0.361   2.005   0.293
 7024SOL     OW21970   4.181   3.554   4.951
 7024SOL    HW121971   4.272   3.579   4.919
 7024SOL    HW221972   4.130   3.511   4.876
 7025SOL     OW21973   3.148   0.442   0.822
 7025SOL    HW121974   3.106   0.484   0.902
 7025SOL    HW221975   3.188   0.513   0.764
 7026SOL     OW21976   3.403   2.843   1.119
 7026SOL    HW121977   3.435   2.774   1.184
 7026SOL    HW221978   3.470   2.917   1.114
 7027SOL     OW21979   2.499   5.161   2.686
 7027SOL    HW121980   2.584   5.209   2.705
 7027SOL    HW221981   2.451   5.145   2.773
 7028SOL     OW21982   2.970   0.122   3.799
 7028SOL    HW121983   3.039   0.100   3.868
 7028SOL    HW221984   2.959   0.221   3.793
 7029SOL     OW21985   3.400   3.858   3.837
 7029SOL    HW121986   3.497   3.855   3.815
 7029SOL    HW221987   3.380   3.939   3.892
 7030SOL     OW21988   6.509   0.995   4.763
 7030SOL    HW121989   6.607   0.978   4.779
 7030SOL    HW221990   6.493   1.093   4.755
 7031SOL     OW21991   4.399   6.557   0.776
 7031SOL    HW121992   4.336   6.584   0.703
 7031SOL    HW221993   4.443   6.471   0.751
 7032SOL     OW21994   4.543   5.836   4.564
 7032SOL    HW121995   4.543   5.841   4.663
 7032SOL    HW221996   4.499   5.752   4.534
 7033SOL     OW21997   1.696   1.645   4.788
 7033SOL    HW121998   1.792   1.616   4.786
 7033SOL    HW221999   1.669   1.662   4.883
 7034SOL     OW22000   6.572   0.522   3.551
 7034SOL    HW122001   6.636   0.553   3.481
 7034SOL    HW222002   6.495   0.474   3.508
 7035SOL     OW22003   1.735   0.207   0.379
 7035SOL    HW122004   1.762   0.291   0.426
 7035SOL    HW222005   1.751   0.217   0.281
 7036SOL     OW22006   6.393   1.440   2.849
 7036SOL    HW122007   6.404   1.496   2.931
 7036SOL    HW222008   6.481   1.432   2.802
 7037SOL     OW22009   1.346   0.383   5.625
 7037SOL    HW122010   1.445   0.384   5.641
 7037SOL    HW222011   1.308   0.298   5.661
 7038SOL     OW22012   1.146   4.344   0.146
 7038SOL    HW122013   1.189   4.354   0.235
 7038SOL    HW222014   1.204   4.289   0.086
 7039SOL     OW22015   0.299   6.357   2.123
 7039SOL    HW122016   0.305   6.447   2.079
 7039SOL    HW222017   0.212   6.349   2.170
 7040SOL     OW22018   5.185   3.706   4.798
 7040SOL    HW122019   5.217   3.615   4.824
 7040SOL    HW222020   5.092   3.720   4.832
 7041SOL     OW22021   1.719   6.629   4.131
 7041SOL    HW122022   1.800   6.587   4.090
 7041SOL    HW222023   1.737   6.651   4.226
 7042SOL     OW22024   5.187   6.262   5.584
 7042SOL    HW122025   5.197   6.315   5.499
 7042SOL    HW222026   5.251   6.185   5.582
 7043SOL     OW22027   2.219   5.111   1.281
 7043SOL    HW122028   2.233   5.026   1.229
 7043SOL    HW222029   2.308   5.153   1.299
 7044SOL     OW22030   5.211   0.041   5.160
 7044SOL    HW122031   5.163   0.093   5.089
 7044SOL    HW222032   5.179   0.070   5.250
 7045SOL     OW22033   6.378   6.158   1.875
 7045SOL    HW122034   6.452   6.112   1.825
 7045SOL    HW222035   6.389   6.141   1.973
 7046SOL     OW22036   2.414   1.479   4.523
 7046SOL    HW122037   2.512   1.486   4.538
 7046SOL    HW222038   2.369   1.563   4.555
 7047SOL     OW22039   1.415   6.664   0.585
 7047SOL    HW122040   1.362   6.601   0.528
 7047SOL    HW222041   1.385   6.758   0.568
 7048SOL     OW22042   0.101   6.125   4.622
 7048SOL    HW122043   0.144   6.041   4.588
 7048SOL    HW222044   0.070   6.180   4.544
 7049SOL     OW22045   3.545   1.299   3.320
 7049SOL    HW122046   3.584   1.212   3.291
 7049SOL    HW222047   3.572   1.317   3.415
 7050SOL     OW22048   4.053   3.936   1.272
 7050SOL    HW122049   4.147   3.952   1.302
 7050SOL    HW222050   4.042   3.840   1.246
 7051SOL     OW22051   0.679   1.033   1.836
 7051SOL    HW122052   0.616   1.101   1.798
 7051SOL    HW222053   0.668   1.031   1.936
 7052SOL     OW22054   4.806   0.809   2.962
 7052SOL    HW122055   4.819   0.851   2.872
 7052SOL    HW222056   4.709   0.805   2.983
 7053SOL     OW22057   1.835   3.434   3.312
 7053SOL    HW122058   1.745   3.476   3.323
 7053SOL    HW222059   1.832   3.365   3.239
 7054SOL     OW22060   6.162   0.948   0.158
 7054SOL    HW122061   6.254   0.925   0.188
 7054SOL    HW222062   6.114   0.995   0.232
 7055SOL     OW22063   2.680   1.331   0.169
 7055SOL    HW122064   2.624   1.399   0.217
 7055SOL    HW222065   2.627   1.247   0.157
 7056SOL     OW22066   0.134   5.360   1.035
 7056SOL    HW122067   0.083   5.440   1.067
 7056SOL    HW222068   0.099   5.330   0.947
 7057SOL     OW22069   2.519   5.590   4.538
 7057SOL    HW122070   2.421   5.576   4.528
 7057SOL    HW222071   2.537   5.642   4.622
 7058SOL     OW22072   5.569   2.892   5.953
 7058SOL    HW122073   5.617   2.942   6.025
 7058SOL    HW222074   5.634   2.832   5.906
 7059SOL     OW22075   1.994   0.322   5.262
 7059SOL    HW122076   2.083   0.359   5.289
 7059SOL    HW222077   1.924   0.394   5.269
 7060SOL     OW22078   3.278   1.428   1.204
 7060SOL    HW122079   3.209   1.356   1.202
 7060SOL    HW222080   3.359   1.395   1.252
 7061SOL     OW22081   0.778   1.560   1.653
 7061SOL    HW122082   0.692   1.607   1.633
 7061SOL    HW222083   0.759   1.469   1.689
 7062SOL     OW22084   3.372   0.630   3.897
 7062SOL    HW122085   3.401   0.650   3.803
 7062SOL    HW222086   3.405   0.540   3.924
 7063SOL     OW22087   0.364   0.825   1.381
 7063SOL    HW122088   0.414   0.839   1.296
 7063SOL    HW222089   0.279   0.878   1.379
 7064SOL     OW22090   3.991   1.707   5.449
 7064SOL    HW122091   3.906   1.753   5.424
 7064SOL    HW222092   4.019   1.737   5.540
 7065SOL     OW22093   4.149   5.458   5.400
 7065SOL    HW122094   4.228   5.498   5.354
 7065SOL    HW222095   4.071   5.458   5.337
 7066SOL     OW22096   3.590   0.283   0.187
 7066SOL    HW122097   3.678   0.276   0.234
 7066SOL    HW222098   3.576   0.379   0.160
 7067SOL     OW22099   1.817   3.135   6.432
 7067SOL    HW122100   1.810   3.173   6.524
 7067SOL    HW222101   1.784   3.040   6.432
 7068SOL     OW22102   5.211   3.776   4.100
 7068SOL    HW122103   5.123   3.821   4.085
 7068SOL    HW222104   5.268   3.832   4.160
 7069SOL     OW22105   5.620   0.834   6.540
 7069SOL    HW122106   5.578   0.750   6.506
 7069SOL    HW222107   5.710   0.814   6.576
 7070SOL     OW22108   0.175   0.466   5.215
 7070SOL    HW122109   0.077   0.460   5.197
 7070SOL    HW222110   0.218   0.379   5.194
 7071SOL     OW22111   4.754   5.559   6.917
 7071SOL    HW122112   4.816   5.528   6.845
 7071SOL    HW222113   4.664   5.579   6.877
 7072SOL     OW22114   0.920   3.659   5.864
 7072SOL    HW122115   0.984   3.705   5.926
 7072SOL    HW222116   0.894   3.571   5.902
 7073SOL     OW22117   4.695   1.553   3.974
 7073SOL    HW122118   4.751   1.479   4.010
 7073SOL    HW222119   4.734   1.585   3.887
 7074SOL     OW22120   5.371   4.461   3.541
 7074SOL    HW122121   5.323   4.547   3.557
 7074SOL    HW222122   5.353   4.397   3.615
 7075SOL     OW22123   2.921   5.023   2.942
 7075SOL    HW122124   3.014   5.041   2.912
 7075SOL    HW222125   2.910   4.924   2.958
 7076SOL     OW22126   5.677   2.487   1.702
 7076SOL    HW122127   5.648   2.486   1.798
 7076SOL    HW222128   5.620   2.551   1.651
 7077SOL     OW22129   3.763   5.326   1.903
 7077SOL    HW122130   3.690   5.340   1.969
 7077SOL    HW222131   3.809   5.239   1.920
 7078SOL     OW22132   6.171   0.531   7.004
 7078SOL    HW122133   6.107   0.601   0.018
 7078SOL    HW222134   6.191   0.546   6.907
 7079SOL     OW22135   1.565   6.271   4.460
 7079SOL    HW122136   1.503   6.327   4.515
 7079SOL    HW222137   1.523   6.181   4.445
 7080SOL     OW22138   4.078   2.039   5.695
 7080SOL    HW122139   4.096   2.134   5.721
 7080SOL    HW222140   4.006   2.036   5.625
 7081SOL     OW22141   1.908   0.242   0.120
 7081SOL    HW122142   2.003   0.266   0.139
 7081SOL    HW222143   1.879   0.285   0.034
 7082SOL     OW22144   0.232   4.190   3.104
 7082SOL    HW122145   0.230   4.111   3.044
 7082SOL    HW222146   0.327   4.217   3.121
 7083SOL     OW22147   5.465   2.486   2.767
 7083SOL    HW122148   5.418   2.398   2.766
 7083SOL    HW222149   5.548   2.479   2.823
 7084SOL     OW22150   1.329   5.575   6.798
 7084SOL    HW122151   1.272   5.573   6.881
 7084SOL    HW222152   1.400   5.505   6.806
 7085SOL     OW22153   0.576   3.775   1.953
 7085SOL    HW122154   0.656   3.803   2.006
 7085SOL    HW222155   0.590   3.683   1.918
 7086SOL     OW22156   5.261   1.120   4.066
 7086SOL    HW122157   5.229   1.208   4.102
 7086SOL    HW222158   5.352   1.100   4.102
 7087SOL     OW22159   5.019   3.508   2.777
 7087SOL    HW122160   4.987   3.415   2.759
 7087SOL    HW222161   4.975   3.542   2.860
 7088SOL     OW22162   5.714   2.196   5.221
 7088SOL    HW122163   5.751   2.126   5.282
 7088SOL    HW222164   5.787   2.230   5.161
 7089SOL     OW22165   2.803   5.690   1.562
 7089SOL    HW122166   2.854   5.731   1.638
 7089SOL    HW222167   2.865   5.638   1.504
 7090SOL     OW22168   4.258   2.633   1.267
 7090SOL    HW122169   4.317   2.636   1.186
 7090SOL    HW222170   4.315   2.623   1.349
 7091SOL     OW22171   0.646   6.385   0.187
 7091SOL    HW122172   0.732   6.346   0.219
 7091SOL    HW222173   0.601   6.431   0.263
 7092SOL     OW22174   4.465   0.459   6.099
 7092SOL    HW122175   4.510   0.385   6.049
 7092SOL    HW222176   4.441   0.532   6.035
 7093SOL     OW22177   3.127   3.170   1.076
 7093SOL    HW122178   3.130   3.181   0.977
 7093SOL    HW222179   3.031   3.167   1.105
 7094SOL     OW22180   3.413   0.467   6.364
 7094SOL    HW122181   3.351   0.401   6.405
 7094SOL    HW222182   3.366   0.515   6.290
 7095SOL     OW22183   2.464   4.816   4.560
 7095SOL    HW122184   2.475   4.911   4.531
 7095SOL    HW222185   2.411   4.812   4.645
 7096SOL     OW22186   6.753   0.478   1.029
 7096SOL    HW122187   6.699   0.554   0.993
 7096SOL    HW222188   6.724   0.393   0.985
 7097SOL     OW22189   4.913   1.490   1.930
 7097SOL    HW122190   4.889   1.472   2.025
 7097SOL    HW222191   4.989   1.555   1.926
 7098SOL     OW22192   0.922   0.230   3.893
 7098SOL    HW122193   0.884   0.214   3.984
 7098SOL    HW222194   0.913   0.147   3.839
 7099SOL     OW22195   3.096   1.927   4.327
 7099SOL    HW122196   3.166   1.998   4.335
 7099SOL    HW222197   3.140   1.837   4.324
 7100SOL     OW22198   6.689   3.883   1.828
 7100SOL    HW122199   6.757   3.841   1.888
 7100SOL    HW222200   6.713   3.865   1.733
 7101SOL     OW22201   2.464   5.982   5.138
 7101SOL    HW122202   2.471   5.981   5.238
 7101SOL    HW222203   2.528   6.048   5.100
 7102SOL     OW22204   5.843   1.165   2.174
 7102SOL    HW122205   5.887   1.078   2.198
 7102SOL    HW222206   5.909   1.240   2.185
 7103SOL     OW22207   4.870   3.580   3.254
 7103SOL    HW122208   4.942   3.585   3.323
 7103SOL    HW222209   4.865   3.486   3.218
 7104SOL     OW22210   5.221   2.986   3.908
 7104SOL    HW122211   5.136   2.964   3.956
 7104SOL    HW222212   5.240   3.083   3.918
 7105SOL     OW22213   3.445   3.822   3.499
 7105SOL    HW122214   3.478   3.876   3.577
 7105SOL    HW222215   3.518   3.760   3.469
 7106SOL     OW22216   3.213   2.084   1.595
 7106SOL    HW122217   3.133   2.138   1.569
 7106SOL    HW222218   3.235   2.102   1.691
 7107SOL     OW22219   4.035   0.325   6.316
 7107SOL    HW122220   4.052   0.235   6.357
 7107SOL    HW222221   4.120   0.378   6.317
 7108SOL     OW22222   4.776   0.925   2.139
 7108SOL    HW122223   4.808   0.998   2.079
 7108SOL    HW222224   4.692   0.955   2.184
 7109SOL     OW22225   2.398   5.305   0.086
 7109SOL    HW122226   2.329   5.320   0.156
 7109SOL    HW222227   2.488   5.296   0.130
 7110SOL     OW22228   3.757   0.180   4.404
 7110SOL    HW122229   3.727   0.230   4.323
 7110SOL    HW222230   3.726   0.085   4.398
 7111SOL     OW22231   6.992   0.734   5.027
 7111SOL    HW122232   6.953   0.643   5.043
 7111SOL    HW222233   0.017   0.735   4.937
 7112SOL     OW22234   0.860   5.315   4.872
 7112SOL    HW122235   0.810   5.237   4.833
 7112SOL    HW222236   0.917   5.283   4.948
 7113SOL     OW22237   3.588   6.394   4.979
 7113SOL    HW122238   3.561   6.298   4.987
 7113SOL    HW222239   3.520   6.452   5.025
 7114SOL     OW22240   5.681   4.249   0.977
 7114SOL    HW122241   5.697   4.153   0.951
 7114SOL    HW222242   5.654   4.253   1.073
 7115SOL     OW22243   6.280   3.888   6.332
 7115SOL    HW122244   6.306   3.976   6.291
 7115SOL    HW222245   6.270   3.900   6.430
 7116SOL     OW22246   6.404   3.780   4.262
 7116SOL    HW122247   6.315   3.824   4.274
 7116SOL    HW222248   6.391   3.688   4.225
 7117SOL     OW22249   5.429   6.983   3.586
 7117SOL    HW122250   5.439   6.978   3.686
 7117SOL    HW222251   5.468   0.051   3.553
 7118SOL     OW22252   3.868   4.447   5.981
 7118SOL    HW122253   3.777   4.420   5.949
 7118SOL    HW222254   3.862   4.534   6.030
 7119SOL     OW22255   3.677   6.715   4.903
 7119SOL    HW122256   3.602   6.657   4.874
 7119SOL    HW222257   3.675   6.724   5.003
 7120SOL     OW22258   4.300   0.548   0.602
 7120SOL    HW122259   4.245   0.465   0.607
 7120SOL    HW222260   4.387   0.533   0.650
 7121SOL     OW22261   1.179   6.274   1.733
 7121SOL    HW122262   1.201   6.297   1.828
 7121SOL    HW222263   1.085   6.242   1.728
 7122SOL     OW22264   3.572   2.198   0.330
 7122SOL    HW122265   3.628   2.191   0.412
 7122SOL    HW222266   3.589   2.119   0.271
 7123SOL     OW22267   5.457   5.242   5.741
 7123SOL    HW122268   5.502   5.311   5.685
 7123SOL    HW222269   5.464   5.153   5.696
 7124SOL     OW22270   1.349   1.926   1.021
 7124SOL    HW122271   1.358   1.922   0.922
 7124SOL    HW222272   1.284   1.856   1.051
 7125SOL     OW22273   0.535   6.218   2.123
 7125SOL    HW122274   0.529   6.135   2.179
 7125SOL    HW222275   0.460   6.280   2.146
 7126SOL     OW22276   3.508   5.303   0.731
 7126SOL    HW122277   3.535   5.279   0.638
 7126SOL    HW222278   3.457   5.227   0.771
 7127SOL     OW22279   2.350   6.342   6.105
 7127SOL    HW122280   2.416   6.400   6.153
 7127SOL    HW222281   2.367   6.246   6.129
 7128SOL     OW22282   3.761   4.164   6.876
 7128SOL    HW122283   3.806   4.202   6.956
 7128SOL    HW222284   3.759   4.232   6.803
 7129SOL     OW22285   0.712   0.166   0.385
 7129SOL    HW122286   0.730   0.126   0.295
 7129SOL    HW222287   0.675   0.096   0.446
 7130SOL     OW22288   3.562   6.850   4.104
 7130SOL    HW122289   3.517   6.787   4.167
 7130SOL    HW222290   3.492   6.901   4.053
 7131SOL     OW22291   2.197   1.329   1.851
 7131SOL    HW122292   2.149   1.269   1.787
 7131SOL    HW222293   2.255   1.393   1.800
 7132SOL     OW22294   5.360   4.441   0.695
 7132SOL    HW122295   5.418   4.425   0.776
 7132SOL    HW222296   5.352   4.539   0.679
 7133SOL     OW22297   4.926   5.946   2.710
 7133SOL    HW122298   4.988   5.873   2.741
 7133SOL    HW222299   4.837   5.934   2.754
 7134SOL     OW22300   4.713   5.564   0.194
 7134SOL    HW122301   4.771   5.541   0.116
 7134SOL    HW222302   4.758   5.534   0.279
 7135SOL     OW22303   1.494   3.283   1.325
 7135SOL    HW122304   1.584   3.308   1.290
 7135SOL    HW222305   1.503   3.233   1.411
 7136SOL     OW22306   1.259   2.165   1.957
 7136SOL    HW122307   1.345   2.167   1.906
 7136SOL    HW222308   1.239   2.257   1.991
 7137SOL     OW22309   2.589   1.516   1.334
 7137SOL    HW122310   2.590   1.552   1.428
 7137SOL    HW222311   2.572   1.418   1.336
 7138SOL     OW22312   0.950   2.383   0.389
 7138SOL    HW122313   0.908   2.428   0.309
 7138SOL    HW222314   1.039   2.425   0.407
 7139SOL     OW22315   5.966   6.283   0.888
 7139SOL    HW122316   5.977   6.301   0.790
 7139SOL    HW222317   5.964   6.184   0.903
 7140SOL     OW22318   6.102   4.293   0.497
 7140SOL    HW122319   6.080   4.344   0.413
 7140SOL    HW222320   6.043   4.213   0.503
 7141SOL     OW22321   3.093   0.651   1.045
 7141SOL    HW122322   3.088   0.703   1.131
 7141SOL    HW222323   3.014   0.674   0.988
 7142SOL     OW22324   4.044   0.170   5.132
 7142SOL    HW122325   4.110   0.101   5.164
 7142SOL    HW222326   4.052   0.180   5.033
 7143SOL     OW22327   2.775   3.630   6.828
 7143SOL    HW122328   2.701   3.663   6.770
 7143SOL    HW222329   2.770   3.674   6.918
 7144SOL     OW22330   6.607   1.273   6.181
 7144SOL    HW122331   6.661   1.341   6.231
 7144SOL    HW222332   6.553   1.318   6.110
 7145SOL     OW22333   5.372   2.017   6.243
 7145SOL    HW122334   5.451   2.074   6.223
 7145SOL    HW222335   5.392   1.960   6.324
 7146SOL     OW22336   1.178   1.808   5.861
 7146SOL    HW122337   1.268   1.847   5.840
 7146SOL    HW222338   1.136   1.860   5.935
 7147SOL     OW22339   6.488   6.550   1.634
 7147SOL    HW122340   6.457   6.594   1.550
 7147SOL    HW222341   6.454   6.600   1.713
 7148SOL     OW22342   6.077   6.979   1.274
 7148SOL    HW122343   5.991   6.984   1.223
 7148SOL    HW222344   6.066   6.917   1.352
 7149SOL     OW22345   5.899   4.408   5.911
 7149SOL    HW122346   5.933   4.317   5.889
 7149SOL    HW222347   5.910   4.468   5.831
 7150SOL     OW22348   3.249   3.119   6.697
 7150SOL    HW122349   3.317   3.053   6.667
 7150SOL    HW222350   3.234   3.110   6.796
 7151SOL     OW22351   4.431   1.319   0.286
 7151SOL    HW122352   4.439   1.403   0.234
 7151SOL    HW222353   4.501   1.317   0.358
 7152SOL     OW22354   6.072   1.141   6.534
 7152SOL    HW122355   6.096   1.239   6.537
 7152SOL    HW222356   6.010   1.124   6.457
 7153SOL     OW22357   3.483   5.491   0.057
 7153SOL    HW122358   3.482   5.391   0.064
 7153SOL    HW222359   3.466   5.519   6.981
 7154SOL     OW22360   3.935   1.756   1.869
 7154SOL    HW122361   3.883   1.686   1.819
 7154SOL    HW222362   3.879   1.792   1.944
 7155SOL     OW22363   0.936   1.354   1.877
 7155SOL    HW122364   1.007   1.413   1.915
 7155SOL    HW222365   0.873   1.326   1.949
 7156SOL     OW22366   6.384   2.696   5.147
 7156SOL    HW122367   6.452   2.640   5.100
 7156SOL    HW222368   6.371   2.781   5.096
 7157SOL     OW22369   0.202   4.162   6.101
 7157SOL    HW122370   0.287   4.189   6.056
 7157SOL    HW222371   0.209   4.068   6.133
 7158SOL     OW22372   4.538   6.852   3.933
 7158SOL    HW122373   4.612   6.846   3.866
 7158SOL    HW222374   4.539   6.943   3.974
 7159SOL     OW22375   0.149   6.395   3.827
 7159SOL    HW122376   0.082   6.337   3.873
 7159SOL    HW222377   0.219   6.338   3.784
 7160SOL     OW22378   6.202   6.988   3.869
 7160SOL    HW122379   6.263   0.015   3.934
 7160SOL    HW222380   6.124   0.030   3.850
 7161SOL     OW22381   3.884   3.619   2.775
 7161SOL    HW122382   3.900   3.692   2.841
 7161SOL    HW222383   3.786   3.600   2.769
 7162SOL     OW22384   0.339   5.786   1.540
 7162SOL    HW122385   0.389   5.870   1.559
 7162SOL    HW222386   0.378   5.741   1.460
 7163SOL     OW22387   6.753   1.057   0.773
 7163SOL    HW122388   6.660   1.068   0.810
 7163SOL    HW222389   6.810   1.132   0.805
 7164SOL     OW22390   1.824   0.876   6.898
 7164SOL    HW122391   1.741   0.830   6.866
 7164SOL    HW222392   1.843   0.847   6.992
 7165SOL     OW22393   6.148   2.419   0.588
 7165SOL    HW122394   6.224   2.362   0.620
 7165SOL    HW222395   6.185   2.496   0.536
 7166SOL     OW22396   6.875   6.085   5.928
 7166SOL    HW122397   6.855   6.157   5.861
 7166SOL    HW222398   6.943   6.118   5.993
 7167SOL     OW22399   6.617   2.584   4.890
 7167SOL    HW122400   6.628   2.487   4.910
 7167SOL    HW222401   6.607   2.598   4.791
 7168SOL     OW22402   1.989   1.037   2.031
 7168SOL    HW122403   2.056   1.093   2.080
 7168SOL    HW222404   2.002   1.047   1.933
 7169SOL     OW22405   2.079   4.286   6.013
 7169SOL    HW122406   2.111   4.225   5.940
 7169SOL    HW222407   2.049   4.373   5.974
 7170SOL     OW22408   3.733   1.515   1.434
 7170SOL    HW122409   3.659   1.553   1.490
 7170SOL    HW222410   3.742   1.417   1.453
 7171SOL     OW22411   6.986   3.803   0.726
 7171SOL    HW122412   6.969   3.845   0.637
 7171SOL    HW222413   0.054   3.838   0.764
 7172SOL     OW22414   1.011   2.272   4.027
 7172SOL    HW122415   0.965   2.337   4.089
 7172SOL    HW222416   1.012   2.181   4.069
 7173SOL     OW22417   4.844   5.208   5.984
 7173SOL    HW122418   4.745   5.210   5.969
 7173SOL    HW222419   4.890   5.250   5.906
 7174SOL     OW22420   6.593   4.324   1.953
 7174SOL    HW122421   6.539   4.372   2.022
 7174SOL    HW222422   6.572   4.362   1.862
 7175SOL     OW22423   6.819   3.849   5.675
 7175SOL    HW122424   6.750   3.797   5.624
 7175SOL    HW222425   6.891   3.788   5.706
 7176SOL     OW22426   0.072   0.370   6.077
 7176SOL    HW122427   7.005   0.320   6.095
 7176SOL    HW222428   0.095   0.363   5.980
 7177SOL     OW22429   1.132   5.876   3.561
 7177SOL    HW122430   1.171   5.817   3.490
 7177SOL    HW222431   1.046   5.836   3.593
 7178SOL     OW22432   2.003   6.209   4.985
 7178SOL    HW122433   2.045   6.121   4.962
 7178SOL    HW222434   1.907   6.194   5.010
 7179SOL     OW22435   3.758   5.152   6.276
 7179SOL    HW122436   3.756   5.138   6.177
 7179SOL    HW222437   3.829   5.218   6.298
 7180SOL     OW22438   1.812   2.985   1.753
 7180SOL    HW122439   1.768   2.895   1.750
 7180SOL    HW222440   1.743   3.056   1.765
 7181SOL     OW22441   2.344   1.652   6.572
 7181SOL    HW122442   2.438   1.679   6.551
 7181SOL    HW222443   2.320   1.681   6.664
 7182SOL     OW22444   1.889   1.156   4.138
 7182SOL    HW122445   1.839   1.116   4.061
 7182SOL    HW222446   1.854   1.118   4.224
 7183SOL     OW22447   1.277   6.804   1.882
 7183SOL    HW122448   1.356   6.742   1.890
 7183SOL    HW222449   1.210   6.766   1.819
 7184SOL     OW22450   6.815   0.833   3.429
 7184SOL    HW122451   6.721   0.865   3.417
 7184SOL    HW222452   6.849   0.860   3.519
 7185SOL     OW22453   4.232   0.669   4.738
 7185SOL    HW122454   4.150   0.614   4.752
 7185SOL    HW222455   4.239   0.695   4.642
 7186SOL     OW22456   6.260   0.735   6.660
 7186SOL    HW122457   6.238   0.728   6.562
 7186SOL    HW222458   6.221   0.820   6.696
 7187SOL     OW22459   3.270   3.339   4.182
 7187SOL    HW122460   3.178   3.376   4.167
 7187SOL    HW222461   3.291   3.272   4.110
 7188SOL     OW22462   4.301   4.319   6.991
 7188SOL    HW122463   4.335   4.283   6.904
 7188SOL    HW222464   4.279   4.416   6.980
 7189SOL     OW22465   6.287   2.647   5.605
 7189SOL    HW122466   6.313   2.554   5.630
 7189SOL    HW222467   6.204   2.673   5.655
 7190SOL     OW22468   6.254   5.029   0.338
 7190SOL    HW122469   6.307   4.944   0.330
 7190SOL    HW222470   6.311   5.106   0.308
 7191SOL     OW22471   6.366   4.827   2.972
 7191SOL    HW122472   6.342   4.909   3.025
 7191SOL    HW222473   6.461   4.835   2.942
 7192SOL     OW22474   2.723   4.169   6.085
 7192SOL    HW122475   2.704   4.265   6.105
 7192SOL    HW222476   2.664   4.139   6.010
 7193SOL     OW22477   3.366   2.163   3.005
 7193SOL    HW122478   3.458   2.130   2.982
 7193SOL    HW222479   3.371   2.259   3.033
 7194SOL     OW22480   2.841   2.882   6.007
 7194SOL    HW122481   2.865   2.785   6.004
 7194SOL    HW222482   2.879   2.923   6.089
 7195SOL     OW22483   0.816   4.935   4.992
 7195SOL    HW122484   0.890   4.869   4.978
 7195SOL    HW222485   0.799   4.945   5.090
 7196SOL     OW22486   3.584   4.190   2.063
 7196SOL    HW122487   3.574   4.257   2.137
 7196SOL    HW222488   3.655   4.124   2.088
 7197SOL     OW22489   3.172   4.625   6.341
 7197SOL    HW122490   3.073   4.612   6.341
 7197SOL    HW222491   3.194   4.714   6.381
 7198SOL     OW22492   0.784   0.671   1.867
 7198SOL    HW122493   0.733   0.587   1.849
 7198SOL    HW222494   0.723   0.738   1.909
 7199SOL     OW22495   6.230   1.525   2.623
 7199SOL    HW122496   6.277   1.473   2.695
 7199SOL    HW222497   6.279   1.610   2.607
 7200SOL     OW22498   1.419   2.393   0.599
 7200SOL    HW122499   1.375   2.356   0.681
 7200SOL    HW222500   1.444   2.318   0.538
 7201SOL     OW22501   5.977   4.955   4.121
 7201SOL    HW122502   5.909   4.891   4.084
 7201SOL    HW222503   5.954   4.976   4.216
 7202SOL     OW22504   4.999   6.892   6.140
 7202SOL    HW122505   4.962   6.982   6.119
 7202SOL    HW222506   5.076   6.902   6.203
 7203SOL     OW22507   0.300   1.528   1.274
 7203SOL    HW122508   0.243   1.522   1.192
 7203SOL    HW222509   0.342   1.439   1.292
 7204SOL     OW22510   6.523   0.333   2.223
 7204SOL    HW122511   6.610   0.318   2.270
 7204SOL    HW222512   6.448   0.296   2.278
 7205SOL     OW22513   2.937   1.892   3.787
 7205SOL    HW122514   2.973   1.910   3.878
 7205SOL    HW222515   2.838   1.876   3.793
 7206SOL     OW22516   2.019   3.294   6.970
 7206SOL    HW122517   1.935   3.250   6.939
 7206SOL    HW222518   2.080   3.225   7.010
 7207SOL     OW22519   1.839   0.567   3.629
 7207SOL    HW122520   1.752   0.613   3.611
 7207SOL    HW222521   1.915   0.629   3.607
 7208SOL     OW22522   2.759   0.818   4.219
 7208SOL    HW122523   2.673   0.828   4.168
 7208SOL    HW222524   2.809   0.738   4.185
 7209SOL     OW22525   3.867   1.365   2.073
 7209SOL    HW122526   3.790   1.393   2.016
 7209SOL    HW222527   3.843   1.379   2.169
 7210SOL     OW22528   2.693   1.328   3.063
 7210SOL    HW122529   2.780   1.328   3.112
 7210SOL    HW222530   2.627   1.273   3.113
 7211SOL     OW22531   4.489   6.355   5.373
 7211SOL    HW122532   4.531   6.395   5.291
 7211SOL    HW222533   4.556   6.350   5.446
 7212SOL     OW22534   0.244   4.516   6.062
 7212SOL    HW122535   0.261   4.440   6.125
 7212SOL    HW222536   0.224   4.599   6.114
 7213SOL     OW22537   3.861   2.230   6.732
 7213SOL    HW122538   3.842   2.216   6.829
 7213SOL    HW222539   3.954   2.263   6.721
 7214SOL     OW22540   6.345   0.830   6.104
 7214SOL    HW122541   6.283   0.757   6.133
 7214SOL    HW222542   6.374   0.814   6.010
 7215SOL     OW22543   5.933   2.212   2.811
 7215SOL    HW122544   6.012   2.229   2.870
 7215SOL    HW222545   5.867   2.154   2.860
 7216SOL     OW22546   3.732   6.618   3.566
 7216SOL    HW122547   3.757   6.565   3.647
 7216SOL    HW222548   3.761   6.569   3.484
 7217SOL     OW22549   1.109   3.075   2.660
 7217SOL    HW122550   1.195   3.060   2.610
 7217SOL    HW222551   1.102   3.170   2.687
 7218SOL     OW22552   6.669   3.226   4.444
 7218SOL    HW122553   6.632   3.317   4.431
 7218SOL    HW222554   6.614   3.159   4.393
 7219SOL     OW22555   3.409   6.399   2.515
 7219SOL    HW122556   3.395   6.319   2.457
 7219SOL    HW222557   3.497   6.441   2.493
 7220SOL     OW22558   6.229   4.706   3.918
 7220SOL    HW122559   6.298   4.711   3.846
 7220SOL    HW222560   6.146   4.663   3.881
 7221SOL     OW22561   3.818   5.616   3.963
 7221SOL    HW122562   3.743   5.670   3.924
 7221SOL    HW222563   3.905   5.653   3.932
 7222SOL     OW22564   6.489   5.649   4.808
 7222SOL    HW122565   6.548   5.653   4.888
 7222SOL    HW222566   6.522   5.714   4.739
 7223SOL     OW22567   0.149   4.248   2.201
 7223SOL    HW122568   0.160   4.268   2.298
 7223SOL    HW222569   0.157   4.333   2.149
 7224SOL     OW22570   4.153   1.964   2.602
 7224SOL    HW122571   4.089   2.021   2.550
 7224SOL    HW222572   4.110   1.936   2.688
 7225SOL     OW22573   1.463   5.810   1.090
 7225SOL    HW122574   1.555   5.815   1.130
 7225SOL    HW222575   1.445   5.892   1.037
 7226SOL     OW22576   6.353   6.437   0.592
 7226SOL    HW122577   6.314   6.491   0.666
 7226SOL    HW222578   6.391   6.353   0.629
 7227SOL     OW22579   2.043   0.974   2.658
 7227SOL    HW122580   1.963   0.921   2.630
 7227SOL    HW222581   2.030   1.006   2.752
 7228SOL     OW22582   6.978   3.103   2.192
 7228SOL    HW122583   6.950   3.117   2.287
 7228SOL    HW222584   6.897   3.092   2.134
 7229SOL     OW22585   6.463   1.085   5.213
 7229SOL    HW122586   6.511   1.137   5.142
 7229SOL    HW222587   6.495   0.990   5.213
 7230SOL     OW22588   2.029   5.371   4.392
 7230SOL    HW122589   1.952   5.323   4.434
 7230SOL    HW222590   2.036   5.346   4.296
 7231SOL     OW22591   4.195   2.171   6.093
 7231SOL    HW122592   4.287   2.183   6.055
 7231SOL    HW222593   4.146   2.102   6.039
 7232SOL     OW22594   4.990   6.561   3.806
 7232SOL    HW122595   5.026   6.653   3.817
 7232SOL    HW222596   4.898   6.565   3.767
 7233SOL     OW22597   0.100   1.375   4.797
 7233SOL    HW122598   0.094   1.359   4.896
 7233SOL    HW222599   0.181   1.328   4.761
 7234SOL     OW22600   5.121   4.274   3.627
 7234SOL    HW122601   5.201   4.296   3.683
 7234SOL    HW222602   5.147   4.275   3.530
 7235SOL     OW22603   0.061   5.255   1.348
 7235SOL    HW122604   0.144   5.277   1.298
 7235SOL    HW222605   0.009   5.339   1.366
 7236SOL     OW22606   0.857   3.468   2.558
 7236SOL    HW122607   0.840   3.471   2.657
 7236SOL    HW222608   0.851   3.373   2.527
 7237SOL     OW22609   5.936   0.939   0.437
 7237SOL    HW122610   6.018   0.901   0.396
 7237SOL    HW222611   5.961   0.994   0.517
 7238SOL     OW22612   4.225   3.258   0.156
 7238SOL    HW122613   4.178   3.310   0.227
 7238SOL    HW222614   4.317   3.236   0.186
 7239SOL     OW22615   6.761   2.431   1.903
 7239SOL    HW122616   6.701   2.375   1.960
 7239SOL    HW222617   6.837   2.375   1.870
 7240SOL     OW22618   6.549   2.082   6.919
 7240SOL    HW122619   6.543   2.174   6.957
 7240SOL    HW222620   6.463   2.033   6.935
 7241SOL     OW22621   2.447   1.290   1.550
 7241SOL    HW122622   2.484   1.329   1.635
 7241SOL    HW222623   2.371   1.347   1.519
 7242SOL     OW22624   6.657   5.011   4.378
 7242SOL    HW122625   6.561   4.996   4.403
 7242SOL    HW222626   6.685   4.942   4.311
 7243SOL     OW22627   6.115   4.417   6.445
 7243SOL    HW122628   6.131   4.476   6.365
 7243SOL    HW222629   6.060   4.466   6.512
 7244SOL     OW22630   0.404   6.045   6.611
 7244SOL    HW122631   0.351   6.084   6.686
 7244SOL    HW222632   0.379   5.949   6.598
 7245SOL     OW22633   0.721   2.694   0.257
 7245SOL    HW122634   0.701   2.745   0.174
 7245SOL    HW222635   0.696   2.748   0.337
 7246SOL     OW22636   4.101   6.827   3.807
 7246SOL    HW122637   4.086   6.776   3.892
 7246SOL    HW222638   4.144   6.915   3.828
 7247SOL     OW22639   3.051   4.178   5.346
 7247SOL    HW122640   3.082   4.132   5.430
 7247SOL    HW222641   3.111   4.152   5.270
 7248SOL     OW22642   3.349   0.961   5.102
 7248SOL    HW122643   3.287   1.037   5.085
 7248SOL    HW222644   3.334   0.890   5.032
 7249SOL     OW22645   3.914   5.142   2.340
 7249SOL    HW122646   3.891   5.107   2.430
 7249SOL    HW222647   3.839   5.197   2.305
 7250SOL     OW22648   5.327   5.290   5.352
 7250SOL    HW122649   5.261   5.222   5.384
 7250SOL    HW222650   5.280   5.361   5.300
 7251SOL     OW22651   0.108   5.883   5.585
 7251SOL    HW122652   0.180   5.872   5.517
 7251SOL    HW222653   0.031   5.933   5.544
 7252SOL     OW22654   3.671   4.143   2.710
 7252SOL    HW122655   3.718   4.196   2.639
 7252SOL    HW222656   3.656   4.050   2.678
 7253SOL     OW22657   2.109   5.966   4.908
 7253SOL    HW122658   2.196   5.919   4.899
 7253SOL    HW222659   2.052   5.918   4.975
 7254SOL     OW22660   5.572   3.233   4.083
 7254SOL    HW122661   5.507   3.300   4.048
 7254SOL    HW222662   5.557   3.220   4.181
 7255SOL     OW22663   5.070   2.947   6.516
 7255SOL    HW122664   5.055   2.869   6.456
 7255SOL    HW222665   4.985   2.970   6.563
 7256SOL     OW22666   3.471   0.218   5.351
 7256SOL    HW122667   3.467   0.192   5.448
 7256SOL    HW222668   3.566   0.237   5.326
 7257SOL     OW22669   0.598   1.701   4.430
 7257SOL    HW122670   0.580   1.632   4.360
 7257SOL    HW222671   0.663   1.665   4.497
 7258SOL     OW22672   6.224   2.050   2.747
 7258SOL    HW122673   6.148   1.993   2.717
 7258SOL    HW222674   6.189   2.131   2.794
 7259SOL     OW22675   1.506   3.837   2.760
 7259SOL    HW122676   1.414   3.801   2.777
 7259SOL    HW222677   1.572   3.783   2.813
 7260SOL     OW22678   5.949   3.351   1.443
 7260SOL    HW122679   5.964   3.253   1.433
 7260SOL    HW222680   5.970   3.380   1.536
 7261SOL     OW22681   6.733   4.261   6.928
 7261SOL    HW122682   6.798   4.250   6.853
 7261SOL    HW222683   6.733   4.356   6.959
 7262SOL     OW22684   6.305   1.503   5.459
 7262SOL    HW122685   6.347   1.419   5.424
 7262SOL    HW222686   6.376   1.572   5.475
 7263SOL     OW22687   0.535   5.141   6.750
 7263SOL    HW122688   0.442   5.143   6.713
 7263SOL    HW222689   0.554   5.226   6.799
 7264SOL     OW22690   6.244   1.860   0.218
 7264SOL    HW122691   6.284   1.840   0.308
 7264SOL    HW222692   6.235   1.775   0.166
 7265SOL     OW22693   4.583   5.558   5.610
 7265SOL    HW122694   4.681   5.551   5.594
 7265SOL    HW222695   4.565   5.621   5.685
 7266SOL     OW22696   0.138   0.738   3.887
 7266SOL    HW122697   0.095   0.804   3.948
 7266SOL    HW222698   0.107   0.645   3.911
 7267SOL     OW22699   6.197   4.879   4.324
 7267SOL    HW122700   6.189   4.947   4.251
 7267SOL    HW222701   6.225   4.792   4.285
 7268SOL     OW22702   6.349   6.145   4.142
 7268SOL    HW122703   6.263   6.175   4.100
 7268SOL    HW222704   6.347   6.045   4.152
 7269SOL     OW22705   2.494   4.457   5.198
 7269SOL    HW122706   2.585   4.470   5.239
 7269SOL    HW222707   2.494   4.494   5.105
 7270SOL     OW22708   0.994   1.317   4.502
 7270SOL    HW122709   1.031   1.227   4.478
 7270SOL    HW222710   0.975   1.320   4.600
 7271SOL     OW22711   1.034   4.381   3.550
 7271SOL    HW122712   0.941   4.363   3.519
 7271SOL    HW222713   1.046   4.347   3.644
 7272SOL     OW22714   6.243   4.809   2.734
 7272SOL    HW122715   6.234   4.904   2.703
 7272SOL    HW222716   6.297   4.807   2.818
 7273SOL     OW22717   0.577   2.579   5.513
 7273SOL    HW122718   0.512   2.536   5.577
 7273SOL    HW222719   0.529   2.651   5.462
 7274SOL     OW22720   0.607   4.708   0.234
 7274SOL    HW122721   0.611   4.803   0.266
 7274SOL    HW222722   0.628   4.647   0.310
 7275SOL     OW22723   6.869   0.391   2.877
 7275SOL    HW122724   6.794   0.454   2.857
 7275SOL    HW222725   6.950   0.445   2.901
 7276SOL     OW22726   5.355   6.691   4.373
 7276SOL    HW122727   5.284   6.648   4.430
 7276SOL    HW222728   5.439   6.699   4.427
 7277SOL     OW22729   4.856   0.140   6.167
 7277SOL    HW122730   4.779   0.204   6.161
 7277SOL    HW222731   4.938   0.189   6.197
 7278SOL     OW22732   3.124   4.007   2.860
 7278SOL    HW122733   3.148   3.996   2.956
 7278SOL    HW222734   3.054   3.940   2.835
 7279SOL     OW22735   3.561   6.259   6.086
 7279SOL    HW122736   3.616   6.309   6.020
 7279SOL    HW222737   3.523   6.177   6.042
 7280SOL     OW22738   4.912   1.549   5.767
 7280SOL    HW122739   4.819   1.584   5.753
 7280SOL    HW222740   4.955   1.597   5.843
 7281SOL     OW22741   4.788   1.184   6.547
 7281SOL    HW122742   4.843   1.102   6.563
 7281SOL    HW222743   4.745   1.212   6.633
 7282SOL     OW22744   6.185   5.873   2.459
 7282SOL    HW122745   6.182   5.890   2.558
 7282SOL    HW222746   6.119   5.800   2.436
 7283SOL     OW22747   2.019   0.372   3.702
 7283SOL    HW122748   1.947   0.437   3.676
 7283SOL    HW222749   1.978   0.285   3.728
 7284SOL     OW22750   6.999   4.187   4.893
 7284SOL    HW122751   0.052   4.255   4.910
 7284SOL    HW222752   0.021   4.107   4.848
 7285SOL     OW22753   5.137   5.594   1.610
 7285SOL    HW122754   5.104   5.682   1.643
 7285SOL    HW222755   5.215   5.565   1.666
 7286SOL     OW22756   2.263   3.181   1.525
 7286SOL    HW122757   2.209   3.247   1.577
 7286SOL    HW222758   2.334   3.229   1.472
 7287SOL     OW22759   6.068   1.477   6.417
 7287SOL    HW122760   6.124   1.538   6.473
 7287SOL    HW222761   6.127   1.422   6.358
 7288SOL     OW22762   3.810   6.710   0.296
 7288SOL    HW122763   3.772   6.801   0.283
 7288SOL    HW222764   3.735   6.643   0.302
 7289SOL     OW22765   4.499   2.096   3.058
 7289SOL    HW122766   4.595   2.122   3.042
 7289SOL    HW222767   4.488   1.999   3.039
 7290SOL     OW22768   2.713   5.173   4.789
 7290SOL    HW122769   2.613   5.163   4.793
 7290SOL    HW222770   2.746   5.208   4.877
 7291SOL     OW22771   2.422   5.892   1.720
 7291SOL    HW122772   2.515   5.905   1.686
 7291SOL    HW222773   2.422   5.818   1.787
 7292SOL     OW22774   2.754   6.775   3.968
 7292SOL    HW122775   2.660   6.739   3.969
 7292SOL    HW222776   2.767   6.834   3.888
 7293SOL     OW22777   1.341   2.068   5.344
 7293SOL    HW122778   1.300   1.978   5.359
 7293SOL    HW222779   1.428   2.074   5.392
 7294SOL     OW22780   2.937   5.105   0.731
 7294SOL    HW122781   2.917   5.056   0.816
 7294SOL    HW222782   3.009   5.056   0.681
 7295SOL     OW22783   6.158   0.801   1.263
 7295SOL    HW122784   6.253   0.772   1.277
 7295SOL    HW222785   6.124   0.761   1.177
 7296SOL     OW22786   3.722   4.737   1.280
 7296SOL    HW122787   3.750   4.648   1.317
 7296SOL    HW222788   3.703   4.800   1.355
 7297SOL     OW22789   5.046   6.808   1.574
 7297SOL    HW122790   5.093   6.741   1.632
 7297SOL    HW222791   4.965   6.767   1.533
 7298SOL     OW22792   5.942   3.464   4.474
 7298SOL    HW122793   6.024   3.416   4.444
 7298SOL    HW222794   5.883   3.482   4.395
 7299SOL     OW22795   6.540   4.171   6.762
 7299SOL    HW122796   6.580   4.179   6.670
 7299SOL    HW222797   6.603   4.210   6.829
 7300SOL     OW22798   4.761   5.166   1.218
 7300SOL    HW122799   4.780   5.171   1.316
 7300SOL    HW222800   4.824   5.101   1.175
 7301SOL     OW22801   6.754   0.432   5.906
 7301SOL    HW122802   6.758   0.386   5.995
 7301SOL    HW222803   6.725   0.367   5.836
 7302SOL     OW22804   5.590   0.926   6.794
 7302SOL    HW122805   5.572   0.835   6.833
 7302SOL    HW222806   5.590   0.920   6.694
 7303SOL     OW22807   3.587   0.950   6.946
 7303SOL    HW122808   3.678   0.939   6.908
 7303SOL    HW222809   3.588   0.927   0.025
 7304SOL     OW22810   3.837   3.579   5.989
 7304SOL    HW122811   3.749   3.558   5.947
 7304SOL    HW222812   3.893   3.496   5.994
 7305SOL     OW22813   5.039   1.226   0.555
 7305SOL    HW122814   4.957   1.212   0.499
 7305SOL    HW222815   5.081   1.314   0.533
 7306SOL     OW22816   4.608   4.951   1.808
 7306SOL    HW122817   4.617   5.050   1.824
 7306SOL    HW222818   4.690   4.905   1.844
 7307SOL     OW22819   4.139   6.700   2.204
 7307SOL    HW122820   4.214   6.766   2.191
 7307SOL    HW222821   4.133   6.640   2.124
 7308SOL     OW22822   6.895   3.152   4.561
 7308SOL    HW122823   6.853   3.121   4.646
 7308SOL    HW222824   6.825   3.161   4.490
 7309SOL     OW22825   4.570   6.367   1.483
 7309SOL    HW122826   4.494   6.394   1.543
 7309SOL    HW222827   4.657   6.379   1.532
 7310SOL     OW22828   3.085   5.010   1.735
 7310SOL    HW122829   3.106   4.921   1.775
 7310SOL    HW222830   3.060   4.999   1.639
 7311SOL     OW22831   2.674   2.204   1.935
 7311SOL    HW122832   2.758   2.233   1.980
 7311SOL    HW222833   2.641   2.278   1.876
 7312SOL     OW22834   6.582   1.527   5.814
 7312SOL    HW122835   6.494   1.494   5.849
 7312SOL    HW222836   6.653   1.511   5.882
 7313SOL     OW22837   4.181   2.498   6.599
 7313SOL    HW122838   4.140   2.585   6.628
 7313SOL    HW222839   4.165   2.429   6.670
 7314SOL     OW22840   0.046   3.563   4.416
 7314SOL    HW122841   0.095   3.649   4.402
 7314SOL    HW222842   0.106   3.487   4.392
 7315SOL     OW22843   6.599   6.995   4.007
 7315SOL    HW122844   6.677   6.934   3.992
 7315SOL    HW222845   6.575   0.022   3.921
 7316SOL     OW22846   3.447   3.718   5.530
 7316SOL    HW122847   3.433   3.805   5.482
 7316SOL    HW222848   3.517   3.730   5.601
 7317SOL     OW22849   3.469   0.992   3.748
 7317SOL    HW122850   3.484   1.089   3.766
 7317SOL    HW222851   3.538   0.938   3.796
 7318SOL     OW22852   1.760   2.372   1.114
 7318SOL    HW122853   1.793   2.425   1.193
 7318SOL    HW222854   1.787   2.419   1.030
 7319SOL     OW22855   6.080   4.370   6.790
 7319SOL    HW122856   6.068   4.302   6.862
 7319SOL    HW222857   6.178   4.386   6.774
 7320SOL     OW22858   6.957   3.066   2.517
 7320SOL    HW122859   0.014   3.095   2.577
 7320SOL    HW222860   6.949   2.967   2.518
 7321SOL     OW22861   2.505   1.212   4.388
 7321SOL    HW122862   2.453   1.231   4.304
 7321SOL    HW222863   2.519   1.298   4.438
 7322SOL     OW22864   0.384   4.334   2.734
 7322SOL    HW122865   0.466   4.276   2.729
 7322SOL    HW222866   0.341   4.337   2.644
 7323SOL     OW22867   1.982   2.882   3.908
 7323SOL    HW122868   1.932   2.813   3.961
 7323SOL    HW222869   1.946   2.884   3.815
 7324SOL     OW22870   5.630   0.496   3.140
 7324SOL    HW122871   5.637   0.492   3.239
 7324SOL    HW222872   5.650   0.589   3.109
 7325SOL     OW22873   3.275   6.301   6.586
 7325SOL    HW122874   3.307   6.394   6.603
 7325SOL    HW222875   3.242   6.261   6.672
 7326SOL     OW22876   2.984   6.577   5.702
 7326SOL    HW122877   3.017   6.570   5.796
 7326SOL    HW222878   2.884   6.569   5.700
 7327SOL     OW22879   1.659   3.084   5.751
 7327SOL    HW122880   1.759   3.086   5.753
 7327SOL    HW222881   1.626   3.015   5.815
 7328SOL     OW22882   2.617   0.214   6.513
 7328SOL    HW122883   2.550   0.266   6.566
 7328SOL    HW222884   2.706   0.259   6.518
 7329SOL     OW22885   3.918   3.322   1.168
 7329SOL    HW122886   3.934   3.301   1.264
 7329SOL    HW222887   3.821   3.341   1.154
 7330SOL     OW22888   3.591   1.527   0.314
 7330SOL    HW122889   3.572   1.432   0.341
 7330SOL    HW222890   3.556   1.543   0.222
 7331SOL     OW22891   5.183   0.539   2.106
 7331SOL    HW122892   5.115   0.481   2.062
 7331SOL    HW222893   5.195   0.623   2.053
 7332SOL     OW22894   3.763   5.289   0.854
 7332SOL    HW122895   3.668   5.275   0.825
 7332SOL    HW222896   3.793   5.212   0.910
 7333SOL     OW22897   1.080   4.575   2.442
 7333SOL    HW122898   1.036   4.634   2.510
 7333SOL    HW222899   1.150   4.520   2.488
 7334SOL     OW22900   3.922   6.378   4.443
 7334SOL    HW122901   3.939   6.365   4.541
 7334SOL    HW222902   3.865   6.459   4.429
 7335SOL     OW22903   1.910   2.422   2.834
 7335SOL    HW122904   1.964   2.344   2.864
 7335SOL    HW222905   1.828   2.389   2.787
 7336SOL     OW22906   2.190   5.996   3.705
 7336SOL    HW122907   2.217   6.083   3.665
 7336SOL    HW222908   2.230   5.987   3.796
 7337SOL     OW22909   6.780   3.032   2.029
 7337SOL    HW122910   6.774   2.938   2.064
 7337SOL    HW222911   6.687   3.067   2.011
 7338SOL     OW22912   6.784   2.458   0.462
 7338SOL    HW122913   6.853   2.385   0.457
 7338SOL    HW222914   6.793   2.507   0.548
 7339SOL     OW22915   6.840   5.607   4.786
 7339SOL    HW122916   6.836   5.528   4.726
 7339SOL    HW222917   6.848   5.691   4.732
 7340SOL     OW22918   2.216   6.983   6.709
 7340SOL    HW122919   2.245   0.055   6.677
 7340SOL    HW222920   2.260   6.912   6.653
 7341SOL     OW22921   5.934   2.637   6.677
 7341SOL    HW122922   5.910   2.715   6.619
 7341SOL    HW222923   5.867   2.628   6.751
 7342SOL     OW22924   0.007   0.199   2.466
 7342SOL    HW122925   6.963   0.121   2.474
 7342SOL    HW222926   6.992   0.273   2.525
 7343SOL     OW22927   5.196   3.895   0.195
 7343SOL    HW122928   5.193   3.954   0.114
 7343SOL    HW222929   5.176   3.800   0.168
 7344SOL     OW22930   1.598   6.366   6.144
 7344SOL    HW122931   1.587   6.382   6.242
 7344SOL    HW222932   1.515   6.325   6.107
 7345SOL     OW22933   3.631   5.326   5.934
 7345SOL    HW122934   3.606   5.355   5.842
 7345SOL    HW222935   3.597   5.392   6.000
 7346SOL     OW22936   5.032   4.696   3.040
 7346SOL    HW122937   5.096   4.638   2.989
 7346SOL    HW222938   5.072   4.787   3.052
 7347SOL     OW22939   5.634   2.421   6.548
 7347SOL    HW122940   5.656   2.395   6.642
 7347SOL    HW222941   5.674   2.511   6.529
 7348SOL     OW22942   0.403   4.704   1.930
 7348SOL    HW122943   0.408   4.783   1.991
 7348SOL    HW222944   0.390   4.621   1.985
 7349SOL     OW22945   3.900   1.930   1.508
 7349SOL    HW122946   3.953   1.864   1.455
 7349SOL    HW222947   3.806   1.898   1.518
 7350SOL     OW22948   3.622   0.239   4.966
 7350SOL    HW122949   3.541   0.277   4.922
 7350SOL    HW222950   3.690   0.216   4.897
 7351SOL     OW22951   3.207   5.016   3.989
 7351SOL    HW122952   3.153   5.101   3.985
 7351SOL    HW222953   3.190   4.970   4.076
 7352SOL     OW22954   6.696   2.557   3.599
 7352SOL    HW122955   6.753   2.531   3.676
 7352SOL    HW222956   6.672   2.654   3.607
 7353SOL     OW22957   6.243   0.448   6.528
 7353SOL    HW122958   6.315   0.433   6.596
 7353SOL    HW222959   6.232   0.546   6.512
 7354SOL     OW22960   1.317   1.722   2.910
 7354SOL    HW122961   1.262   1.805   2.901
 7354SOL    HW222962   1.408   1.747   2.945
 7355SOL     OW22963   1.276   2.210   6.854
 7355SOL    HW122964   1.273   2.310   6.858
 7355SOL    HW222965   1.221   2.179   6.777
 7356SOL     OW22966   4.542   4.306   6.203
 7356SOL    HW122967   4.576   4.332   6.293
 7356SOL    HW222968   4.565   4.210   6.186
 7357SOL     OW22969   5.251   6.220   2.213
 7357SOL    HW122970   5.158   6.214   2.251
 7357SOL    HW222971   5.293   6.130   2.215
 7358SOL     OW22972   5.160   0.972   3.657
 7358SOL    HW122973   5.226   0.949   3.728
 7358SOL    HW222974   5.155   0.897   3.591
 7359SOL     OW22975   4.737   6.925   0.636
 7359SOL    HW122976   4.797   7.004   0.624
 7359SOL    HW222977   4.782   6.857   0.695
 7360SOL     OW22978   2.922   3.624   5.493
 7360SOL    HW122979   2.860   3.647   5.418
 7360SOL    HW222980   3.013   3.661   5.473
 7361SOL     OW22981   5.277   0.569   3.368
 7361SOL    HW122982   5.264   0.616   3.280
 7361SOL    HW222983   5.346   0.497   3.358
 7362SOL     OW22984   3.802   4.953   6.502
 7362SOL    HW122985   3.763   4.985   6.416
 7362SOL    HW222986   3.790   4.854   6.510
 7363SOL     OW22987   3.806   0.175   1.322
 7363SOL    HW122988   3.806   0.102   1.255
 7363SOL    HW222989   3.891   0.172   1.375
 7364SOL     OW22990   5.563   6.875   1.554
 7364SOL    HW122991   5.576   6.974   1.543
 7364SOL    HW222992   5.562   6.832   1.464
 7365SOL     OW22993   5.842   4.769   2.046
 7365SOL    HW122994   5.826   4.814   1.958
 7365SOL    HW222995   5.761   4.717   2.072
 7366SOL     OW22996   1.990   0.958   4.486
 7366SOL    HW122997   1.981   0.905   4.402
 7366SOL    HW222998   1.906   1.011   4.500
 7367SOL     OW22999   4.418   0.154   6.800
 7367SOL    HW123000   4.341   0.162   6.736
 7367SOL    HW223001   4.411   0.224   6.870
 7368SOL     OW23002   4.053   3.359   3.395
 7368SOL    HW123003   4.070   3.452   3.364
 7368SOL    HW223004   3.976   3.321   3.343
 7369SOL     OW23005   5.419   2.847   1.206
 7369SOL    HW123006   5.474   2.832   1.123
 7369SOL    HW223007   5.391   2.759   1.244
 7370SOL     OW23008   2.009   1.926   4.205
 7370SOL    HW123009   1.930   1.986   4.214
 7370SOL    HW223010   2.022   1.874   4.289
 7371SOL     OW23011   3.762   0.681   3.719
 7371SOL    HW123012   3.685   0.723   3.767
 7371SOL    HW223013   3.848   0.713   3.760
 7372SOL     OW23014   5.176   0.790   5.159
 7372SOL    HW123015   5.240   0.714   5.174
 7372SOL    HW223016   5.154   0.833   5.246
 7373SOL     OW23017   5.344   2.748   4.556
 7373SOL    HW123018   5.284   2.811   4.604
 7373SOL    HW223019   5.398   2.697   4.622
 7374SOL     OW23020   6.347   1.779   5.658
 7374SOL    HW123021   6.390   1.689   5.667
 7374SOL    HW223022   6.400   1.834   5.594
 7375SOL     OW23023   1.809   3.482   2.231
 7375SOL    HW123024   1.726   3.428   2.224
 7375SOL    HW223025   1.801   3.563   2.172
 7376SOL     OW23026   0.105   3.736   6.981
 7376SOL    HW123027   0.036   3.673   7.016
 7376SOL    HW223028   0.160   3.770   0.039
 7377SOL     OW23029   3.265   6.194   0.596
 7377SOL    HW123030   3.261   6.116   0.533
 7377SOL    HW223031   3.206   6.177   0.674
 7378SOL     OW23032   1.185   6.076   3.773
 7378SOL    HW123033   1.107   6.033   3.727
 7378SOL    HW223034   1.220   6.015   3.844
 7379SOL     OW23035   3.842   1.112   1.258
 7379SOL    HW123036   3.765   1.086   1.199
 7379SOL    HW223037   3.895   1.030   1.282
 7380SOL     OW23038   5.295   3.589   2.374
 7380SOL    HW123039   5.290   3.564   2.278
 7380SOL    HW223040   5.238   3.527   2.428
 7381SOL     OW23041   3.879   1.237   0.921
 7381SOL    HW123042   3.890   1.294   1.003
 7381SOL    HW223043   3.827   1.155   0.944
 7382SOL     OW23044   6.459   1.427   6.437
 7382SOL    HW123045   6.466   1.413   6.536
 7382SOL    HW223046   6.544   1.466   6.402
 7383SOL     OW23047   2.334   6.861   0.500
 7383SOL    HW123048   2.339   6.820   0.591
 7383SOL    HW223049   2.262   6.815   0.447
 7384SOL     OW23050   0.069   0.427   0.700
 7384SOL    HW123051   0.058   0.424   0.601
 7384SOL    HW223052   0.167   0.433   0.722
 7385SOL     OW23053   5.593   4.221   2.948
 7385SOL    HW123054   5.530   4.289   2.911
 7385SOL    HW223055   5.558   4.129   2.929
 7386SOL     OW23056   6.047   3.495   0.910
 7386SOL    HW123057   6.043   3.551   0.826
 7386SOL    HW223058   5.969   3.433   0.912
 7387SOL     OW23059   6.827   5.545   5.626
 7387SOL    HW123060   6.920   5.569   5.655
 7387SOL    HW223061   6.824   5.448   5.602
 7388SOL     OW23062   2.066   5.473   2.347
 7388SOL    HW123063   2.164   5.455   2.354
 7388SOL    HW223064   2.018   5.428   2.423
 7389SOL     OW23065   6.085   3.093   0.140
 7389SOL    HW123066   6.185   3.101   0.139
 7389SOL    HW223067   6.059   3.014   0.196
 7390SOL     OW23068   2.130   2.225   2.817
 7390SOL    HW123069   2.119   2.126   2.820
 7390SOL    HW223070   2.172   2.252   2.731
 7391SOL     OW23071   3.720   3.040   3.499
 7391SOL    HW123072   3.816   3.069   3.501
 7391SOL    HW223073   3.662   3.119   3.476
 7392SOL     OW23074   3.178   6.204   6.809
 7392SOL    HW123075   3.087   6.244   6.795
 7392SOL    HW223076   3.199   6.202   6.907
 7393SOL     OW23077   5.175   5.218   4.333
 7393SOL    HW123078   5.092   5.184   4.288
 7393SOL    HW223079   5.227   5.274   4.268
 7394SOL     OW23080   2.636   1.678   5.829
 7394SOL    HW123081   2.724   1.712   5.795
 7394SOL    HW223082   2.575   1.756   5.845
 7395SOL     OW23083   2.952   5.338   0.960
 7395SOL    HW123084   2.872   5.390   0.990
 7395SOL    HW223085   2.923   5.268   0.894
 7396SOL     OW23086   2.535   5.183   1.863
 7396SOL    HW123087   2.626   5.142   1.857
 7396SOL    HW223088   2.544   5.282   1.876
 7397SOL     OW23089   5.433   4.619   3.961
 7397SOL    HW123090   5.387   4.698   4.003
 7397SOL    HW223091   5.370   4.541   3.959
 7398SOL     OW23092   2.322   4.302   2.537
 7398SOL    HW123093   2.230   4.317   2.503
 7398SOL    HW223094   2.378   4.259   2.465
 7399SOL     OW23095   5.101   2.414   5.023
 7399SOL    HW123096   5.097   2.513   5.040
 7399SOL    HW223097   5.127   2.367   5.107
 7400SOL     OW23098   5.153   3.173   5.584
 7400SOL    HW123099   5.185   3.081   5.607
 7400SOL    HW223100   5.206   3.210   5.509
 7401SOL     OW23101   1.582   2.672   3.905
 7401SOL    HW123102   1.492   2.667   3.949
 7401SOL    HW223103   1.618   2.764   3.914
 7402SOL     OW23104   3.349   6.180   4.498
 7402SOL    HW123105   3.404   6.152   4.420
 7402SOL    HW223106   3.398   6.250   4.550
 7403SOL     OW23107   1.666   3.933   4.232
 7403SOL    HW123108   1.638   3.844   4.196
 7403SOL    HW223109   1.636   4.005   4.169
 7404SOL     OW23110   3.061   3.896   1.152
 7404SOL    HW123111   3.068   3.996   1.159
 7404SOL    HW223112   3.034   3.858   1.240
 7405SOL     OW23113   3.782   6.611   4.363
 7405SOL    HW123114   3.731   6.598   4.278
 7405SOL    HW223115   3.805   6.707   4.374
 7406SOL     OW23116   0.841   1.024   4.936
 7406SOL    HW123117   0.895   1.096   4.980
 7406SOL    HW223118   0.748   1.057   4.920
 7407SOL     OW23119   0.791   5.894   5.507
 7407SOL    HW123120   0.744   5.979   5.530
 7407SOL    HW223121   0.783   5.877   5.409
 7408SOL     OW23122   3.606   4.866   5.293
 7408SOL    HW123123   3.608   4.769   5.317
 7408SOL    HW223124   3.678   4.914   5.343
 7409SOL     OW23125   6.344   3.463   0.966
 7409SOL    HW123126   6.256   3.507   0.950
 7409SOL    HW223127   6.330   3.379   1.018
 7410SOL     OW23128   7.006   0.677   1.270
 7410SOL    HW123129   0.031   0.633   1.349
 7410SOL    HW223130   0.013   0.627   1.186
 7411SOL     OW23131   1.638   1.776   5.038
 7411SOL    HW123132   1.649   1.794   5.136
 7411SOL    HW223133   1.544   1.747   5.019
 7412SOL     OW23134   4.383   6.486   6.673
 7412SOL    HW123135   4.461   6.446   6.722
 7412SOL    HW223136   4.299   6.439   6.699
 7413SOL     OW23137   4.219   0.131   3.414
 7413SOL    HW123138   4.131   0.125   3.461
 7413SOL    HW223139   4.267   0.044   3.420
 7414SOL     OW23140   3.006   1.466   4.408
 7414SOL    HW123141   2.959   1.422   4.332
 7414SOL    HW223142   3.047   1.396   4.467
 7415SOL     OW23143   3.974   6.404   6.445
 7415SOL    HW123144   3.906   6.380   6.376
 7415SOL    HW223145   3.990   6.325   6.505
 7416SOL     OW23146   0.964   0.973   2.062
 7416SOL    HW123147   0.958   1.073   2.064
 7416SOL    HW223148   0.873   0.933   2.071
 7417SOL     OW23149   0.567   0.960   3.543
 7417SOL    HW123150   0.506   0.926   3.615
 7417SOL    HW223151   0.598   1.052   3.566
 7418SOL     OW23152   1.921   3.947   6.190
 7418SOL    HW123153   1.824   3.948   6.214
 7418SOL    HW223154   1.934   3.993   6.102
 7419SOL     OW23155   6.894   3.656   3.807
 7419SOL    HW123156   6.805   3.619   3.832
 7419SOL    HW223157   6.882   3.731   3.742
 7420SOL     OW23158   6.660   0.139   1.571
 7420SOL    HW123159   6.604   0.069   1.526
 7420SOL    HW223160   6.743   0.153   1.518
 7421SOL     OW23161   5.080   4.169   1.346
 7421SOL    HW123162   5.077   4.240   1.416
 7421SOL    HW223163   5.116   4.207   1.261
 7422SOL     OW23164   5.530   1.943   2.897
 7422SOL    HW123165   5.530   1.861   2.841
 7422SOL    HW223166   5.441   1.989   2.890
 7423SOL     OW23167   5.264   1.719   5.838
 7423SOL    HW123168   5.332   1.772   5.889
 7423SOL    HW223169   5.296   1.625   5.829
 7424SOL     OW23170   0.827   2.440   3.891
 7424SOL    HW123171   0.889   2.380   3.943
 7424SOL    HW223172   0.849   2.434   3.794
 7425SOL     OW23173   5.725   0.724   0.799
 7425SOL    HW123174   5.733   0.820   0.774
 7425SOL    HW223175   5.629   0.695   0.791
 7426SOL     OW23176   4.223   3.682   5.857
 7426SOL    HW123177   4.310   3.638   5.879
 7426SOL    HW223178   4.236   3.745   5.780
 7427SOL     OW23179   2.912   1.155   3.779
 7427SOL    HW123180   2.832   1.190   3.827
 7427SOL    HW223181   2.883   1.094   3.705
 7428SOL     OW23182   4.334   5.887   5.136
 7428SOL    HW123183   4.260   5.846   5.083
 7428SOL    HW223184   4.382   5.817   5.188
 7429SOL     OW23185   1.810   6.821   2.673
 7429SOL    HW123186   1.793   6.910   2.633
 7429SOL    HW223187   1.850   6.760   2.604
 7430SOL     OW23188   6.483   5.396   2.721
 7430SOL    HW123189   6.579   5.406   2.746
 7430SOL    HW223190   6.433   5.351   2.795
 7431SOL     OW23191   1.708   1.472   3.653
 7431SOL    HW123192   1.659   1.547   3.608
 7431SOL    HW223193   1.760   1.421   3.584
 7432SOL     OW23194   2.664   0.611   3.238
 7432SOL    HW123195   2.752   0.612   3.284
 7432SOL    HW223196   2.600   0.671   3.286
 7433SOL     OW23197   2.799   6.858   6.258
 7433SOL    HW123198   2.859   6.924   6.212
 7433SOL    HW223199   2.776   6.892   6.349
 7434SOL     OW23200   4.188   6.407   5.091
 7434SOL    HW123201   4.192   6.307   5.100
 7434SOL    HW223202   4.158   6.447   5.177
 7435SOL     OW23203   4.723   4.446   3.049
 7435SOL    HW123204   4.720   4.545   3.060
 7435SOL    HW223205   4.807   4.411   3.091
 7436SOL     OW23206   5.309   2.969   5.897
 7436SOL    HW123207   5.400   2.952   5.935
 7436SOL    HW223208   5.309   2.943   5.800
 7437SOL     OW23209   3.416   0.061   0.899
 7437SOL    HW123210   3.393   0.112   0.982
 7437SOL    HW223211   3.389   6.983   0.910
 7438SOL     OW23212   2.205   0.661   6.937
 7438SOL    HW123213   2.181   0.758   6.928
 7438SOL    HW223214   2.129   0.611   6.978
 7439SOL     OW23215   1.325   4.433   6.698
 7439SOL    HW123216   1.363   4.384   6.620
 7439SOL    HW223217   1.226   4.416   6.703
 7440SOL     OW23218   5.593   3.647   4.375
 7440SOL    HW123219   5.610   3.630   4.472
 7440SOL    HW223220   5.668   3.609   4.321
 7441SOL     OW23221   5.996   6.009   1.142
 7441SOL    HW123222   6.056   6.000   1.063
 7441SOL    HW223223   6.048   6.046   1.219
 7442SOL     OW23224   5.682   0.744   5.654
 7442SOL    HW123225   5.768   0.728   5.704
 7442SOL    HW223226   5.605   0.724   5.714
 7443SOL     OW23227   0.402   1.140   1.958
 7443SOL    HW123228   0.467   1.160   2.032
 7443SOL    HW223229   0.349   1.059   1.982
 7444SOL     OW23230   1.438   6.366   6.823
 7444SOL    HW123231   1.494   6.434   6.777
 7444SOL    HW223232   1.392   6.408   6.902
 7445SOL     OW23233   4.394   6.244   1.696
 7445SOL    HW123234   4.385   6.182   1.618
 7445SOL    HW223235   4.444   6.199   1.769
 7446SOL     OW23236   5.604   3.834   0.311
 7446SOL    HW123237   5.655   3.795   0.234
 7446SOL    HW223238   5.533   3.769   0.340
 7447SOL     OW23239   0.277   4.503   0.977
 7447SOL    HW123240   0.330   4.503   0.893
 7447SOL    HW223241   0.239   4.594   0.993
 7448SOL     OW23242   4.661   5.123   6.814
 7448SOL    HW123243   4.743   5.181   6.807
 7448SOL    HW223244   4.608   5.131   6.730
 7449SOL     OW23245   0.653   4.479   6.246
 7449SOL    HW123246   0.701   4.402   6.203
 7449SOL    HW223247   0.690   4.494   6.337
 7450SOL     OW23248   5.545   2.395   5.290
 7450SOL    HW123249   5.623   2.334   5.296
 7450SOL    HW223250   5.460   2.341   5.293
 7451SOL     OW23251   5.051   4.684   3.309
 7451SOL    HW123252   4.974   4.630   3.340
 7451SOL    HW223253   5.051   4.689   3.209
 7452SOL     OW23254   6.067   5.140   5.524
 7452SOL    HW123255   6.072   5.185   5.435
 7452SOL    HW223256   6.134   5.066   5.528
 7453SOL     OW23257   3.794   5.921   5.983
 7453SOL    HW123258   3.831   6.013   5.994
 7453SOL    HW223259   3.846   5.871   5.914
 7454SOL     OW23260   4.628   2.118   0.346
 7454SOL    HW123261   4.562   2.139   0.417
 7454SOL    HW223262   4.603   2.165   0.262
 7455SOL     OW23263   0.066   2.328   3.052
 7455SOL    HW123264   0.080   2.363   2.960
 7455SOL    HW223265   0.077   2.402   3.118
 7456SOL     OW23266   2.835   2.331   6.047
 7456SOL    HW123267   2.756   2.288   6.091
 7456SOL    HW223268   2.803   2.385   5.969
 7457SOL     OW23269   2.691   0.646   2.982
 7457SOL    HW123270   2.656   0.568   2.931
 7457SOL    HW223271   2.676   0.631   3.080
 7458SOL     OW23272   1.534   4.876   5.422
 7458SOL    HW123273   1.480   4.843   5.500
 7458SOL    HW223274   1.608   4.934   5.456
 7459SOL     OW23275   5.871   0.750   2.883
 7459SOL    HW123276   5.810   0.729   2.807
 7459SOL    HW223277   5.837   0.830   2.932
 7460SOL     OW23278   1.967   6.486   0.928
 7460SOL    HW123279   1.998   6.393   0.907
 7460SOL    HW223280   2.008   6.550   0.863
 7461SOL     OW23281   2.019   4.543   5.934
 7461SOL    HW123282   1.925   4.561   5.907
 7461SOL    HW223283   2.081   4.563   5.858
 7462SOL     OW23284   1.359   4.785   0.210
 7462SOL    HW123285   1.333   4.820   0.299
 7462SOL    HW223286   1.459   4.780   0.204
 7463SOL     OW23287   3.866   5.302   1.230
 7463SOL    HW123288   3.822   5.390   1.216
 7463SOL    HW223289   3.798   5.235   1.260
 7464SOL     OW23290   6.454   6.193   5.347
 7464SOL    HW123291   6.481   6.226   5.256
 7464SOL    HW223292   6.406   6.106   5.338
 7465SOL     OW23293   1.609   4.758   6.790
 7465SOL    HW123294   1.537   4.694   6.816
 7465SOL    HW223295   1.612   4.834   6.855
 7466SOL     OW23296   0.567   0.123   5.371
 7466SOL    HW123297   0.600   0.216   5.384
 7466SOL    HW223298   0.600   0.086   5.284
 7467SOL     OW23299   0.451   2.954   5.658
 7467SOL    HW123300   0.528   3.018   5.653
 7467SOL    HW223301   0.473   2.882   5.723
 7468SOL     OW23302   6.379   3.786   5.614
 7468SOL    HW123303   6.319   3.740   5.549
 7468SOL    HW223304   6.407   3.874   5.576
 7469SOL     OW23305   6.728   2.220   0.857
 7469SOL    HW123306   6.681   2.244   0.942
 7469SOL    HW223307   6.824   2.249   0.863
 7470SOL     OW23308   5.711   2.583   3.687
 7470SOL    HW123309   5.698   2.531   3.772
 7470SOL    HW223310   5.805   2.617   3.683
 7471SOL     OW23311   4.618   6.196   6.233
 7471SOL    HW123312   4.683   6.269   6.214
 7471SOL    HW223313   4.668   6.110   6.248
 7472SOL     OW23314   6.003   6.767   5.534
 7472SOL    HW123315   6.084   6.817   5.565
 7472SOL    HW223316   5.924   6.796   5.587
 7473SOL     OW23317   3.843   5.934   4.102
 7473SOL    HW123318   3.883   6.025   4.097
 7473SOL    HW223319   3.908   5.866   4.068
 7474SOL     OW23320   5.964   2.234   6.347
 7474SOL    HW123321   5.870   2.202   6.356
 7474SOL    HW223322   5.996   2.270   6.435
 7475SOL     OW23323   4.955   2.502   0.729
 7475SOL    HW123324   5.031   2.513   0.665
 7475SOL    HW223325   4.971   2.560   0.809
 7476SOL     OW23326   2.283   0.204   2.761
 7476SOL    HW123327   2.212   0.267   2.728
 7476SOL    HW223328   2.350   0.255   2.815
 7477SOL     OW23329   0.915   4.132   4.980
 7477SOL    HW123330   0.886   4.098   4.891
 7477SOL    HW223331   0.956   4.223   4.970
 7478SOL     OW23332   0.655   0.818   5.975
 7478SOL    HW123333   0.653   0.873   5.891
 7478SOL    HW223334   0.578   0.755   5.975
 7479SOL     OW23335   5.505   3.084   7.017
 7479SOL    HW123336   5.519   2.989   6.988
 7479SOL    HW223337   5.584   3.115   0.052
 7480SOL     OW23338   3.648   5.009   2.471
 7480SOL    HW123339   3.637   4.967   2.561
 7480SOL    HW223340   3.681   4.941   2.406
 7481SOL     OW23341   0.352   3.462   6.749
 7481SOL    HW123342   0.360   3.547   6.696
 7481SOL    HW223343   0.411   3.393   6.709
 7482SOL     OW23344   4.550   2.156   2.756
 7482SOL    HW123345   4.535   2.171   2.854
 7482SOL    HW223346   4.613   2.225   2.722
 7483SOL     OW23347   5.019   2.115   5.378
 7483SOL    HW123348   5.054   2.021   5.376
 7483SOL    HW223349   4.920   2.113   5.366
 7484SOL     OW23350   3.234   6.786   3.987
 7484SOL    HW123351   3.155   6.731   4.011
 7484SOL    HW223352   3.238   6.797   3.887
 7485SOL     OW23353   3.632   6.763   5.194
 7485SOL    HW123354   3.575   6.823   5.250
 7485SOL    HW223355   3.728   6.773   5.220
 7486SOL     OW23356   2.459   6.554   1.221
 7486SOL    HW123357   2.525   6.541   1.295
 7486SOL    HW223358   2.368   6.570   1.260
 7487SOL     OW23359   4.323   6.527   4.686
 7487SOL    HW123360   4.236   6.544   4.732
 7487SOL    HW223361   4.313   6.449   4.624
 7488SOL     OW23362   0.716   5.742   4.222
 7488SOL    HW123363   0.669   5.706   4.141
 7488SOL    HW223364   0.773   5.670   4.262
 7489SOL     OW23365   5.495   3.280   6.853
 7489SOL    HW123366   5.589   3.290   6.819
 7489SOL    HW223367   5.490   3.201   6.914
 7490SOL     OW23368   0.888   2.628   2.261
 7490SOL    HW123369   0.842   2.694   2.321
 7490SOL    HW223370   0.936   2.678   2.189
 7491SOL     OW23371   4.378   3.211   0.400
 7491SOL    HW123372   4.434   3.188   0.479
 7491SOL    HW223373   4.289   3.165   0.408
 7492SOL     OW23374   1.630   6.915   4.293
 7492SOL    HW123375   1.667   7.007   4.301
 7492SOL    HW223376   1.686   6.852   4.346
 7493SOL     OW23377   6.673   4.723   5.320
 7493SOL    HW123378   6.631   4.652   5.377
 7493SOL    HW223379   6.770   4.702   5.306
 7494SOL     OW23380   6.764   1.066   2.472
 7494SOL    HW123381   6.722   1.081   2.383
 7494SOL    HW223382   6.729   0.980   2.511
 7495SOL     OW23383   1.520   3.655   5.238
 7495SOL    HW123384   1.548   3.644   5.143
 7495SOL    HW223385   1.558   3.580   5.293
 7496SOL     OW23386   5.682   4.288   2.474
 7496SOL    HW123387   5.704   4.214   2.537
 7496SOL    HW223388   5.760   4.350   2.466
 7497SOL     OW23389   0.174   6.481   0.831
 7497SOL    HW123390   0.175   6.382   0.846
 7497SOL    HW223391   0.110   6.503   0.757
 7498SOL     OW23392   3.028   6.870   2.855
 7498SOL    HW123393   3.090   6.820   2.795
 7498SOL    HW223394   2.954   6.910   2.801
 7499SOL     OW23395   3.348   2.024   3.915
 7499SOL    HW123396   3.279   2.025   3.842
 7499SOL    HW223397   3.359   1.930   3.948
 7500SOL     OW23398   3.562   0.149   3.346
 7500SOL    HW123399   3.541   0.058   3.310
 7500SOL    HW223400   3.598   0.207   3.273
 7501SOL     OW23401   6.229   2.451   5.044
 7501SOL    HW123402   6.293   2.382   5.078
 7501SOL    HW223403   6.178   2.490   5.121
 7502SOL     OW23404   4.560   0.569   4.386
 7502SOL    HW123405   4.528   0.559   4.481
 7502SOL    HW223406   4.559   0.480   4.341
 7503SOL     OW23407   1.706   5.795   1.666
 7503SOL    HW123408   1.701   5.807   1.765
 7503SOL    HW223409   1.778   5.853   1.629
 7504SOL     OW23410   6.372   6.683   4.677
 7504SOL    HW123411   6.278   6.655   4.697
 7504SOL    HW223412   6.424   6.603   4.647
 7505SOL     OW23413   0.280   6.291   4.934
 7505SOL    HW123414   0.247   6.253   5.021
 7505SOL    HW223415   0.208   6.284   4.865
 7506SOL     OW23416   3.587   1.593   3.669
 7506SOL    HW123417   3.608   1.680   3.624
 7506SOL    HW223418   3.544   1.611   3.757
 7507SOL     OW23419   6.385   4.260   5.278
 7507SOL    HW123420   6.343   4.350   5.292
 7507SOL    HW223421   6.483   4.267   5.298
 7508SOL     OW23422   2.642   5.581   0.227
 7508SOL    HW123423   2.709   5.615   0.160
 7508SOL    HW223424   2.642   5.481   0.226
 7509SOL     OW23425   6.374   4.964   1.684
 7509SOL    HW123426   6.450   5.028   1.679
 7509SOL    HW223427   6.322   4.966   1.599
 7510SOL     OW23428   3.642   3.662   3.359
 7510SOL    HW123429   3.694   3.644   3.275
 7510SOL    HW223430   3.702   3.653   3.438
 7511SOL     OW23431   4.288   6.520   3.912
 7511SOL    HW123432   4.305   6.605   3.963
 7511SOL    HW223433   4.375   6.473   3.896
 7512SOL     OW23434   3.957   0.468   6.818
 7512SOL    HW123435   3.962   0.376   6.779
 7512SOL    HW223436   3.984   0.464   6.914
 7513SOL     OW23437   1.253   2.268   2.436
 7513SOL    HW123438   1.300   2.212   2.367
 7513SOL    HW223439   1.191   2.331   2.390
 7514SOL     OW23440   1.278   5.082   1.538
 7514SOL    HW123441   1.319   5.092   1.447
 7514SOL    HW223442   1.280   4.986   1.565
 7515SOL     OW23443   0.282   5.206   5.007
 7515SOL    HW123444   0.259   5.303   5.013
 7515SOL    HW223445   0.223   5.153   5.069
 7516SOL     OW23446   1.315   6.205   5.392
 7516SOL    HW123447   1.303   6.155   5.307
 7516SOL    HW223448   1.225   6.229   5.429
 7517SOL     OW23449   0.627   1.216   6.135
 7517SOL    HW123450   0.694   1.278   6.177
 7517SOL    HW223451   0.624   1.233   6.036
 7518SOL     OW23452   4.855   2.450   3.303
 7518SOL    HW123453   4.875   2.394   3.383
 7518SOL    HW223454   4.758   2.443   3.280
 7519SOL     OW23455   3.504   6.268   4.017
 7519SOL    HW123456   3.594   6.293   4.054
 7519SOL    HW223457   3.471   6.341   3.957
 7520SOL     OW23458   1.892   1.607   0.377
 7520SOL    HW123459   1.864   1.653   0.293
 7520SOL    HW223460   1.859   1.659   0.456
 7521SOL     OW23461   3.192   1.462   5.404
 7521SOL    HW123462   3.149   1.410   5.478
 7521SOL    HW223463   3.252   1.531   5.443
 7522SOL     OW23464   2.212   6.971   3.141
 7522SOL    HW123465   2.215   6.875   3.170
 7522SOL    HW223466   2.137   6.983   3.076
 7523SOL     OW23467   5.533   1.555   0.634
 7523SOL    HW123468   5.477   1.473   0.651
 7523SOL    HW223469   5.629   1.529   0.626
 7524SOL     OW23470   0.524   2.903   4.462
 7524SOL    HW123471   0.498   2.928   4.368
 7524SOL    HW223472   0.451   2.929   4.525
 7525SOL     OW23473   4.096   5.477   6.521
 7525SOL    HW123474   4.133   5.543   6.456
 7525SOL    HW223475   4.125   5.500   6.614
 7526SOL     OW23476   2.463   3.437   1.665
 7526SOL    HW123477   2.456   3.511   1.598
 7526SOL    HW223478   2.406   3.459   1.745
 7527SOL     OW23479   3.954   4.791   3.547
 7527SOL    HW123480   4.037   4.736   3.552
 7527SOL    HW223481   3.963   4.870   3.607
 7528SOL     OW23482   5.820   3.259   6.189
 7528SOL    HW123483   5.859   3.351   6.180
 7528SOL    HW223484   5.732   3.265   6.237
 7529SOL     OW23485   6.176   2.822   4.182
 7529SOL    HW123486   6.099   2.856   4.237
 7529SOL    HW223487   6.146   2.807   4.088
 7530SOL     OW23488   0.147   2.053   1.671
 7530SOL    HW123489   0.054   2.048   1.636
 7530SOL    HW223490   0.210   2.011   1.605
 7531SOL     OW23491   4.259   2.240   3.604
 7531SOL    HW123492   4.187   2.296   3.645
 7531SOL    HW223493   4.251   2.244   3.504
 7532SOL     OW23494   4.278   5.216   6.519
 7532SOL    HW123495   4.198   5.159   6.501
 7532SOL    HW223496   4.253   5.312   6.508
 7533SOL     OW23497   4.166   4.413   1.673
 7533SOL    HW123498   4.100   4.352   1.717
 7533SOL    HW223499   4.252   4.413   1.725
 7534SOL     OW23500   4.316   0.082   4.527
 7534SOL    HW123501   4.328   0.029   4.443
 7534SOL    HW223502   4.220   0.106   4.538
 7535SOL     OW23503   0.577   6.201   3.851
 7535SOL    HW123504   0.659   6.258   3.843
 7535SOL    HW223505   0.604   6.107   3.869
 7536SOL     OW23506   5.053   6.291   4.733
 7536SOL    HW123507   4.976   6.330   4.683
 7536SOL    HW223508   5.122   6.257   4.668
 7537SOL     OW23509   2.433   6.514   3.096
 7537SOL    HW123510   2.501   6.587   3.086
 7537SOL    HW223511   2.477   6.425   3.083
 7538SOL     OW23512   0.513   3.894   0.394
 7538SOL    HW123513   0.430   3.910   0.448
 7538SOL    HW223514   0.544   3.800   0.408
 7539SOL     OW23515   0.014   6.964   3.875
 7539SOL    HW123516   0.041   0.030   3.923
 7539SOL    HW223517   0.086   6.895   3.887
 7540SOL     OW23518   6.248   5.548   2.660
 7540SOL    HW123519   6.229   5.577   2.567
 7540SOL    HW223520   6.344   5.523   2.669
 7541SOL     OW23521   1.862   4.204   6.439
 7541SOL    HW123522   1.858   4.281   6.376
 7541SOL    HW223523   1.947   4.154   6.425
 7542SOL     OW23524   6.331   5.901   4.881
 7542SOL    HW123525   6.328   5.806   4.849
 7542SOL    HW223526   6.426   5.929   4.892
 7543SOL     OW23527   2.595   1.092   6.676
 7543SOL    HW123528   2.549   1.040   6.604
 7543SOL    HW223529   2.548   1.179   6.689
 7544SOL     OW23530   6.882   1.984   4.052
 7544SOL    HW123531   6.807   1.981   3.985
 7544SOL    HW223532   6.965   2.015   4.007
 7545SOL     OW23533   0.944   4.808   6.404
 7545SOL    HW123534   0.911   4.888   6.355
 7545SOL    HW223535   0.935   4.727   6.346
 7546SOL     OW23536   2.330   2.870   1.775
 7546SOL    HW123537   2.401   2.801   1.766
 7546SOL    HW223538   2.371   2.960   1.786
 7547SOL     OW23539   4.436   0.068   1.112
 7547SOL    HW123540   4.437   7.004   1.055
 7547SOL    HW223541   4.488   0.141   1.067
 7548SOL     OW23542   3.341   2.261   6.153
 7548SOL    HW123543   3.250   2.300   6.144
 7548SOL    HW223544   3.403   2.305   6.088
 7549SOL     OW23545   5.563   2.130   4.306
 7549SOL    HW123546   5.483   2.186   4.284
 7549SOL    HW223547   5.534   2.035   4.319
 7550SOL     OW23548   2.471   4.604   4.390
 7550SOL    HW123549   2.431   4.682   4.440
 7550SOL    HW223550   2.568   4.621   4.375
 7551SOL     OW23551   6.227   2.990   5.955
 7551SOL    HW123552   6.283   2.908   5.941
 7551SOL    HW223553   6.131   2.969   5.934
 7552SOL     OW23554   2.597   6.388   5.175
 7552SOL    HW123555   2.668   6.371   5.107
 7552SOL    HW223556   2.639   6.407   5.263
 7553SOL     OW23557   5.582   6.332   5.706
 7553SOL    HW123558   5.515   6.259   5.718
 7553SOL    HW223559   5.562   6.407   5.769
 7554SOL     OW23560   4.817   0.872   0.886
 7554SOL    HW123561   4.751   0.943   0.863
 7554SOL    HW223562   4.848   0.884   0.980
 7555SOL     OW23563   4.032   5.087   4.982
 7555SOL    HW123564   3.943   5.127   5.007
 7555SOL    HW223565   4.104   5.130   5.037
 7556SOL     OW23566   0.448   6.727   1.202
 7556SOL    HW123567   0.495   6.639   1.196
 7556SOL    HW223568   0.384   6.735   1.125
 7557SOL     OW23569   4.633   0.602   0.584
 7557SOL    HW123570   4.631   0.638   0.678
 7557SOL    HW223571   4.694   0.523   0.581
 7558SOL     OW23572   1.090   1.572   4.163
 7558SOL    HW123573   1.187   1.547   4.153
 7558SOL    HW223574   1.073   1.658   4.115
 7559SOL     OW23575   3.045   1.463   5.070
 7559SOL    HW123576   2.954   1.463   5.029
 7559SOL    HW223577   3.057   1.545   5.126
 7560SOL     OW23578   0.591   1.254   5.858
 7560SOL    HW123579   0.633   1.335   5.816
 7560SOL    HW223580   0.494   1.251   5.832
 7561SOL     OW23581   6.039   1.805   5.084
 7561SOL    HW123582   5.971   1.747   5.128
 7561SOL    HW223583   6.130   1.785   5.121
 7562SOL     OW23584   1.899   5.596   3.772
 7562SOL    HW123585   1.951   5.582   3.857
 7562SOL    HW223586   1.953   5.651   3.709
 7563SOL     OW23587   3.519   5.520   2.355
 7563SOL    HW123588   3.522   5.426   2.320
 7563SOL    HW223589   3.610   5.548   2.384
 7564SOL     OW23590   3.744   1.826   5.449
 7564SOL    HW123591   3.705   1.861   5.364
 7564SOL    HW223592   3.703   1.873   5.527
 7565SOL     OW23593   6.557   3.718   6.187
 7565SOL    HW123594   6.612   3.730   6.105
 7565SOL    HW223595   6.496   3.640   6.175
 7566SOL     OW23596   4.575   4.563   1.456
 7566SOL    HW123597   4.621   4.627   1.517
 7566SOL    HW223598   4.479   4.553   1.484
 7567SOL     OW23599   1.481   0.343   4.282
 7567SOL    HW123600   1.527   0.428   4.310
 7567SOL    HW223601   1.488   0.333   4.182
 7568SOL     OW23602   5.967   5.808   1.917
 7568SOL    HW123603   5.885   5.761   1.951
 7568SOL    HW223604   6.008   5.861   1.991
 7569SOL     OW23605   4.520   4.277   0.413
 7569SOL    HW123606   4.483   4.332   0.488
 7569SOL    HW223607   4.455   4.204   0.391
 7570SOL     OW23608   0.228   2.396   2.803
 7570SOL    HW123609   0.226   2.298   2.784
 7570SOL    HW223610   0.321   2.431   2.791
 7571SOL     OW23611   4.753   2.170   2.993
 7571SOL    HW123612   4.807   2.144   3.072
 7571SOL    HW223613   4.802   2.145   2.909
 7572SOL     OW23614   4.285   6.950   3.118
 7572SOL    HW123615   4.258   0.026   3.096
 7572SOL    HW223616   4.316   6.946   3.213
 7573SOL     OW23617   5.053   6.822   5.863
 7573SOL    HW123618   5.031   6.807   5.960
 7573SOL    HW223619   5.148   6.851   5.855
 7574SOL     OW23620   0.922   2.717   3.737
 7574SOL    HW123621   0.893   2.724   3.833
 7574SOL    HW223622   1.007   2.665   3.732
 7575SOL     OW23623   0.362   6.743   1.673
 7575SOL    HW123624   0.426   6.711   1.602
 7575SOL    HW223625   0.268   6.722   1.645
 7576SOL     OW23626   5.192   3.126   0.457
 7576SOL    HW123627   5.267   3.082   0.407
 7576SOL    HW223628   5.109   3.125   0.401
 7577SOL     OW23629   1.195   6.952   0.985
 7577SOL    HW123630   1.290   6.923   0.998
 7577SOL    HW223631   1.191   0.034   0.981
 7578SOL     OW23632   6.352   5.834   3.453
 7578SOL    HW123633   6.393   5.831   3.545
 7578SOL    HW223634   6.417   5.877   3.390
 7579SOL     OW23635   0.386   0.977   0.170
 7579SOL    HW123636   0.336   1.054   0.208
 7579SOL    HW223637   0.468   0.959   0.225
 7580SOL     OW23638   2.331   4.999   3.589
 7580SOL    HW123639   2.260   5.044   3.534
 7580SOL    HW223640   2.379   4.932   3.533
 7581SOL     OW23641   6.650   0.702   2.485
 7581SOL    HW123642   6.742   0.704   2.525
 7581SOL    HW223643   6.613   0.795   2.485
 7582SOL     OW23644   2.673   0.954   5.882
 7582SOL    HW123645   2.645   0.996   5.796
 7582SOL    HW223646   2.738   0.880   5.864
 7583SOL     OW23647   5.318   2.998   2.635
 7583SOL    HW123648   5.352   3.060   2.705
 7583SOL    HW223649   5.352   2.905   2.653
 7584SOL     OW23650   0.344   0.828   3.730
 7584SOL    HW123651   0.409   0.832   3.805
 7584SOL    HW223652   0.259   0.786   3.761
 7585SOL     OW23653   1.339   1.369   6.799
 7585SOL    HW123654   1.395   1.446   6.829
 7585SOL    HW223655   1.351   1.292   6.862
 7586SOL     OW23656   1.252   1.057   2.215
 7586SOL    HW123657   1.160   1.088   2.189
 7586SOL    HW223658   1.267   1.076   2.312
 7587SOL     OW23659   3.707   0.302   0.688
 7587SOL    HW123660   3.799   0.312   0.650
 7587SOL    HW223661   3.709   0.237   0.764
 7588SOL     OW23662   2.045   2.777   4.409
 7588SOL    HW123663   1.999   2.828   4.482
 7588SOL    HW223664   2.108   2.710   4.450
 7589SOL     OW23665   0.469   0.608   2.905
 7589SOL    HW123666   0.464   0.540   2.979
 7589SOL    HW223667   0.380   0.650   2.892
 7590SOL     OW23668   6.921   0.888   6.640
 7590SOL    HW123669   6.920   0.847   6.732
 7590SOL    HW223670   6.938   0.817   6.572
 7591SOL     OW23671   3.772   3.065   4.647
 7591SOL    HW123672   3.843   3.080   4.579
 7591SOL    HW223673   3.813   3.060   4.738
 7592SOL     OW23674   0.176   6.813   5.235
 7592SOL    HW123675   0.272   6.803   5.259
 7592SOL    HW223676   0.143   6.902   5.268
 7593SOL     OW23677   0.873   1.263   6.219
 7593SOL    HW123678   0.843   1.180   6.172
 7593SOL    HW223679   0.965   1.286   6.189
 7594SOL     OW23680   0.160   4.780   0.074
 7594SOL    HW123681   0.167   4.816   6.999
 7594SOL    HW223682   0.248   4.742   0.102
 7595SOL     OW23683   0.917   2.950   6.510
 7595SOL    HW123684   0.981   2.937   6.585
 7595SOL    HW223685   0.824   2.953   6.547
 7596SOL     OW23686   3.533   0.817   5.230
 7596SOL    HW123687   3.511   0.723   5.204
 7596SOL    HW223688   3.462   0.878   5.197
 7597SOL     OW23689   2.040   4.149   2.098
 7597SOL    HW123690   2.122   4.146   2.042
 7597SOL    HW223691   2.051   4.091   2.178
 7598SOL     OW23692   6.524   0.815   3.195
 7598SOL    HW123693   6.561   0.906   3.215
 7598SOL    HW223694   6.596   0.756   3.159
 7599SOL     OW23695   3.673   3.510   0.346
 7599SOL    HW123696   3.585   3.551   0.370
 7599SOL    HW223697   3.740   3.532   0.417
 7600SOL     OW23698   1.420   6.433   4.276
 7600SOL    HW123699   1.405   6.447   4.178
 7600SOL    HW223700   1.486   6.360   4.290
 7601SOL     OW23701   3.305   6.485   1.731
 7601SOL    HW123702   3.322   6.388   1.749
 7601SOL    HW223703   3.380   6.523   1.678
 7602SOL     OW23704   0.071   1.774   0.817
 7602SOL    HW123705   0.037   1.734   0.732
 7602SOL    HW223706   0.084   1.872   0.806
 7603SOL     OW23707   3.782   0.181   5.984
 7603SOL    HW123708   3.748   0.247   6.051
 7603SOL    HW223709   3.878   0.202   5.962
 7604SOL     OW23710   0.137   2.229   4.888
 7604SOL    HW123711   0.161   2.134   4.909
 7604SOL    HW223712   0.081   2.266   4.962
 7605SOL     OW23713   2.365   6.655   0.743
 7605SOL    HW123714   2.433   6.583   0.759
 7605SOL    HW223715   2.293   6.649   0.812
 7606SOL     OW23716   6.642   1.389   3.102
 7606SOL    HW123717   6.609   1.476   3.067
 7606SOL    HW223718   6.697   1.405   3.184
 7607SOL     OW23719   2.338   6.066   5.756
 7607SOL    HW123720   2.412   6.117   5.799
 7607SOL    HW223721   2.289   6.125   5.692
 7608SOL     OW23722   5.770   2.483   6.205
 7608SOL    HW123723   5.852   2.431   6.230
 7608SOL    HW223724   5.776   2.511   6.109
 7609SOL     OW23725   1.128   1.620   4.868
 7609SOL    HW123726   1.132   1.680   4.789
 7609SOL    HW223727   1.121   1.676   4.951
 7610SOL     OW23728   4.046   4.848   4.860
 7610SOL    HW123729   4.058   4.942   4.890
 7610SOL    HW223730   3.967   4.842   4.799
 7611SOL     OW23731   4.946   3.510   6.806
 7611SOL    HW123732   5.031   3.492   6.855
 7611SOL    HW223733   4.884   3.562   6.865
 7612SOL     OW23734   3.542   1.702   2.963
 7612SOL    HW123735   3.558   1.608   2.993
 7612SOL    HW223736   3.454   1.733   2.999
 7613SOL     OW23737   0.571   1.394   1.293
 7613SOL    HW123738   0.636   1.469   1.302
 7613SOL    HW223739   0.615   1.317   1.247
 7614SOL     OW23740   4.867   3.894   0.099
 7614SOL    HW123741   4.848   3.988   0.070
 7614SOL    HW223742   4.922   3.896   0.183
 7615SOL     OW23743   5.479   3.177   5.259
 7615SOL    HW123744   5.571   3.180   5.299
 7615SOL    HW223745   5.476   3.236   5.178
 7616SOL     OW23746   6.178   0.205   3.166
 7616SOL    HW123747   6.237   0.125   3.171
 7616SOL    HW223748   6.085   0.177   3.142
 7617SOL     OW23749   6.121   4.384   3.659
 7617SOL    HW123750   6.079   4.420   3.576
 7617SOL    HW223751   6.129   4.457   3.727
 7618SOL     OW23752   2.619   2.321   0.445
 7618SOL    HW123753   2.637   2.397   0.383
 7618SOL    HW223754   2.686   2.249   0.429
 7619SOL     OW23755   0.989   1.797   4.596
 7619SOL    HW123756   1.062   1.861   4.615
 7619SOL    HW223757   1.023   1.725   4.536
 7620SOL     OW23758   3.687   4.416   1.073
 7620SOL    HW123759   3.603   4.446   1.120
 7620SOL    HW223760   3.720   4.332   1.116
 7621SOL     OW23761   6.473   4.621   7.007
 7621SOL    HW123762   6.454   4.594   0.083
 7621SOL    HW223763   6.444   4.548   6.945
 7622SOL     OW23764   3.435   3.812   1.248
 7622SOL    HW123765   3.510   3.793   1.311
 7622SOL    HW223766   3.396   3.901   1.268
 7623SOL     OW23767   4.686   4.356   1.026
 7623SOL    HW123768   4.655   4.424   1.093
 7623SOL    HW223769   4.643   4.268   1.046
 7624SOL     OW23770   0.816   3.228   2.455
 7624SOL    HW123771   0.829   3.151   2.516
 7624SOL    HW223772   0.767   3.198   2.373
 7625SOL     OW23773   5.547   0.855   1.116
 7625SOL    HW123774   5.647   0.844   1.119
 7625SOL    HW223775   5.524   0.914   1.038
 7626SOL     OW23776   4.409   0.661   5.919
 7626SOL    HW123777   4.370   0.743   5.962
 7626SOL    HW223778   4.455   0.687   5.834
 7627SOL     OW23779   4.405   2.117   6.695
 7627SOL    HW123780   4.322   2.091   6.647
 7627SOL    HW223781   4.429   2.211   6.672
 7628SOL     OW23782   3.313   2.782   0.377
 7628SOL    HW123783   3.408   2.752   0.390
 7628SOL    HW223784   3.254   2.701   0.369
 7629SOL     OW23785   6.179   2.578   3.556
 7629SOL    HW123786   6.209   2.551   3.648
 7629SOL    HW223787   6.238   2.651   3.522
 7630SOL     OW23788   1.015   6.388   4.959
 7630SOL    HW123789   1.112   6.363   4.959
 7630SOL    HW223790   1.001   6.465   4.896
 7631SOL     OW23791   0.919   0.644   5.637
 7631SOL    HW123792   0.936   0.560   5.585
 7631SOL    HW223793   0.891   0.717   5.574
 7632SOL     OW23794   4.480   5.490   0.616
 7632SOL    HW123795   4.490   5.520   0.711
 7632SOL    HW223796   4.455   5.568   0.559
 7633SOL     OW23797   6.479   1.062   1.227
 7633SOL    HW123798   6.570   1.048   1.187
 7633SOL    HW223799   6.468   1.002   1.306
 7634SOL     OW23800   0.077   2.455   0.250
 7634SOL    HW123801   0.079   2.361   0.283
 7634SOL    HW223802   0.029   2.458   0.162
 7635SOL     OW23803   2.495   3.783   5.622
 7635SOL    HW123804   2.574   3.833   5.656
 7635SOL    HW223805   2.412   3.818   5.666
 7636SOL     OW23806   6.970   4.200   4.343
 7636SOL    HW123807   6.953   4.102   4.329
 7636SOL    HW223808   0.032   4.227   4.289
 7637SOL     OW23809   1.201   6.094   4.570
 7637SOL    HW123810   1.241   6.185   4.563
 7637SOL    HW223811   1.101   6.101   4.570
 7638SOL     OW23812   0.253   6.197   1.372
 7638SOL    HW123813   0.207   6.284   1.391
 7638SOL    HW223814   0.338   6.214   1.323
 7639SOL     OW23815   1.451   0.953   6.778
 7639SOL    HW123816   1.418   1.029   6.835
 7639SOL    HW223817   1.502   0.888   6.835
 7640SOL     OW23818   3.321   1.218   0.785
 7640SOL    HW123819   3.263   1.272   0.723
 7640SOL    HW223820   3.409   1.199   0.741
 7641SOL     OW23821   0.722   4.166   3.574
 7641SOL    HW123822   0.715   4.221   3.657
 7641SOL    HW223823   0.758   4.221   3.500
 7642SOL     OW23824   5.568   1.524   3.431
 7642SOL    HW123825   5.663   1.497   3.413
 7642SOL    HW223826   5.566   1.619   3.463
 7643SOL     OW23827   5.078   3.653   3.439
 7643SOL    HW123828   5.140   3.627   3.513
 7643SOL    HW223829   5.130   3.702   3.368
 7644SOL     OW23830   5.538   3.944   1.081
 7644SOL    HW123831   5.501   3.858   1.114
 7644SOL    HW223832   5.624   3.927   1.032
 7645SOL     OW23833   3.509   4.456   6.067
 7645SOL    HW123834   3.558   4.403   5.998
 7645SOL    HW223835   3.502   4.404   6.151
 7646SOL     OW23836   6.231   2.014   0.882
 7646SOL    HW123837   6.274   2.103   0.896
 7646SOL    HW223838   6.274   1.946   0.942
 7647SOL     OW23839   6.731   2.239   4.835
 7647SOL    HW123840   6.645   2.290   4.844
 7647SOL    HW223841   6.801   2.283   4.890
 7648SOL     OW23842   3.197   1.734   1.882
 7648SOL    HW123843   3.137   1.761   1.806
 7648SOL    HW223844   3.142   1.686   1.951
 7649SOL     OW23845   3.981   1.243   6.021
 7649SOL    HW123846   4.019   1.166   6.072
 7649SOL    HW223847   3.883   1.230   6.008
 7650SOL     OW23848   3.809   2.672   0.531
 7650SOL    HW123849   3.807   2.759   0.581
 7650SOL    HW223850   3.850   2.686   0.441
 7651SOL     OW23851   3.164   4.762   6.008
 7651SOL    HW123852   3.145   4.860   6.011
 7651SOL    HW223853   3.208   4.734   6.094
 7652SOL     OW23854   1.050   0.985   4.184
 7652SOL    HW123855   1.005   1.046   4.120
 7652SOL    HW223856   0.984   0.916   4.216
 7653SOL     OW23857   1.420   1.250   6.381
 7653SOL    HW123858   1.513   1.271   6.412
 7653SOL    HW223859   1.355   1.283   6.449
 7654SOL     OW23860   5.554   2.164   6.102
 7654SOL    HW123861   5.534   2.242   6.043
 7654SOL    HW223862   5.653   2.161   6.121
 7655SOL     OW23863   3.273   1.520   3.175
 7655SOL    HW123864   3.292   1.422   3.165
 7655SOL    HW223865   3.178   1.533   3.202
 7656SOL     OW23866   6.747   3.273   6.643
 7656SOL    HW123867   6.753   3.216   6.561
 7656SOL    HW223868   6.818   3.343   6.640
 7657SOL     OW23869   0.841   4.127   4.493
 7657SOL    HW123870   0.814   4.218   4.463
 7657SOL    HW223871   0.918   4.094   4.438
 7658SOL     OW23872   2.327   1.036   0.826
 7658SOL    HW123873   2.377   1.109   0.873
 7658SOL    HW223874   2.346   0.949   0.870
 7659SOL     OW23875   5.189   3.970   5.744
 7659SOL    HW123876   5.117   3.987   5.676
 7659SOL    HW223877   5.153   3.911   5.816
 7660SOL     OW23878   6.783   5.186   5.083
 7660SOL    HW123879   6.743   5.119   5.147
 7660SOL    HW223880   6.857   5.143   5.032
 7661SOL     OW23881   4.385   1.577   5.523
 7661SOL    HW123882   4.314   1.647   5.538
 7661SOL    HW223883   4.474   1.615   5.547
 7662SOL     OW23884   6.289   0.132   1.292
 7662SOL    HW123885   6.218   0.062   1.295
 7662SOL    HW223886   6.258   0.209   1.236
 7663SOL     OW23887   0.286   5.668   5.623
 7663SOL    HW123888   0.211   5.729   5.649
 7663SOL    HW223889   0.251   5.598   5.561
 7664SOL     OW23890   3.935   2.117   1.949
 7664SOL    HW123891   3.841   2.150   1.941
 7664SOL    HW223892   3.953   2.091   2.044
 7665SOL     OW23893   4.151   0.271   5.757
 7665SOL    HW123894   4.091   0.315   5.691
 7665SOL    HW223895   4.103   0.261   5.844
 7666SOL     OW23896   5.231   4.723   3.555
 7666SOL    HW123897   5.245   4.817   3.584
 7666SOL    HW223898   5.186   4.721   3.465
 7667SOL     OW23899   3.975   5.791   1.847
 7667SOL    HW123900   3.883   5.796   1.808
 7667SOL    HW223901   4.024   5.713   1.806
 7668SOL     OW23902   2.253   5.888   0.853
 7668SOL    HW123903   2.244   5.968   0.794
 7668SOL    HW223904   2.305   5.913   0.935
 7669SOL     OW23905   2.201   1.121   5.891
 7669SOL    HW123906   2.118   1.115   5.946
 7669SOL    HW223907   2.271   1.061   5.929
 7670SOL     OW23908   0.722   6.832   0.727
 7670SOL    HW123909   0.695   6.888   0.649
 7670SOL    HW223910   0.815   6.856   0.755
 7671SOL     OW23911   3.362   0.341   1.005
 7671SOL    HW123912   3.282   0.334   0.945
 7671SOL    HW223913   3.427   0.406   0.967
 7672SOL     OW23914   4.726   5.054   2.798
 7672SOL    HW123915   4.792   5.007   2.739
 7672SOL    HW223916   4.669   4.986   2.844
 7673SOL     OW23917   1.576   5.995   4.023
 7673SOL    HW123918   1.600   6.091   4.012
 7673SOL    HW223919   1.596   5.965   4.116
 7674SOL     OW23920   4.600   6.287   4.326
 7674SOL    HW123921   4.523   6.351   4.327
 7674SOL    HW223922   4.573   6.203   4.279
 7675SOL     OW23923   5.046   6.454   3.525
 7675SOL    HW123924   5.047   6.518   3.602
 7675SOL    HW223925   4.973   6.387   3.539
 7676SOL     OW23926   3.410   2.799   5.656
 7676SOL    HW123927   3.349   2.813   5.735
 7676SOL    HW223928   3.435   2.888   5.618
 7677SOL     OW23929   6.143   4.707   0.413
 7677SOL    HW123930   6.213   4.673   0.476
 7677SOL    HW223931   6.187   4.735   0.327
 7678SOL     OW23932   1.485   1.078   5.211
 7678SOL    HW123933   1.398   1.032   5.194
 7678SOL    HW223934   1.470   1.176   5.221
 7679SOL     OW23935   3.280   5.509   5.598
 7679SOL    HW123936   3.220   5.479   5.672
 7679SOL    HW223937   3.226   5.522   5.515
 7680SOL     OW23938   2.275   0.197   4.869
 7680SOL    HW123939   2.193   0.213   4.924
 7680SOL    HW223940   2.351   0.170   4.929
 7681SOL     OW23941   2.800   3.496   6.306
 7681SOL    HW123942   2.827   3.404   6.336
 7681SOL    HW223943   2.700   3.505   6.312
 7682SOL     OW23944   3.122   1.365   2.717
 7682SOL    HW123945   3.136   1.457   2.753
 7682SOL    HW223946   3.198   1.341   2.656
 7683SOL     OW23947   0.382   5.525   4.329
 7683SOL    HW123948   0.476   5.491   4.340
 7683SOL    HW223949   0.385   5.613   4.281
 7684SOL     OW23950   4.667   3.451   1.216
 7684SOL    HW123951   4.571   3.450   1.244
 7684SOL    HW223952   4.701   3.357   1.212
 7685SOL     OW23953   2.377   0.557   0.312
 7685SOL    HW123954   2.397   0.550   0.214
 7685SOL    HW223955   2.385   0.466   0.354
 7686SOL     OW23956   6.338   6.996   4.881
 7686SOL    HW123957   6.425   6.951   4.861
 7686SOL    HW223958   6.292   6.948   4.956
 7687SOL     OW23959   6.112   4.441   6.162
 7687SOL    HW123960   6.055   4.520   6.185
 7687SOL    HW223961   6.055   4.361   6.148
 7688SOL     OW23962   0.450   4.067   6.336
 7688SOL    HW123963   0.489   4.112   6.256
 7688SOL    HW223964   0.416   3.976   6.310
 7689SOL     OW23965   4.631   0.787   1.404
 7689SOL    HW123966   4.604   0.694   1.430
 7689SOL    HW223967   4.557   0.851   1.425
 7690SOL     OW23968   5.723   5.796   1.449
 7690SOL    HW123969   5.693   5.784   1.544
 7690SOL    HW223970   5.722   5.707   1.403
 7691SOL     OW23971   4.811   3.853   3.320
 7691SOL    HW123972   4.802   3.755   3.301
 7691SOL    HW223973   4.907   3.875   3.336
 7692SOL     OW23974   2.846   0.137   2.889
 7692SOL    HW123975   2.772   0.165   2.950
 7692SOL    HW223976   2.815   0.060   2.832
 7693SOL     OW23977   2.257   0.933   1.330
 7693SOL    HW123978   2.285   0.959   1.422
 7693SOL    HW223979   2.244   1.015   1.274
 7694SOL     OW23980   4.959   1.410   5.441
 7694SOL    HW123981   5.015   1.487   5.473
 7694SOL    HW223982   4.872   1.445   5.405
 7695SOL     OW23983   4.606   0.301   3.877
 7695SOL    HW123984   4.587   0.369   3.948
 7695SOL    HW223985   4.556   0.216   3.898
 7696SOL     OW23986   1.628   2.783   5.513
 7696SOL    HW123987   1.589   2.874   5.502
 7696SOL    HW223988   1.627   2.758   5.610
 7697SOL     OW23989   5.159   6.921   3.036
 7697SOL    HW123990   5.160   7.005   3.091
 7697SOL    HW223991   5.138   6.944   2.941
 7698SOL     OW23992   6.137   3.015   0.764
 7698SOL    HW123993   6.197   2.939   0.739
 7698SOL    HW223994   6.193   3.095   0.787
 7699SOL     OW23995   5.006   5.749   5.856
 7699SOL    HW123996   4.954   5.702   5.927
 7699SOL    HW223997   4.943   5.781   5.785
 7700SOL     OW23998   4.973   6.356   2.598
 7700SOL    HW123999   5.030   6.274   2.598
 7700SOL    HW224000   5.018   6.428   2.544
 7701SOL     OW24001   1.352   2.205   6.175
 7701SOL    HW124002   1.443   2.241   6.155
 7701SOL    HW224003   1.350   2.168   6.268
 7702SOL     OW24004   4.318   6.887   4.363
 7702SOL    HW124005   4.248   6.893   4.292
 7702SOL    HW224006   4.406   6.915   4.326
 7703SOL     OW24007   6.370   0.043   5.398
 7703SOL    HW124008   6.294   0.098   5.364
 7703SOL    HW224009   6.441   0.038   5.328
 7704SOL     OW24010   0.338   1.519   5.087
 7704SOL    HW124011   0.283   1.561   5.015
 7704SOL    HW224012   0.371   1.590   5.150
 7705SOL     OW24013   1.008   5.221   6.437
 7705SOL    HW124014   0.910   5.204   6.443
 7705SOL    HW224015   1.034   5.290   6.505
 7706SOL     OW24016   3.183   2.892   2.105
 7706SOL    HW124017   3.197   2.990   2.101
 7706SOL    HW224018   3.151   2.859   2.016
 7707SOL     OW24019   0.041   4.182   6.484
 7707SOL    HW124020   0.065   4.237   6.405
 7707SOL    HW224021   6.993   4.111   6.457
 7708SOL     OW24022   2.268   0.233   4.449
 7708SOL    HW124023   2.258   0.333   4.444
 7708SOL    HW224024   2.343   0.204   4.390
 7709SOL     OW24025   6.988   4.702   1.611
 7709SOL    HW124026   6.940   4.622   1.647
 7709SOL    HW224027   0.037   4.673   1.543
 7710SOL     OW24028   0.118   3.096   1.175
 7710SOL    HW124029   0.144   3.008   1.215
 7710SOL    HW224030   0.024   3.092   1.143
 7711SOL     OW24031   6.785   4.656   4.625
 7711SOL    HW124032   6.765   4.715   4.703
 7711SOL    HW224033   6.851   4.701   4.565
 7712SOL     OW24034   0.321   5.145   5.500
 7712SOL    HW124035   0.380   5.198   5.560
 7712SOL    HW224036   0.336   5.172   5.405
 7713SOL     OW24037   1.437   4.414   0.060
 7713SOL    HW124038   1.438   4.456   0.151
 7713SOL    HW224039   1.437   4.486   7.008
 7714SOL     OW24040   6.478   1.273   4.752
 7714SOL    HW124041   6.385   1.310   4.763
 7714SOL    HW224042   6.514   1.298   4.662
 7715SOL     OW24043   3.776   3.095   5.417
 7715SOL    HW124044   3.748   3.153   5.494
 7715SOL    HW224045   3.695   3.069   5.365
 7716SOL     OW24046   1.146   6.305   6.308
 7716SOL    HW124047   1.124   6.402   6.296
 7716SOL    HW224048   1.230   6.283   6.259
 7717SOL     OW24049   0.267   2.196   6.500
 7717SOL    HW124050   0.188   2.143   6.468
 7717SOL    HW224051   0.351   2.148   6.477
 7718SOL     OW24052   1.037   3.507   3.089
 7718SOL    HW124053   0.982   3.545   3.164
 7718SOL    HW224054   1.063   3.413   3.111
 7719SOL     OW24055   1.998   4.957   4.675
 7719SOL    HW124056   2.091   4.992   4.660
 7719SOL    HW224057   1.986   4.933   4.771
 7720SOL     OW24058   4.625   1.135   6.806
 7720SOL    HW124059   4.697   1.165   6.868
 7720SOL    HW224060   4.552   1.204   6.803
 7721SOL     OW24061   0.246   0.419   2.456
 7721SOL    HW124062   0.183   0.347   2.429
 7721SOL    HW224063   0.202   0.508   2.447
 7722SOL     OW24064   0.686   5.962   3.946
 7722SOL    HW124065   0.625   5.883   3.944
 7722SOL    HW224066   0.775   5.935   3.982
 7723SOL     OW24067   4.795   4.067   6.812
 7723SOL    HW124068   4.776   4.155   6.856
 7723SOL    HW224069   4.738   3.996   6.852
 7724SOL     OW24070   1.970   3.449   1.495
 7724SOL    HW124071   2.015   3.537   1.477
 7724SOL    HW224072   2.019   3.401   1.568
 7725SOL     OW24073   5.233   3.054   3.443
 7725SOL    HW124074   5.295   2.990   3.489
 7725SOL    HW224075   5.283   3.137   3.419
 7726SOL     OW24076   1.134   3.557   5.493
 7726SOL    HW124077   1.119   3.564   5.592
 7726SOL    HW224078   1.106   3.642   5.449
 7727SOL     OW24079   4.253   1.139   2.176
 7727SOL    HW124080   4.323   1.081   2.217
 7727SOL    HW224081   4.240   1.114   2.080
 7728SOL     OW24082   1.818   3.814   4.961
 7728SOL    HW124083   1.916   3.804   4.943
 7728SOL    HW224084   1.798   3.778   5.052
 7729SOL     OW24085   6.976   1.581   3.671
 7729SOL    HW124086   6.972   1.502   3.733
 7729SOL    HW224087   0.050   1.590   3.634
 7730SOL     OW24088   6.292   4.432   5.028
 7730SOL    HW124089   6.208   4.398   5.071
 7730SOL    HW224090   6.313   4.523   5.062
 7731SOL     OW24091   6.893   6.707   6.392
 7731SOL    HW124092   6.963   6.753   6.338
 7731SOL    HW224093   6.893   6.609   6.371
 7732SOL     OW24094   3.819   6.741   6.542
 7732SOL    HW124095   3.853   6.684   6.617
 7732SOL    HW224096   3.768   6.685   6.478
 7733SOL     OW24097   6.034   5.787   1.653
 7733SOL    HW124098   5.998   5.779   1.746
 7733SOL    HW224099   6.132   5.810   1.657
 7734SOL     OW24100   3.455   3.529   4.928
 7734SOL    HW124101   3.417   3.451   4.879
 7734SOL    HW224102   3.450   3.513   5.027
 7735SOL     OW24103   6.935   6.087   0.739
 7735SOL    HW124104   0.015   6.088   0.721
 7735SOL    HW224105   6.912   6.009   0.798
 7736SOL     OW24106   1.642   2.660   6.881
 7736SOL    HW124107   1.561   2.716   6.865
 7736SOL    HW224108   1.687   2.641   6.794
 7737SOL     OW24109   4.261   4.916   0.808
 7737SOL    HW124110   4.329   4.896   0.879
 7737SOL    HW224111   4.297   4.886   0.719
 7738SOL     OW24112   2.813   0.502   5.728
 7738SOL    HW124113   2.744   0.563   5.688
 7738SOL    HW224114   2.877   0.473   5.657
 7739SOL     OW24115   1.780   1.759   0.836
 7739SOL    HW124116   1.865   1.808   0.854
 7739SOL    HW224117   1.723   1.761   0.918
 7740SOL     OW24118   2.035   0.243   5.003
 7740SOL    HW124119   2.017   0.254   5.101
 7740SOL    HW224120   1.978   0.307   4.951
 7741SOL     OW24121   1.353   4.285   6.082
 7741SOL    HW124122   1.342   4.300   5.984
 7741SOL    HW224123   1.289   4.214   6.112
 7742SOL     OW24124   4.634   1.952   4.158
 7742SOL    HW124125   4.548   1.921   4.200
 7742SOL    HW224126   4.697   1.981   4.230
 7743SOL     OW24127   4.801   1.990   5.598
 7743SOL    HW124128   4.791   2.087   5.576
 7743SOL    HW224129   4.893   1.973   5.632
 7744SOL     OW24130   1.206   6.654   4.587
 7744SOL    HW124131   1.218   6.702   4.674
 7744SOL    HW224132   1.285   6.672   4.529
 7745SOL     OW24133   2.949   6.983   0.810
 7745SOL    HW124134   2.951   0.054   0.765
 7745SOL    HW224135   2.874   6.928   0.772
 7746SOL     OW24136   1.133   5.731   0.700
 7746SOL    HW124137   1.048   5.761   0.655
 7746SOL    HW224138   1.125   5.746   0.798
 7747SOL     OW24139   0.899   6.058   0.826
 7747SOL    HW124140   0.951   6.136   0.862
 7747SOL    HW224141   0.874   5.998   0.902
 7748SOL     OW24142   4.641   2.106   6.050
 7748SOL    HW124143   4.686   2.020   6.031
 7748SOL    HW224144   4.709   2.175   6.075
 7749SOL     OW24145   3.623   3.897   4.344
 7749SOL    HW124146   3.639   3.806   4.383
 7749SOL    HW224147   3.538   3.896   4.291
 7750SOL     OW24148   5.451   3.966   5.457
 7750SOL    HW124149   5.545   3.993   5.477
 7750SOL    HW224150   5.391   4.046   5.465
 7751SOL     OW24151   6.794   1.028   4.764
 7751SOL    HW124152   6.893   1.026   4.774
 7751SOL    HW224153   6.765   1.120   4.737
 7752SOL     OW24154   6.335   5.633   5.373
 7752SOL    HW124155   6.426   5.647   5.411
 7752SOL    HW224156   6.323   5.536   5.351
 7753SOL     OW24157   3.252   1.125   4.806
 7753SOL    HW124158   3.340   1.080   4.792
 7753SOL    HW224159   3.214   1.154   4.718
 7754SOL     OW24160   6.385   0.816   1.613
 7754SOL    HW124161   6.294   0.811   1.654
 7754SOL    HW224162   6.420   0.723   1.599
 7755SOL     OW24163   1.118   5.905   5.214
 7755SOL    HW124164   1.141   5.857   5.298
 7755SOL    HW224165   1.045   5.970   5.231
 7756SOL     OW24166   3.505   5.783   2.744
 7756SOL    HW124167   3.570   5.859   2.739
 7756SOL    HW224168   3.535   5.710   2.683
 7757SOL     OW24169   4.776   6.467   6.156
 7757SOL    HW124170   4.850   6.415   6.199
 7757SOL    HW224171   4.729   6.522   6.225
 7758SOL     OW24172   2.663   1.966   5.620
 7758SOL    HW124173   2.745   1.977   5.565
 7758SOL    HW224174   2.595   2.034   5.594
 7759SOL     OW24175   1.909   0.810   5.468
 7759SOL    HW124176   1.991   0.824   5.412
 7759SOL    HW224177   1.833   0.862   5.429
 7760SOL     OW24178   4.567   2.451   2.448
 7760SOL    HW124179   4.558   2.532   2.390
 7760SOL    HW224180   4.521   2.373   2.405
 7761SOL     OW24181   4.011   6.948   6.751
 7761SOL    HW124182   3.963   6.917   6.669
 7761SOL    HW224183   4.074   6.876   6.781
 7762SOL     OW24184   2.762   2.007   0.995
 7762SOL    HW124185   2.823   1.930   0.977
 7762SOL    HW224186   2.669   1.974   1.011
 7763SOL     OW24187   2.072   1.538   0.978
 7763SOL    HW124188   2.083   1.632   1.010
 7763SOL    HW224189   2.001   1.535   0.907
 7764SOL     OW24190   3.175   3.039   3.195
 7764SOL    HW124191   3.126   3.063   3.111
 7764SOL    HW224192   3.110   3.028   3.269
 7765SOL     OW24193   6.933   2.183   2.695
 7765SOL    HW124194   6.894   2.144   2.611
 7765SOL    HW224195   6.862   2.231   2.745
 7766SOL     OW24196   6.778   2.868   0.005
 7766SOL    HW124197   6.764   2.953   0.056
 7766SOL    HW224198   6.813   2.797   0.066
 7767SOL     OW24199   5.305   4.204   5.513
 7767SOL    HW124200   5.315   4.295   5.474
 7767SOL    HW224201   5.354   4.200   5.601
 7768SOL     OW24202   3.516   5.235   2.319
 7768SOL    HW124203   3.421   5.208   2.303
 7768SOL    HW224204   3.566   5.157   2.359
 7769SOL     OW24205   6.050   1.947   1.671
 7769SOL    HW124206   5.992   1.944   1.753
 7769SOL    HW224207   5.997   1.983   1.594
 7770SOL     OW24208   3.734   5.556   1.250
 7770SOL    HW124209   3.706   5.596   1.163
 7770SOL    HW224210   3.652   5.528   1.302
 7771SOL     OW24211   2.472   1.349   5.343
 7771SOL    HW124212   2.378   1.344   5.309
 7771SOL    HW224213   2.479   1.300   5.430
 7772SOL     OW24214   5.360   1.605   4.831
 7772SOL    HW124215   5.451   1.604   4.789
 7772SOL    HW224216   5.304   1.675   4.786
 7773SOL     OW24217   3.639   4.597   5.333
 7773SOL    HW124218   3.650   4.516   5.275
 7773SOL    HW224219   3.609   4.568   5.424
 7774SOL     OW24220   4.630   1.507   6.008
 7774SOL    HW124221   4.701   1.518   6.078
 7774SOL    HW224222   4.545   1.550   6.041
 7775SOL     OW24223   3.313   0.095   2.415
 7775SOL    HW124224   3.269   0.009   2.389
 7775SOL    HW224225   3.264   0.135   2.493
 7776SOL     OW24226   3.694   3.545   0.032
 7776SOL    HW124227   3.699   3.539   0.131
 7776SOL    HW224228   3.651   3.463   7.013
 7777SOL     OW24229   1.795   1.297   7.002
 7777SOL    HW124230   1.842   1.250   0.059
 7777SOL    HW224231   1.789   1.236   6.923
 7778SOL     OW24232   5.676   0.982   0.691
 7778SOL    HW124233   5.665   0.921   0.612
 7778SOL    HW224234   5.654   1.076   0.663
 7779SOL     OW24235   3.768   3.280   6.522
 7779SOL    HW124236   3.792   3.365   6.568
 7779SOL    HW224237   3.723   3.300   6.436
 7780SOL     OW24238   1.572   0.028   4.622
 7780SOL    HW124239   1.651   6.989   4.602
 7780SOL    HW224240   1.495   0.002   4.564
 7781SOL     OW24241   1.286   4.878   4.894
 7781SOL    HW124242   1.213   4.910   4.833
 7781SOL    HW224243   1.374   4.912   4.861
 7782SOL     OW24244   3.099   4.264   6.718
 7782SOL    HW124245   3.072   4.306   6.631
 7782SOL    HW224246   3.108   4.165   6.705
 7783SOL     OW24247   2.759   5.289   6.267
 7783SOL    HW124248   2.704   5.323   6.192
 7783SOL    HW224249   2.819   5.362   6.300
 7784SOL     OW24250   0.602   2.445   6.975
 7784SOL    HW124251   0.505   2.460   6.952
 7784SOL    HW224252   0.657   2.519   6.936
 7785SOL     OW24253   2.733   5.814   4.349
 7785SOL    HW124254   2.751   5.861   4.263
 7785SOL    HW224255   2.663   5.745   4.336
 7786SOL     OW24256   3.279   4.075   4.843
 7786SOL    HW124257   3.305   4.011   4.771
 7786SOL    HW224258   3.356   4.135   4.864
 7787SOL     OW24259   2.660   2.499   5.255
 7787SOL    HW124260   2.634   2.593   5.274
 7787SOL    HW224261   2.757   2.486   5.278
 7788SOL     OW24262   0.633   1.516   0.163
 7788SOL    HW124263   0.700   1.441   0.161
 7788SOL    HW224264   0.678   1.600   0.192
 7789SOL     OW24265   2.212   0.138   1.065
 7789SOL    HW124266   2.278   0.135   1.140
 7789SOL    HW224267   2.143   0.208   1.084
 7790SOL     OW24268   6.031   3.773   2.695
 7790SOL    HW124269   6.030   3.713   2.776
 7790SOL    HW224270   6.105   3.839   2.703
 7791SOL     OW24271   1.519   5.424   4.878
 7791SOL    HW124272   1.561   5.396   4.792
 7791SOL    HW224273   1.580   5.403   4.954
 7792SOL     OW24274   2.614   5.427   6.056
 7792SOL    HW124275   2.538   5.363   6.042
 7792SOL    HW224276   2.581   5.521   6.048
 7793SOL     OW24277   0.856   0.812   6.169
 7793SOL    HW124278   0.812   0.799   6.258
 7793SOL    HW224279   0.787   0.837   6.101
 7794SOL     OW24280   5.452   5.594   3.789
 7794SOL    HW124281   5.505   5.671   3.754
 7794SOL    HW224282   5.477   5.511   3.739
 7795SOL     OW24283   2.351   5.056   5.297
 7795SOL    HW124284   2.422   4.985   5.298
 7795SOL    HW224285   2.394   5.145   5.309
 7796SOL     OW24286   3.976   3.133   3.810
 7796SOL    HW124287   3.924   3.063   3.857
 7796SOL    HW224288   4.016   3.196   3.876
 7797SOL     OW24289   0.718   0.242   2.505
 7797SOL    HW124290   0.812   0.250   2.472
 7797SOL    HW224291   0.690   0.146   2.505
 7798SOL     OW24292   4.215   5.181   0.101
 7798SOL    HW124293   4.262   5.153   0.017
 7798SOL    HW224294   4.279   5.181   0.177
 7799SOL     OW24295   6.873   5.089   1.165
 7799SOL    HW124296   6.933   5.144   1.224
 7799SOL    HW224297   6.783   5.080   1.207
 7800SOL     OW24298   0.688   5.703   2.040
 7800SOL    HW124299   0.627   5.640   2.088
 7800SOL    HW224300   0.652   5.721   1.949
 7801SOL     OW24301   4.037   1.694   6.551
 7801SOL    HW124302   4.016   1.627   6.480
 7801SOL    HW224303   4.133   1.722   6.544
 7802SOL     OW24304   5.968   2.265   1.300
 7802SOL    HW124305   6.015   2.210   1.231
 7802SOL    HW224306   5.917   2.339   1.256
 7803SOL     OW24307   3.982   4.045   5.721
 7803SOL    HW124308   3.981   4.044   5.621
 7803SOL    HW224309   4.051   4.110   5.753
 7804SOL     OW24310   4.771   1.548   6.223
 7804SOL    HW124311   4.831   1.522   6.298
 7804SOL    HW224312   4.738   1.642   6.237
 7805SOL     OW24313   4.958   3.742   1.883
 7805SOL    HW124314   4.942   3.776   1.976
 7805SOL    HW224315   4.934   3.645   1.878
 7806SOL     OW24316   5.180   2.755   6.831
 7806SOL    HW124317   5.178   2.771   6.930
 7806SOL    HW224318   5.198   2.841   6.783
 7807SOL     OW24319   0.301   3.897   6.503
 7807SOL    HW124320   0.223   3.891   6.566
 7807SOL    HW224321   0.359   3.974   6.529
 7808SOL     OW24322   0.597   1.391   5.216
 7808SOL    HW124323   0.680   1.336   5.233
 7808SOL    HW224324   0.595   1.418   5.120
 7809SOL     OW24325   1.770   5.320   4.967
 7809SOL    HW124326   1.836   5.331   5.042
 7809SOL    HW224327   1.804   5.367   4.886
 7810SOL     OW24328   2.871   1.378   6.779
 7810SOL    HW124329   2.864   1.316   6.701
 7810SOL    HW224330   2.817   1.342   6.855
 7811SOL     OW24331   6.925   4.247   3.928
 7811SOL    HW124332   6.981   4.295   3.861
 7811SOL    HW224333   6.831   4.281   3.924
 7812SOL     OW24334   1.563   1.689   3.537
 7812SOL    HW124335   1.467   1.693   3.566
 7812SOL    HW224336   1.608   1.776   3.559
 7813SOL     OW24337   6.408   2.905   0.723
 7813SOL    HW124338   6.460   2.845   0.783
 7813SOL    HW224339   6.467   2.978   0.689
 7814SOL     OW24340   0.632   3.876   3.326
 7814SOL    HW124341   0.542   3.849   3.359
 7814SOL    HW224342   0.693   3.891   3.405
 7815SOL     OW24343   6.770   1.768   6.628
 7815SOL    HW124344   6.864   1.792   6.601
 7815SOL    HW224345   6.711   1.847   6.617
 7816SOL     OW24346   1.130   4.276   4.755
 7816SOL    HW124347   1.182   4.191   4.762
 7816SOL    HW224348   1.130   4.322   4.843
 7817SOL     OW24349   5.585   3.624   4.639
 7817SOL    HW124350   5.552   3.668   4.723
 7817SOL    HW224351   5.537   3.537   4.626
 7818SOL     OW24352   5.189   5.349   2.480
 7818SOL    HW124353   5.249   5.297   2.541
 7818SOL    HW224354   5.107   5.295   2.461
 7819SOL     OW24355   6.672   1.370   1.577
 7819SOL    HW124356   6.635   1.328   1.659
 7819SOL    HW224357   6.685   1.468   1.593
 7820SOL     OW24358   1.915   0.565   6.376
 7820SOL    HW124359   1.819   0.545   6.396
 7820SOL    HW224360   1.939   0.528   6.287
 7821SOL     OW24361   3.269   5.200   1.546
 7821SOL    HW124362   3.351   5.170   1.593
 7821SOL    HW224363   3.211   5.121   1.525
 7822SOL     OW24364   1.631   5.857   4.773
 7822SOL    HW124365   1.721   5.815   4.759
 7822SOL    HW224366   1.567   5.789   4.809
 7823SOL     OW24367   1.459   4.473   4.962
 7823SOL    HW124368   1.468   4.463   5.061
 7823SOL    HW224369   1.489   4.565   4.935
 7824SOL     OW24370   0.614   3.156   5.580
 7824SOL    HW124371   0.571   3.179   5.493
 7824SOL    HW224372   0.712   3.140   5.566
 7825SOL     OW24373   2.945   1.272   6.227
 7825SOL    HW124374   3.039   1.248   6.200
 7825SOL    HW224375   2.937   1.372   6.231
 7826SOL     OW24376   1.163   3.370   6.359
 7826SOL    HW124377   1.133   3.286   6.314
 7826SOL    HW224378   1.248   3.353   6.409
 7827SOL     OW24379   6.577   5.519   5.044
 7827SOL    HW124380   6.638   5.598   5.053
 7827SOL    HW224381   6.616   5.455   4.977
 7828SOL     OW24382   0.759   5.397   0.126
 7828SOL    HW124383   0.824   5.431   0.059
 7828SOL    HW224384   0.790   5.309   0.162
 7829SOL     OW24385   3.610   3.271   0.672
 7829SOL    HW124386   3.593   3.191   0.615
 7829SOL    HW224387   3.709   3.284   0.683
 7830SOL     OW24388   2.822   5.510   4.035
 7830SOL    HW124389   2.815   5.496   3.936
 7830SOL    HW224390   2.877   5.436   4.075
 7831SOL     OW24391   1.769   0.836   0.199
 7831SOL    HW124392   1.729   0.912   0.251
 7831SOL    HW224393   1.714   0.754   0.213
 7832SOL     OW24394   6.392   0.666   4.568
 7832SOL    HW124395   6.318   0.636   4.628
 7832SOL    HW224396   6.365   0.749   4.520
 7833SOL     OW24397   1.794   0.395   3.400
 7833SOL    HW124398   1.767   0.314   3.452
 7833SOL    HW224399   1.801   0.473   3.461
 7834SOL     OW24400   6.487   3.758   4.903
 7834SOL    HW124401   6.497   3.839   4.845
 7834SOL    HW224402   6.556   3.760   4.975
 7835SOL     OW24403   4.050   2.396   5.395
 7835SOL    HW124404   4.127   2.426   5.339
 7835SOL    HW224405   4.051   2.296   5.403
 7836SOL     OW24406   3.364   3.839   4.257
 7836SOL    HW124407   3.298   3.809   4.189
 7836SOL    HW224408   3.316   3.867   4.340
 7837SOL     OW24409   7.014   6.166   0.361
 7837SOL    HW124410   0.022   6.224   0.439
 7837SOL    HW224411   0.070   6.167   0.293
 7838SOL     OW24412   4.667   5.619   2.010
 7838SOL    HW124413   4.708   5.624   1.919
 7838SOL    HW224414   4.573   5.586   2.002
 7839SOL     OW24415   5.798   2.979   4.485
 7839SOL    HW124416   5.848   2.894   4.466
 7839SOL    HW224417   5.835   3.021   4.568
 7840SOL     OW24418   1.705   2.991   4.368
 7840SOL    HW124419   1.619   2.941   4.356
 7840SOL    HW224420   1.775   2.952   4.307
 7841SOL     OW24421   4.275   1.868   6.197
 7841SOL    HW124422   4.362   1.886   6.151
 7841SOL    HW224423   4.206   1.932   6.165
 7842SOL     OW24424   1.643   0.453   2.190
 7842SOL    HW124425   1.704   0.391   2.141
 7842SOL    HW224426   1.634   0.538   2.139
 7843SOL     OW24427   0.073   6.025   3.375
 7843SOL    HW124428   0.070   6.122   3.400
 7843SOL    HW224429   0.067   5.969   3.457
 7844SOL     OW24430   3.981   1.332   2.658
 7844SOL    HW124431   3.891   1.369   2.681
 7844SOL    HW224432   3.992   1.331   2.558
 7845SOL     OW24433   6.984   2.836   1.053
 7845SOL    HW124434   6.950   2.900   1.123
 7845SOL    HW224435   6.981   2.743   1.090
 7846SOL     OW24436   0.945   1.717   0.687
 7846SOL    HW124437   0.917   1.704   0.782
 7846SOL    HW224438   1.024   1.660   0.667
 7847SOL     OW24439   5.451   3.957   5.794
 7847SOL    HW124440   5.452   4.054   5.818
 7847SOL    HW224441   5.360   3.931   5.763
 7848SOL     OW24442   3.119   4.180   1.135
 7848SOL    HW124443   3.077   4.269   1.153
 7848SOL    HW224444   3.166   4.182   1.047
 7849SOL     OW24445   4.805   4.396   0.387
 7849SOL    HW124446   4.712   4.395   0.350
 7849SOL    HW224447   4.814   4.472   0.451
 7850SOL     OW24448   0.217   1.409   3.822
 7850SOL    HW124449   0.209   1.420   3.723
 7850SOL    HW224450   0.270   1.485   3.860
 7851SOL     OW24451   0.141   4.885   1.432
 7851SOL    HW124452   0.233   4.923   1.443
 7851SOL    HW224453   0.144   4.786   1.444
 7852SOL     OW24454   1.167   2.975   6.686
 7852SOL    HW124455   1.261   2.962   6.655
 7852SOL    HW224456   1.140   2.896   6.743
 7853SOL     OW24457   3.895   2.933   1.918
 7853SOL    HW124458   3.943   2.845   1.917
 7853SOL    HW224459   3.961   3.006   1.937
 7854SOL     OW24460   4.949   1.763   6.405
 7854SOL    HW124461   4.850   1.765   6.394
 7854SOL    HW224462   4.975   1.688   6.465
 7855SOL     OW24463   5.209   0.306   4.424
 7855SOL    HW124464   5.246   0.372   4.489
 7855SOL    HW224465   5.113   0.326   4.407
 7856SOL     OW24466   2.319   6.345   4.698
 7856SOL    HW124467   2.322   6.323   4.796
 7856SOL    HW224468   2.227   6.376   4.674
 7857SOL     OW24469   6.233   4.937   1.460
 7857SOL    HW124470   6.207   4.991   1.380
 7857SOL    HW224471   6.248   4.842   1.433
 7858SOL     OW24472   0.475   4.191   6.568
 7858SOL    HW124473   0.395   4.215   6.623
 7858SOL    HW224474   0.450   4.188   6.471
 7859SOL     OW24475   5.506   2.846   0.471
 7859SOL    HW124476   5.478   2.918   0.407
 7859SOL    HW224477   5.437   2.774   0.471
 7860SOL     OW24478   2.839   1.118   4.576
 7860SOL    HW124479   2.825   1.132   4.478
 7860SOL    HW224480   2.757   1.077   4.616
 7861SOL     OW24481   2.152   6.212   0.435
 7861SOL    HW124482   2.162   6.308   0.407
 7861SOL    HW224483   2.194   6.153   0.366
 7862SOL     OW24484   2.214   5.864   0.073
 7862SOL    HW124485   2.145   5.894   0.007
 7862SOL    HW224486   2.269   5.943   0.102
 7863SOL     OW24487   0.341   3.979   3.390
 7863SOL    HW124488   0.374   3.899   3.440
 7863SOL    HW224489   0.258   3.956   3.341
 7864SOL     OW24490   2.073   5.976   5.246
 7864SOL    HW124491   2.100   5.896   5.192
 7864SOL    HW224492   2.143   6.047   5.236
 7865SOL     OW24493   5.500   4.789   3.407
 7865SOL    HW124494   5.478   4.697   3.442
 7865SOL    HW224495   5.450   4.857   3.460
 7866SOL     OW24496   6.857   0.236   6.108
 7866SOL    HW124497   6.863   0.145   6.068
 7866SOL    HW224498   6.786   0.237   6.180
 7867SOL     OW24499   4.885   5.241   3.741
 7867SOL    HW124500   4.949   5.265   3.814
 7867SOL    HW224501   4.914   5.285   3.656
 7868SOL     OW24502   2.998   6.181   1.575
 7868SOL    HW124503   2.973   6.108   1.512
 7868SOL    HW224504   3.024   6.262   1.523
 7869SOL     OW24505   5.961   4.709   6.318
 7869SOL    HW124506   5.903   4.721   6.238
 7869SOL    HW224507   5.909   4.664   6.391
 7870SOL     OW24508   5.552   5.749   4.430
 7870SOL    HW124509   5.650   5.769   4.433
 7870SOL    HW224510   5.502   5.833   4.411
 7871SOL     OW24511   5.623   1.651   1.325
 7871SOL    HW124512   5.579   1.716   1.264
 7871SOL    HW224513   5.554   1.592   1.367
 7872SOL     OW24514   1.438   5.796   2.943
 7872SOL    HW124515   1.452   5.879   2.997
 7872SOL    HW224516   1.366   5.810   2.876
 7873SOL     OW24517   5.379   2.052   0.071
 7873SOL    HW124518   5.319   2.015   0.000
 7873SOL    HW224519   5.381   1.990   0.149
 7874SOL     OW24520   5.696   3.047   0.560
 7874SOL    HW124521   5.643   2.973   0.518
 7874SOL    HW224522   5.724   3.112   0.490
 7875SOL     OW24523   6.434   4.783   6.538
 7875SOL    HW124524   6.347   4.796   6.492
 7875SOL    HW224525   6.483   4.870   6.544
 7876SOL     OW24526   1.345   0.005   3.511
 7876SOL    HW124527   1.265   6.971   3.480
 7876SOL    HW224528   1.334   0.027   3.608
 7877SOL     OW24529   0.172   2.625   2.950
 7877SOL    HW124530   0.094   2.677   2.915
 7877SOL    HW224531   0.188   2.545   2.892
 7878SOL     OW24532   4.339   4.674   3.145
 7878SOL    HW124533   4.395   4.598   3.179
 7878SOL    HW224534   4.316   4.659   3.049
 7879SOL     OW24535   3.157   4.838   2.813
 7879SOL    HW124536   3.148   4.937   2.818
 7879SOL    HW224537   3.087   4.795   2.870
 7880SOL     OW24538   1.397   4.214   2.258
 7880SOL    HW124539   1.477   4.267   2.233
 7880SOL    HW224540   1.378   4.146   2.187
 7881SOL     OW24541   4.898   4.271   3.944
 7881SOL    HW124542   4.994   4.245   3.956
 7881SOL    HW224543   4.843   4.189   3.925
 7882SOL     OW24544   1.163   3.680   0.100
 7882SOL    HW124545   1.123   3.718   0.183
 7882SOL    HW224546   1.097   3.686   0.025
 7883SOL     OW24547   1.151   0.101   5.389
 7883SOL    HW124548   1.167   0.197   5.409
 7883SOL    HW224549   1.137   0.051   5.474
 7884SOL     OW24550   0.783   2.889   4.586
 7884SOL    HW124551   0.691   2.884   4.547
 7884SOL    HW224552   0.844   2.935   4.521
 7885SOL     OW24553   6.607   6.093   6.361
 7885SOL    HW124554   6.510   6.074   6.346
 7885SOL    HW224555   6.618   6.140   6.448
 7886SOL     OW24556   5.084   4.719   0.397
 7886SOL    HW124557   5.065   4.796   0.457
 7886SOL    HW224558   5.029   4.726   0.314
 7887SOL     OW24559   4.267   2.626   6.111
 7887SOL    HW124560   4.366   2.622   6.094
 7887SOL    HW224561   4.247   2.584   6.199
 7888SOL     OW24562   4.912   0.393   4.654
 7888SOL    HW124563   4.989   0.456   4.666
 7888SOL    HW224564   4.844   0.410   4.725
 7889SOL     OW24565   0.737   5.449   2.176
 7889SOL    HW124566   0.784   5.535   2.158
 7889SOL    HW224567   0.799   5.373   2.156
 7890SOL     OW24568   1.791   3.136   2.501
 7890SOL    HW124569   1.885   3.167   2.518
 7890SOL    HW224570   1.793   3.060   2.436
 7891SOL     OW24571   1.349   4.885   3.062
 7891SOL    HW124572   1.261   4.926   3.039
 7891SOL    HW224573   1.358   4.880   3.162
 7892SOL     OW24574   2.399   3.003   5.605
 7892SOL    HW124575   2.371   2.914   5.640
 7892SOL    HW224576   2.491   3.024   5.637
 7893SOL     OW24577   6.101   6.682   1.539
 7893SOL    HW124578   6.020   6.739   1.528
 7893SOL    HW224579   6.075   6.592   1.573
 7894SOL     OW24580   2.951   0.569   1.997
 7894SOL    HW124581   3.024   0.633   1.974
 7894SOL    HW224582   2.964   0.483   1.948
 7895SOL     OW24583   6.803   1.536   3.285
 7895SOL    HW124584   6.897   1.568   3.300
 7895SOL    HW224585   6.739   1.601   3.326
 7896SOL     OW24586   4.054   1.965   5.971
 7896SOL    HW124587   3.993   1.887   5.981
 7896SOL    HW224588   4.070   1.982   5.874
 7897SOL     OW24589   2.721   3.012   6.567
 7897SOL    HW124590   2.805   3.053   6.532
 7897SOL    HW224591   2.720   2.915   6.544
 7898SOL     OW24592   4.428   2.463   3.769
 7898SOL    HW124593   4.403   2.372   3.801
 7898SOL    HW224594   4.445   2.460   3.670
 7899SOL     OW24595   5.098   1.103   2.980
 7899SOL    HW124596   5.134   1.187   2.940
 7899SOL    HW224597   5.005   1.087   2.946
 7900SOL     OW24598   1.875   5.553   0.778
 7900SOL    HW124599   1.887   5.652   0.791
 7900SOL    HW224600   1.920   5.504   0.852
 7901SOL     OW24601   6.074   5.922   0.245
 7901SOL    HW124602   6.018   6.001   0.219
 7901SOL    HW224603   6.048   5.843   0.188
 7902SOL     OW24604   5.535   4.596   6.506
 7902SOL    HW124605   5.464   4.660   6.538
 7902SOL    HW224606   5.618   4.609   6.561
 7903SOL     OW24607   0.262   2.339   6.951
 7903SOL    HW124608   0.317   2.352   6.869
 7903SOL    HW224609   0.166   2.357   6.931
 7904SOL     OW24610   6.317   0.840   2.903
 7904SOL    HW124611   6.294   0.843   3.001
 7904SOL    HW224612   6.406   0.883   2.888
 7905SOL     OW24613   3.324   1.814   1.077
 7905SOL    HW124614   3.268   1.753   1.020
 7905SOL    HW224615   3.311   1.790   1.173
 7906SOL     OW24616   6.799   5.371   0.126
 7906SOL    HW124617   6.835   5.452   0.174
 7906SOL    HW224618   6.810   5.383   0.027
 7907SOL     OW24619   6.160   2.731   2.383
 7907SOL    HW124620   6.163   2.828   2.409
 7907SOL    HW224621   6.201   2.719   2.293
 7908SOL     OW24622   6.156   1.850   3.344
 7908SOL    HW124623   6.066   1.878   3.378
 7908SOL    HW224624   6.224   1.918   3.368
 7909SOL     OW24625   4.533   5.216   5.503
 7909SOL    HW124626   4.615   5.179   5.458
 7909SOL    HW224627   4.474   5.259   5.434
 7910SOL     OW24628   6.123   4.004   6.072
 7910SOL    HW124629   6.221   4.022   6.076
 7910SOL    HW224630   6.100   3.926   6.130
 7911SOL     OW24631   6.523   5.063   6.904
 7911SOL    HW124632   6.572   5.041   6.988
 7911SOL    HW224633   6.481   4.981   6.866
 7912SOL     OW24634   0.043   5.105   5.561
 7912SOL    HW124635   0.138   5.125   5.540
 7912SOL    HW224636   0.029   5.110   5.660
 7913SOL     OW24637   0.647   6.135   6.420
 7913SOL    HW124638   0.703   6.143   6.503
 7913SOL    HW224639   0.562   6.187   6.432
 7914SOL     OW24640   0.256   3.476   2.313
 7914SOL    HW124641   0.249   3.516   2.404
 7914SOL    HW224642   0.305   3.389   2.318
 7915SOL     OW24643   4.707   1.459   2.231
 7915SOL    HW124644   4.636   1.512   2.277
 7915SOL    HW224645   4.665   1.397   2.164
 7916SOL     OW24646   4.648   3.408   5.382
 7916SOL    HW124647   4.633   3.471   5.305
 7916SOL    HW224648   4.620   3.316   5.355
 7917SOL     OW24649   3.779   4.047   3.721
 7917SOL    HW124650   3.741   4.110   3.789
 7917SOL    HW224651   3.877   4.036   3.738
 7918SOL     OW24652   6.119   2.295   2.321
 7918SOL    HW124653   6.100   2.197   2.318
 7918SOL    HW224654   6.125   2.326   2.416
 7919SOL     OW24655   5.885   4.841   1.783
 7919SOL    HW124656   5.914   4.902   1.709
 7919SOL    HW224657   5.954   4.770   1.796
 7920SOL     OW24658   0.769   5.986   1.571
 7920SOL    HW124659   0.774   5.929   1.489
 7920SOL    HW224660   0.677   5.978   1.611
 7921SOL     OW24661   3.546   6.140   1.463
 7921SOL    HW124662   3.645   6.154   1.457
 7921SOL    HW224663   3.515   6.090   1.382
 7922SOL     OW24664   0.655   4.942   6.573
 7922SOL    HW124665   0.729   4.879   6.595
 7922SOL    HW224666   0.594   4.950   6.651
 7923SOL     OW24667   1.098   1.643   3.053
 7923SOL    HW124668   1.066   1.636   2.959
 7923SOL    HW224669   1.196   1.662   3.055
 7924SOL     OW24670   2.236   0.506   3.876
 7924SOL    HW124671   2.161   0.456   3.833
 7924SOL    HW224672   2.275   0.450   3.949
 7925SOL     OW24673   6.921   0.542   6.667
 7925SOL    HW124674   6.960   0.457   6.702
 7925SOL    HW224675   6.827   0.525   6.637
 7926SOL     OW24676   3.358   0.508   2.246
 7926SOL    HW124677   3.303   0.435   2.206
 7926SOL    HW224678   3.379   0.486   2.341
 7927SOL     OW24679   4.408   4.801   4.282
 7927SOL    HW124680   4.498   4.845   4.292
 7927SOL    HW224681   4.361   4.839   4.203
 7928SOL     OW24682   1.276   4.922   0.442
 7928SOL    HW124683   1.180   4.933   0.467
 7928SOL    HW224684   1.329   4.998   0.479
 7929SOL     OW24685   4.047   3.625   4.536
 7929SOL    HW124686   3.972   3.685   4.563
 7929SOL    HW224687   4.059   3.553   4.606
 7930SOL     OW24688   5.552   6.144   4.568
 7930SOL    HW124689   5.527   6.093   4.486
 7930SOL    HW224690   5.602   6.085   4.631
 7931SOL     OW24691   1.343   3.338   0.505
 7931SOL    HW124692   1.339   3.373   0.412
 7931SOL    HW224693   1.293   3.399   0.566
 7932SOL     OW24694   3.122   0.130   1.048
 7932SOL    HW124695   3.122   0.093   0.955
 7932SOL    HW224696   3.139   0.056   1.114
 7933SOL     OW24697   1.334   0.330   6.499
 7933SOL    HW124698   1.234   0.334   6.497
 7933SOL    HW224699   1.370   0.414   6.539
 7934SOL     OW24700   4.097   3.486   5.702
 7934SOL    HW124701   4.171   3.481   5.634
 7934SOL    HW224702   4.119   3.556   5.770
 7935SOL     OW24703   4.382   6.071   1.469
 7935SOL    HW124704   4.315   6.140   1.441
 7935SOL    HW224705   4.431   6.037   1.389
 7936SOL     OW24706   4.496   5.645   3.085
 7936SOL    HW124707   4.478   5.713   3.014
 7936SOL    HW224708   4.422   5.646   3.152
 7937SOL     OW24709   6.277   6.755   5.840
 7937SOL    HW124710   6.371   6.722   5.827
 7937SOL    HW224711   6.256   6.822   5.769
 7938SOL     OW24712   5.746   4.573   4.840
 7938SOL    HW124713   5.779   4.550   4.748
 7938SOL    HW224714   5.692   4.657   4.836
 7939SOL     OW24715   0.887   6.814   4.626
 7939SOL    HW124716   0.918   6.843   4.536
 7939SOL    HW224717   0.796   6.773   4.619
 7940SOL     OW24718   1.700   5.822   1.192
 7940SOL    HW124719   1.723   5.914   1.223
 7940SOL    HW224720   1.781   5.779   1.151
 7941SOL     OW24721   0.506   0.421   7.004
 7941SOL    HW124722   0.575   0.447   0.053
 7941SOL    HW224723   0.439   0.495   6.994
 7942SOL     OW24724   1.598   1.333   1.258
 7942SOL    HW124725   1.680   1.384   1.233
 7942SOL    HW224726   1.584   1.258   1.193
 7943SOL     OW24727   5.609   2.437   0.595
 7943SOL    HW124728   5.529   2.384   0.622
 7943SOL    HW224729   5.609   2.524   0.645
 7944SOL     OW24730   0.476   4.214   2.332
 7944SOL    HW124731   0.482   4.182   2.238
 7944SOL    HW224732   0.559   4.263   2.357
 7945SOL     OW24733   5.158   6.349   1.859
 7945SOL    HW124734   5.164   6.338   1.958
 7945SOL    HW224735   5.250   6.353   1.821
 7946SOL     OW24736   1.624   1.851   5.782
 7946SOL    HW124737   1.600   1.761   5.746
 7946SOL    HW224738   1.710   1.844   5.833
 7947SOL     OW24739   3.850   4.655   6.152
 7947SOL    HW124740   3.895   4.743   6.170
 7947SOL    HW224741   3.869   4.592   6.227
 7948SOL     OW24742   0.963   5.433   6.938
 7948SOL    HW124743   1.037   5.497   6.959
 7948SOL    HW224744   0.886   5.484   6.899
 7949SOL     OW24745   6.521   4.572   4.210
 7949SOL    HW124746   6.474   4.485   4.192
 7949SOL    HW224747   6.600   4.579   4.149
 7950SOL     OW24748   3.143   4.981   4.250
 7950SOL    HW124749   3.102   5.071   4.265
 7950SOL    HW224750   3.155   4.934   4.337
 7951SOL     OW24751   2.796   3.252   0.902
 7951SOL    HW124752   2.833   3.160   0.894
 7951SOL    HW224753   2.861   3.318   0.866
 7952SOL     OW24754   5.280   4.283   6.985
 7952SOL    HW124755   5.222   4.362   7.008
 7952SOL    HW224756   5.361   4.315   6.936
 7953SOL     OW24757   2.206   2.845   3.191
 7953SOL    HW124758   2.240   2.818   3.281
 7953SOL    HW224759   2.188   2.944   3.191
 7954SOL     OW24760   4.874   5.328   5.391
 7954SOL    HW124761   4.930   5.284   5.462
 7954SOL    HW224762   4.885   5.279   5.305
 7955SOL     OW24763   1.612   7.008   6.222
 7955SOL    HW124764   1.650   0.008   6.131
 7955SOL    HW224765   1.513   6.999   6.215
 7956SOL     OW24766   6.042   6.910   4.109
 7956SOL    HW124767   5.999   6.962   4.182
 7956SOL    HW224768   6.142   6.918   4.117
 7957SOL     OW24769   1.297   2.453   1.186
 7957SOL    HW124770   1.254   2.457   1.276
 7957SOL    HW224771   1.315   2.358   1.161
 7958SOL     OW24772   2.423   5.550   2.630
 7958SOL    HW124773   2.506   5.506   2.666
 7958SOL    HW224774   2.365   5.481   2.586
 7959SOL     OW24775   5.254   5.444   0.899
 7959SOL    HW124776   5.276   5.521   0.959
 7959SOL    HW224777   5.256   5.359   0.952
 7960SOL     OW24778   2.443   2.383   0.890
 7960SOL    HW124779   2.350   2.412   0.868
 7960SOL    HW224780   2.487   2.451   0.948
 7961SOL     OW24781   1.938   5.279   6.668
 7961SOL    HW124782   1.935   5.181   6.687
 7961SOL    HW224783   2.032   5.307   6.649
 7962SOL     OW24784   1.243   0.186   2.224
 7962SOL    HW124785   1.230   0.091   2.198
 7962SOL    HW224786   1.156   0.235   2.215
 7963SOL     OW24787   1.401   6.682   4.398
 7963SOL    HW124788   1.425   6.595   4.357
 7963SOL    HW224789   1.356   6.740   4.331
 7964SOL     OW24790   6.201   5.995   3.240
 7964SOL    HW124791   6.121   5.937   3.225
 7964SOL    HW224792   6.262   5.988   3.160
 7965SOL     OW24793   5.758   1.805   0.999
 7965SOL    HW124794   5.678   1.760   0.959
 7965SOL    HW224795   5.749   1.904   0.989
 7966SOL     OW24796   6.841   6.033   3.720
 7966SOL    HW124797   6.843   5.946   3.670
 7966SOL    HW224798   6.829   6.108   3.655
 7967SOL     OW24799   3.163   6.082   2.279
 7967SOL    HW124800   3.204   5.992   2.291
 7967SOL    HW224801   3.166   6.132   2.366
 7968SOL     OW24802   1.613   0.932   1.439
 7968SOL    HW124803   1.548   1.008   1.439
 7968SOL    HW224804   1.571   0.852   1.480
 7969SOL     OW24805   3.387   1.990   3.215
 7969SOL    HW124806   3.436   2.030   3.137
 7969SOL    HW224807   3.298   2.034   3.224
 7970SOL     OW24808   0.091   5.167   3.272
 7970SOL    HW124809   0.129   5.144   3.183
 7970SOL    HW224810   7.017   5.128   3.280
 7971SOL     OW24811   2.440   1.408   2.246
 7971SOL    HW124812   2.421   1.505   2.233
 7971SOL    HW224813   2.514   1.379   2.185
 7972SOL     OW24814   0.731   5.033   2.078
 7972SOL    HW124815   0.783   5.019   1.994
 7972SOL    HW224816   0.633   5.031   2.057
 7973SOL     OW24817   4.645   2.207   2.212
 7973SOL    HW124818   4.579   2.222   2.286
 7973SOL    HW224819   4.612   2.135   2.152
 7974SOL     OW24820   5.354   6.913   4.221
 7974SOL    HW124821   5.284   6.892   4.153
 7974SOL    HW224822   5.357   6.839   4.289
 7975SOL     OW24823   2.262   1.232   3.339
 7975SOL    HW124824   2.284   1.160   3.274
 7975SOL    HW224825   2.186   1.202   3.398
 7976SOL     OW24826   0.404   6.463   6.289
 7976SOL    HW124827   0.395   6.395   6.362
 7976SOL    HW224828   0.380   6.420   6.201
 7977SOL     OW24829   5.069   6.637   1.827
 7977SOL    HW124830   5.100   6.543   1.839
 7977SOL    HW224831   4.975   6.646   1.861
 7978SOL     OW24832   4.017   2.715   6.139
 7978SOL    HW124833   4.110   2.680   6.132
 7978SOL    HW224834   4.019   2.812   6.165
 7979SOL     OW24835   4.297   0.124   4.150
 7979SOL    HW124836   4.289   0.187   4.227
 7979SOL    HW224837   4.206   0.110   4.109
 7980SOL     OW24838   2.724   0.362   2.194
 7980SOL    HW124839   2.656   0.292   2.170
 7980SOL    HW224840   2.681   0.452   2.192
 7981SOL     OW24841   1.209   5.838   2.788
 7981SOL    HW124842   1.159   5.923   2.803
 7981SOL    HW224843   1.225   5.826   2.690
 7982SOL     OW24844   0.191   2.929   0.909
 7982SOL    HW124845   0.165   2.949   0.814
 7982SOL    HW224846   0.109   2.903   0.960
 7983SOL     OW24847   4.839   2.393   2.007
 7983SOL    HW124848   4.857   2.354   2.097
 7983SOL    HW224849   4.865   2.489   2.006
 7984SOL     OW24850   0.622   0.717   0.620
 7984SOL    HW124851   0.696   0.651   0.635
 7984SOL    HW224852   0.547   0.672   0.572
 7985SOL     OW24853   0.672   1.321   1.030
 7985SOL    HW124854   0.648   1.228   1.056
 7985SOL    HW224855   0.770   1.335   1.042
 7986SOL     OW24856   3.917   2.362   0.731
 7986SOL    HW124857   3.977   2.426   0.683
 7986SOL    HW224858   3.858   2.316   0.666
 7987SOL     OW24859   0.012   2.905   5.045
 7987SOL    HW124860   7.014   3.003   5.037
 7987SOL    HW224861   0.067   2.886   5.125
 7988SOL     OW24862   2.746   1.299   5.366
 7988SOL    HW124863   2.650   1.321   5.344
 7988SOL    HW224864   2.793   1.382   5.395
 7989SOL     OW24865   3.423   3.450   5.445
 7989SOL    HW124866   3.442   3.542   5.479
 7989SOL    HW224867   3.438   3.383   5.518
 7990SOL     OW24868   2.155   2.219   4.753
 7990SOL    HW124869   2.204   2.302   4.781
 7990SOL    HW224870   2.058   2.228   4.775
 7991SOL     OW24871   0.237   3.456   5.050
 7991SOL    HW124872   0.170   3.480   5.121
 7991SOL    HW224873   0.189   3.435   4.965
 7992SOL     OW24874   2.654   0.750   0.376
 7992SOL    HW124875   2.676   0.714   0.467
 7992SOL    HW224876   2.564   0.718   0.349
 7993SOL     OW24877   2.020   6.773   6.745
 7993SOL    HW124878   2.034   6.723   6.660
 7993SOL    HW224879   2.102   6.827   6.766
 7994SOL     OW24880   6.035   0.500   3.799
 7994SOL    HW124881   6.050   0.469   3.705
 7994SOL    HW224882   5.977   0.581   3.799
 7995SOL     OW24883   4.041   4.878   2.866
 7995SOL    HW124884   4.090   4.943   2.924
 7995SOL    HW224885   3.955   4.853   2.910
 7996SOL     OW24886   3.734   0.642   5.064
 7996SOL    HW124887   3.721   0.544   5.053
 7996SOL    HW224888   3.826   0.660   5.098
 7997SOL     OW24889   5.863   2.703   2.488
 7997SOL    HW124890   5.959   2.689   2.463
 7997SOL    HW224891   5.804   2.677   2.411
 7998SOL     OW24892   6.498   5.259   6.701
 7998SOL    HW124893   6.533   5.217   6.785
 7998SOL    HW224894   6.404   5.230   6.685
 7999SOL     OW24895   1.782   0.591   5.697
 7999SOL    HW124896   1.868   0.599   5.646
 7999SOL    HW224897   1.769   0.495   5.724
 8000SOL     OW24898   6.046   0.077   6.075
 8000SOL    HW124899   6.105   7.017   6.094
 8000SOL    HW224900   6.002   0.107   6.160
 8001SOL     OW24901   2.184   0.157   1.362
 8001SOL    HW124902   2.128   0.075   1.369
 8001SOL    HW224903   2.144   0.229   1.419
 8002SOL     OW24904   5.637   2.951   5.531
 8002SOL    HW124905   5.626   3.035   5.584
 8002SOL    HW224906   5.550   2.929   5.486
 8003SOL     OW24907   4.033   5.103   3.073
 8003SOL    HW124908   3.961   5.034   3.086
 8003SOL    HW224909   4.111   5.081   3.131
 8004SOL     OW24910   1.833   3.891   2.428
 8004SOL    HW124911   1.809   3.810   2.482
 8004SOL    HW224912   1.924   3.878   2.388
 8005SOL     OW24913   2.959   0.925   1.786
 8005SOL    HW124914   3.009   0.949   1.703
 8005SOL    HW224915   2.886   0.992   1.800
 8006SOL     OW24916   3.279   6.481   0.534
 8006SOL    HW124917   3.285   6.383   0.552
 8006SOL    HW224918   3.290   6.532   0.619
 8007SOL     OW24919   0.611   0.773   4.268
 8007SOL    HW124920   0.567   0.805   4.184
 8007SOL    HW224921   0.546   0.717   4.320
 8008SOL     OW24922   6.321   5.900   0.312
 8008SOL    HW124923   6.230   5.929   0.283
 8008SOL    HW224924   6.337   5.805   0.284
 8009SOL     OW24925   6.926   6.896   3.636
 8009SOL    HW124926   6.949   6.924   3.729
 8009SOL    HW224927   6.976   6.812   3.614
 8010SOL     OW24928   2.720   2.373   6.757
 8010SOL    HW124929   2.650   2.413   6.699
 8010SOL    HW224930   2.678   2.306   6.819
 8011SOL     OW24931   2.530   1.903   1.064
 8011SOL    HW124932   2.511   1.941   1.155
 8011SOL    HW224933   2.447   1.905   1.008
 8012SOL     OW24934   3.199   6.695   3.149
 8012SOL    HW124935   3.134   6.771   3.154
 8012SOL    HW224936   3.267   6.705   3.222
 8013SOL     OW24937   6.390   4.702   5.036
 8013SOL    HW124938   6.477   4.722   4.991
 8013SOL    HW224939   6.386   4.752   5.123
 8014SOL     OW24940   2.198   0.299   6.822
 8014SOL    HW124941   2.184   0.397   6.830
 8014SOL    HW224942   2.115   0.256   6.788
 8015SOL     OW24943   1.803   1.914   6.729
 8015SOL    HW124944   1.823   2.012   6.740
 8015SOL    HW224945   1.873   1.861   6.776
 8016SOL     OW24946   3.597   6.585   1.356
 8016SOL    HW124947   3.574   6.575   1.259
 8016SOL    HW224948   3.591   6.496   1.401
 8017SOL     OW24949   5.960   4.401   4.685
 8017SOL    HW124950   5.942   4.309   4.649
 8017SOL    HW224951   6.041   4.398   4.743
 8018SOL     OW24952   5.416   2.559   4.780
 8018SOL    HW124953   5.400   2.645   4.828
 8018SOL    HW224954   5.376   2.484   4.832
 8019SOL     OW24955   2.686   5.101   1.449
 8019SOL    HW124956   2.683   5.052   1.362
 8019SOL    HW224957   2.750   5.055   1.510
 8020SOL     OW24958   5.937   6.433   6.353
 8020SOL    HW124959   5.945   6.370   6.276
 8020SOL    HW224960   5.923   6.381   6.437
 8021SOL     OW24961   0.922   1.112   1.049
 8021SOL    HW124962   0.943   1.051   0.972
 8021SOL    HW224963   1.006   1.138   1.095
 8022SOL     OW24964   4.175   5.737   3.326
 8022SOL    HW124965   4.110   5.775   3.260
 8022SOL    HW224966   4.245   5.806   3.346
 8023SOL     OW24967   6.145   6.467   3.465
 8023SOL    HW124968   6.121   6.392   3.402
 8023SOL    HW224969   6.139   6.434   3.559
 8024SOL     OW24970   4.710   5.594   4.608
 8024SOL    HW124971   4.781   5.632   4.667
 8024SOL    HW224972   4.642   5.546   4.664
 8025SOL     OW24973   3.523   6.186   0.316
 8025SOL    HW124974   3.493   6.092   0.329
 8025SOL    HW224975   3.616   6.198   0.353
 8026SOL     OW24976   1.905   2.766   0.766
 8026SOL    HW124977   1.969   2.831   0.806
 8026SOL    HW224978   1.815   2.810   0.756
 8027SOL     OW24979   5.235   2.906   5.642
 8027SOL    HW124980   5.284   2.916   5.556
 8027SOL    HW224981   5.146   2.863   5.625
 8028SOL     OW24982   5.590   4.801   0.015
 8028SOL    HW124983   5.601   4.798   6.933
 8028SOL    HW224984   5.680   4.806   0.058
 8029SOL     OW24985   3.267   4.799   0.716
 8029SOL    HW124986   3.342   4.843   0.765
 8029SOL    HW224987   3.223   4.866   0.655
 8030SOL     OW24988   6.076   4.179   6.990
 8030SOL    HW124989   6.144   4.138   6.929
 8030SOL    HW224990   6.046   4.111   0.039
 8031SOL     OW24991   3.760   5.792   1.667
 8031SOL    HW124992   3.780   5.813   1.571
 8031SOL    HW224993   3.712   5.705   1.674
 8032SOL     OW24994   5.554   4.755   6.249
 8032SOL    HW124995   5.620   4.725   6.180
 8032SOL    HW224996   5.558   4.693   6.328
 8033SOL     OW24997   6.056   2.876   0.297
 8033SOL    HW124998   6.043   2.855   0.394
 8033SOL    HW224999   5.968   2.870   0.249
 8034SOL     OW25000   6.029   1.490   5.370
 8034SOL    HW125001   5.976   1.544   5.305
 8034SOL    HW225002   6.110   1.541   5.398
 8035SOL     OW25003   5.473   6.367   0.182
 8035SOL    HW125004   5.468   6.438   0.253
 8035SOL    HW225005   5.449   6.407   0.094
 8036SOL     OW25006   1.751   3.796   1.510
 8036SOL    HW125007   1.695   3.727   1.463
 8036SOL    HW225008   1.781   3.759   1.598
 8037SOL     OW25009   1.902   3.105   1.179
 8037SOL    HW125010   1.907   3.119   1.080
 8037SOL    HW225011   1.992   3.079   1.214
 8038SOL     OW25012   6.749   1.544   4.223
 8038SOL    HW125013   6.813   1.564   4.149
 8038SOL    HW225014   6.783   1.583   4.308
 8039SOL     OW25015   2.288   6.560   4.278
 8039SOL    HW125016   2.273   6.461   4.283
 8039SOL    HW225017   2.256   6.603   4.363
 8040SOL     OW25018   7.015   5.302   0.817
 8040SOL    HW125019   0.012   5.275   0.722
 8040SOL    HW225020   6.933   5.255   0.852
 8041SOL     OW25021   4.280   1.960   0.328
 8041SOL    HW125022   4.233   2.025   0.389
 8041SOL    HW225023   4.319   1.886   0.382
 8042SOL     OW25024   2.462   3.322   1.402
 8042SOL    HW125025   2.504   3.378   1.330
 8042SOL    HW225026   2.489   3.358   1.491
 8043SOL     OW25027   2.384   0.161   1.835
 8043SOL    HW125028   2.397   0.260   1.846
 8043SOL    HW225029   2.376   0.139   1.738
 8044SOL     OW25030   3.403   4.133   1.822
 8044SOL    HW125031   3.390   4.035   1.834
 8044SOL    HW225032   3.460   4.168   1.897
 8045SOL     OW25033   6.514   2.714   3.290
 8045SOL    HW125034   6.562   2.744   3.207
 8045SOL    HW225035   6.522   2.615   3.299
 8046SOL     OW25036   0.265   5.279   6.210
 8046SOL    HW125037   0.361   5.255   6.226
 8046SOL    HW225038   0.246   5.277   6.112
 8047SOL     OW25039   3.837   5.818   3.776
 8047SOL    HW125040   3.888   5.831   3.690
 8047SOL    HW225041   3.744   5.790   3.756
 8048SOL     OW25042   6.640   0.581   5.648
 8048SOL    HW125043   6.703   0.655   5.627
 8048SOL    HW225044   6.687   0.493   5.639
 8049SOL     OW25045   1.703   5.216   0.540
 8049SOL    HW125046   1.745   5.305   0.524
 8049SOL    HW225047   1.651   5.188   0.460
 8050SOL     OW25048   1.290   2.938   1.667
 8050SOL    HW125049   1.220   3.009   1.671
 8050SOL    HW225050   1.378   2.979   1.643
 8051SOL     OW25051   3.847   1.447   3.415
 8051SOL    HW125052   3.881   1.360   3.377
 8051SOL    HW225053   3.772   1.429   3.478
 8052SOL     OW25054   3.155   2.057   2.887
 8052SOL    HW125055   3.174   1.963   2.915
 8052SOL    HW225056   3.213   2.120   2.937
 8053SOL     OW25057   3.830   3.317   2.221
 8053SOL    HW125058   3.818   3.413   2.243
 8053SOL    HW225059   3.809   3.261   2.302
 8054SOL     OW25060   3.998   6.114   4.831
 8054SOL    HW125061   4.083   6.115   4.778
 8054SOL    HW225062   4.017   6.082   4.924
 8055SOL     OW25063   1.465   6.892   5.219
 8055SOL    HW125064   1.554   6.862   5.187
 8055SOL    HW225065   1.472   6.983   5.259
 8056SOL     OW25066   4.255   1.691   2.936
 8056SOL    HW125067   4.203   1.769   2.970
 8056SOL    HW225068   4.221   1.665   2.846
 8057SOL     OW25069   3.873   6.521   3.797
 8057SOL    HW125070   3.855   6.430   3.835
 8057SOL    HW225071   3.925   6.575   3.863
 8058SOL     OW25072   1.941   0.757   3.241
 8058SOL    HW125073   1.959   0.765   3.143
 8058SOL    HW225074   1.884   0.676   3.258
 8059SOL     OW25075   2.682   1.490   3.999
 8059SOL    HW125076   2.607   1.451   3.946
 8059SOL    HW225077   2.648   1.521   4.088
 8060SOL     OW25078   0.650   1.317   4.942
 8060SOL    HW125079   0.641   1.304   4.843
 8060SOL    HW225080   0.701   1.400   4.960
 8061SOL     OW25081   0.200   5.541   1.353
 8061SOL    HW125082   0.175   5.518   1.447
 8061SOL    HW225083   0.299   5.541   1.343
 8062SOL     OW25084   2.085   3.812   2.605
 8062SOL    HW125085   2.131   3.774   2.685
 8062SOL    HW225086   1.993   3.773   2.599
 8063SOL     OW25087   3.216   3.118   6.980
 8063SOL    HW125088   3.225   3.086   0.056
 8063SOL    HW225089   3.144   3.188   6.975
 8064SOL     OW25090   6.533   3.276   0.128
 8064SOL    HW125091   6.589   3.300   0.049
 8064SOL    HW225092   6.462   3.346   0.141
 8065SOL     OW25093   4.440   0.145   6.476
 8065SOL    HW125094   4.530   0.112   6.448
 8065SOL    HW225095   4.369   0.094   6.428
 8066SOL     OW25096   2.094   0.312   1.572
 8066SOL    HW125097   2.006   0.356   1.591
 8066SOL    HW225098   2.161   0.381   1.546
 8067SOL     OW25099   5.100   2.559   1.753
 8067SOL    HW125100   5.196   2.585   1.749
 8067SOL    HW225101   5.089   2.466   1.720
 8068SOL     OW25102   0.968   4.222   4.220
 8068SOL    HW125103   0.869   4.208   4.214
 8068SOL    HW225104   0.989   4.286   4.294
 8069SOL     OW25105   2.214   6.491   2.001
 8069SOL    HW125106   2.303   6.534   2.018
 8069SOL    HW225107   2.145   6.563   1.988
 8070SOL     OW25108   4.081   0.286   2.011
 8070SOL    HW125109   4.098   0.236   1.926
 8070SOL    HW225110   4.008   0.240   2.062
 8071SOL     OW25111   4.045   6.473   0.138
 8071SOL    HW125112   4.142   6.499   0.137
 8071SOL    HW225113   3.990   6.547   0.101
 8072SOL     OW25114   5.233   0.625   1.697
 8072SOL    HW125115   5.238   0.658   1.791
 8072SOL    HW225116   5.139   0.597   1.676
 8073SOL     OW25117   4.132   6.376   5.710
 8073SOL    HW125118   4.054   6.318   5.684
 8073SOL    HW225119   4.107   6.472   5.699
 8074SOL     OW25120   3.355   3.739   0.061
 8074SOL    HW125121   3.275   3.790   0.094
 8074SOL    HW225122   3.334   3.699   6.990
 8075SOL     OW25123   5.994   1.318   2.819
 8075SOL    HW125124   5.959   1.263   2.894
 8075SOL    HW225125   6.093   1.323   2.823
 8076SOL     OW25126   5.570   3.030   6.575
 8076SOL    HW125127   5.492   3.093   6.576
 8076SOL    HW225128   5.567   2.973   6.657
 8077SOL     OW25129   1.287   1.060   0.506
 8077SOL    HW125130   1.230   0.988   0.546
 8077SOL    HW225131   1.236   1.146   0.506
 8078SOL     OW25132   6.264   3.429   0.430
 8078SOL    HW125133   6.274   3.489   0.509
 8078SOL    HW225134   6.266   3.334   0.459
 8079SOL     OW25135   6.775   1.553   2.068
 8079SOL    HW125136   6.851   1.593   2.018
 8079SOL    HW225137   6.690   1.602   2.047
 8080SOL     OW25138   3.833   5.052   0.424
 8080SOL    HW125139   3.885   4.974   0.390
 8080SOL    HW225140   3.763   5.020   0.488
 8081SOL     OW25141   5.727   0.591   5.417
 8081SOL    HW125142   5.715   0.639   5.504
 8081SOL    HW225143   5.768   0.501   5.433
 8082SOL     OW25144   6.414   3.283   4.298
 8082SOL    HW125145   6.451   3.358   4.352
 8082SOL    HW225146   6.433   3.299   4.201
 8083SOL     OW25147   4.931   2.670   4.296
 8083SOL    HW125148   4.999   2.680   4.223
 8083SOL    HW225149   4.965   2.605   4.364
 8084SOL     OW25150   6.660   0.168   1.222
 8084SOL    HW125151   6.613   0.124   1.299
 8084SOL    HW225152   6.758   0.171   1.241
 8085SOL     OW25153   6.382   2.001   1.407
 8085SOL    HW125154   6.382   2.088   1.456
 8085SOL    HW225155   6.302   1.947   1.433
 8086SOL     OW25156   3.344   6.410   5.694
 8086SOL    HW125157   3.283   6.345   5.740
 8086SOL    HW225158   3.291   6.470   5.634
 8087SOL     OW25159   2.899   3.135   1.538
 8087SOL    HW125160   2.862   3.193   1.611
 8087SOL    HW225161   2.984   3.174   1.504
 8088SOL     OW25162   4.352   0.794   2.819
 8088SOL    HW125163   4.281   0.727   2.798
 8088SOL    HW225164   4.350   0.867   2.751
 8089SOL     OW25165   5.873   2.976   0.950
 8089SOL    HW125166   5.942   3.014   0.888
 8089SOL    HW225167   5.871   3.030   1.035
 8090SOL     OW25168   4.738   2.244   4.973
 8090SOL    HW125169   4.690   2.246   5.061
 8090SOL    HW225170   4.718   2.327   4.922
 8091SOL     OW25171   2.981   5.180   5.836
 8091SOL    HW125172   2.949   5.179   5.741
 8091SOL    HW225173   2.922   5.240   5.890
 8092SOL     OW25174   0.813   2.082   4.135
 8092SOL    HW125175   0.801   2.082   4.036
 8092SOL    HW225176   0.807   2.175   4.170
 8093SOL     OW25177   5.723   6.293   1.201
 8093SOL    HW125178   5.660   6.257   1.133
 8093SOL    HW225179   5.752   6.219   1.262
 8094SOL     OW25180   1.055   3.728   4.549
 8094SOL    HW125181   1.064   3.817   4.505
 8094SOL    HW225182   1.103   3.728   4.637
 8095SOL     OW25183   5.917   3.814   4.441
 8095SOL    HW125184   5.869   3.726   4.451
 8095SOL    HW225185   5.851   3.889   4.446
 8096SOL     OW25186   3.837   6.451   1.368
 8096SOL    HW125187   3.878   6.460   1.278
 8096SOL    HW225188   3.759   6.513   1.376
 8097SOL     OW25189   4.459   0.937   4.631
 8097SOL    HW125190   4.550   0.914   4.666
 8097SOL    HW225191   4.466   1.016   4.570
 8098SOL     OW25192   2.771   6.974   3.766
 8098SOL    HW125193   2.719   6.985   3.682
 8098SOL    HW225194   2.836   0.032   3.776
 8099SOL     OW25195   5.443   6.544   5.215
 8099SOL    HW125196   5.449   6.618   5.282
 8099SOL    HW225197   5.388   6.572   5.137
 8100SOL     OW25198   0.921   6.783   1.250
 8100SOL    HW125199   0.832   6.782   1.204
 8100SOL    HW225200   0.993   6.775   1.182
 8101SOL     OW25201   1.033   5.777   2.998
 8101SOL    HW125202   1.105   5.835   2.959
 8101SOL    HW225203   1.026   5.693   2.945
 8102SOL     OW25204   0.113   6.798   6.279
 8102SOL    HW125205   0.138   6.723   6.341
 8102SOL    HW225206   0.192   6.822   6.222
 8103SOL     OW25207   2.601   1.837   2.353
 8103SOL    HW125208   2.613   1.843   2.253
 8103SOL    HW225209   2.507   1.859   2.377
 8104SOL     OW25210   2.103   6.382   6.035
 8104SOL    HW125211   2.071   6.304   5.983
 8104SOL    HW225212   2.197   6.367   6.065
 8105SOL     OW25213   1.520   2.560   2.417
 8105SOL    HW125214   1.557   2.644   2.458
 8105SOL    HW225215   1.425   2.575   2.392
 8106SOL     OW25216   0.589   3.865   4.436
 8106SOL    HW125217   0.495   3.876   4.468
 8106SOL    HW225218   0.650   3.853   4.515
 8107SOL     OW25219   1.614   5.938   6.039
 8107SOL    HW125220   1.630   5.929   5.941
 8107SOL    HW225221   1.516   5.937   6.058
 8108SOL     OW25222   2.066   3.444   4.418
 8108SOL    HW125223   1.972   3.412   4.430
 8108SOL    HW225224   2.066   3.542   4.397
 8109SOL     OW25225   0.989   4.996   5.567
 8109SOL    HW125226   1.041   5.073   5.602
 8109SOL    HW225227   1.013   4.913   5.618
 8110SOL     OW25228   1.760   4.367   1.061
 8110SOL    HW125229   1.717   4.441   1.111
 8110SOL    HW225230   1.691   4.303   1.029
 8111SOL     OW25231   2.663   5.577   4.229
 8111SOL    HW125232   2.715   5.538   4.153
 8111SOL    HW225233   2.705   5.550   4.315
 8112SOL     OW25234   3.912   0.828   4.686
 8112SOL    HW125235   4.004   0.869   4.687
 8112SOL    HW225236   3.919   0.732   4.711
 8113SOL     OW25237   3.621   3.202   5.858
 8113SOL    HW125238   3.676   3.279   5.891
 8113SOL    HW225239   3.643   3.120   5.910
 8114SOL     OW25240   2.819   4.087   1.446
 8114SOL    HW125241   2.721   4.066   1.440
 8114SOL    HW225242   2.857   4.094   1.354
 8115SOL     OW25243   3.805   2.252   1.104
 8115SOL    HW125244   3.810   2.184   1.031
 8115SOL    HW225245   3.846   2.214   1.187
 8116SOL     OW25246   5.483   0.923   5.500
 8116SOL    HW125247   5.552   0.861   5.536
 8116SOL    HW225248   5.515   1.017   5.508
 8117SOL     OW25249   2.473   1.755   5.552
 8117SOL    HW125250   2.535   1.822   5.594
 8117SOL    HW225251   2.521   1.707   5.478
 8118SOL     OW25252   1.358   2.903   4.511
 8118SOL    HW125253   1.307   2.958   4.577
 8118SOL    HW225254   1.441   2.866   4.555
 8119SOL     OW25255   1.104   5.966   2.012
 8119SOL    HW125256   1.084   6.064   2.010
 8119SOL    HW225257   1.200   5.952   2.039
 8120SOL     OW25258   4.017   4.201   1.200
 8120SOL    HW125259   3.954   4.201   1.122
 8120SOL    HW225260   4.033   4.107   1.230
 8121SOL     OW25261   6.543   6.726   3.128
 8121SOL    HW125262   6.554   6.772   3.216
 8121SOL    HW225263   6.536   6.627   3.143
 8122SOL     OW25264   0.580   6.206   1.442
 8122SOL    HW125265   0.538   6.136   1.500
 8122SOL    HW225266   0.577   6.294   1.490
 8123SOL     OW25267   0.545   5.894   0.304
 8123SOL    HW125268   0.583   5.824   0.244
 8123SOL    HW225269   0.616   5.957   0.332
 8124SOL     OW25270   0.471   5.880   2.594
 8124SOL    HW125271   0.396   5.933   2.635
 8124SOL    HW225272   0.559   5.916   2.627
 8125SOL     OW25273   5.611   5.339   2.914
 8125SOL    HW125274   5.520   5.300   2.911
 8125SOL    HW225275   5.614   5.421   2.856
 8126SOL     OW25276   6.078   4.851   2.138
 8126SOL    HW125277   5.997   4.802   2.103
 8126SOL    HW225278   6.116   4.908   2.065
 8127SOL     OW25279   3.243   4.514   1.031
 8127SOL    HW125280   3.150   4.505   1.068
 8127SOL    HW225281   3.308   4.523   1.106
 8128SOL     OW25282   3.974   2.590   5.563
 8128SOL    HW125283   4.012   2.516   5.508
 8128SOL    HW225284   3.942   2.553   5.651
 8129SOL     OW25285   5.026   6.519   0.342
 8129SOL    HW125286   4.931   6.526   0.372
 8129SOL    HW225287   5.044   6.586   0.270
 8130SOL     OW25288   0.942   0.165   0.679
 8130SOL    HW125289   0.869   0.220   0.719
 8130SOL    HW225290   0.959   0.196   0.585
 8131SOL     OW25291   0.841   1.321   0.142
 8131SOL    HW125292   0.898   1.401   0.160
 8131SOL    HW225293   0.870   1.246   0.202
 8132SOL     OW25294   6.108   4.848   3.103
 8132SOL    HW125295   6.184   4.810   3.050
 8132SOL    HW225296   6.041   4.889   3.041
 8133SOL     OW25297   0.822   5.710   1.667
 8133SOL    HW125298   0.738   5.747   1.706
 8133SOL    HW225299   0.901   5.753   1.710
 8134SOL     OW25300   2.185   2.505   1.513
 8134SOL    HW125301   2.100   2.525   1.464
 8134SOL    HW225302   2.187   2.558   1.598
 8135SOL     OW25303   3.866   6.015   2.336
 8135SOL    HW125304   3.876   5.939   2.401
 8135SOL    HW225305   3.815   5.983   2.256
 8136SOL     OW25306   3.375   5.937   0.836
 8136SOL    HW125307   3.293   5.994   0.839
 8136SOL    HW225308   3.421   5.948   0.748
 8137SOL     OW25309   2.784   3.956   5.372
 8137SOL    HW125310   2.700   3.902   5.360
 8137SOL    HW225311   2.764   4.053   5.354
 8138SOL     OW25312   4.867   0.839   3.851
 8138SOL    HW125313   4.930   0.817   3.926
 8138SOL    HW225314   4.884   0.932   3.819
 8139SOL     OW25315   1.563   2.785   4.250
 8139SOL    HW125316   1.650   2.735   4.247
 8139SOL    HW225317   1.491   2.725   4.285
 8140SOL     OW25318   4.506   0.503   1.357
 8140SOL    HW125319   4.415   0.467   1.333
 8140SOL    HW225320   4.562   0.507   1.274
 8141SOL     OW25321   6.079   0.974   5.124
 8141SOL    HW125322   6.007   0.905   5.133
 8141SOL    HW225323   6.146   0.961   5.197
 8142SOL     OW25324   2.282   5.246   1.597
 8142SOL    HW125325   2.242   5.161   1.564
 8142SOL    HW225326   2.241   5.271   1.685
 8143SOL     OW25327   6.190   5.038   0.812
 8143SOL    HW125328   6.133   5.120   0.811
 8143SOL    HW225329   6.164   4.980   0.889
 8144SOL     OW25330   0.013   5.224   0.268
 8144SOL    HW125331   6.950   5.257   0.220
 8144SOL    HW225332   0.070   5.171   0.206
 8145SOL     OW25333   5.202   5.591   0.066
 8145SOL    HW125334   5.146   5.666   0.101
 8145SOL    HW225335   5.270   5.566   0.135
 8146SOL     OW25336   6.042   0.535   4.707
 8146SOL    HW125337   6.020   0.632   4.694
 8146SOL    HW225338   6.063   0.494   4.618
 8147SOL     OW25339   1.821   0.844   6.485
 8147SOL    HW125340   1.748   0.816   6.547
 8147SOL    HW225341   1.870   0.763   6.452
 8148SOL     OW25342   4.534   4.604   0.476
 8148SOL    HW125343   4.447   4.646   0.504
 8148SOL    HW225344   4.527   4.572   0.382
 8149SOL     OW25345   0.625   7.014   5.126
 8149SOL    HW125346   0.724   7.006   5.140
 8149SOL    HW225347   0.600   6.970   5.040
 8150SOL     OW25348   0.198   3.887   0.792
 8150SOL    HW125349   0.229   3.862   0.701
 8150SOL    HW225350   0.218   3.984   0.810
 8151SOL     OW25351   6.329   6.504   3.168
 8151SOL    HW125352   6.276   6.568   3.114
 8151SOL    HW225353   6.268   6.438   3.212
 8152SOL     OW25354   4.890   1.393   2.960
 8152SOL    HW125355   4.882   1.352   2.869
 8152SOL    HW225356   4.846   1.483   2.960
 8153SOL     OW25357   0.491   1.569   1.909
 8153SOL    HW125358   0.445   1.487   1.877
 8153SOL    HW225359   0.537   1.549   1.996
 8154SOL     OW25360   2.172   0.720   2.896
 8154SOL    HW125361   2.221   0.637   2.922
 8154SOL    HW225362   2.219   0.765   2.820
 8155SOL     OW25363   1.656   5.333   3.356
 8155SOL    HW125364   1.572   5.387   3.349
 8155SOL    HW225365   1.670   5.284   3.270
 8156SOL     OW25366   0.683   4.579   0.984
 8156SOL    HW125367   0.766   4.530   1.010
 8156SOL    HW225368   0.604   4.537   1.029
 8157SOL     OW25369   6.745   4.136   4.805
 8157SOL    HW125370   6.797   4.205   4.856
 8157SOL    HW225371   6.661   4.177   4.769
 8158SOL     OW25372   6.087   5.736   6.624
 8158SOL    HW125373   6.020   5.768   6.691
 8158SOL    HW225374   6.114   5.642   6.647
 8159SOL     OW25375   3.041   6.825   5.072
 8159SOL    HW125376   3.025   6.814   4.974
 8159SOL    HW225377   3.050   6.735   5.115
 8160SOL     OW25378   5.654   1.186   1.998
 8160SOL    HW125379   5.725   1.205   2.065
 8160SOL    HW225380   5.616   1.095   2.014
 8161SOL     OW25381   5.954   3.388   1.695
 8161SOL    HW125382   5.878   3.415   1.754
 8161SOL    HW225383   6.037   3.434   1.727
 8162SOL     OW25384   0.252   5.440   5.396
 8162SOL    HW125385   0.281   5.445   5.301
 8162SOL    HW225386   0.200   5.355   5.411
 8163SOL     OW25387   4.167   4.495   5.500
 8163SOL    HW125388   4.221   4.541   5.570
 8163SOL    HW225389   4.076   4.474   5.537
 8164SOL     OW25390   5.476   1.840   1.190
 8164SOL    HW125391   5.497   1.936   1.174
 8164SOL    HW225392   5.380   1.822   1.168
 8165SOL     OW25393   0.258   1.199   0.246
 8165SOL    HW125394   0.300   1.287   0.226
 8165SOL    HW225395   0.190   1.210   0.319
 8166SOL     OW25396   1.506   1.597   5.696
 8166SOL    HW125397   1.442   1.525   5.722
 8166SOL    HW225398   1.470   1.646   5.617
 8167SOL     OW25399   1.758   3.233   4.034
 8167SOL    HW125400   1.837   3.203   4.087
 8167SOL    HW225401   1.707   3.153   4.001
 8168SOL     OW25402   1.422   0.828   2.253
 8168SOL    HW125403   1.374   0.915   2.263
 8168SOL    HW225404   1.373   0.770   2.188
 8169SOL     OW25405   4.994   3.141   0.285
 8169SOL    HW125406   4.994   3.184   0.195
 8169SOL    HW225407   4.902   3.112   0.309
 8170SOL     OW25408   6.893   4.917   2.330
 8170SOL    HW125409   6.853   5.005   2.303
 8170SOL    HW225410   6.830   4.868   2.390
 8171SOL     OW25411   2.471   1.449   0.323
 8171SOL    HW125412   2.415   1.461   0.405
 8171SOL    HW225413   2.426   1.493   0.245
 8172SOL     OW25414   1.254   2.746   0.534
 8172SOL    HW125415   1.352   2.758   0.521
 8172SOL    HW225416   1.205   2.823   0.493
 8173SOL     OW25417   5.819   1.061   1.604
 8173SOL    HW125418   5.806   1.149   1.559
 8173SOL    HW225419   5.750   0.997   1.571
 8174SOL     OW25420   2.919   5.930   3.208
 8174SOL    HW125421   2.982   5.983   3.151
 8174SOL    HW225422   2.894   5.846   3.160
 8175SOL     OW25423   0.176   1.550   5.480
 8175SOL    HW125424   0.120   1.481   5.434
 8175SOL    HW225425   0.116   1.613   5.530
 8176SOL     OW25426   2.208   4.590   0.448
 8176SOL    HW125427   2.257   4.546   0.522
 8176SOL    HW225428   2.117   4.549   0.439
 8177SOL     OW25429   3.230   1.253   4.213
 8177SOL    HW125430   3.223   1.214   4.305
 8177SOL    HW225431   3.150   1.309   4.194
 8178SOL     OW25432   3.212   6.648   1.492
 8178SOL    HW125433   3.231   6.745   1.509
 8178SOL    HW225434   3.170   6.608   1.573
 8179SOL     OW25435   5.463   0.857   3.501
 8179SOL    HW125436   5.465   0.764   3.537
 8179SOL    HW225437   5.473   0.922   3.576
 8180SOL     OW25438   4.702   6.346   0.145
 8180SOL    HW125439   4.653   6.415   0.199
 8180SOL    HW225440   4.655   6.258   0.154
 8181SOL     OW25441   0.207   0.401   0.400
 8181SOL    HW125442   0.265   0.476   0.367
 8181SOL    HW225443   0.115   0.436   0.418
 8182SOL     OW25444   3.097   3.697   4.459
 8182SOL    HW125445   3.044   3.683   4.543
 8182SOL    HW225446   3.061   3.638   4.387
 8183SOL     OW25447   6.953   0.540   5.445
 8183SOL    HW125448   7.014   0.619   5.438
 8183SOL    HW225449   6.982   0.482   5.521
 8184SOL     OW25450   0.301   5.767   0.039
 8184SOL    HW125451   0.335   5.826   0.113
 8184SOL    HW225452   0.248   5.823   6.993
 8185SOL     OW25453   0.697   6.520   6.045
 8185SOL    HW125454   0.777   6.464   6.021
 8185SOL    HW225455   0.624   6.461   6.078
 8186SOL     OW25456   1.809   5.438   6.308
 8186SOL    HW125457   1.730   5.386   6.274
 8186SOL    HW225458   1.874   5.375   6.351
 8187SOL     OW25459   0.609   0.915   5.622
 8187SOL    HW125460   0.517   0.931   5.658
 8187SOL    HW225461   0.676   0.955   5.685
 8188SOL     OW25462   1.914   2.878   2.876
 8188SOL    HW125463   1.835   2.929   2.843
 8188SOL    HW225464   1.955   2.926   2.954
 8189SOL     OW25465   5.513   5.004   3.778
 8189SOL    HW125466   5.561   4.917   3.789
 8189SOL    HW225467   5.554   5.056   3.703
 8190SOL     OW25468   0.030   4.178   2.646
 8190SOL    HW125469   0.101   4.197   2.578
 8190SOL    HW225470   0.051   4.092   2.693
 8191SOL     OW25471   4.199   5.417   0.745
 8191SOL    HW125472   4.267   5.388   0.812
 8191SOL    HW225473   4.141   5.339   0.720
 8192SOL     OW25474   0.347   6.228   3.688
 8192SOL    HW125475   0.424   6.240   3.751
 8192SOL    HW225476   0.325   6.131   3.680
 8193SOL     OW25477   0.556   4.877   4.337
 8193SOL    HW125478   0.641   4.834   4.308
 8193SOL    HW225479   0.480   4.845   4.281
 8194SOL     OW25480   4.541   6.874   2.033
 8194SOL    HW125481   4.551   6.824   1.947
 8194SOL    HW225482   4.554   6.971   2.017
 8195SOL     OW25483   6.140   6.289   3.268
 8195SOL    HW125484   6.174   6.206   3.222
 8195SOL    HW225485   6.040   6.290   3.264
 8196SOL     OW25486   5.135   1.214   1.459
 8196SOL    HW125487   5.088   1.292   1.417
 8196SOL    HW225488   5.211   1.248   1.514
 8197SOL     OW25489   3.804   1.917   2.581
 8197SOL    HW125490   3.880   1.852   2.591
 8197SOL    HW225491   3.727   1.888   2.638
 8198SOL     OW25492   1.511   6.722   1.667
 8198SOL    HW125493   1.490   6.718   1.765
 8198SOL    HW225494   1.520   6.818   1.640
 8199SOL     OW25495   5.802   2.816   0.205
 8199SOL    HW125496   5.719   2.809   0.150
 8199SOL    HW225497   5.808   2.739   0.268
 8200SOL     OW25498   4.197   3.099   0.671
 8200SOL    HW125499   4.100   3.079   0.655
 8200SOL    HW225500   4.209   3.141   0.761
 8201SOL     OW25501   5.887   6.961   5.263
 8201SOL    HW125502   5.961   6.898   5.239
 8201SOL    HW225503   5.877   0.011   5.190
 8202SOL     OW25504   0.642   6.596   2.145
 8202SOL    HW125505   0.722   6.644   2.180
 8202SOL    HW225506   0.581   6.661   2.098
 8203SOL     OW25507   1.479   3.241   1.615
 8203SOL    HW125508   1.534   3.256   1.697
 8203SOL    HW225509   1.488   3.146   1.585
 8204SOL     OW25510   3.232   3.011   1.253
 8204SOL    HW125511   3.188   3.073   1.189
 8204SOL    HW225512   3.294   2.950   1.204
 8205SOL     OW25513   0.983   3.719   6.852
 8205SOL    HW125514   1.065   3.699   6.798
 8205SOL    HW225515   0.963   3.817   6.846
 8206SOL     OW25516   3.198   0.535   0.396
 8206SOL    HW125517   3.235   0.444   0.411
 8206SOL    HW225518   3.188   0.582   0.484
 8207SOL     OW25519   4.053   3.837   4.967
 8207SOL    HW125520   4.106   3.753   4.963
 8207SOL    HW225521   3.970   3.827   4.911
 8208SOL     OW25522   2.261   0.940   0.207
 8208SOL    HW125523   2.322   0.957   0.285
 8208SOL    HW225524   2.167   0.929   0.240
 8209SOL     OW25525   6.326   1.568   4.638
 8209SOL    HW125526   6.249   1.624   4.670
 8209SOL    HW225527   6.318   1.552   4.540
 8210SOL     OW25528   2.249   2.223   6.642
 8210SOL    HW125529   2.251   2.246   6.545
 8210SOL    HW225530   2.235   2.305   6.696
 8211SOL     OW25531   3.529   4.428   1.446
 8211SOL    HW125532   3.578   4.342   1.460
 8211SOL    HW225533   3.502   4.466   1.535
 8212SOL     OW25534   1.778   2.832   3.406
 8212SOL    HW125535   1.831   2.757   3.367
 8212SOL    HW225536   1.681   2.807   3.409
 8213SOL     OW25537   6.643   5.016   1.293
 8213SOL    HW125538   6.641   4.948   1.220
 8213SOL    HW225539   6.596   4.980   1.374
 8214SOL     OW25540   5.800   4.055   3.805
 8214SOL    HW125541   5.817   4.002   3.888
 8214SOL    HW225542   5.883   4.103   3.779
 8215SOL     OW25543   3.541   5.335   3.373
 8215SOL    HW125544   3.483   5.409   3.339
 8215SOL    HW225545   3.525   5.323   3.471
 8216SOL     OW25546   5.530   3.670   3.709
 8216SOL    HW125547   5.502   3.691   3.615
 8216SOL    HW225548   5.453   3.685   3.771
 8217SOL     OW25549   2.203   6.160   0.017
 8217SOL    HW125550   2.247   6.210   0.092
 8217SOL    HW225551   2.104   6.171   0.023
 8218SOL     OW25552   6.569   2.459   6.779
 8218SOL    HW125553   6.622   2.408   6.846
 8218SOL    HW225554   6.603   2.553   6.775
 8219SOL     OW25555   5.854   1.708   0.057
 8219SOL    HW125556   5.787   1.776   0.026
 8219SOL    HW225557   5.831   1.619   0.019
 8220SOL     OW25558   3.891   3.595   2.154
 8220SOL    HW125559   3.978   3.564   2.193
 8220SOL    HW225560   3.897   3.595   2.054
 8221SOL     OW25561   5.291   6.222   3.810
 8221SOL    HW125562   5.364   6.263   3.755
 8221SOL    HW225563   5.205   6.226   3.760
 8222SOL     OW25564   6.117   2.106   1.108
 8222SOL    HW125565   6.123   2.010   1.133
 8222SOL    HW225566   6.057   2.116   1.029
 8223SOL     OW25567   0.560   5.208   5.853
 8223SOL    HW125568   0.613   5.280   5.810
 8223SOL    HW225569   0.597   5.119   5.828
 8224SOL     OW25570   1.370   3.292   3.981
 8224SOL    HW125571   1.456   3.243   3.967
 8224SOL    HW225572   1.382   3.360   4.053
 8225SOL     OW25573   4.863   1.605   0.184
 8225SOL    HW125574   4.891   1.683   0.129
 8225SOL    HW225575   4.901   1.614   0.277
 8226SOL     OW25576   5.050   0.804   0.745
 8226SOL    HW125577   5.094   0.732   0.799
 8226SOL    HW225578   4.971   0.839   0.796
 8227SOL     OW25579   6.506   3.483   3.372
 8227SOL    HW125580   6.562   3.401   3.381
 8227SOL    HW225581   6.409   3.457   3.376
 8228SOL     OW25582   6.648   2.832   5.012
 8228SOL    HW125583   6.565   2.888   5.014
 8228SOL    HW225584   6.631   2.748   4.962
 8229SOL     OW25585   3.640   4.976   0.594
 8229SOL    HW125586   3.631   4.935   0.685
 8229SOL    HW225587   3.550   4.982   0.551
 8230SOL     OW25588   4.924   6.985   3.927
 8230SOL    HW125589   5.024   6.987   3.930
 8230SOL    HW225590   4.891   0.044   3.871
 8231SOL     OW25591   4.621   6.101   0.881
 8231SOL    HW125592   4.676   6.077   0.960
 8231SOL    HW225593   4.586   6.017   0.838
 8232SOL     OW25594   2.872   2.571   6.271
 8232SOL    HW125595   2.885   2.476   6.302
 8232SOL    HW225596   2.936   2.631   6.319
 8233SOL     OW25597   0.348   5.320   0.133
 8233SOL    HW125598   0.347   5.292   0.229
 8233SOL    HW225599   0.316   5.244   0.075
 8234SOL     OW25600   3.544   1.867   0.030
 8234SOL    HW125601   3.482   1.895   0.103
 8234SOL    HW225602   3.537   1.768   0.017
 8235SOL     OW25603   4.799   2.896   1.060
 8235SOL    HW125604   4.749   2.979   1.086
 8235SOL    HW225605   4.741   2.816   1.079
 8236SOL     OW25606   5.771   3.375   0.573
 8236SOL    HW125607   5.775   3.333   0.663
 8236SOL    HW225608   5.817   3.316   0.506
 8237SOL     OW25609   4.377   6.225   5.620
 8237SOL    HW125610   4.312   6.296   5.646
 8237SOL    HW225611   4.369   6.205   5.523
 8238SOL     OW25612   1.987   1.809   6.426
 8238SOL    HW125613   2.002   1.712   6.449
 8238SOL    HW225614   1.890   1.824   6.409
 8239SOL     OW25615   0.253   1.955   6.136
 8239SOL    HW125616   0.168   1.994   6.102
 8239SOL    HW225617   0.258   1.858   6.111
 8240SOL     OW25618   4.027   3.849   3.815
 8240SOL    HW125619   4.052   3.798   3.732
 8240SOL    HW225620   4.030   3.788   3.894
 8241SOL     OW25621   3.997   6.609   0.470
 8241SOL    HW125622   3.949   6.629   0.385
 8241SOL    HW225623   3.975   6.516   0.499
 8242SOL     OW25624   0.933   4.221   5.458
 8242SOL    HW125625   0.865   4.293   5.467
 8242SOL    HW225626   1.022   4.256   5.486
 8243SOL     OW25627   0.763   3.623   5.053
 8243SOL    HW125628   0.756   3.542   4.995
 8243SOL    HW225629   0.706   3.611   5.135
 8244SOL     OW25630   0.519   6.569   4.470
 8244SOL    HW125631   0.460   6.491   4.491
 8244SOL    HW225632   0.610   6.536   4.444
 8245SOL     OW25633   3.726   2.909   0.637
 8245SOL    HW125634   3.667   2.982   0.603
 8245SOL    HW225635   3.688   2.872   0.722
 8246SOL     OW25636   5.251   3.712   5.832
 8246SOL    HW125637   5.251   3.699   5.733
 8246SOL    HW225638   5.233   3.624   5.877
 8247SOL     OW25639   0.828   0.318   1.297
 8247SOL    HW125640   0.897   0.309   1.369
 8247SOL    HW225641   0.867   0.292   1.209
 8248SOL     OW25642   6.194   4.032   3.445
 8248SOL    HW125643   6.230   3.995   3.359
 8248SOL    HW225644   6.187   4.132   3.438
 8249SOL     OW25645   2.084   5.049   3.489
 8249SOL    HW125646   2.066   4.987   3.566
 8249SOL    HW225647   2.005   5.107   3.474
 8250SOL     OW25648   4.184   3.502   2.479
 8250SOL    HW125649   4.176   3.404   2.497
 8250SOL    HW225650   4.193   3.551   2.566
 8251SOL     OW25651   5.705   1.822   4.765
 8251SOL    HW125652   5.658   1.889   4.707
 8251SOL    HW225653   5.768   1.869   4.827
 8252SOL     OW25654   1.671   3.100   4.835
 8252SOL    HW125655   1.740   3.035   4.805
 8252SOL    HW225656   1.616   3.128   4.756
 8253SOL     OW25657   3.214   3.295   5.325
 8253SOL    HW125658   3.248   3.229   5.258
 8253SOL    HW225659   3.290   3.350   5.359
 8254SOL     OW25660   3.627   5.572   3.609
 8254SOL    HW125661   3.590   5.492   3.657
 8254SOL    HW225662   3.554   5.637   3.590
 8255SOL     OW25663   4.588   5.239   3.742
 8255SOL    HW125664   4.678   5.215   3.776
 8255SOL    HW225665   4.539   5.293   3.811
 8256SOL     OW25666   7.016   1.542   4.472
 8256SOL    HW125667   0.084   1.581   4.504
 8256SOL    HW225668   6.945   1.613   4.471
 8257SOL     OW25669   6.683   4.386   3.825
 8257SOL    HW125670   6.617   4.366   3.753
 8257SOL    HW225671   6.654   4.341   3.910
 8258SOL     OW25672   4.445   1.347   6.773
 8258SOL    HW125673   4.416   1.329   6.868
 8258SOL    HW225674   4.422   1.441   6.749
 8259SOL     OW25675   3.769   1.863   2.058
 8259SOL    HW125676   3.764   1.961   2.038
 8259SOL    HW225677   3.677   1.823   2.052
 8260SOL     OW25678   2.306   5.735   0.406
 8260SOL    HW125679   2.216   5.726   0.363
 8260SOL    HW225680   2.299   5.717   0.504
 8261SOL     OW25681   5.542   1.490   1.621
 8261SOL    HW125682   5.532   1.480   1.720
 8261SOL    HW225683   5.487   1.568   1.589
 8262SOL     OW25684   0.934   2.193   1.182
 8262SOL    HW125685   0.938   2.155   1.275
 8262SOL    HW225686   0.911   2.290   1.187
 8263SOL     OW25687   6.309   1.670   0.640
 8263SOL    HW125688   6.389   1.673   0.700
 8263SOL    HW225689   6.227   1.696   0.692
 8264SOL     OW25690   2.073   5.021   2.929
 8264SOL    HW125691   2.130   4.948   2.892
 8264SOL    HW225692   2.063   5.009   3.028
 8265SOL     OW25693   1.647   0.805   1.804
 8265SOL    HW125694   1.707   0.882   1.780
 8265SOL    HW225695   1.567   0.806   1.745
 8266SOL     OW25696   3.292   0.223   3.000
 8266SOL    HW125697   3.252   0.165   3.070
 8266SOL    HW225698   3.321   0.167   2.922
 8267SOL     OW25699   0.428   3.537   1.192
 8267SOL    HW125700   0.369   3.471   1.146
 8267SOL    HW225701   0.478   3.492   1.266
 8268SOL     OW25702   2.699   6.758   5.402
 8268SOL    HW125703   2.745   6.844   5.420
 8268SOL    HW225704   2.767   6.687   5.383
 8269SOL     OW25705   5.746   2.076   0.962
 8269SOL    HW125706   5.668   2.127   0.925
 8269SOL    HW225707   5.831   2.112   0.923
 8270SOL     OW25708   4.039   6.087   3.645
 8270SOL    HW125709   3.953   6.051   3.610
 8270SOL    HW225710   4.098   6.113   3.569
 8271SOL     OW25711   0.087   1.635   2.547
 8271SOL    HW125712   0.093   1.713   2.484
 8271SOL    HW225713   0.097   1.667   2.641
 8272SOL     OW25714   3.638   1.357   3.570
 8272SOL    HW125715   3.581   1.290   3.618
 8272SOL    HW225716   3.627   1.447   3.612
 8273SOL     OW25717   2.472   6.245   1.012
 8273SOL    HW125718   2.540   6.314   1.036
 8273SOL    HW225719   2.392   6.255   1.072
 8274SOL     OW25720   4.796   5.215   3.202
 8274SOL    HW125721   4.870   5.276   3.174
 8274SOL    HW225722   4.833   5.124   3.218
 8275SOL     OW25723   5.014   2.374   5.832
 8275SOL    HW125724   4.985   2.418   5.747
 8275SOL    HW225725   5.114   2.362   5.831
 8276SOL     OW25726   1.142   1.885   3.744
 8276SOL    HW125727   1.113   1.837   3.827
 8276SOL    HW225728   1.212   1.832   3.697
 8277SOL     OW25729   6.425   0.308   6.736
 8277SOL    HW125730   6.366   0.293   6.815
 8277SOL    HW225731   6.465   0.221   6.707
 8278SOL     OW25732   2.333   2.353   0.423
 8278SOL    HW125733   2.333   2.368   0.324
 8278SOL    HW225734   2.425   2.331   0.454
 8279SOL     OW25735   6.953   6.186   3.907
 8279SOL    HW125736   6.922   6.121   3.837
 8279SOL    HW225737   6.904   6.272   3.896
 8280SOL     OW25738   3.026   3.006   5.736
 8280SOL    HW125739   3.087   2.948   5.790
 8280SOL    HW225740   2.932   2.976   5.749
 8281SOL     OW25741   6.822   5.582   1.618
 8281SOL    HW125742   6.888   5.587   1.693
 8281SOL    HW225743   6.744   5.525   1.645
 8282SOL     OW25744   5.242   2.284   5.259
 8282SOL    HW125745   5.300   2.226   5.202
 8282SOL    HW225746   5.171   2.228   5.301
 8283SOL     OW25747   1.926   4.020   5.893
 8283SOL    HW125748   1.908   3.922   5.881
 8283SOL    HW225749   2.016   4.042   5.855
 8284SOL     OW25750   6.908   4.692   2.194
 8284SOL    HW125751   6.916   4.613   2.256
 8284SOL    HW225752   6.885   4.774   2.247
 8285SOL     OW25753   3.484   3.486   5.190
 8285SOL    HW125754   3.580   3.517   5.192
 8285SOL    HW225755   3.450   3.477   5.283
 8286SOL     OW25756   6.602   2.094   5.978
 8286SOL    HW125757   6.558   2.013   6.017
 8286SOL    HW225758   6.551   2.176   6.005
 8287SOL     OW25759   1.612   5.317   4.665
 8287SOL    HW125760   1.524   5.322   4.619
 8287SOL    HW225761   1.673   5.388   4.629
 8288SOL     OW25762   2.495   2.406   3.480
 8288SOL    HW125763   2.560   2.446   3.546
 8288SOL    HW225764   2.418   2.365   3.530
 8289SOL     OW25765   0.283   6.346   6.743
 8289SOL    HW125766   0.294   6.425   6.804
 8289SOL    HW225767   0.308   6.263   6.792
 8290SOL     OW25768   6.709   2.564   0.989
 8290SOL    HW125769   6.796   2.550   1.036
 8290SOL    HW225770   6.654   2.481   0.995
 8291SOL     OW25771   4.457   0.435   0.208
 8291SOL    HW125772   4.411   0.387   0.283
 8291SOL    HW225773   4.538   0.482   0.243
 8292SOL     OW25774   2.852   6.653   6.623
 8292SOL    HW125775   2.889   6.636   6.532
 8292SOL    HW225776   2.787   6.728   6.620
 8293SOL     OW25777   5.614   5.979   5.761
 8293SOL    HW125778   5.640   6.051   5.826
 8293SOL    HW225779   5.591   5.896   5.811
 8294SOL     OW25780   5.678   2.324   0.345
 8294SOL    HW125781   5.596   2.350   0.295
 8294SOL    HW225782   5.666   2.345   0.443
 8295SOL     OW25783   4.883   4.112   1.049
 8295SOL    HW125784   4.797   4.156   1.075
 8295SOL    HW225785   4.886   4.020   1.086
 8296SOL     OW25786   1.787   5.364   6.875
 8296SOL    HW125787   1.791   5.340   6.972
 8296SOL    HW225788   1.835   5.295   6.821
 8297SOL     OW25789   0.328   2.779   3.127
 8297SOL    HW125790   0.278   2.736   3.051
 8297SOL    HW225791   0.288   2.750   3.214
 8298SOL     OW25792   4.725   0.634   1.668
 8298SOL    HW125793   4.673   0.657   1.751
 8298SOL    HW225794   4.756   0.718   1.624
 8299SOL     OW25795   6.154   2.221   1.670
 8299SOL    HW125796   6.173   2.124   1.680
 8299SOL    HW225797   6.177   2.251   1.578
 8300SOL     OW25798   0.652   4.849   3.558
 8300SOL    HW125799   0.744   4.854   3.519
 8300SOL    HW225800   0.659   4.838   3.657
 8301SOL     OW25801   3.721   2.828   6.765
 8301SOL    HW125802   3.782   2.752   6.786
 8301SOL    HW225803   3.740   2.862   6.673
 8302SOL     OW25804   5.817   6.309   6.591
 8302SOL    HW125805   5.760   6.248   6.535
 8302SOL    HW225806   5.761   6.351   6.661
 8303SOL     OW25807   0.510   0.224   4.998
 8303SOL    HW125808   0.549   0.164   5.067
 8303SOL    HW225809   0.583   0.263   4.942
 8304SOL     OW25810   1.242   3.641   6.789
 8304SOL    HW125811   1.294   3.626   6.705
 8304SOL    HW225812   1.305   3.662   6.864
 8305SOL     OW25813   3.494   5.600   3.017
 8305SOL    HW125814   3.478   5.551   3.103
 8305SOL    HW225815   3.590   5.626   3.010
 8306SOL     OW25816   0.972   3.038   4.180
 8306SOL    HW125817   1.000   3.116   4.124
 8306SOL    HW225818   0.980   3.062   4.277
 8307SOL     OW25819   4.112   5.698   1.035
 8307SOL    HW125820   4.131   5.643   1.116
 8307SOL    HW225821   4.038   5.656   0.982
 8308SOL     OW25822   3.663   6.516   2.358
 8308SOL    HW125823   3.720   6.578   2.412
 8308SOL    HW225824   3.689   6.523   2.262
 8309SOL     OW25825   5.368   5.827   1.977
 8309SOL    HW125826   5.268   5.834   1.986
 8309SOL    HW225827   5.401   5.752   2.034
 8310SOL     OW25828   7.001   4.383   0.538
 8310SOL    HW125829   6.927   4.425   0.485
 8310SOL    HW225830   6.993   4.412   0.634
 8311SOL     OW25831   6.477   0.887   0.134
 8311SOL    HW125832   6.473   0.915   0.038
 8311SOL    HW225833   6.570   0.898   0.168
 8312SOL     OW25834   5.700   6.739   1.833
 8312SOL    HW125835   5.727   6.703   1.922
 8312SOL    HW225836   5.777   6.786   1.791
 8313SOL     OW25837   3.731   1.547   2.483
 8313SOL    HW125838   3.820   1.526   2.443
 8313SOL    HW225839   3.743   1.613   2.557
 8314SOL     OW25840   6.383   0.556   2.508
 8314SOL    HW125841   6.345   0.603   2.588
 8314SOL    HW225842   6.466   0.604   2.479
 8315SOL     OW25843   5.038   3.980   6.717
 8315SOL    HW125844   5.014   3.888   6.686
 8315SOL    HW225845   4.955   4.034   6.731
 8316SOL     OW25846   1.704   3.916   6.761
 8316SOL    HW125847   1.646   3.836   6.779
 8316SOL    HW225848   1.772   3.925   6.834
 8317SOL     OW25849   2.386   4.466   1.908
 8317SOL    HW125850   2.445   4.468   1.827
 8317SOL    HW225851   2.418   4.533   1.975
 8318SOL     OW25852   3.976   1.891   5.102
 8318SOL    HW125853   3.914   1.960   5.140
 8318SOL    HW225854   3.944   1.865   5.011
 8319SOL     OW25855   3.602   1.208   5.221
 8319SOL    HW125856   3.588   1.109   5.226
 8319SOL    HW225857   3.592   1.238   5.126
 8320SOL     OW25858   3.231   4.436   1.377
 8320SOL    HW125859   3.311   4.496   1.369
 8320SOL    HW225860   3.247   4.368   1.449
 8321SOL     OW25861   0.666   0.530   1.330
 8321SOL    HW125862   0.643   0.518   1.427
 8321SOL    HW225863   0.736   0.464   1.304
 8322SOL     OW25864   6.328   6.600   7.010
 8322SOL    HW125865   6.375   6.687   6.993
 8322SOL    HW225866   6.280   6.572   6.927
 8323SOL     OW25867   0.857   1.834   2.060
 8323SOL    HW125868   0.868   1.768   1.986
 8323SOL    HW225869   0.863   1.927   2.023
 8324SOL     OW25870   6.155   1.025   2.248
 8324SOL    HW125871   6.090   0.951   2.233
 8324SOL    HW225872   6.152   1.052   2.344
 8325SOL     OW25873   3.202   3.030   3.940
 8325SOL    HW125874   3.268   3.105   3.934
 8325SOL    HW225875   3.224   2.960   3.872
 8326SOL     OW25876   3.982   3.336   6.008
 8326SOL    HW125877   4.010   3.338   5.912
 8326SOL    HW225878   4.061   3.357   6.066
 8327SOL     OW25879   5.335   2.435   5.765
 8327SOL    HW125880   5.399   2.438   5.842
 8327SOL    HW225881   5.364   2.501   5.696
 8328SOL     OW25882   2.176   2.117   5.649
 8328SOL    HW125883   2.250   2.179   5.675
 8328SOL    HW225884   2.094   2.170   5.629
 8329SOL     OW25885   0.041   3.256   5.366
 8329SOL    HW125886   0.081   3.247   5.457
 8329SOL    HW225887   0.002   3.169   5.337
 8330SOL     OW25888   2.441   6.510   0.458
 8330SOL    HW125889   2.487   6.486   0.543
 8330SOL    HW225890   2.473   6.599   0.426
 8331SOL     OW25891   2.725   6.688   0.882
 8331SOL    HW125892   2.772   6.740   0.953
 8331SOL    HW225893   2.673   6.751   0.824
 8332SOL     OW25894   4.997   5.187   2.353
 8332SOL    HW125895   5.054   5.111   2.324
 8332SOL    HW225896   4.902   5.157   2.361
 8333SOL     OW25897   0.518   5.369   6.912
 8333SOL    HW125898   0.428   5.412   6.917
 8333SOL    HW225899   0.554   5.356   7.005
 8334SOL     OW25900   6.097   1.972   3.660
 8334SOL    HW125901   6.134   2.001   3.748
 8334SOL    HW225902   6.079   2.053   3.604
 8335SOL     OW25903   5.685   6.661   6.180
 8335SOL    HW125904   5.671   6.611   6.266
 8335SOL    HW225905   5.732   6.602   6.115
 8336SOL     OW25906   0.009   1.617   1.950
 8336SOL    HW125907   0.074   1.671   2.004
 8336SOL    HW225908   0.046   1.525   1.936
 8337SOL     OW25909   0.664   6.253   2.739
 8337SOL    HW125910   0.612   6.329   2.701
 8337SOL    HW225911   0.651   6.249   2.838
 8338SOL     OW25912   1.561   4.627   1.580
 8338SOL    HW125913   1.638   4.636   1.516
 8338SOL    HW225914   1.550   4.531   1.604
 8339SOL     OW25915   5.394   1.605   2.703
 8339SOL    HW125916   5.451   1.523   2.701
 8339SOL    HW225917   5.359   1.623   2.611
 8340SOL     OW25918   5.049   3.901   0.714
 8340SOL    HW125919   4.967   3.959   0.709
 8340SOL    HW225920   5.091   3.911   0.804
 8341SOL     OW25921   2.801   6.234   1.118
 8341SOL    HW125922   2.849   6.312   1.157
 8341SOL    HW225923   2.711   6.227   1.160
 8342SOL     OW25924   3.995   0.674   0.724
 8342SOL    HW125925   3.973   0.610   0.651
 8342SOL    HW225926   3.978   0.630   0.813
 8343SOL     OW25927   1.519   5.384   6.061
 8343SOL    HW125928   1.596   5.320   6.051
 8343SOL    HW225929   1.447   5.359   5.996
 8344SOL     OW25930   4.465   6.163   5.881
 8344SOL    HW125931   4.429   6.175   5.788
 8344SOL    HW225932   4.515   6.076   5.885
 8345SOL     OW25933   5.907   1.116   3.011
 8345SOL    HW125934   5.899   1.146   3.106
 8345SOL    HW225935   5.838   1.046   2.993
 8346SOL     OW25936   3.431   5.325   1.180
 8346SOL    HW125937   3.391   5.356   1.094
 8346SOL    HW225938   3.446   5.226   1.176
 8347SOL     OW25939   3.584   6.337   5.463
 8347SOL    HW125940   3.659   6.403   5.472
 8347SOL    HW225941   3.545   6.318   5.553
 8348SOL     OW25942   1.186   0.877   0.259
 8348SOL    HW125943   1.166   0.847   0.352
 8348SOL    HW225944   1.285   0.886   0.248
 8349SOL     OW25945   5.460   4.753   1.503
 8349SOL    HW125946   5.362   4.761   1.484
 8349SOL    HW225947   5.511   4.753   1.418
 8350SOL     OW25948   6.023   1.056   4.842
 8350SOL    HW125949   6.015   1.016   4.934
 8350SOL    HW225950   6.099   1.013   4.794
 8351SOL     OW25951   3.803   5.971   3.538
 8351SOL    HW125952   3.807   5.952   3.440
 8351SOL    HW225953   3.711   6.001   3.563
 8352SOL     OW25954   6.835   6.487   2.176
 8352SOL    HW125955   6.892   6.569   2.168
 8352SOL    HW225956   6.760   6.506   2.240
 8353SOL     OW25957   0.500   3.591   2.208
 8353SOL    HW125958   0.422   3.558   2.261
 8353SOL    HW225959   0.467   3.645   2.130
 8354SOL     OW25960   2.288   1.296   6.822
 8354SOL    HW125961   2.362   1.297   6.755
 8354SOL    HW225962   2.325   1.273   6.912
 8355SOL     OW25963   3.291   0.771   0.057
 8355SOL    HW125964   3.359   0.699   0.047
 8355SOL    HW225965   3.239   0.782   6.990
 8356SOL     OW25966   2.362   5.626   0.031
 8356SOL    HW125967   2.278   5.652   0.080
 8356SOL    HW225968   2.441   5.647   0.088
 8357SOL     OW25969   4.731   5.919   5.082
 8357SOL    HW125970   4.826   5.949   5.091
 8357SOL    HW225971   4.671   5.984   5.129
 8358SOL     OW25972   1.873   2.797   5.362
 8358SOL    HW125973   1.904   2.702   5.364
 8358SOL    HW225974   1.784   2.804   5.408
 8359SOL     OW25975   4.403   5.576   4.522
 8359SOL    HW125976   4.450   5.522   4.452
 8359SOL    HW225977   4.314   5.604   4.488
 8360SOL     OW25978   5.190   0.136   3.180
 8360SOL    HW125979   5.267   0.198   3.169
 8360SOL    HW225980   5.104   0.187   3.169
 8361SOL     OW25981   1.865   0.461   2.555
 8361SOL    HW125982   1.768   0.468   2.579
 8361SOL    HW225983   1.890   0.537   2.496
 8362SOL     OW25984   2.860   1.967   0.628
 8362SOL    HW125985   2.869   1.889   0.690
 8362SOL    HW225986   2.895   2.049   0.673
 8363SOL     OW25987   0.054   3.293   0.551
 8363SOL    HW125988   0.116   3.363   0.517
 8363SOL    HW225989   6.979   3.312   0.520
 8364SOL     OW25990   6.619   3.676   3.825
 8364SOL    HW125991   6.538   3.634   3.865
 8364SOL    HW225992   6.601   3.772   3.803
 8365SOL     OW25993   2.203   3.340   5.977
 8365SOL    HW125994   2.271   3.398   6.021
 8365SOL    HW225995   2.231   3.322   5.882
 8366SOL     OW25996   2.992   6.344   2.780
 8366SOL    HW125997   2.964   6.258   2.736
 8366SOL    HW225998   2.992   6.417   2.712
 8367SOL     OW25999   5.616   6.192   3.893
 8367SOL    HW126000   5.603   6.168   3.796
 8367SOL    HW226001   5.535   6.165   3.945
 8368SOL     OW26002   3.121   5.037   6.038
 8368SOL    HW126003   3.207   5.068   6.079
 8368SOL    HW226004   3.093   5.099   5.965
 8369SOL     OW26005   1.839   1.370   0.580
 8369SOL    HW126006   1.878   1.282   0.555
 8369SOL    HW226007   1.837   1.430   0.500
 8370SOL     OW26008   0.948   1.625   6.226
 8370SOL    HW126009   1.026   1.585   6.178
 8370SOL    HW226010   0.863   1.590   6.187
 8371SOL     OW26011   1.510   3.223   0.709
 8371SOL    HW126012   1.497   3.290   0.782
 8371SOL    HW226013   1.446   3.242   0.634
 8372SOL     OW26014   6.946   0.839   2.873
 8372SOL    HW126015   6.901   0.907   2.931
 8372SOL    HW226016   0.015   0.876   2.841
 8373SOL     OW26017   1.840   6.120   5.224
 8373SOL    HW126018   1.908   6.048   5.241
 8373SOL    HW226019   1.756   6.078   5.190
 8374SOL     OW26020   6.507   6.819   6.953
 8374SOL    HW126021   6.588   6.857   6.908
 8374SOL    HW226022   6.429   6.879   6.938
 8375SOL     OW26023   3.415   6.957   6.394
 8375SOL    HW126024   3.450   6.906   6.472
 8375SOL    HW226025   3.473   0.019   6.379
 8376SOL     OW26026   3.044   0.582   4.764
 8376SOL    HW126027   2.971   0.642   4.800
 8376SOL    HW226028   3.003   0.508   4.712
 8377SOL     OW26029   5.832   4.520   1.574
 8377SOL    HW126030   5.925   4.496   1.601
 8377SOL    HW226031   5.774   4.438   1.577
 8378SOL     OW26032   4.779   2.956   3.008
 8378SOL    HW126033   4.844   2.883   2.987
 8378SOL    HW226034   4.758   2.954   3.106
 8379SOL     OW26035   6.162   2.511   2.547
 8379SOL    HW126036   6.155   2.579   2.474
 8379SOL    HW226037   6.120   2.546   2.630
 8380SOL     OW26038   4.149   1.884   3.112
 8380SOL    HW126039   4.122   1.863   3.206
 8380SOL    HW226040   4.120   1.976   3.088
 8381SOL     OW26041   1.912   5.721   4.579
 8381SOL    HW126042   1.927   5.809   4.533
 8381SOL    HW226043   1.999   5.685   4.612
 8382SOL     OW26044   1.133   2.991   2.206
 8382SOL    HW126045   1.230   3.015   2.212
 8382SOL    HW226046   1.121   2.895   2.229
 8383SOL     OW26047   2.843   2.324   6.401
 8383SOL    HW126048   2.804   2.274   6.324
 8383SOL    HW226049   2.920   2.273   6.439
 8384SOL     OW26050   0.410   6.973   1.806
 8384SOL    HW126051   0.505   6.975   1.837
 8384SOL    HW226052   0.395   6.891   1.751
 8385SOL     OW26053   5.072   2.422   1.365
 8385SOL    HW126054   5.113   2.480   1.295
 8385SOL    HW226055   4.996   2.471   1.409
 8386SOL     OW26056   1.231   4.023   2.631
 8386SOL    HW126057   1.208   4.024   2.728
 8386SOL    HW226058   1.320   4.067   2.617
 8387SOL     OW26059   0.554   2.501   1.284
 8387SOL    HW126060   0.635   2.441   1.287
 8387SOL    HW226061   0.583   2.594   1.264
 8388SOL     OW26062   1.637   0.673   2.053
 8388SOL    HW126063   1.679   0.739   2.116
 8388SOL    HW226064   1.654   0.701   1.959
 8389SOL     OW26065   5.384   2.668   2.285
 8389SOL    HW126066   5.399   2.578   2.325
 8389SOL    HW226067   5.298   2.668   2.234
 8390SOL     OW26068   5.426   1.684   5.585
 8390SOL    HW126069   5.446   1.590   5.614
 8390SOL    HW226070   5.510   1.737   5.583
 8391SOL     OW26071   6.243   0.216   0.994
 8391SOL    HW126072   6.320   0.280   0.992
 8391SOL    HW226073   6.278   0.123   1.006
 8392SOL     OW26074   5.209   3.015   4.632
 8392SOL    HW126075   5.117   2.992   4.662
 8392SOL    HW226076   5.207   3.098   4.576
 8393SOL     OW26077   5.118   6.847   1.315
 8393SOL    HW126078   5.076   6.928   1.274
 8393SOL    HW226079   5.099   6.846   1.414
 8394SOL     OW26080   6.198   3.413   1.798
 8394SOL    HW126081   6.240   3.418   1.707
 8394SOL    HW226082   6.229   3.491   1.853
 8395SOL     OW26083   1.658   1.126   4.642
 8395SOL    HW126084   1.588   1.192   4.666
 8395SOL    HW226085   1.744   1.149   4.689
 8396SOL     OW26086   4.374   6.064   4.455
 8396SOL    HW126087   4.390   5.974   4.496
 8396SOL    HW226088   4.413   6.066   4.363
 8397SOL     OW26089   6.262   0.795   3.186
 8397SOL    HW126090   6.362   0.802   3.187
 8397SOL    HW226091   6.228   0.797   3.280
 8398SOL     OW26092   4.734   2.321   5.803
 8398SOL    HW126093   4.694   2.405   5.839
 8398SOL    HW226094   4.828   2.312   5.835
 8399SOL     OW26095   6.804   5.054   0.614
 8399SOL    HW126096   6.881   5.032   0.555
 8399SOL    HW226097   6.837   5.090   0.701
 8400SOL     OW26098   1.497   2.317   4.706
 8400SOL    HW126099   1.571   2.276   4.652
 8400SOL    HW226100   1.412   2.266   4.688
 8401SOL     OW26101   2.956   0.452   6.032
 8401SOL    HW126102   2.888   0.407   5.974
 8401SOL    HW226103   3.004   0.522   5.979
 8402SOL     OW26104   3.545   0.314   5.906
 8402SOL    HW126105   3.628   0.258   5.898
 8402SOL    HW226106   3.553   0.376   5.984
 8403SOL     OW26107   5.861   5.033   4.351
 8403SOL    HW126108   5.777   5.067   4.310
 8403SOL    HW226109   5.841   4.993   4.440
 8404SOL     OW26110   1.730   1.912   6.473
 8404SOL    HW126111   1.636   1.941   6.458
 8404SOL    HW226112   1.750   1.910   6.570
 8405SOL     OW26113   3.959   0.617   5.658
 8405SOL    HW126114   3.947   0.710   5.623
 8405SOL    HW226115   4.022   0.619   5.736
 8406SOL     OW26116   5.105   0.561   5.946
 8406SOL    HW126117   5.135   0.650   5.981
 8406SOL    HW226118   5.006   0.555   5.952
 8407SOL     OW26119   3.687   6.618   4.094
 8407SOL    HW126120   3.654   6.712   4.092
 8407SOL    HW226121   3.637   6.563   4.027
 8408SOL     OW26122   3.995   1.429   1.581
 8408SOL    HW126123   3.946   1.472   1.656
 8408SOL    HW226124   4.091   1.417   1.606
 8409SOL     OW26125   4.212   2.236   2.091
 8409SOL    HW126126   4.186   2.306   2.024
 8409SOL    HW226127   4.135   2.219   2.152
 8410SOL     OW26128   6.789   1.938   1.510
 8410SOL    HW126129   6.822   1.854   1.468
 8410SOL    HW226130   6.693   1.927   1.536
 8411SOL     OW26131   1.797   5.458   0.519
 8411SOL    HW126132   1.820   5.493   0.610
 8411SOL    HW226133   1.768   5.534   0.461
 8412SOL     OW26134   2.598   2.576   6.209
 8412SOL    HW126135   2.572   2.546   6.116
 8412SOL    HW226136   2.697   2.578   6.217
 8413SOL     OW26137   4.149   5.744   4.999
 8413SOL    HW126138   4.209   5.672   5.034
 8413SOL    HW226139   4.088   5.706   4.930
 8414SOL     OW26140   0.914   0.843   1.659
 8414SOL    HW126141   1.012   0.843   1.679
 8414SOL    HW226142   0.867   0.779   1.719
 8415SOL     OW26143   2.148   0.865   5.322
 8415SOL    HW126144   2.223   0.889   5.384
 8415SOL    HW226145   2.133   0.940   5.258
 8416SOL     OW26146   6.599   1.285   5.006
 8416SOL    HW126147   6.550   1.301   4.920
 8416SOL    HW226148   6.598   1.368   5.061
 8417SOL     OW26149   1.260   3.938   5.203
 8417SOL    HW126150   1.284   3.910   5.295
 8417SOL    HW226151   1.190   4.010   5.207
 8418SOL     OW26152   0.570   5.989   2.267
 8418SOL    HW126153   0.579   5.927   2.346
 8418SOL    HW226154   0.653   5.982   2.211
 8419SOL     OW26155   4.549   2.109   3.942
 8419SOL    HW126156   4.582   2.062   4.024
 8419SOL    HW226157   4.543   2.045   3.866
 8420SOL     OW26158   3.007   0.359   2.836
 8420SOL    HW126159   2.951   0.277   2.850
 8420SOL    HW226160   3.012   0.411   2.921
 8421SOL     OW26161   4.890   6.004   6.237
 8421SOL    HW126162   4.911   5.909   6.213
 8421SOL    HW226163   4.869   6.056   6.154
 8422SOL     OW26164   4.498   2.495   3.035
 8422SOL    HW126165   4.414   2.443   3.019
 8422SOL    HW226166   4.544   2.510   2.947
 8423SOL     OW26167   6.967   5.166   6.586
 8423SOL    HW126168   6.974   5.127   6.494
 8423SOL    HW226169   6.948   5.264   6.578
 8424SOL     OW26170   2.409   6.943   3.873
 8424SOL    HW126171   2.487   7.002   3.855
 8424SOL    HW226172   2.427   6.851   3.836
 8425SOL     OW26173   4.035   3.785   3.038
 8425SOL    HW126174   4.097   3.718   2.996
 8425SOL    HW226175   4.018   3.859   2.974
 8426SOL     OW26176   3.682   2.977   1.787
 8426SOL    HW126177   3.768   2.966   1.836
 8426SOL    HW226178   3.607   2.988   1.852
 8427SOL     OW26179   3.663   3.799   3.769
 8427SOL    HW126180   3.717   3.877   3.736
 8427SOL    HW226181   3.688   3.779   3.864
 8428SOL     OW26182   6.351   0.001   0.516
 8428SOL    HW126183   6.294   0.032   0.592
 8428SOL    HW226184   6.345   0.066   0.440
 8429SOL     OW26185   2.260   5.511   5.931
 8429SOL    HW126186   2.160   5.512   5.926
 8429SOL    HW226187   2.292   5.417   5.941
 8430SOL     OW26188   4.353   6.585   5.459
 8430SOL    HW126189   4.401   6.500   5.436
 8430SOL    HW226190   4.257   6.578   5.432
 8431SOL     OW26191   3.027   3.629   6.413
 8431SOL    HW126192   3.101   3.598   6.354
 8431SOL    HW226193   2.940   3.594   6.379
 8432SOL     OW26194   6.511   5.159   6.172
 8432SOL    HW126195   6.420   5.125   6.198
 8432SOL    HW226196   6.503   5.254   6.140
 8433SOL     OW26197   5.318   2.865   0.877
 8433SOL    HW126198   5.263   2.944   0.905
 8433SOL    HW226199   5.414   2.880   0.902
 8434SOL     OW26200   2.250   6.341   5.496
 8434SOL    HW126201   2.341   6.315   5.530
 8434SOL    HW226202   2.182   6.319   5.565
 8435SOL     OW26203   4.592   1.188   3.196
 8435SOL    HW126204   4.539   1.242   3.131
 8435SOL    HW226205   4.686   1.223   3.199
 8436SOL     OW26206   2.696   6.050   2.489
 8436SOL    HW126207   2.778   6.005   2.453
 8436SOL    HW226208   2.623   5.982   2.497
 8437SOL     OW26209   1.899   3.925   1.905
 8437SOL    HW126210   1.915   3.893   1.812
 8437SOL    HW226211   1.980   3.908   1.961
 8438SOL     OW26212   0.863   4.483   2.285
 8438SOL    HW126213   0.899   4.496   2.193
 8438SOL    HW226214   0.937   4.496   2.352
 8439SOL     OW26215   5.871   5.276   3.455
 8439SOL    HW126216   5.886   5.215   3.377
 8439SOL    HW226217   5.946   5.341   3.462
 8440SOL     OW26218   2.188   1.642   2.942
 8440SOL    HW126219   2.237   1.729   2.944
 8440SOL    HW226220   2.192   1.603   2.850
 8441SOL     OW26221   6.128   1.000   4.195
 8441SOL    HW126222   6.154   0.941   4.271
 8441SOL    HW226223   6.159   1.094   4.212
 8442SOL     OW26224   3.554   1.334   5.968
 8442SOL    HW126225   3.530   1.262   5.903
 8442SOL    HW226226   3.523   1.423   5.933
 8443SOL     OW26227   1.005   3.830   3.090
 8443SOL    HW126228   1.061   3.751   3.065
 8443SOL    HW226229   0.908   3.803   3.092
 8444SOL     OW26230   4.801   5.274   4.552
 8444SOL    HW126231   4.722   5.305   4.497
 8444SOL    HW226232   4.835   5.351   4.606
 8445SOL     OW26233   4.222   5.510   6.791
 8445SOL    HW126234   4.257   5.417   6.797
 8445SOL    HW226235   4.272   5.560   6.721
 8446SOL     OW26236   6.681   5.761   4.963
 8446SOL    HW126237   6.770   5.727   4.931
 8446SOL    HW226238   6.677   5.860   4.949
 8447SOL     OW26239   4.045   2.169   3.137
 8447SOL    HW126240   4.040   2.163   3.037
 8447SOL    HW226241   3.954   2.155   3.176
 8448SOL     OW26242   3.926   6.392   3.170
 8448SOL    HW126243   3.982   6.445   3.108
 8448SOL    HW226244   3.904   6.304   3.128
 8449SOL     OW26245   2.162   2.546   3.427
 8449SOL    HW126246   2.209   2.470   3.383
 8449SOL    HW226247   2.157   2.530   3.525
 8450SOL     OW26248   6.799   0.765   6.872
 8450SOL    HW126249   6.776   0.688   6.932
 8450SOL    HW226250   6.716   0.799   6.828
 8451SOL     OW26251   4.476   2.590   1.078
 8451SOL    HW126252   4.457   2.681   1.040
 8451SOL    HW226253   4.422   2.522   1.029
 8452SOL     OW26254   5.359   1.955   5.642
 8452SOL    HW126255   5.375   1.961   5.543
 8452SOL    HW226256   5.344   1.859   5.667
 8453SOL     OW26257   0.821   6.120   1.085
 8453SOL    HW126258   0.839   6.145   1.180
 8453SOL    HW226259   0.771   6.193   1.039
 8454SOL     OW26260   6.574   4.179   0.139
 8454SOL    HW126261   6.487   4.226   0.119
 8454SOL    HW226262   6.636   4.191   0.061
 8455SOL     OW26263   0.214   0.813   3.360
 8455SOL    HW126264   0.279   0.844   3.290
 8455SOL    HW226265   0.222   0.870   3.441
 8456SOL     OW26266   5.919   0.751   3.867
 8456SOL    HW126267   5.905   0.849   3.856
 8456SOL    HW226268   5.977   0.734   3.947
 8457SOL     OW26269   6.584   6.784   4.813
 8457SOL    HW126270   6.666   6.733   4.789
 8457SOL    HW226271   6.506   6.747   4.763
 8458SOL     OW26272   0.006   6.345   6.942
 8458SOL    HW126273   6.956   6.271   6.944
 8458SOL    HW226274   0.081   6.319   6.882
 8459SOL     OW26275   1.765   5.939   3.024
 8459SOL    HW126276   1.720   5.851   3.040
 8459SOL    HW226277   1.864   5.928   3.037
 8460SOL     OW26278   3.686   4.120   3.960
 8460SOL    HW126279   3.744   4.144   4.038
 8460SOL    HW226280   3.591   4.115   3.990
 8461SOL     OW26281   6.372   3.528   3.901
 8461SOL    HW126282   6.303   3.574   3.957
 8461SOL    HW226283   6.354   3.430   3.901
 8462SOL     OW26284   2.157   2.949   2.218
 8462SOL    HW126285   2.207   2.872   2.259
 8462SOL    HW226286   2.152   2.936   2.119
 8463SOL     OW26287   5.254   1.373   2.037
 8463SOL    HW126288   5.194   1.415   2.105
 8463SOL    HW226289   5.340   1.345   2.081
 8464SOL     OW26290   6.395   2.216   4.502
 8464SOL    HW126291   6.360   2.123   4.508
 8464SOL    HW226292   6.491   2.217   4.531
 8465SOL     OW26293   1.692   2.478   0.066
 8465SOL    HW126294   1.685   2.551   7.016
 8465SOL    HW226295   1.601   2.453   0.097
 8466SOL     OW26296   0.852   6.760   3.609
 8466SOL    HW126297   0.761   6.780   3.647
 8466SOL    HW226298   0.841   6.711   3.523
 8467SOL     OW26299   2.675   5.456   0.659
 8467SOL    HW126300   2.623   5.506   0.590
 8467SOL    HW226301   2.758   5.508   0.682
 8468SOL     OW26302   4.574   1.687   6.959
 8468SOL    HW126303   4.578   1.787   6.962
 8468SOL    HW226304   4.663   1.651   6.930
 8469SOL     OW26305   3.643   2.136   6.599
 8469SOL    HW126306   3.571   2.140   6.669
 8469SOL    HW226307   3.729   2.168   6.639
 8470SOL     OW26308   2.674   2.128   6.194
 8470SOL    HW126309   2.719   2.040   6.208
 8470SOL    HW226310   2.575   2.118   6.205
 8471SOL     OW26311   4.024   1.020   3.839
 8471SOL    HW126312   4.006   1.082   3.763
 8471SOL    HW226313   4.095   1.059   3.898
 8472SOL     OW26314   1.864   6.172   3.226
 8472SOL    HW126315   1.942   6.178   3.163
 8472SOL    HW226316   1.783   6.212   3.183
 8473SOL     OW26317   6.824   5.884   0.000
 8473SOL    HW126318   6.742   5.880   0.057
 8473SOL    HW226319   6.889   5.815   0.031
 8474SOL     OW26320   3.842   4.186   0.989
 8474SOL    HW126321   3.805   4.095   0.972
 8474SOL    HW226322   3.798   4.253   0.929
 8475SOL     OW26323   4.408   1.150   3.394
 8475SOL    HW126324   4.446   1.080   3.454
 8475SOL    HW226325   4.478   1.176   3.326
 8476SOL     OW26326   4.668   0.011   2.631
 8476SOL    HW126327   4.701   0.102   2.658
 8476SOL    HW226328   4.746   6.970   2.609
 8477SOL     OW26329   2.635   1.037   1.773
 8477SOL    HW126330   2.628   1.133   1.798
 8477SOL    HW226331   2.560   0.986   1.814
 8478SOL     OW26332   1.835   0.140   5.765
 8478SOL    HW126333   1.869   0.232   5.749
 8478SOL    HW226334   1.899   0.073   5.727
 8479SOL     OW26335   4.899   0.911   1.601
 8479SOL    HW126336   4.944   0.854   1.533
 8479SOL    HW226337   4.910   1.007   1.577
 8480SOL     OW26338   1.903   1.142   1.319
 8480SOL    HW126339   1.811   1.173   1.343
 8480SOL    HW226340   1.959   1.139   1.402
 8481SOL     OW26341   4.044   0.356   4.072
 8481SOL    HW126342   4.117   0.385   4.010
 8481SOL    HW226343   3.989   0.435   4.100
 8482SOL     OW26344   1.008   0.401   2.227
 8482SOL    HW126345   1.067   0.427   2.150
 8482SOL    HW226346   0.924   0.455   2.224
 8483SOL     OW26347   4.188   5.972   1.869
 8483SOL    HW126348   4.106   5.916   1.870
 8483SOL    HW226349   4.242   5.952   1.787
 8484SOL     OW26350   0.687   4.861   4.607
 8484SOL    HW126351   0.626   4.829   4.679
 8484SOL    HW226352   0.635   4.874   4.523
 8485SOL     OW26353   3.199   3.144   6.133
 8485SOL    HW126354   3.166   3.122   6.041
 8485SOL    HW226355   3.148   3.089   6.200
 8486SOL     OW26356   4.407   0.994   2.369
 8486SOL    HW126357   4.442   0.908   2.332
 8486SOL    HW226358   4.476   1.065   2.358
 8487SOL     OW26359   4.430   6.839   0.996
 8487SOL    HW126360   4.335   6.831   0.964
 8487SOL    HW226361   4.467   6.747   1.013
 8488SOL     OW26362   4.941   3.104   4.765
 8488SOL    HW126363   4.857   3.059   4.793
 8488SOL    HW226364   5.014   3.081   4.830
 8489SOL     OW26365   4.240   4.904   2.615
 8489SOL    HW126366   4.219   4.978   2.679
 8489SOL    HW226367   4.183   4.825   2.635
 8490SOL     OW26368   3.732   5.508   2.753
 8490SOL    HW126369   3.727   5.578   2.825
 8490SOL    HW226370   3.659   5.441   2.766
 8491SOL     OW26371   2.268   0.938   2.491
 8491SOL    HW126372   2.187   0.952   2.548
 8491SOL    HW226373   2.290   1.022   2.442
 8492SOL     OW26374   5.479   3.748   4.859
 8492SOL    HW126375   5.380   3.736   4.867
 8492SOL    HW226376   5.522   3.732   4.948
 8493SOL     OW26377   3.606   2.399   0.963
 8493SOL    HW126378   3.656   2.378   0.880
 8493SOL    HW226379   3.647   2.350   1.041
 8494SOL     OW26380   3.202   5.164   6.938
 8494SOL    HW126381   3.298   5.140   6.925
 8494SOL    HW226382   3.175   5.230   6.868
 8495SOL     OW26383   0.357   2.499   0.655
 8495SOL    HW126384   0.307   2.434   0.598
 8495SOL    HW226385   0.425   2.547   0.600
 8496SOL     OW26386   6.973   3.022   3.299
 8496SOL    HW126387   0.047   3.004   3.332
 8496SOL    HW226388   6.908   3.015   3.375
 8497SOL     OW26389   6.080   5.642   3.082
 8497SOL    HW126390   6.011   5.698   3.127
 8497SOL    HW226391   6.157   5.627   3.144
 8498SOL     OW26392   0.078   0.916   0.888
 8498SOL    HW126393   0.035   0.829   0.865
 8498SOL    HW226394   0.082   0.974   0.806
 8499SOL     OW26395   3.478   3.894   6.537
 8499SOL    HW126396   3.433   3.965   6.591
 8499SOL    HW226397   3.430   3.884   6.450
 8500SOL     OW26398   3.169   1.065   6.426
 8500SOL    HW126399   3.247   1.106   6.473
 8500SOL    HW226400   3.192   0.972   6.396
 8501SOL     OW26401   1.789   4.278   6.128
 8501SOL    HW126402   1.759   4.314   6.040
 8501SOL    HW226403   1.883   4.245   6.120
 8502SOL     OW26404   6.861   0.419   2.230
 8502SOL    HW126405   6.837   0.335   2.278
 8502SOL    HW226406   6.778   0.460   2.192
 8503SOL     OW26407   2.660   5.504   2.800
 8503SOL    HW126408   2.710   5.423   2.831
 8503SOL    HW226409   2.678   5.580   2.863
 8504SOL     OW26410   0.861   5.791   3.541
 8504SOL    HW126411   0.859   5.771   3.443
 8504SOL    HW226412   0.788   5.856   3.563
 8505SOL     OW26413   4.947   3.088   3.493
 8505SOL    HW126414   4.931   3.181   3.526
 8505SOL    HW226415   5.043   3.079   3.464
 8506SOL     OW26416   0.844   6.598   0.388
 8506SOL    HW126417   0.851   6.579   0.486
 8506SOL    HW226418   0.755   6.641   0.369
 8507SOL     OW26419   1.801   0.776   5.064
 8507SOL    HW126420   1.726   0.752   5.003
 8507SOL    HW226421   1.773   0.852   5.122
 8508SOL     OW26422   1.181   2.216   5.940
 8508SOL    HW126423   1.225   2.193   5.853
 8508SOL    HW226424   1.249   2.213   6.014
 8509SOL     OW26425   6.254   1.957   4.592
 8509SOL    HW126426   6.291   1.911   4.512
 8509SOL    HW226427   6.158   1.931   4.604
 8510SOL     OW26428   5.374   0.101   2.857
 8510SOL    HW126429   5.322   0.186   2.867
 8510SOL    HW226430   5.436   0.090   2.934
 8511SOL     OW26431   6.832   4.822   1.824
 8511SOL    HW126432   6.803   4.759   1.896
 8511SOL    HW226433   6.892   4.774   1.760
 8512SOL     OW26434   4.671   1.854   0.225
 8512SOL    HW126435   4.757   1.842   0.175
 8512SOL    HW226436   4.661   1.951   0.248
 8513SOL     OW26437   6.973   4.138   1.075
 8513SOL    HW126438   6.963   4.141   1.174
 8513SOL    HW226439   0.052   4.129   1.051
 8514SOL     OW26440   2.750   2.432   5.799
 8514SOL    HW126441   2.742   2.401   5.704
 8514SOL    HW226442   2.774   2.530   5.800
 8515SOL     OW26443   1.056   0.556   1.091
 8515SOL    HW126444   0.972   0.537   1.040
 8515SOL    HW226445   1.040   0.628   1.158
 8516SOL     OW26446   5.882   1.922   3.435
 8516SOL    HW126447   5.801   1.865   3.445
 8516SOL    HW226448   5.882   1.963   3.344
 8517SOL     OW26449   1.970   1.970   5.437
 8517SOL    HW126450   1.876   1.998   5.457
 8517SOL    HW226451   2.016   1.945   5.522
 8518SOL     OW26452   5.397   4.904   0.180
 8518SOL    HW126453   5.309   4.913   0.132
 8518SOL    HW226454   5.469   4.884   0.113
 8519SOL     OW26455   1.202   3.508   0.705
 8519SOL    HW126456   1.247   3.595   0.728
 8519SOL    HW226457   1.180   3.459   0.789
 8520SOL     OW26458   4.235   4.047   6.079
 8520SOL    HW126459   4.199   3.964   6.038
 8520SOL    HW226460   4.172   4.123   6.062
 8521SOL     OW26461   2.058   6.296   5.687
 8521SOL    HW126462   1.985   6.302   5.619
 8521SOL    HW226463   2.039   6.222   5.750
 8522SOL     OW26464   1.025   6.865   0.451
 8522SOL    HW126465   1.009   6.879   0.549
 8522SOL    HW226466   0.992   6.774   0.424
 8523SOL     OW26467   2.657   1.259   6.933
 8523SOL    HW126468   2.607   1.172   6.936
 8523SOL    HW226469   2.679   1.287   0.009
 8524SOL     OW26470   2.144   5.652   4.712
 8524SOL    HW126471   2.179   5.619   4.800
 8524SOL    HW226472   2.208   5.719   4.674
 8525SOL     OW26473   6.557   4.624   1.322
 8525SOL    HW126474   6.531   4.632   1.418
 8525SOL    HW226475   6.548   4.528   1.293
 8526SOL     OW26476   1.429   6.207   0.207
 8526SOL    HW126477   1.456   6.186   0.301
 8526SOL    HW226478   1.495   6.271   0.167
 8527SOL     OW26479   3.271   0.821   5.549
 8527SOL    HW126480   3.293   0.726   5.570
 8527SOL    HW226481   3.201   0.825   5.478
 8528SOL     OW26482   5.001   1.948   0.612
 8528SOL    HW126483   4.999   2.047   0.623
 8528SOL    HW226484   4.910   1.915   0.585
 8529SOL     OW26485   0.998   6.055   6.343
 8529SOL    HW126486   1.033   6.008   6.424
 8529SOL    HW226487   1.054   6.135   6.324
 8530SOL     OW26488   3.210   4.085   4.390
 8530SOL    HW126489   3.200   4.058   4.486
 8530SOL    HW226490   3.119   4.099   4.350
 8531SOL     OW26491   6.505   5.329   4.071
 8531SOL    HW126492   6.418   5.367   4.039
 8531SOL    HW226493   6.490   5.238   4.110
 8532SOL     OW26494   2.429   5.175   4.841
 8532SOL    HW126495   2.392   5.266   4.861
 8532SOL    HW226496   2.464   5.134   4.925
 8533SOL     OW26497   2.112   5.744   5.111
 8533SOL    HW126498   2.116   5.668   5.176
 8533SOL    HW226499   2.195   5.744   5.055
 8534SOL     OW26500   3.202   2.174   4.117
 8534SOL    HW126501   3.220   2.156   4.213
 8534SOL    HW226502   3.280   2.144   4.062
 8535SOL     OW26503   6.215   0.377   2.970
 8535SOL    HW126504   6.228   0.319   3.050
 8535SOL    HW226505   6.166   0.460   2.996
 8536SOL     OW26506   0.475   1.095   4.563
 8536SOL    HW126507   0.563   1.067   4.526
 8536SOL    HW226508   0.435   1.166   4.505
 8537SOL     OW26509   6.480   1.064   2.860
 8537SOL    HW126510   6.524   0.999   2.797
 8537SOL    HW226511   6.546   1.095   2.928
 8538SOL     OW26512   1.504   2.378   0.231
 8538SOL    HW126513   1.447   2.444   0.279
 8538SOL    HW226514   1.450   2.299   0.205
 8539SOL     OW26515   6.040   2.705   3.025
 8539SOL    HW126516   5.973   2.750   3.085
 8539SOL    HW226517   6.125   2.691   3.075
 8540SOL     OW26518   3.683   7.013   0.487
 8540SOL    HW126519   3.689   7.000   0.388
 8540SOL    HW226520   3.710   0.089   0.510
 8541SOL     OW26521   1.878   2.896   4.576
 8541SOL    HW126522   1.809   2.930   4.511
 8541SOL    HW226523   1.896   2.967   4.644
 8542SOL     OW26524   3.554   4.458   0.256
 8542SOL    HW126525   3.558   4.359   0.269
 8542SOL    HW226526   3.459   4.488   0.247
 8543SOL     OW26527   2.339   2.067   6.100
 8543SOL    HW126528   2.385   2.043   6.185
 8543SOL    HW226529   2.252   2.112   6.119
 8544SOL     OW26530   6.652   3.229   3.380
 8544SOL    HW126531   6.622   3.164   3.310
 8544SOL    HW226532   6.693   3.179   3.457
 8545SOL     OW26533   4.901   6.674   4.935
 8545SOL    HW126534   4.968   6.600   4.930
 8545SOL    HW226535   4.945   6.757   4.968
 8546SOL     OW26536   4.257   1.817   5.621
 8546SOL    HW126537   4.197   1.876   5.674
 8546SOL    HW226538   4.305   1.872   5.553
 8547SOL     OW26539   0.801   4.151   3.201
 8547SOL    HW126540   0.812   4.172   3.103
 8547SOL    HW226541   0.777   4.055   3.211
 8548SOL     OW26542   5.952   1.620   5.811
 8548SOL    HW126543   5.935   1.573   5.897
 8548SOL    HW226544   5.870   1.614   5.753
 8549SOL     OW26545   5.546   3.355   5.054
 8549SOL    HW126546   5.522   3.451   5.066
 8549SOL    HW226547   5.644   3.347   5.036
 8550SOL     OW26548   1.120   3.960   6.653
 8550SOL    HW126549   1.110   3.979   6.751
 8550SOL    HW226550   1.055   3.890   6.625
 8551SOL     OW26551   3.591   3.831   0.443
 8551SOL    HW126552   3.538   3.755   0.404
 8551SOL    HW226553   3.537   3.878   0.512
 8552SOL     OW26554   2.947   6.405   3.923
 8552SOL    HW126555   3.021   6.360   3.873
 8552SOL    HW226556   2.887   6.336   3.962
 8553SOL     OW26557   5.809   6.237   0.485
 8553SOL    HW126558   5.812   6.277   0.394
 8553SOL    HW226559   5.850   6.146   0.483
 8554SOL     OW26560   6.362   4.289   0.050
 8554SOL    HW126561   6.272   4.245   0.045
 8554SOL    HW226562   6.375   4.346   6.987
 8555SOL     OW26563   1.207   0.006   4.027
 8555SOL    HW126564   1.127   6.989   3.978
 8555SOL    HW226565   1.198   7.005   4.125
 8556SOL     OW26566   6.324   0.221   3.572
 8556SOL    HW126567   6.299   0.154   3.642
 8556SOL    HW226568   6.410   0.194   3.529
 8557SOL     OW26569   0.128   0.989   1.384
 8557SOL    HW126570   0.125   1.077   1.431
 8557SOL    HW226571   0.070   0.993   1.303
 8558SOL     OW26572   1.373   5.170   1.927
 8558SOL    HW126573   1.431   5.252   1.931
 8558SOL    HW226574   1.299   5.185   1.862
 8559SOL     OW26575   0.413   1.036   6.186
 8559SOL    HW126576   0.445   0.947   6.217
 8559SOL    HW226577   0.493   1.094   6.165
 8560SOL     OW26578   6.200   2.587   6.649
 8560SOL    HW126579   6.212   2.524   6.725
 8560SOL    HW226580   6.103   2.611   6.641
 8561SOL     OW26581   4.792   6.478   4.279
 8561SOL    HW126582   4.744   6.563   4.258
 8561SOL    HW226583   4.727   6.412   4.317
 8562SOL     OW26584   3.984   6.810   4.514
 8562SOL    HW126585   4.074   6.776   4.487
 8562SOL    HW226586   3.934   6.739   4.563
 8563SOL     OW26587   2.587   2.842   5.888
 8563SOL    HW126588   2.590   2.894   5.803
 8563SOL    HW226589   2.671   2.857   5.940
 8564SOL     OW26590   0.543   0.062   3.901
 8564SOL    HW126591   0.568   0.000   3.975
 8564SOL    HW226592   0.540   0.011   3.815
 8565SOL     OW26593   4.130   0.180   1.699
 8565SOL    HW126594   4.217   0.228   1.712
 8565SOL    HW226595   4.148   0.087   1.668
 8566SOL     OW26596   1.935   3.243   3.648
 8566SOL    HW126597   1.960   3.217   3.741
 8566SOL    HW226598   2.006   3.214   3.584
 8567SOL     OW26599   5.504   6.880   0.969
 8567SOL    HW126600   5.446   6.903   1.048
 8567SOL    HW226601   5.583   6.828   1.000
 8568SOL     OW26602   5.254   1.040   0.276
 8568SOL    HW126603   5.194   1.097   0.220
 8568SOL    HW226604   5.297   1.097   0.346
 8569SOL     OW26605   4.186   1.383   4.681
 8569SOL    HW126606   4.285   1.396   4.684
 8569SOL    HW226607   4.159   1.316   4.750
 8570SOL     OW26608   0.688   4.590   7.018
 8570SOL    HW126609   0.654   4.647   0.074
 8570SOL    HW226610   0.757   4.642   6.966
 8571SOL     OW26611   6.841   4.335   5.236
 8571SOL    HW126612   6.919   4.273   5.225
 8571SOL    HW226613   6.848   4.382   5.325
 8572SOL     OW26614   2.677   5.103   5.572
 8572SOL    HW126615   2.669   5.063   5.480
 8572SOL    HW226616   2.754   5.167   5.573
 8573SOL     OW26617   3.804   5.870   4.891
 8573SOL    HW126618   3.828   5.781   4.854
 8573SOL    HW226619   3.855   5.942   4.843
 8574SOL     OW26620   0.391   4.007   4.943
 8574SOL    HW126621   0.305   3.959   4.924
 8574SOL    HW226622   0.424   3.981   5.034
 8575SOL     OW26623   3.396   3.423   6.977
 8575SOL    HW126624   3.337   3.482   6.922
 8575SOL    HW226625   3.371   3.432   0.055
 8576SOL     OW26626   1.490   6.995   1.633
 8576SOL    HW126627   1.409   7.001   1.574
 8576SOL    HW226628   1.475   0.032   1.715
 8577SOL     OW26629   6.393   5.748   2.990
 8577SOL    HW126630   6.473   5.710   2.945
 8577SOL    HW226631   6.375   5.698   3.075
 8578SOL     OW26632   4.375   6.941   3.391
 8578SOL    HW126633   4.367   6.880   3.470
 8578SOL    HW226634   4.453   7.002   3.403
 8579SOL     OW26635   0.584   5.955   3.225
 8579SOL    HW126636   0.663   6.015   3.217
 8579SOL    HW226637   0.520   5.992   3.292
 8580SOL     OW26638   2.615   4.297   6.804
 8580SOL    HW126639   2.662   4.252   6.728
 8580SOL    HW226640   2.550   4.233   6.846
 8581SOL     OW26641   3.013   2.494   1.297
 8581SOL    HW126642   3.067   2.418   1.334
 8581SOL    HW226643   3.065   2.579   1.305
 8582SOL     OW26644   4.296   4.271   0.977
 8582SOL    HW126645   4.299   4.171   0.971
 8582SOL    HW226646   4.287   4.298   1.073
 8583SOL     OW26647   5.804   0.117   6.246
 8583SOL    HW126648   5.815   0.049   6.318
 8583SOL    HW226649   5.716   0.103   6.200
 8584SOL     OW26650   0.247   5.160   6.710
 8584SOL    HW126651   0.197   5.089   6.659
 8584SOL    HW226652   0.237   5.248   6.662
 8585SOL     OW26653   0.635   1.586   0.768
 8585SOL    HW126654   0.616   1.531   0.687
 8585SOL    HW226655   0.727   1.566   0.801
 8586SOL     OW26656   4.070   5.426   3.979
 8586SOL    HW126657   4.075   5.520   3.948
 8586SOL    HW226658   4.024   5.370   3.910
 8587SOL     OW26659   6.729   1.503   1.075
 8587SOL    HW126660   6.677   1.588   1.089
 8587SOL    HW226661   6.781   1.482   1.157
 8588SOL     OW26662   4.554   2.018   6.883
 8588SOL    HW126663   4.499   2.057   6.809
 8588SOL    HW226664   4.495   1.971   6.948
 8589SOL     OW26665   2.700   1.798   4.630
 8589SOL    HW126666   2.697   1.884   4.579
 8589SOL    HW226667   2.763   1.808   4.707
 8590SOL     OW26668   6.242   4.767   5.857
 8590SOL    HW126669   6.224   4.723   5.945
 8590SOL    HW226670   6.287   4.855   5.872
 8591SOL     OW26671   0.992   3.164   6.781
 8591SOL    HW126672   0.955   3.102   6.850
 8591SOL    HW226673   1.066   3.119   6.732
 8592SOL     OW26674   6.217   5.452   6.323
 8592SOL    HW126675   6.225   5.392   6.244
 8592SOL    HW226676   6.299   5.510   6.329
 8593SOL     OW26677   1.048   0.526   2.838
 8593SOL    HW126678   0.971   0.488   2.787
 8593SOL    HW226679   1.021   0.541   2.933
 8594SOL     OW26680   3.497   3.480   3.947
 8594SOL    HW126681   3.562   3.496   3.873
 8594SOL    HW226682   3.414   3.534   3.930
 8595SOL     OW26683   1.926   2.466   1.845
 8595SOL    HW126684   1.989   2.416   1.787
 8595SOL    HW226685   1.978   2.525   1.908
 8596SOL     OW26686   6.315   4.887   2.290
 8596SOL    HW126687   6.226   4.849   2.265
 8596SOL    HW226688   6.377   4.881   2.212
 8597SOL     OW26689   1.592   1.500   0.663
 8597SOL    HW126690   1.683   1.465   0.641
 8597SOL    HW226691   1.536   1.427   0.700
 8598SOL     OW26692   5.368   4.455   0.386
 8598SOL    HW126693   5.328   4.372   0.347
 8598SOL    HW226694   5.357   4.531   0.322
 8599SOL     OW26695   1.281   3.331   2.405
 8599SOL    HW126696   1.184   3.314   2.420
 8599SOL    HW226697   1.296   3.428   2.386
 8600SOL     OW26698   6.271   4.084   6.850
 8600SOL    HW126699   6.261   3.988   6.825
 8600SOL    HW226700   6.365   4.113   6.835
 8601SOL     OW26701   6.843   6.850   4.028
 8601SOL    HW126702   6.919   6.892   3.978
 8601SOL    HW226703   6.858   6.751   4.036
 8602SOL     OW26704   3.234   6.618   1.957
 8602SOL    HW126705   3.306   6.681   1.987
 8602SOL    HW226706   3.268   6.560   1.883
 8603SOL     OW26707   4.282   3.220   0.914
 8603SOL    HW126708   4.266   3.159   0.992
 8603SOL    HW226709   4.199   3.274   0.897
 8604SOL     OW26710   5.694   2.361   2.895
 8604SOL    HW126711   5.770   2.392   2.837
 8604SOL    HW226712   5.717   2.376   2.991
 8605SOL     OW26713   2.713   6.767   1.838
 8605SOL    HW126714   2.731   6.682   1.887
 8605SOL    HW226715   2.752   6.762   1.746
 8606SOL     OW26716   4.117   4.870   5.876
 8606SOL    HW126717   4.210   4.833   5.864
 8606SOL    HW226718   4.052   4.810   5.830
 8607SOL     OW26719   3.844   6.064   1.714
 8607SOL    HW126720   3.864   6.054   1.811
 8607SOL    HW226721   3.837   5.973   1.671
 8608SOL     OW26722   4.608   6.044   2.596
 8608SOL    HW126723   4.523   6.075   2.553
 8608SOL    HW226724   4.671   6.013   2.525
 8609SOL     OW26725   3.978   0.356   5.560
 8609SOL    HW126726   3.897   0.300   5.544
 8609SOL    HW226727   3.950   0.447   5.591
 8610SOL     OW26728   6.754   6.483   4.213
 8610SOL    HW126729   6.762   6.404   4.274
 8610SOL    HW226730   6.670   6.533   4.234
 8611SOL     OW26731   1.672   1.932   3.539
 8611SOL    HW126732   1.672   2.022   3.583
 8611SOL    HW226733   1.766   1.896   3.537
 8612SOL     OW26734   4.630   3.117   5.335
 8612SOL    HW126735   4.698   3.134   5.407
 8612SOL    HW226736   4.659   3.038   5.281
 8613SOL     OW26737   1.240   1.438   0.308
 8613SOL    HW126738   1.197   1.494   0.237
 8613SOL    HW226739   1.307   1.492   0.358
 8614SOL     OW26740   0.997   1.654   3.313
 8614SOL    HW126741   1.029   1.668   3.219
 8614SOL    HW226742   1.018   1.734   3.368
 8615SOL     OW26743   4.523   2.701   5.113
 8615SOL    HW126744   4.491   2.714   5.208
 8615SOL    HW226745   4.493   2.611   5.080
 8616SOL     OW26746   1.688   3.247   6.738
 8616SOL    HW126747   1.753   3.172   6.749
 8616SOL    HW226748   1.723   3.329   6.784
 8617SOL     OW26749   5.867   3.115   1.170
 8617SOL    HW126750   5.790   3.174   1.194
 8617SOL    HW226751   5.933   3.114   1.246
 8618SOL     OW26752   4.757   0.532   4.128
 8618SOL    HW126753   4.696   0.582   4.067
 8618SOL    HW226754   4.771   0.584   4.212
 8619SOL     OW26755   4.785   5.737   0.834
 8619SOL    HW126756   4.823   5.709   0.745
 8619SOL    HW226757   4.707   5.797   0.820
 8620SOL     OW26758   6.020   6.648   3.134
 8620SOL    HW126759   5.924   6.638   3.108
 8620SOL    HW226760   6.034   6.614   3.227
 8621SOL     OW26761   5.661   0.826   3.248
 8621SOL    HW126762   5.599   0.828   3.327
 8621SOL    HW226763   5.742   0.772   3.271
 8622SOL     OW26764   5.446   5.238   6.912
 8622SOL    HW126765   5.509   5.222   6.989
 8622SOL    HW226766   5.355   5.204   6.936
 8623SOL     OW26767   6.742   2.841   2.712
 8623SOL    HW126768   6.669   2.778   2.737
 8623SOL    HW226769   6.708   2.935   2.713
 8624SOL     OW26770   0.424   5.189   3.623
 8624SOL    HW126771   0.456   5.283   3.608
 8624SOL    HW226772   0.410   5.144   3.534
 8625SOL     OW26773   4.112   0.735   5.224
 8625SOL    HW126774   4.199   0.706   5.265
 8625SOL    HW226775   4.072   0.807   5.280
 8626SOL     OW26776   3.007   3.757   2.967
 8626SOL    HW126777   3.085   3.697   2.950
 8626SOL    HW226778   3.014   3.798   3.057
 8627SOL     OW26779   2.379   0.349   6.625
 8627SOL    HW126780   2.312   0.323   6.695
 8627SOL    HW226781   2.379   0.448   6.614
 8628SOL     OW26782   5.967   1.294   0.219
 8628SOL    HW126783   6.019   1.298   0.134
 8628SOL    HW226784   6.029   1.267   0.294
 8629SOL     OW26785   1.060   4.877   4.028
 8629SOL    HW126786   1.097   4.808   4.090
 8629SOL    HW226787   1.134   4.918   3.975
 8630SOL     OW26788   5.507   4.281   4.412
 8630SOL    HW126789   5.506   4.230   4.498
 8630SOL    HW226790   5.489   4.218   4.336
 8631SOL     OW26791   3.803   5.878   4.359
 8631SOL    HW126792   3.862   5.937   4.414
 8631SOL    HW226793   3.818   5.896   4.262
 8632SOL     OW26794   4.695   0.314   3.399
 8632SOL    HW126795   4.609   0.359   3.373
 8632SOL    HW226796   4.772   0.375   3.380
 8633SOL     OW26797   6.239   0.733   3.827
 8633SOL    HW126798   6.182   0.660   3.790
 8633SOL    HW226799   6.330   0.728   3.785
 8634SOL     OW26800   6.569   5.149   1.600
 8634SOL    HW126801   6.636   5.076   1.601
 8634SOL    HW226802   6.572   5.196   1.511
 8635SOL     OW26803   6.153   4.107   5.245
 8635SOL    HW126804   6.243   4.149   5.256
 8635SOL    HW226805   6.149   4.058   5.158
 8636SOL     OW26806   5.518   5.737   0.411
 8636SOL    HW126807   5.599   5.745   0.352
 8636SOL    HW226808   5.547   5.709   0.503
 8637SOL     OW26809   1.866   0.563   1.264
 8637SOL    HW126810   1.870   0.550   1.165
 8637SOL    HW226811   1.895   0.479   1.310
 8638SOL     OW26812   3.909   5.308   0.462
 8638SOL    HW126813   3.872   5.216   0.449
 8638SOL    HW226814   3.942   5.343   0.375
 8639SOL     OW26815   6.961   2.771   2.472
 8639SOL    HW126816   0.039   2.747   2.460
 8639SOL    HW226817   6.921   2.715   2.545
 8640SOL     OW26818   5.316   6.437   1.190
 8640SOL    HW126819   5.347   6.482   1.106
 8640SOL    HW226820   5.288   6.343   1.169
 8641SOL     OW26821   5.386   4.461   3.273
 8641SOL    HW126822   5.367   4.453   3.371
 8641SOL    HW226823   5.461   4.400   3.248
 8642SOL     OW26824   4.958   1.606   1.558
 8642SOL    HW126825   5.024   1.582   1.629
 8642SOL    HW226826   4.997   1.589   1.468
 8643SOL     OW26827   4.835   1.170   6.097
 8643SOL    HW126828   4.901   1.241   6.074
 8643SOL    HW226829   4.760   1.171   6.030
 8644SOL     OW26830   6.230   3.300   5.243
 8644SOL    HW126831   6.173   3.269   5.319
 8644SOL    HW226832   6.246   3.399   5.251
 8645SOL     OW26833   6.070   4.661   1.839
 8645SOL    HW126834   6.163   4.691   1.859
 8645SOL    HW226835   6.023   4.638   1.925
 8646SOL     OW26836   5.379   1.194   0.477
 8646SOL    HW126837   5.446   1.243   0.533
 8646SOL    HW226838   5.341   1.118   0.530
 8647SOL     OW26839   4.340   5.196   1.702
 8647SOL    HW126840   4.299   5.258   1.636
 8647SOL    HW226841   4.270   5.136   1.741
 8648SOL     OW26842   5.359   1.947   4.609
 8648SOL    HW126843   5.381   1.911   4.519
 8648SOL    HW226844   5.422   2.022   4.631
 8649SOL     OW26845   6.856   4.537   5.441
 8649SOL    HW126846   6.911   4.610   5.481
 8649SOL    HW226847   6.868   4.453   5.495
 8650SOL     OW26848   1.561   4.751   2.423
 8650SOL    HW126849   1.584   4.714   2.333
 8650SOL    HW226850   1.495   4.825   2.414
 8651SOL     OW26851   3.241   1.693   1.314
 8651SOL    HW126852   3.257   1.759   1.388
 8651SOL    HW226853   3.290   1.608   1.334
 8652SOL     OW26854   1.728   3.768   3.903
 8652SOL    HW126855   1.790   3.838   3.868
 8652SOL    HW226856   1.712   3.700   3.832
 8653SOL     OW26857   6.655   3.604   6.675
 8653SOL    HW126858   6.612   3.671   6.614
 8653SOL    HW226859   6.749   3.587   6.645
 8654SOL     OW26860   0.456   0.192   2.977
 8654SOL    HW126861   0.465   0.194   2.878
 8654SOL    HW226862   0.427   0.281   3.011
 8655SOL     OW26863   6.106   5.938   4.298
 8655SOL    HW126864   6.014   5.976   4.300
 8655SOL    HW226865   6.173   6.009   4.318
 8656SOL     OW26866   5.813   2.454   1.139
 8656SOL    HW126867   5.868   2.532   1.107
 8656SOL    HW226868   5.729   2.449   1.085
 8657SOL     OW26869   3.337   4.216   0.155
 8657SOL    HW126870   3.373   4.200   0.247
 8657SOL    HW226871   3.394   4.169   0.088
 8658SOL     OW26872   6.786   5.375   0.568
 8658SOL    HW126873   6.879   5.348   0.542
 8658SOL    HW226874   6.784   5.473   0.587
 8659SOL     OW26875   5.555   0.505   4.532
 8659SOL    HW126876   5.539   0.461   4.444
 8659SOL    HW226877   5.631   0.459   4.579
 8660SOL     OW26878   5.798   4.770   1.482
 8660SOL    HW126879   5.886   4.813   1.501
 8660SOL    HW226880   5.798   4.676   1.518
 8661SOL     OW26881   6.547   3.661   1.704
 8661SOL    HW126882   6.556   3.662   1.804
 8661SOL    HW226883   6.626   3.707   1.663
 8662SOL     OW26884   0.307   0.090   0.670
 8662SOL    HW126885   0.300   0.175   0.722
 8662SOL    HW226886   0.304   0.110   0.572
 8663SOL     OW26887   2.515   5.549   0.469
 8663SOL    HW126888   2.574   5.546   0.389
 8663SOL    HW226889   2.432   5.600   0.447
 8664SOL     OW26890   4.375   5.294   0.938
 8664SOL    HW126891   4.418   5.230   1.002
 8664SOL    HW226892   4.430   5.377   0.930
 8665SOL     OW26893   5.273   5.646   5.618
 8665SOL    HW126894   5.200   5.577   5.620
 8665SOL    HW226895   5.356   5.606   5.580
 8666SOL     OW26896   5.220   3.405   4.788
 8666SOL    HW126897   5.128   3.389   4.823
 8666SOL    HW226898   5.222   3.387   4.690
 8667SOL     OW26899   4.707   1.654   3.723
 8667SOL    HW126900   4.801   1.645   3.692
 8667SOL    HW226901   4.674   1.747   3.704
 8668SOL     OW26902   3.591   2.048   4.356
 8668SOL    HW126903   3.642   2.110   4.297
 8668SOL    HW226904   3.589   1.957   4.314
 8669SOL     OW26905   4.169   1.058   6.146
 8669SOL    HW126906   4.252   1.009   6.173
 8669SOL    HW226907   4.091   1.021   6.195
 8670SOL     OW26908   3.677   4.915   4.360
 8670SOL    HW126909   3.603   4.861   4.320
 8670SOL    HW226910   3.698   4.993   4.300
 8671SOL     OW26911   5.600   6.310   3.034
 8671SOL    HW126912   5.546   6.393   3.053
 8671SOL    HW226913   5.607   6.256   3.117
 8672SOL     OW26914   3.116   4.839   4.798
 8672SOL    HW126915   3.037   4.843   4.859
 8672SOL    HW226916   3.156   4.747   4.801
 8673SOL     OW26917   5.518   2.175   0.813
 8673SOL    HW126918   5.459   2.256   0.812
 8673SOL    HW226919   5.532   2.142   0.719
 8674SOL     OW26920   0.573   0.346   2.707
 8674SOL    HW126921   0.620   0.381   2.788
 8674SOL    HW226922   0.639   0.330   2.634
 8675SOL     OW26923   2.004   1.487   2.736
 8675SOL    HW126924   2.060   1.429   2.677
 8675SOL    HW226925   1.993   1.443   2.825
 8676SOL     OW26926   4.385   0.345   3.560
 8676SOL    HW126927   4.396   0.287   3.640
 8676SOL    HW226928   4.339   0.294   3.487
 8677SOL     OW26929   2.657   4.260   5.750
 8677SOL    HW126930   2.633   4.329   5.681
 8677SOL    HW226931   2.720   4.193   5.710
 8678SOL     OW26932   1.237   0.107   6.333
 8678SOL    HW126933   1.320   0.135   6.382
 8678SOL    HW226934   1.262   0.078   6.240
 8679SOL     OW26935   0.122   2.529   4.505
 8679SOL    HW126936   0.125   2.623   4.540
 8679SOL    HW226937   0.085   2.469   4.575
 8680SOL     OW26938   1.877   3.163   0.178
 8680SOL    HW126939   1.948   3.144   0.245
 8680SOL    HW226940   1.813   3.231   0.215
 8681SOL     OW26941   3.738   3.591   0.931
 8681SOL    HW126942   3.820   3.603   0.875
 8681SOL    HW226943   3.662   3.643   0.892
 8682SOL     OW26944   2.022   6.053   2.691
 8682SOL    HW126945   1.949   6.113   2.723
 8682SOL    HW226946   2.034   5.977   2.755
 8683SOL     OW26947   6.634   3.345   6.898
 8683SOL    HW126948   6.672   3.437   6.904
 8683SOL    HW226949   6.676   3.296   6.822
 8684SOL     OW26950   6.692   2.774   3.997
 8684SOL    HW126951   6.714   2.680   4.022
 8684SOL    HW226952   6.597   2.794   4.022
 8685SOL     OW26953   1.006   2.204   5.475
 8685SOL    HW126954   0.959   2.231   5.559
 8685SOL    HW226955   1.105   2.198   5.493
 8686SOL     OW26956   6.383   2.280   3.416
 8686SOL    HW126957   6.294   2.324   3.413
 8686SOL    HW226958   6.453   2.344   3.384
 8687SOL     OW26959   3.912   0.216   3.093
 8687SOL    HW126960   3.946   0.176   3.008
 8687SOL    HW226961   3.817   0.243   3.081
 8688SOL     OW26962   1.985   0.727   2.076
 8688SOL    HW126963   2.005   0.819   2.109
 8688SOL    HW226964   1.999   0.723   1.978
 8689SOL     OW26965   4.543   5.877   0.778
 8689SOL    HW126966   4.519   5.888   0.681
 8689SOL    HW226967   4.461   5.857   0.831
 8690SOL     OW26968   0.472   1.497   2.726
 8690SOL    HW126969   0.387   1.453   2.698
 8690SOL    HW226970   0.513   1.543   2.647
 8691SOL     OW26971   5.174   2.480   0.565
 8691SOL    HW126972   5.232   2.417   0.513
 8691SOL    HW226973   5.211   2.573   0.559
 8692SOL     OW26974   2.083   1.312   4.218
 8692SOL    HW126975   1.991   1.281   4.197
 8692SOL    HW226976   2.078   1.386   4.286
 8693SOL     OW26977   5.366   2.383   0.768
 8693SOL    HW126978   5.342   2.431   0.852
 8693SOL    HW226979   5.296   2.400   0.698
 8694SOL     OW26980   4.838   6.998   5.846
 8694SOL    HW126981   4.768   6.966   5.782
 8694SOL    HW226982   4.922   6.945   5.833
 8695SOL     OW26983   3.974   4.434   5.724
 8695SOL    HW126984   3.921   4.452   5.807
 8695SOL    HW226985   4.036   4.357   5.740
 8696SOL     OW26986   1.903   5.330   1.520
 8696SOL    HW126987   1.937   5.237   1.506
 8696SOL    HW226988   1.811   5.337   1.483
 8697SOL     OW26989   6.246   4.696   1.315
 8697SOL    HW126990   6.180   4.621   1.311
 8697SOL    HW226991   6.311   4.687   1.239
 8698SOL     OW26992   5.419   5.523   4.531
 8698SOL    HW126993   5.327   5.528   4.492
 8698SOL    HW226994   5.476   5.595   4.491
 8699SOL     OW26995   1.061   1.547   5.140
 8699SOL    HW126996   0.988   1.533   5.073
 8699SOL    HW226997   1.141   1.493   5.114
 8700SOL     OW26998   2.720   1.023   5.411
 8700SOL    HW126999   2.641   1.034   5.471
 8700SOL    HW227000   2.741   1.110   5.367
 8701SOL     OW27001   0.807   1.543   4.996
 8701SOL    HW127002   0.840   1.628   4.954
 8701SOL    HW227003   0.739   1.564   5.065
 8702SOL     OW27004   4.481   5.810   0.086
 8702SOL    HW127005   4.507   5.714   0.102
 8702SOL    HW227006   4.510   5.837   7.012
 8703SOL     OW27007   2.875   5.652   0.706
 8703SOL    HW127008   2.819   5.728   0.739
 8703SOL    HW227009   2.954   5.642   0.766
 8704SOL     OW27010   0.287   4.089   1.946
 8704SOL    HW127011   0.237   4.003   1.949
 8704SOL    HW227012   0.222   4.165   1.938
 8705SOL     OW27013   5.052   0.151   5.873
 8705SOL    HW127014   4.973   0.090   5.876
 8705SOL    HW227015   5.053   0.210   5.954
 8706SOL     OW27016   5.228   1.852   0.781
 8706SOL    HW127017   5.268   1.912   0.851
 8706SOL    HW227018   5.141   1.891   0.749
 8707SOL     OW27019   4.816   3.029   5.758
 8707SOL    HW127020   4.817   3.017   5.857
 8707SOL    HW227021   4.779   3.119   5.736
 8708SOL     OW27022   4.195   1.360   1.241
 8708SOL    HW127023   4.206   1.350   1.340
 8708SOL    HW227024   4.210   1.456   1.216
 8709SOL     OW27025   6.828   3.867   0.977
 8709SOL    HW127026   6.880   3.832   0.898
 8709SOL    HW227027   6.891   3.908   1.042
 8710SOL     OW27028   1.540   3.504   3.275
 8710SOL    HW127029   1.487   3.582   3.309
 8710SOL    HW227030   1.482   3.449   3.215
 8711SOL     OW27031   0.558   1.231   4.169
 8711SOL    HW127032   0.639   1.227   4.226
 8711SOL    HW227033   0.491   1.164   4.201
 8712SOL     OW27034   3.577   1.690   5.660
 8712SOL    HW127035   3.628   1.761   5.707
 8712SOL    HW227036   3.636   1.645   5.592
 8713SOL     OW27037   6.926   4.452   3.322
 8713SOL    HW127038   6.829   4.454   3.348
 8713SOL    HW227039   6.941   4.516   3.247
 8714SOL     OW27040   1.350   1.355   4.800
 8714SOL    HW127041   1.418   1.368   4.727
 8714SOL    HW227042   1.260   1.343   4.758
 8715SOL     OW27043   6.183   1.815   1.473
 8715SOL    HW127044   6.137   1.838   1.559
 8715SOL    HW227045   6.209   1.719   1.473
 8716SOL     OW27046   1.698   2.120   1.272
 8716SOL    HW127047   1.728   2.184   1.201
 8716SOL    HW227048   1.617   2.071   1.240
 8717SOL     OW27049   3.020   3.534   1.000
 8717SOL    HW127050   3.081   3.613   0.993
 8717SOL    HW227051   3.011   3.508   1.096
 8718SOL     OW27052   5.991   2.931   5.258
 8718SOL    HW127053   6.048   2.913   5.339
 8718SOL    HW227054   5.906   2.975   5.287
 8719SOL     OW27055   6.685   0.428   6.306
 8719SOL    HW127056   6.694   0.504   6.242
 8719SOL    HW227057   6.776   0.390   6.326
 8720SOL     OW27058   4.964   3.794   6.358
 8720SOL    HW127059   4.995   3.778   6.265
 8720SOL    HW227060   4.919   3.883   6.364
 8721SOL     OW27061   0.226   2.491   4.036
 8721SOL    HW127062   0.303   2.523   3.982
 8721SOL    HW227063   0.243   2.509   4.133
 8722SOL     OW27064   3.558   2.647   0.409
 8722SOL    HW127065   3.638   2.671   0.464
 8722SOL    HW227066   3.586   2.629   0.315
 8723SOL     OW27067   6.943   4.127   1.371
 8723SOL    HW127068   6.909   4.194   1.437
 8723SOL    HW227069   0.004   4.080   1.409
 8724SOL     OW27070   4.806   6.839   6.549
 8724SOL    HW127071   4.786   6.766   6.615
 8724SOL    HW227072   4.854   6.913   6.595
 8725SOL     OW27073   2.912   5.742   0.435
 8725SOL    HW127074   2.866   5.830   0.418
 8725SOL    HW227075   2.894   5.713   0.529
 8726SOL     OW27076   5.531   0.416   1.403
 8726SOL    HW127077   5.487   0.497   1.364
 8726SOL    HW227078   5.625   0.438   1.429
 8727SOL     OW27079   6.301   6.029   1.313
 8727SOL    HW127080   6.303   6.038   1.213
 8727SOL    HW227081   6.247   6.104   1.352
 8728SOL     OW27082   2.557   6.861   4.886
 8728SOL    HW127083   2.513   6.931   4.943
 8728SOL    HW227084   2.551   6.888   4.790
 8729SOL     OW27085   5.517   6.404   4.589
 8729SOL    HW127086   5.588   6.459   4.546
 8729SOL    HW227087   5.545   6.308   4.591
 8730SOL     OW27088   0.142   5.854   1.717
 8730SOL    HW127089   0.092   5.933   1.681
 8730SOL    HW227090   0.208   5.822   1.649
 8731SOL     OW27091   0.915   1.463   2.542
 8731SOL    HW127092   1.007   1.482   2.577
 8731SOL    HW227093   0.923   1.416   2.454
 8732SOL     OW27094   5.299   4.581   1.255
 8732SOL    HW127095   5.303   4.515   1.329
 8732SOL    HW227096   5.219   4.563   1.198
 8733SOL     OW27097   0.860   6.402   1.627
 8733SOL    HW127098   0.761   6.406   1.615
 8733SOL    HW227099   0.905   6.451   1.553
 8734SOL     OW27100   6.560   5.447   0.985
 8734SOL    HW127101   6.612   5.405   0.910
 8734SOL    HW227102   6.475   5.396   0.998
 8735SOL     OW27103   6.699   2.199   6.428
 8735SOL    HW127104   6.642   2.211   6.347
 8735SOL    HW227105   6.640   2.179   6.507
 8736SOL     OW27106   0.725   4.490   6.537
 8736SOL    HW127107   0.805   4.431   6.539
 8736SOL    HW227108   0.668   4.473   6.618
 8737SOL     OW27109   3.703   5.747   6.361
 8737SOL    HW127110   3.796   5.776   6.382
 8737SOL    HW227111   3.705   5.684   6.283
 8738SOL     OW27112   0.851   3.646   4.380
 8738SOL    HW127113   0.864   3.725   4.320
 8738SOL    HW227114   0.890   3.665   4.470
 8739SOL     OW27115   0.962   3.038   5.187
 8739SOL    HW127116   0.969   3.138   5.195
 8739SOL    HW227117   0.884   3.015   5.129
 8740SOL     OW27118   2.231   6.236   1.175
 8740SOL    HW127119   2.239   6.156   1.235
 8740SOL    HW227120   2.233   6.319   1.230
 8741SOL     OW27121   1.595   3.373   2.570
 8741SOL    HW127122   1.675   3.382   2.511
 8741SOL    HW227123   1.513   3.364   2.514
 8742SOL     OW27124   4.898   6.955   1.969
 8742SOL    HW127125   4.900   6.940   2.068
 8742SOL    HW227126   4.866   6.872   1.923
 8743SOL     OW27127   2.532   4.984   3.115
 8743SOL    HW127128   2.631   4.993   3.120
 8743SOL    HW227129   2.508   4.892   3.085
 8744SOL     OW27130   3.121   2.562   5.862
 8744SOL    HW127131   3.151   2.482   5.913
 8744SOL    HW227132   3.120   2.541   5.764
 8745SOL     OW27133   6.422   2.526   5.966
 8745SOL    HW127134   6.373   2.459   5.909
 8745SOL    HW227135   6.459   2.481   6.047
 8746SOL     OW27136   5.301   4.468   5.461
 8746SOL    HW127137   5.347   4.543   5.507
 8746SOL    HW227138   5.246   4.504   5.386
 8747SOL     OW27139   2.020   2.401   4.114
 8747SOL    HW127140   1.992   2.316   4.070
 8747SOL    HW227141   2.120   2.407   4.113
 8748SOL     OW27142   2.364   0.467   0.008
 8748SOL    HW127143   2.316   0.380   0.016
 8748SOL    HW227144   2.311   0.529   6.967
 8749SOL     OW27145   4.111   0.685   3.553
 8749SOL    HW127146   4.089   0.706   3.648
 8749SOL    HW227147   4.141   0.769   3.507
 8750SOL     OW27148   2.095   1.107   4.937
 8750SOL    HW127149   2.076   1.008   4.937
 8750SOL    HW227150   2.014   1.156   4.968
 8751SOL     OW27151   2.138   0.014   2.865
 8751SOL    HW127152   2.206   0.082   2.837
 8751SOL    HW227153   2.099   6.989   2.784
 8752SOL     OW27154   1.689   2.205   6.170
 8752SOL    HW127155   1.635   2.123   6.151
 8752SOL    HW227156   1.776   2.199   6.120
 8753SOL     OW27157   5.216   1.133   4.962
 8753SOL    HW127158   5.298   1.079   4.979
 8753SOL    HW227159   5.237   1.204   4.895
 8754SOL     OW27160   1.355   1.393   5.821
 8754SOL    HW127161   1.261   1.361   5.833
 8754SOL    HW227162   1.417   1.332   5.869
 8755SOL     OW27163   2.125   1.777   1.144
 8755SOL    HW127164   2.041   1.791   1.195
 8755SOL    HW227165   2.145   1.858   1.088
 8756SOL     OW27166   2.160   3.110   4.412
 8756SOL    HW127167   2.219   3.187   4.438
 8756SOL    HW227168   2.154   3.046   4.488
 8757SOL     OW27169   4.991   6.106   5.163
 8757SOL    HW127170   5.019   6.093   5.258
 8757SOL    HW227171   4.919   6.175   5.158
 8758SOL     OW27172   6.080   6.444   1.656
 8758SOL    HW127173   6.159   6.385   1.673
 8758SOL    HW227174   6.003   6.388   1.625
 8759SOL     OW27175   5.212   0.816   5.984
 8759SOL    HW127176   5.217   0.869   6.068
 8759SOL    HW227177   5.233   0.874   5.905
 8760SOL     OW27178   1.796   2.394   3.837
 8760SOL    HW127179   1.732   2.406   3.912
 8760SOL    HW227180   1.884   2.436   3.861
 8761SOL     OW27181   4.426   6.494   0.366
 8761SOL    HW127182   4.460   6.401   0.382
 8761SOL    HW227183   4.492   6.560   0.403
 8762SOL     OW27184   0.643   4.045   1.128
 8762SOL    HW127185   0.555   4.041   1.175
 8762SOL    HW227186   0.710   4.089   1.187
 8763SOL     OW27187   0.320   6.682   6.158
 8763SOL    HW127188   0.402   6.730   6.127
 8763SOL    HW227189   0.346   6.598   6.206
 8764SOL     OW27190   3.858   1.871   4.842
 8764SOL    HW127191   3.803   1.924   4.777
 8764SOL    HW227192   3.836   1.774   4.832
 8765SOL     OW27193   0.050   0.277   4.307
 8765SOL    HW127194   6.989   0.236   4.262
 8765SOL    HW227195   0.020   0.350   4.368
 8766SOL     OW27196   2.020   4.390   2.252
 8766SOL    HW127197   2.043   4.313   2.192
 8766SOL    HW227198   2.070   4.471   2.223
 8767SOL     OW27199   4.639   1.691   4.318
 8767SOL    HW127200   4.546   1.725   4.300
 8767SOL    HW227201   4.635   1.594   4.342
 8768SOL     OW27202   1.489   3.338   0.048
 8768SOL    HW127203   1.544   3.256   0.034
 8768SOL    HW227204   1.423   3.347   6.991
 8769SOL     OW27205   1.971   6.958   5.618
 8769SOL    HW127206   1.984   6.918   5.528
 8769SOL    HW227207   2.043   6.925   5.679
 8770SOL     OW27208   5.664   2.138   2.042
 8770SOL    HW127209   5.663   2.101   1.949
 8770SOL    HW227210   5.574   2.126   2.083
 8771SOL     OW27211   1.123   1.729   6.417
 8771SOL    HW127212   1.061   1.697   6.345
 8771SOL    HW227213   1.215   1.740   6.379
 8772SOL     OW27214   5.573   0.353   0.112
 8772SOL    HW127215   5.595   0.446   0.141
 8772SOL    HW227216   5.507   0.313   0.177
 8773SOL     OW27217   2.765   2.177   3.114
 8773SOL    HW127218   2.691   2.205   3.175
 8773SOL    HW227219   2.853   2.198   3.157
 8774SOL     OW27220   0.996   1.064   0.191
 8774SOL    HW127221   1.045   1.110   0.116
 8774SOL    HW227222   1.052   0.991   0.228
 8775SOL     OW27223   6.530   0.114   3.760
 8775SOL    HW127224   6.591   0.056   3.705
 8775SOL    HW227225   6.573   0.203   3.772
 8776SOL     OW27226   3.207   3.249   4.869
 8776SOL    HW127227   3.239   3.165   4.825
 8776SOL    HW227228   3.209   3.324   4.803
 8777SOL     OW27229   6.655   5.738   1.366
 8777SOL    HW127230   6.592   5.781   1.432
 8777SOL    HW227231   6.747   5.738   1.404
 8778SOL     OW27232   0.805   2.397   3.040
 8778SOL    HW127233   0.882   2.449   3.005
 8778SOL    HW227234   0.728   2.458   3.057
 8779SOL     OW27235   1.361   4.314   0.903
 8779SOL    HW127236   1.416   4.232   0.917
 8779SOL    HW227237   1.302   4.301   0.823
 8780SOL     OW27238   1.643   5.702   3.859
 8780SOL    HW127239   1.680   5.742   3.942
 8780SOL    HW227240   1.703   5.721   3.782
 8781SOL     OW27241   0.187   1.987   1.938
 8781SOL    HW127242   0.102   1.938   1.959
 8781SOL    HW227243   0.183   2.019   1.843
 8782SOL     OW27244   4.641   1.851   2.490
 8782SOL    HW127245   4.656   1.816   2.583
 8782SOL    HW227246   4.579   1.929   2.493
 8783SOL     OW27247   5.448   3.551   5.203
 8783SOL    HW127248   5.464   3.552   5.302
 8783SOL    HW227249   5.360   3.594   5.183
 8784SOL     OW27250   5.132   4.221   5.037
 8784SOL    HW127251   5.227   4.239   5.012
 8784SOL    HW227252   5.075   4.224   4.955
 8785SOL     OW27253   6.019   4.842   6.763
 8785SOL    HW127254   5.941   4.782   6.781
 8785SOL    HW227255   6.035   4.848   6.665
 8786SOL     OW27256   1.932   6.197   6.955
 8786SOL    HW127257   1.833   6.200   6.969
 8786SOL    HW227258   1.969   6.290   6.964
 8787SOL     OW27259   0.812   3.162   0.270
 8787SOL    HW127260   0.866   3.245   0.259
 8787SOL    HW227261   0.715   3.185   0.261
 8788SOL     OW27262   0.948   1.852   5.584
 8788SOL    HW127263   0.940   1.792   5.505
 8788SOL    HW227264   0.860   1.893   5.605
 8789SOL     OW27265   7.011   0.038   6.377
 8789SOL    HW127266   0.006   6.973   6.323
 8789SOL    HW227267   6.960   0.106   6.323
 8790SOL     OW27268   5.567   1.643   0.366
 8790SOL    HW127269   5.664   1.624   0.350
 8790SOL    HW227270   5.540   1.604   0.454
 8791SOL     OW27271   4.727   6.394   5.517
 8791SOL    HW127272   4.705   6.447   5.599
 8791SOL    HW227273   4.812   6.431   5.476
 8792SOL     OW27274   5.135   6.800   2.581
 8792SOL    HW127275   5.198   6.864   2.535
 8792SOL    HW227276   5.186   6.744   2.645
 8793SOL     OW27277   0.863   5.511   4.301
 8793SOL    HW127278   0.862   5.489   4.398
 8793SOL    HW227279   0.956   5.531   4.271
 8794SOL     OW27280   2.736   6.759   2.645
 8794SOL    HW127281   2.832   6.777   2.624
 8794SOL    HW227282   2.688   6.733   2.561
 8795SOL     OW27283   1.705   6.055   5.554
 8795SOL    HW127284   1.752   5.966   5.549
 8795SOL    HW227285   1.686   6.088   5.462
 8796SOL     OW27286   5.330   2.321   4.935
 8796SOL    HW127287   5.242   2.348   4.974
 8796SOL    HW227288   5.378   2.261   5.000
 8797SOL     OW27289   0.538   6.655   6.729
 8797SOL    HW127290   0.465   6.664   6.661
 8797SOL    HW227291   0.608   6.723   6.712
 8798SOL     OW27292   4.947   3.815   5.860
 8798SOL    HW127293   4.850   3.829   5.882
 8798SOL    HW227294   4.955   3.746   5.788
 8799SOL     OW27295   3.677   6.013   2.800
 8799SOL    HW127296   3.774   5.988   2.796
 8799SOL    HW227297   3.655   6.075   2.724
 8800SOL     OW27298   4.212   4.814   6.818
 8800SOL    HW127299   4.172   4.791   6.907
 8800SOL    HW227300   4.145   4.796   6.746
 8801SOL     OW27301   2.716   0.168   5.095
 8801SOL    HW127302   2.764   0.218   5.023
 8801SOL    HW227303   2.774   0.094   5.129
 8802SOL     OW27304   2.817   0.215   2.447
 8802SOL    HW127305   2.723   0.226   2.480
 8802SOL    HW227306   2.827   0.259   2.358
 8803SOL     OW27307   3.893   5.962   0.618
 8803SOL    HW127308   3.831   5.884   0.609
 8803SOL    HW227309   3.857   6.025   0.687
 8804SOL     OW27310   4.140   0.198   0.975
 8804SOL    HW127311   4.175   0.190   0.881
 8804SOL    HW227312   4.216   0.189   1.039
 8805SOL     OW27313   0.200   0.331   2.962
 8805SOL    HW127314   0.141   0.407   2.990
 8805SOL    HW227315   0.211   0.332   2.863
 8806SOL     OW27316   2.223   4.731   6.569
 8806SOL    HW127317   2.273   4.742   6.655
 8806SOL    HW227318   2.192   4.636   6.560
 8807SOL     OW27319   1.732   5.922   6.306
 8807SOL    HW127320   1.768   6.007   6.344
 8807SOL    HW227321   1.659   5.942   6.241
 8808SOL     OW27322   6.210   1.061   1.064
 8808SOL    HW127323   6.137   1.082   1.130
 8808SOL    HW227324   6.297   1.055   1.112
 8809SOL     OW27325   5.802   3.934   1.379
 8809SOL    HW127326   5.787   3.908   1.284
 8809SOL    HW227327   5.859   3.865   1.424
 8810SOL     OW27328   4.904   1.441   4.079
 8810SOL    HW127329   4.893   1.470   4.174
 8810SOL    HW227330   5.001   1.442   4.055
 8811SOL     OW27331   1.109   1.453   3.517
 8811SOL    HW127332   1.160   1.370   3.498
 8811SOL    HW227333   1.067   1.487   3.433
 8812SOL     OW27334   1.879   0.546   0.980
 8812SOL    HW127335   1.807   0.580   0.919
 8812SOL    HW227336   1.968   0.557   0.935
 8813SOL     OW27337   1.602   4.849   1.086
 8813SOL    HW127338   1.675   4.802   1.036
 8813SOL    HW227339   1.527   4.871   1.024
 8814SOL     OW27340   5.071   0.416   6.820
 8814SOL    HW127341   5.123   0.421   6.905
 8814SOL    HW227342   5.001   0.487   6.819
 8815SOL     OW27343   0.301   6.147   2.660
 8815SOL    HW127344   0.315   6.123   2.756
 8815SOL    HW227345   0.366   6.218   2.633
 8816SOL     OW27346   0.746   5.791   1.325
 8816SOL    HW127347   0.699   5.713   1.284
 8816SOL    HW227348   0.844   5.783   1.311
 8817SOL     OW27349   2.467   5.285   5.372
 8817SOL    HW127350   2.562   5.301   5.344
 8817SOL    HW227351   2.463   5.275   5.471
 8818SOL     OW27352   6.775   5.360   4.055
 8818SOL    HW127353   6.676   5.370   4.050
 8818SOL    HW227354   6.812   5.427   4.121
 8819SOL     OW27355   5.216   6.997   4.749
 8819SOL    HW127356   5.287   0.048   4.734
 8819SOL    HW227357   5.260   6.910   4.771
 8820SOL     OW27358   1.373   2.602   4.094
 8820SOL    HW127359   1.403   2.567   4.183
 8820SOL    HW227360   1.308   2.676   4.107
 8821SOL     OW27361   1.970   1.113   6.022
 8821SOL    HW127362   1.990   1.205   6.056
 8821SOL    HW227363   1.942   1.054   6.098
 8822SOL     OW27364   0.485   2.563   3.354
 8822SOL    HW127365   0.532   2.628   3.294
 8822SOL    HW227366   0.533   2.556   3.441
 8823SOL     OW27367   2.437   5.750   1.956
 8823SOL    HW127368   2.509   5.786   2.015
 8823SOL    HW227369   2.351   5.745   2.005
 8824SOL     OW27370   4.002   3.673   0.841
 8824SOL    HW127371   3.980   3.733   0.764
 8824SOL    HW227372   4.101   3.665   0.850
 8825SOL     OW27373   1.122   1.687   1.315
 8825SOL    HW127374   1.027   1.698   1.289
 8825SOL    HW227375   1.128   1.637   1.401
 8826SOL     OW27376   5.700   1.561   6.894
 8826SOL    HW127377   5.614   1.531   6.935
 8826SOL    HW227378   5.744   1.484   6.848
 8827SOL     OW27379   1.281   1.228   3.407
 8827SOL    HW127380   1.285   1.135   3.445
 8827SOL    HW227381   1.368   1.249   3.363
 8828SOL     OW27382   2.073   6.437   2.533
 8828SOL    HW127383   2.044   6.363   2.474
 8828SOL    HW227384   2.173   6.438   2.539
 8829SOL     OW27385   0.244   1.676   0.210
 8829SOL    HW127386   0.262   1.770   0.241
 8829SOL    HW227387   0.219   1.677   0.113
 8830SOL     OW27388   0.599   2.038   0.465
 8830SOL    HW127389   0.662   2.101   0.509
 8830SOL    HW227390   0.584   1.958   0.523
 8831SOL     OW27391   6.625   0.851   2.798
 8831SOL    HW127392   6.622   0.754   2.774
 8831SOL    HW227393   6.689   0.865   2.874
 8832SOL     OW27394   0.243   1.129   2.445
 8832SOL    HW127395   0.154   1.123   2.400
 8832SOL    HW227396   0.277   1.223   2.438
 8833SOL     OW27397   2.319   4.872   3.863
 8833SOL    HW127398   2.328   4.781   3.823
 8833SOL    HW227399   2.322   4.941   3.790
 8834SOL     OW27400   5.796   4.078   4.749
 8834SOL    HW127401   5.774   4.015   4.823
 8834SOL    HW227402   5.894   4.096   4.747
 8835SOL     OW27403   0.134   6.960   6.594
 8835SOL    HW127404   0.194   0.018   6.621
 8835SOL    HW227405   0.069   6.992   6.526
 8836SOL     OW27406   4.998   2.209   0.614
 8836SOL    HW127407   5.039   2.294   0.645
 8836SOL    HW227408   4.939   2.227   0.535
 8837SOL     OW27409   0.340   1.130   1.677
 8837SOL    HW127410   0.348   1.151   1.775
 8837SOL    HW227411   0.281   1.197   1.633
 8838SOL     OW27412   2.353   5.445   3.934
 8838SOL    HW127413   2.363   5.513   3.861
 8838SOL    HW227414   2.354   5.491   4.023
 8839SOL     OW27415   6.544   6.596   3.976
 8839SOL    HW127416   6.515   6.501   3.964
 8839SOL    HW227417   6.556   6.615   4.074
 8840SOL     OW27418   5.447   1.882   1.930
 8840SOL    HW127419   5.401   1.941   1.996
 8840SOL    HW227420   5.417   1.787   1.944
 8841SOL     OW27421   1.667   0.461   4.473
 8841SOL    HW127422   1.640   0.548   4.514
 8841SOL    HW227423   1.738   0.477   4.404
 8842SOL     OW27424   2.060   3.234   2.367
 8842SOL    HW127425   2.062   3.331   2.341
 8842SOL    HW227426   2.094   3.179   2.291
 8843SOL     OW27427   0.402   2.963   4.712
 8843SOL    HW127428   0.356   2.996   4.794
 8843SOL    HW227429   0.493   2.929   4.737
 8844SOL     OW27430   6.263   1.631   6.556
 8844SOL    HW127431   6.278   1.692   6.634
 8844SOL    HW227432   6.326   1.554   6.562
 8845SOL     OW27433   5.583   4.491   6.961
 8845SOL    HW127434   5.538   4.576   6.986
 8845SOL    HW227435   5.593   4.433   0.024
 8846SOL     OW27436   2.147   4.801   3.211
 8846SOL    HW127437   2.093   4.733   3.163
 8846SOL    HW227438   2.096   4.887   3.218
 8847SOL     OW27439   2.641   0.949   2.532
 8847SOL    HW127440   2.707   0.882   2.498
 8847SOL    HW227441   2.559   0.902   2.563
 8848SOL     OW27442   1.337   0.297   2.762
 8848SOL    HW127443   1.258   0.259   2.714
 8848SOL    HW227444   1.329   0.397   2.764
 8849SOL     OW27445   2.959   6.870   1.443
 8849SOL    HW127446   2.919   6.911   1.360
 8849SOL    HW227447   2.970   6.941   1.512
 8850SOL     OW27448   3.205   2.744   6.953
 8850SOL    HW127449   3.295   2.781   6.975
 8850SOL    HW227450   3.177   2.680   0.007
 8851SOL     OW27451   1.671   3.274   2.814
 8851SOL    HW127452   1.678   3.176   2.794
 8851SOL    HW227453   1.646   3.323   2.730
 8852SOL     OW27454   0.833   1.900   5.982
 8852SOL    HW127455   0.931   1.917   5.990
 8852SOL    HW227456   0.792   1.897   6.073
 8853SOL     OW27457   5.222   1.283   1.138
 8853SOL    HW127458   5.161   1.338   1.194
 8853SOL    HW227459   5.289   1.237   1.196
 8854SOL     OW27460   0.800   2.210   5.034
 8854SOL    HW127461   0.877   2.269   5.009
 8854SOL    HW227462   0.814   2.173   5.126
 8855SOL     OW27463   5.589   5.482   1.006
 8855SOL    HW127464   5.506   5.492   1.060
 8855SOL    HW227465   5.573   5.515   0.913
 8856SOL     OW27466   6.713   0.314   5.631
 8856SOL    HW127467   6.629   0.261   5.631
 8856SOL    HW227468   6.792   0.252   5.634
 8857SOL     OW27469   6.564   1.820   6.032
 8857SOL    HW127470   6.512   1.735   6.021
 8857SOL    HW227471   6.545   1.859   6.123
 8858SOL     OW27472   5.878   6.013   4.547
 8858SOL    HW127473   5.971   5.981   4.563
 8858SOL    HW227474   5.815   5.963   4.606
 8859SOL     OW27475   0.706   6.397   3.676
 8859SOL    HW127476   0.640   6.461   3.635
 8859SOL    HW227477   0.779   6.449   3.721
 8860SOL     OW27478   0.190   4.403   2.920
 8860SOL    HW127479   0.170   4.335   2.990
 8860SOL    HW227480   0.260   4.368   2.858
 8861SOL     OW27481   4.258   2.792   0.703
 8861SOL    HW127482   4.248   2.891   0.691
 8861SOL    HW227483   4.347   2.773   0.743
 8862SOL     OW27484   4.779   4.678   4.956
 8862SOL    HW127485   4.749   4.705   5.048
 8862SOL    HW227486   4.844   4.603   4.963
 8863SOL     OW27487   2.232   3.932   3.574
 8863SOL    HW127488   2.263   4.007   3.634
 8863SOL    HW227489   2.243   3.960   3.479
 8864SOL     OW27490   6.229   1.762   5.320
 8864SOL    HW127491   6.188   1.763   5.411
 8864SOL    HW227492   6.230   1.668   5.285
 8865SOL     OW27493   2.902   1.426   0.492
 8865SOL    HW127494   2.851   1.511   0.510
 8865SOL    HW227495   2.907   1.410   0.394
 8866SOL     OW27496   6.169   6.872   2.148
 8866SOL    HW127497   6.157   6.849   2.052
 8866SOL    HW227498   6.171   6.788   2.203
 8867SOL     OW27499   6.480   3.630   2.960
 8867SOL    HW127500   6.563   3.674   2.993
 8867SOL    HW227501   6.480   3.629   2.860
 8868SOL     OW27502   6.599   2.920   3.445
 8868SOL    HW127503   6.677   2.919   3.508
 8868SOL    HW227504   6.583   2.827   3.412
 8869SOL     OW27505   4.085   6.834   3.550
 8869SOL    HW127506   4.082   6.804   3.645
 8869SOL    HW227507   4.029   6.916   3.539
 8870SOL     OW27508   1.713   0.630   2.867
 8870SOL    HW127509   1.633   0.629   2.927
 8870SOL    HW227510   1.687   0.594   2.777
 8871SOL     OW27511   6.627   0.371   2.532
 8871SOL    HW127512   6.538   0.410   2.551
 8871SOL    HW227513   6.656   0.314   2.610
 8872SOL     OW27514   6.395   4.344   3.593
 8872SOL    HW127515   6.300   4.329   3.621
 8872SOL    HW227516   6.413   4.294   3.509
 8873SOL     OW27517   2.172   1.942   2.826
 8873SOL    HW127518   2.092   1.895   2.790
 8873SOL    HW227519   2.255   1.899   2.790
 8874SOL     OW27520   3.271   6.425   1.094
 8874SOL    HW127521   3.186   6.384   1.060
 8874SOL    HW227522   3.341   6.355   1.102
 8875SOL     OW27523   6.556   3.498   4.413
 8875SOL    HW127524   6.646   3.532   4.385
 8875SOL    HW227525   6.513   3.564   4.474
 8876SOL     OW27526   4.377   0.558   6.518
 8876SOL    HW127527   4.475   0.570   6.539
 8876SOL    HW227528   4.323   0.583   6.598
 8877SOL     OW27529   0.865   4.116   1.308
 8877SOL    HW127530   0.914   4.183   1.252
 8877SOL    HW227531   0.907   4.111   1.399
 8878SOL     OW27532   4.394   3.983   0.924
 8878SOL    HW127533   4.432   3.923   0.995
 8878SOL    HW227534   4.463   3.998   0.853
 8879SOL     OW27535   6.637   4.803   2.885
 8879SOL    HW127536   6.603   4.726   2.832
 8879SOL    HW227537   6.695   4.860   2.828
 8880SOL     OW27538   4.192   1.355   3.422
 8880SOL    HW127539   4.225   1.408   3.501
 8880SOL    HW227540   4.264   1.292   3.393
 8881SOL     OW27541   4.041   5.019   4.163
 8881SOL    HW127542   3.967   5.000   4.098
 8881SOL    HW227543   4.028   4.963   4.245
 8882SOL     OW27544   4.185   0.825   0.823
 8882SOL    HW127545   4.109   0.772   0.787
 8882SOL    HW227546   4.206   0.901   0.761
 8883SOL     OW27547   6.953   6.411   4.615
 8883SOL    HW127548   0.020   6.421   4.667
 8883SOL    HW227549   6.962   6.459   4.528
 8884SOL     OW27550   4.948   3.616   5.288
 8884SOL    HW127551   4.854   3.612   5.254
 8884SOL    HW227552   5.010   3.577   5.220
 8885SOL     OW27553   6.114   5.994   0.890
 8885SOL    HW127554   6.136   5.908   0.843
 8885SOL    HW227555   6.199   6.037   0.922
 8886SOL     OW27556   4.078   5.789   6.619
 8886SOL    HW127557   4.061   5.809   6.523
 8886SOL    HW227558   4.175   5.801   6.639
 8887SOL     OW27559   4.627   0.029   1.799
 8887SOL    HW127560   4.590   0.010   1.708
 8887SOL    HW227561   4.725   0.048   1.793
 8888SOL     OW27562   3.113   2.143   2.631
 8888SOL    HW127563   3.204   2.177   2.609
 8888SOL    HW227564   3.112   2.111   2.726
 8889SOL     OW27565   1.519   5.455   6.353
 8889SOL    HW127566   1.446   5.500   6.405
 8889SOL    HW227567   1.481   5.420   6.267
 8890SOL     OW27568   0.911   6.265   0.203
 8890SOL    HW127569   0.985   6.253   0.269
 8890SOL    HW227570   0.932   6.214   0.120
 8891SOL     OW27571   6.684   3.749   5.921
 8891SOL    HW127572   6.752   3.820   5.938
 8891SOL    HW227573   6.598   3.792   5.893
 8892SOL     OW27574   3.295   5.158   4.668
 8892SOL    HW127575   3.235   5.098   4.616
 8892SOL    HW227576   3.338   5.107   4.743
 8893SOL     OW27577   0.970   5.300   5.138
 8893SOL    HW127578   0.935   5.344   5.221
 8893SOL    HW227579   1.047   5.242   5.161
 8894SOL     OW27580   4.515   2.076   0.915
 8894SOL    HW127581   4.605   2.050   0.880
 8894SOL    HW227582   4.526   2.124   1.002
 8895SOL     OW27583   6.841   3.453   0.508
 8895SOL    HW127584   6.909   3.499   0.564
 8895SOL    HW227585   6.756   3.505   0.508
 8896SOL     OW27586   0.509   1.966   4.049
 8896SOL    HW127587   0.552   2.056   4.051
 8896SOL    HW227588   0.439   1.961   4.121
 8897SOL     OW27589   1.648   4.937   4.076
 8897SOL    HW127590   1.663   4.862   4.141
 8897SOL    HW227591   1.734   4.985   4.060
 8898SOL     OW27592   4.701   4.306   2.597
 8898SOL    HW127593   4.652   4.331   2.514
 8898SOL    HW227594   4.653   4.344   2.677
 8899SOL     OW27595   1.426   3.682   3.663
 8899SOL    HW127596   1.358   3.749   3.692
 8899SOL    HW227597   1.417   3.599   3.719
 8900SOL     OW27598   4.676   2.324   4.235
 8900SOL    HW127599   4.751   2.337   4.170
 8900SOL    HW227600   4.605   2.392   4.218
 8901SOL     OW27601   1.288   4.181   4.415
 8901SOL    HW127602   1.328   4.187   4.506
 8901SOL    HW227603   1.221   4.254   4.402
 8902SOL     OW27604   0.337   4.184   0.546
 8902SOL    HW127605   0.258   4.168   0.486
 8902SOL    HW227606   0.314   4.157   0.640
 8903SOL     OW27607   0.899   0.024   5.199
 8903SOL    HW127608   0.977   0.060   5.251
 8903SOL    HW227609   0.881   0.083   5.121
 8904SOL     OW27610   0.289   1.222   3.558
 8904SOL    HW127611   0.289   1.216   3.458
 8904SOL    HW227612   0.374   1.263   3.589
 8905SOL     OW27613   1.088   3.347   2.744
 8905SOL    HW127614   1.083   3.432   2.693
 8905SOL    HW227615   1.164   3.351   2.809
 8906SOL     OW27616   5.893   7.007   6.845
 8906SOL    HW127617   5.948   6.927   6.867
 8906SOL    HW227618   5.852   0.026   6.929
 8907SOL     OW27619   2.738   3.678   5.283
 8907SOL    HW127620   2.657   3.735   5.292
 8907SOL    HW227621   2.737   3.632   5.194
 8908SOL     OW27622   1.403   4.611   6.890
 8908SOL    HW127623   1.382   4.552   6.812
 8908SOL    HW227624   1.320   4.661   6.918
 8909SOL     OW27625   1.947   6.822   1.740
 8909SOL    HW127626   1.887   6.902   1.750
 8909SOL    HW227627   1.942   6.790   1.646
 8910SOL     OW27628   1.744   0.110   3.788
 8910SOL    HW127629   1.752   0.011   3.796
 8910SOL    HW227630   1.735   0.135   3.691
 8911SOL     OW27631   4.238   2.261   4.793
 8911SOL    HW127632   4.244   2.323   4.871
 8911SOL    HW227633   4.174   2.187   4.815
 8912SOL     OW27634   3.721   3.786   4.035
 8912SOL    HW127635   3.769   3.850   4.095
 8912SOL    HW227636   3.633   3.762   4.077
 8913SOL     OW27637   5.134   6.320   0.027
 8913SOL    HW127638   5.063   6.270   0.076
 8913SOL    HW227639   5.147   6.279   6.955
 8914SOL     OW27640   4.921   5.246   6.816
 8914SOL    HW127641   4.998   5.218   6.759
 8914SOL    HW227642   4.915   5.346   6.818
 8915SOL     OW27643   1.647   1.003   3.434
 8915SOL    HW127644   1.631   1.040   3.525
 8915SOL    HW227645   1.612   1.066   3.365
 8916SOL     OW27646   4.983   1.204   0.818
 8916SOL    HW127647   5.024   1.113   0.824
 8916SOL    HW227648   4.979   1.233   0.722
 8917SOL     OW27649   5.560   2.078   0.559
 8917SOL    HW127650   5.515   1.989   0.570
 8917SOL    HW227651   5.656   2.071   0.586
 8918SOL     OW27652   0.518   3.748   2.804
 8918SOL    HW127653   0.471   3.712   2.884
 8918SOL    HW227654   0.556   3.673   2.751
 8919SOL     OW27655   6.400   3.472   1.574
 8919SOL    HW127656   6.449   3.549   1.616
 8919SOL    HW227657   6.449   3.441   1.493
 8920SOL     OW27658   6.471   1.180   0.132
 8920SOL    HW127659   6.479   1.089   0.171
 8920SOL    HW227660   6.561   1.218   0.113
 8921SOL     OW27661   1.989   3.220   2.722
 8921SOL    HW127662   2.051   3.148   2.691
 8921SOL    HW227663   2.033   3.273   2.795
 8922SOL     OW27664   4.345   5.798   4.169
 8922SOL    HW127665   4.416   5.743   4.124
 8922SOL    HW227666   4.376   5.892   4.178
 8923SOL     OW27667   2.140   1.545   4.398
 8923SOL    HW127668   2.226   1.497   4.385
 8923SOL    HW227669   2.157   1.632   4.443
 8924SOL     OW27670   6.253   5.096   5.216
 8924SOL    HW127671   6.215   5.004   5.210
 8924SOL    HW227672   6.179   5.163   5.207
 8925SOL     OW27673   1.017   6.058   2.522
 8925SOL    HW127674   0.984   6.143   2.481
 8925SOL    HW227675   1.038   5.992   2.449
 8926SOL     OW27676   5.775   1.931   6.306
 8926SOL    HW127677   5.722   1.995   6.362
 8926SOL    HW227678   5.800   1.975   6.220
 8927SOL     OW27679   1.381   0.959   5.753
 8927SOL    HW127680   1.426   0.927   5.670
 8927SOL    HW227681   1.430   0.923   5.833
 8928SOL     OW27682   1.111   6.403   5.252
 8928SOL    HW127683   1.050   6.482   5.245
 8928SOL    HW227684   1.064   6.322   5.217
 8929SOL     OW27685   0.267   1.895   4.203
 8929SOL    HW127686   0.246   1.992   4.213
 8929SOL    HW227687   0.185   1.845   4.175
 8930SOL     OW27688   2.284   4.622   3.463
 8930SOL    HW127689   2.281   4.720   3.446
 8930SOL    HW227690   2.215   4.576   3.407
 8931SOL     OW27691   4.228   2.876   0.294
 8931SOL    HW127692   4.216   2.781   0.322
 8931SOL    HW227693   4.321   2.890   0.259
 8932SOL     OW27694   0.665   3.432   3.355
 8932SOL    HW127695   0.638   3.476   3.441
 8932SOL    HW227696   0.596   3.364   3.329
 8933SOL     OW27697   3.810   2.145   5.102
 8933SOL    HW127698   3.768   2.119   5.015
 8933SOL    HW227699   3.908   2.160   5.089
 8934SOL     OW27700   3.062   5.744   2.998
 8934SOL    HW127701   2.990   5.697   3.049
 8934SOL    HW227702   3.118   5.677   2.949
 8935SOL     OW27703   0.155   4.406   1.194
 8935SOL    HW127704   0.170   4.476   1.124
 8935SOL    HW227705   0.161   4.315   1.152
 8936SOL     OW27706   3.104   2.585   1.006
 8936SOL    HW127707   3.190   2.544   0.975
 8936SOL    HW227708   3.057   2.521   1.066
 8937SOL     OW27709   0.431   6.281   6.026
 8937SOL    HW127710   0.504   6.219   6.057
 8937SOL    HW227711   0.439   6.296   5.928
 8938SOL     OW27712   5.368   5.888   1.586
 8938SOL    HW127713   5.415   5.935   1.661
 8938SOL    HW227714   5.404   5.795   1.577
 8939SOL     OW27715   4.486   2.170   4.902
 8939SOL    HW127716   4.580   2.204   4.902
 8939SOL    HW227717   4.430   2.228   4.842
 8940SOL     OW27718   5.745   0.709   2.561
 8940SOL    HW127719   5.710   0.616   2.574
 8940SOL    HW227720   5.722   0.741   2.470
 8941SOL     OW27721   4.948   1.973   5.922
 8941SOL    HW127722   4.973   1.952   5.828
 8941SOL    HW227723   5.020   2.026   5.965
 8942SOL     OW27724   0.654   2.968   5.253
 8942SOL    HW127725   0.727   2.920   5.303
 8942SOL    HW227726   0.609   3.034   5.314
 8943SOL     OW27727   5.343   4.071   0.964
 8943SOL    HW127728   5.414   4.024   1.017
 8943SOL    HW227729   5.290   4.004   0.912
 8944SOL     OW27730   4.558   5.503   0.913
 8944SOL    HW127731   4.622   5.437   0.951
 8944SOL    HW227732   4.571   5.592   0.957
 8945SOL     OW27733   1.943   0.787   4.283
 8945SOL    HW127734   1.937   0.690   4.306
 8945SOL    HW227735   1.952   0.797   4.183
 8946SOL     OW27736   3.605   1.781   4.267
 8946SOL    HW127737   3.640   1.721   4.339
 8946SOL    HW227738   3.628   1.743   4.178
 8947SOL     OW27739   3.946   3.736   5.244
 8947SOL    HW127740   3.959   3.763   5.149
 8947SOL    HW227741   4.028   3.758   5.296
 8948SOL     OW27742   6.339   5.291   2.924
 8948SOL    HW127743   6.258   5.349   2.937
 8948SOL    HW227744   6.388   5.283   3.011
 8949SOL     OW27745   1.844   5.945   0.349
 8949SOL    HW127746   1.860   6.041   0.323
 8949SOL    HW227747   1.830   5.940   0.448
 8950SOL     OW27748   4.586   2.412   4.740
 8950SOL    HW127749   4.541   2.344   4.682
 8950SOL    HW227750   4.642   2.473   4.683
 8951SOL     OW27751   2.408   2.468   5.557
 8951SOL    HW127752   2.476   2.540   5.543
 8951SOL    HW227753   2.348   2.494   5.633
 8952SOL     OW27754   6.667   0.553   2.811
 8952SOL    HW127755   6.685   0.591   2.902
 8952SOL    HW227756   6.569   0.531   2.803
 8953SOL     OW27757   1.817   3.771   6.529
 8953SOL    HW127758   1.778   3.862   6.547
 8953SOL    HW227759   1.742   3.705   6.517
 8954SOL     OW27760   1.657   5.721   5.818
 8954SOL    HW127761   1.645   5.741   5.720
 8954SOL    HW227762   1.751   5.739   5.844
 8955SOL     OW27763   5.954   3.617   2.946
 8955SOL    HW127764   5.955   3.634   3.045
 8955SOL    HW227765   6.006   3.534   2.926
 8956SOL     OW27766   1.137   1.062   5.684
 8956SOL    HW127767   1.055   1.006   5.676
 8956SOL    HW227768   1.203   1.015   5.744
 8957SOL     OW27769   3.109   4.890   2.092
 8957SOL    HW127770   3.106   4.836   2.008
 8957SOL    HW227771   3.027   4.874   2.145
 8958SOL     OW27772   2.123   0.075   4.280
 8958SOL    HW127773   2.159   0.134   4.353
 8958SOL    HW227774   2.199   0.040   4.225
 8959SOL     OW27775   2.188   4.121   1.186
 8959SOL    HW127776   2.134   4.203   1.207
 8959SOL    HW227777   2.245   4.139   1.105
 8960SOL     OW27778   3.807   5.857   1.411
 8960SOL    HW127779   3.803   5.951   1.376
 8960SOL    HW227780   3.853   5.799   1.344
 8961SOL     OW27781   1.546   1.760   3.862
 8961SOL    HW127782   1.446   1.757   3.868
 8961SOL    HW227783   1.586   1.741   3.951
 8962SOL     OW27784   5.223   6.811   3.711
 8962SOL    HW127785   5.310   6.805   3.663
 8962SOL    HW227786   5.177   6.896   3.687
 8963SOL     OW27787   6.995   0.875   4.091
 8963SOL    HW127788   0.034   0.814   4.146
 8963SOL    HW227789   6.997   0.967   4.131
 8964SOL     OW27790   5.937   4.992   2.947
 8964SOL    HW127791   5.943   5.086   2.914
 8964SOL    HW227792   5.929   4.930   2.870
 8965SOL     OW27793   1.016   5.365   1.330
 8965SOL    HW127794   0.994   5.422   1.409
 8965SOL    HW227795   1.015   5.269   1.357
 8966SOL     OW27796   2.812   2.827   5.432
 8966SOL    HW127797   2.752   2.898   5.397
 8966SOL    HW227798   2.900   2.830   5.383
 8967SOL     OW27799   3.975   0.657   0.370
 8967SOL    HW127800   4.022   0.741   0.397
 8967SOL    HW227801   4.013   0.624   0.284
 8968SOL     OW27802   5.321   5.342   2.217
 8968SOL    HW127803   5.263   5.382   2.288
 8968SOL    HW227804   5.389   5.283   2.260
 8969SOL     OW27805   6.015   0.709   4.457
 8969SOL    HW127806   6.024   0.653   4.375
 8969SOL    HW227807   5.924   0.751   4.458
 8970SOL     OW27808   3.606   2.242   1.530
 8970SOL    HW127809   3.551   2.310   1.579
 8970SOL    HW227810   3.620   2.162   1.589
 8971SOL     OW27811   3.906   5.802   2.520
 8971SOL    HW127812   4.004   5.810   2.503
 8971SOL    HW227813   3.883   5.852   2.604
 8972SOL     OW27814   5.731   0.476   4.935
 8972SOL    HW127815   5.773   0.473   4.845
 8972SOL    HW227816   5.655   0.410   4.939
 8973SOL     OW27817   1.489   5.369   6.866
 8973SOL    HW127818   1.478   5.350   6.964
 8973SOL    HW227819   1.586   5.377   6.844
 8974SOL     OW27820   0.500   3.131   4.245
 8974SOL    HW127821   0.528   3.201   4.311
 8974SOL    HW227822   0.580   3.077   4.218
 8975SOL     OW27823   2.682   6.891   0.698
 8975SOL    HW127824   2.584   6.905   0.715
 8975SOL    HW227825   2.712   6.951   0.624
 8976SOL     OW27826   0.098   5.576   4.498
 8976SOL    HW127827   0.038   5.502   4.530
 8976SOL    HW227828   0.155   5.543   4.424
 8977SOL     OW27829   5.865   1.666   6.246
 8977SOL    HW127830   5.935   1.610   6.292
 8977SOL    HW227831   5.866   1.758   6.286
 8978SOL     OW27832   5.705   6.369   0.829
 8978SOL    HW127833   5.644   6.309   0.880
 8978SOL    HW227834   5.799   6.355   0.860
 8979SOL     OW27835   1.856   4.975   4.413
 8979SOL    HW127836   1.913   4.984   4.494
 8979SOL    HW227837   1.912   4.945   4.335
 8980SOL     OW27838   3.507   2.918   4.273
 8980SOL    HW127839   3.567   2.898   4.350
 8980SOL    HW227840   3.517   2.847   4.204
 8981SOL     OW27841   3.671   1.357   5.464
 8981SOL    HW127842   3.768   1.359   5.442
 8981SOL    HW227843   3.623   1.294   5.402
 8982SOL     OW27844   3.325   4.798   1.046
 8982SOL    HW127845   3.413   4.752   1.032
 8982SOL    HW227846   3.251   4.741   1.012
 8983SOL     OW27847   4.984   4.942   0.523
 8983SOL    HW127848   4.891   4.944   0.485
 8983SOL    HW227849   5.026   5.032   0.513
 8984SOL     OW27850   2.003   5.612   3.062
 8984SOL    HW127851   1.994   5.584   3.157
 8984SOL    HW227852   2.092   5.583   3.027
 8985SOL     OW27853   3.464   3.175   6.256
 8985SOL    HW127854   3.387   3.173   6.192
 8985SOL    HW227855   3.435   3.220   6.340
 8986SOL     OW27856   3.633   6.088   2.543
 8986SOL    HW127857   3.696   6.165   2.536
 8986SOL    HW227858   3.558   6.100   2.478
 8987SOL     OW27859   4.953   6.330   2.220
 8987SOL    HW127860   4.931   6.416   2.173
 8987SOL    HW227861   4.910   6.330   2.310
 8988SOL     OW27862   0.215   5.503   4.732
 8988SOL    HW127863   0.197   5.561   4.811
 8988SOL    HW227864   0.188   5.551   4.648
 8989SOL     OW27865   3.412   2.952   6.590
 8989SOL    HW127866   3.403   2.947   6.490
 8989SOL    HW227867   3.506   2.935   6.616
 8990SOL     OW27868   0.431   6.003   4.106
 8990SOL    HW127869   0.366   6.076   4.084
 8990SOL    HW227870   0.524   6.040   4.106
 8991SOL     OW27871   0.810   2.101   5.304
 8991SOL    HW127872   0.719   2.111   5.344
 8991SOL    HW227873   0.878   2.095   5.377
 8992SOL     OW27874   5.898   2.328   6.865
 8992SOL    HW127875   5.800   2.311   6.873
 8992SOL    HW227876   5.933   2.364   6.952
 8993SOL     OW27877   4.731   2.398   0.079
 8993SOL    HW127878   4.708   2.445   0.164
 8993SOL    HW227879   4.658   2.332   0.057
 8994SOL     OW27880   1.751   5.262   3.906
 8994SOL    HW127881   1.806   5.185   3.939
 8994SOL    HW227882   1.719   5.316   3.983
 8995SOL     OW27883   6.700   1.631   0.665
 8995SOL    HW127884   6.670   1.537   0.680
 8995SOL    HW227885   6.794   1.631   0.633
 8996SOL     OW27886   4.964   4.961   5.903
 8996SOL    HW127887   4.919   5.041   5.942
 8996SOL    HW227888   4.932   4.946   5.810
 8997SOL     OW27889   5.472   0.633   4.921
 8997SOL    HW127890   5.472   0.533   4.925
 8997SOL    HW227891   5.566   0.667   4.928
 8998SOL     OW27892   6.261   3.545   4.337
 8998SOL    HW127893   6.269   3.584   4.429
 8998SOL    HW227894   6.238   3.448   4.343
 8999SOL     OW27895   4.370   6.583   6.103
 8999SOL    HW127896   4.451   6.557   6.051
 8999SOL    HW227897   4.369   6.536   6.191
 9000SOL     OW27898   1.506   3.626   1.426
 9000SOL    HW127899   1.432   3.674   1.473
 9000SOL    HW227900   1.507   3.530   1.454
 9001SOL     OW27901   1.035   5.490   2.470
 9001SOL    HW127902   1.041   5.393   2.448
 9001SOL    HW227903   1.119   5.536   2.442
 9002SOL     OW27904   0.686   4.534   0.431
 9002SOL    HW127905   0.683   4.516   0.529
 9002SOL    HW227906   0.779   4.520   0.397
 9003SOL     OW27907   5.605   0.883   1.526
 9003SOL    HW127908   5.509   0.855   1.536
 9003SOL    HW227909   5.627   0.889   1.429
 9004SOL     OW27910   3.989   4.948   0.751
 9004SOL    HW127911   4.086   4.936   0.732
 9004SOL    HW227912   3.955   4.872   0.806
 9005SOL     OW27913   5.221   1.505   5.256
 9005SOL    HW127914   5.267   1.416   5.249
 9005SOL    HW227915   5.149   1.510   5.187
 9006SOL     OW27916   3.635   5.838   0.478
 9006SOL    HW127917   3.595   5.758   0.523
 9006SOL    HW227918   3.607   5.921   0.527
 9007SOL     OW27919   2.602   1.135   2.767
 9007SOL    HW127920   2.643   1.224   2.787
 9007SOL    HW227921   2.607   1.117   2.668
 9008SOL     OW27922   0.237   5.487   2.887
 9008SOL    HW127923   0.277   5.564   2.838
 9008SOL    HW227924   0.245   5.502   2.986
 9009SOL     OW27925   4.294   5.802   0.843
 9009SOL    HW127926   4.257   5.816   0.751
 9009SOL    HW227927   4.237   5.737   0.892
 9010SOL     OW27928   1.677   6.252   3.982
 9010SOL    HW127929   1.744   6.271   4.055
 9010SOL    HW227930   1.725   6.248   3.894
 9011SOL     OW27931   3.042   1.302   2.394
 9011SOL    HW127932   2.953   1.303   2.349
 9011SOL    HW227933   3.050   1.381   2.454
 9012SOL     OW27934   1.635   6.374   6.411
 9012SOL    HW127935   1.685   6.451   6.451
 9012SOL    HW227936   1.681   6.289   6.434
 9013SOL     OW27937   1.532   6.459   4.041
 9013SOL    HW127938   1.586   6.533   4.081
 9013SOL    HW227939   1.591   6.379   4.025
 9014SOL     OW27940   5.612   2.812   3.088
 9014SOL    HW127941   5.522   2.855   3.100
 9014SOL    HW227942   5.623   2.738   3.154
 9015SOL     OW27943   5.245   1.676   6.844
 9015SOL    HW127944   5.291   1.629   6.919
 9015SOL    HW227945   5.213   1.608   6.778
 9016SOL     OW27946   5.573   5.268   6.127
 9016SOL    HW127947   5.597   5.278   6.031
 9016SOL    HW227948   5.613   5.344   6.180
 9017SOL     OW27949   3.819   0.809   4.419
 9017SOL    HW127950   3.756   0.885   4.405
 9017SOL    HW227951   3.848   0.808   4.515
 9018SOL     OW27952   4.158   3.973   6.331
 9018SOL    HW127953   4.148   4.025   6.247
 9018SOL    HW227954   4.235   4.009   6.384
 9019SOL     OW27955   0.589   3.541   3.589
 9019SOL    HW127956   0.505   3.504   3.629
 9019SOL    HW227957   0.666   3.522   3.651
 9020SOL     OW27958   6.231   6.529   2.171
 9020SOL    HW127959   6.165   6.546   2.098
 9020SOL    HW227960   6.302   6.466   2.137
 9021SOL     OW27961   0.156   0.509   4.111
 9021SOL    HW127962   0.150   0.519   4.011
 9021SOL    HW227963   0.108   0.426   4.139
 9022SOL     OW27964   4.348   2.773   6.379
 9022SOL    HW127965   4.301   2.686   6.364
 9022SOL    HW227966   4.347   2.795   6.476
 9023SOL     OW27967   5.266   3.740   0.734
 9023SOL    HW127968   5.256   3.752   0.833
 9023SOL    HW227969   5.186   3.778   0.688
 9024SOL     OW27970   1.676   5.159   6.057
 9024SOL    HW127971   1.773   5.140   6.041
 9024SOL    HW227972   1.646   5.111   6.139
 9025SOL     OW27973   1.018   5.446   0.985
 9025SOL    HW127974   1.018   5.352   1.016
 9025SOL    HW227975   1.108   5.487   1.000
 9026SOL     OW27976   4.134   1.485   0.226
 9026SOL    HW127977   4.192   1.529   0.157
 9026SOL    HW227978   4.131   1.387   0.208
 9027SOL     OW27979   0.492   4.130   3.176
 9027SOL    HW127980   0.468   4.058   3.241
 9027SOL    HW227981   0.586   4.117   3.145
 9028SOL     OW27982   3.745   4.287   5.512
 9028SOL    HW127983   3.802   4.350   5.566
 9028SOL    HW227984   3.791   4.198   5.506
 9029SOL     OW27985   4.099   6.538   4.872
 9029SOL    HW127986   4.166   6.512   4.941
 9029SOL    HW227987   4.015   6.487   4.885
 9030SOL     OW27988   2.524   1.922   2.966
 9030SOL    HW127989   2.484   2.013   2.972
 9030SOL    HW227990   2.606   1.918   3.023
 9031SOL     OW27991   4.315   0.027   4.886
 9031SOL    HW127992   4.374   7.003   4.818
 9031SOL    HW227993   4.370   0.057   4.964
 9032SOL     OW27994   4.782   3.981   1.739
 9032SOL    HW127995   4.772   3.881   1.742
 9032SOL    HW227996   4.832   4.012   1.820
 9033SOL     OW27997   0.743   6.184   3.218
 9033SOL    HW127998   0.827   6.153   3.175
 9033SOL    HW227999   0.764   6.244   3.295
 9034SOL     OW28000   3.777   6.240   4.105
 9034SOL    HW128001   3.794   6.187   4.022
 9034SOL    HW228002   3.864   6.275   4.142
 9035SOL     OW28003   1.172   4.801   0.024
 9035SOL    HW128004   1.151   4.895   7.018
 9035SOL    HW228005   1.245   4.799   0.093
 9036SOL     OW28006   1.523   3.899   5.366
 9036SOL    HW128007   1.524   3.877   5.463
 9036SOL    HW228008   1.503   3.816   5.313
 9037SOL     OW28009   0.798   1.753   2.864
 9037SOL    HW128010   0.714   1.747   2.917
 9037SOL    HW228011   0.845   1.838   2.885
 9038SOL     OW28012   4.193   3.797   5.361
 9038SOL    HW128013   4.267   3.733   5.344
 9038SOL    HW228014   4.226   3.891   5.347
 9039SOL     OW28015   3.788   5.750   6.992
 9039SOL    HW128016   3.883   5.729   0.000
 9039SOL    HW228017   3.726   5.692   0.026
 9040SOL     OW28018   2.627   1.610   1.064
 9040SOL    HW128019   2.613   1.577   1.158
 9040SOL    HW228020   2.619   1.709   1.062
 9041SOL     OW28021   6.862   2.087   1.752
 9041SOL    HW128022   6.793   2.143   1.799
 9041SOL    HW228023   6.826   2.056   1.665
 9042SOL     OW28024   3.683   6.105   6.837
 9042SOL    HW128025   3.610   6.137   6.897
 9042SOL    HW228026   3.652   6.110   6.742
 9043SOL     OW28027   3.243   1.754   0.292
 9043SOL    HW128028   3.213   1.726   0.201
 9043SOL    HW228029   3.167   1.799   0.340
 9044SOL     OW28030   0.560   0.806   6.948
 9044SOL    HW128031   0.568   0.881   6.881
 9044SOL    HW228032   0.583   0.840   0.021
 9045SOL     OW28033   3.991   1.572   3.605
 9045SOL    HW128034   3.935   1.524   3.538
 9045SOL    HW228035   4.087   1.550   3.590
 9046SOL     OW28036   3.447   3.786   2.626
 9046SOL    HW128037   3.446   3.762   2.723
 9046SOL    HW228038   3.376   3.734   2.578
 9047SOL     OW28039   1.641   3.685   6.083
 9047SOL    HW128040   1.646   3.672   5.984
 9047SOL    HW228041   1.647   3.783   6.104
 9048SOL     OW28042   6.314   2.213   6.060
 9048SOL    HW128043   6.369   2.182   6.137
 9048SOL    HW228044   6.299   2.136   5.997
 9049SOL     OW28045   3.344   6.590   6.556
 9049SOL    HW128046   3.355   6.605   6.457
 9049SOL    HW228047   3.263   6.640   6.588
 9050SOL     OW28048   0.352   5.009   0.128
 9050SOL    HW128049   0.347   5.026   0.226
 9050SOL    HW228050   0.445   4.980   0.104
 9051SOL     OW28051   2.608   1.178   1.283
 9051SOL    HW128052   2.511   1.203   1.285
 9051SOL    HW228053   2.628   1.120   1.362
 9052SOL     OW28054   1.462   2.686   5.321
 9052SOL    HW128055   1.488   2.744   5.245
 9052SOL    HW228056   1.533   2.689   5.392
 9053SOL     OW28057   1.998   0.892   0.301
 9053SOL    HW128058   1.908   0.880   0.260
 9053SOL    HW228059   2.005   0.834   0.382
 9054SOL     OW28060   2.271   5.575   3.203
 9054SOL    HW128061   2.275   5.524   3.117
 9054SOL    HW228062   2.304   5.669   3.188
 9055SOL     OW28063   0.275   4.145   4.552
 9055SOL    HW128064   0.202   4.184   4.608
 9055SOL    HW228065   0.240   4.066   4.502
 9056SOL     OW28066   6.373   2.472   2.947
 9056SOL    HW128067   6.323   2.385   2.951
 9056SOL    HW228068   6.320   2.543   2.993
 9057SOL     OW28069   3.966   1.936   4.259
 9057SOL    HW128070   3.954   1.840   4.232
 9057SOL    HW228071   3.950   1.945   4.357
 9058SOL     OW28072   2.024   0.795   5.710
 9058SOL    HW128073   1.981   0.883   5.730
 9058SOL    HW228074   1.987   0.758   5.625
 9059SOL     OW28075   1.205   1.888   3.376
 9059SOL    HW128076   1.300   1.914   3.359
 9059SOL    HW228077   1.145   1.965   3.352
 9060SOL     OW28078   5.130   2.613   5.467
 9060SOL    HW128079   5.122   2.611   5.368
 9060SOL    HW228080   5.060   2.554   5.508
 9061SOL     OW28081   3.719   5.861   3.257
 9061SOL    HW128082   3.634   5.906   3.226
 9061SOL    HW228083   3.697   5.771   3.295
 9062SOL     OW28084   1.948   5.675   1.105
 9062SOL    HW128085   2.046   5.694   1.113
 9062SOL    HW228086   1.936   5.580   1.076
 9063SOL     OW28087   3.212   1.292   2.175
 9063SOL    HW128088   3.183   1.294   2.270
 9063SOL    HW228089   3.152   1.230   2.123
 9064SOL     OW28090   5.906   3.583   0.353
 9064SOL    HW128091   5.946   3.503   0.310
 9064SOL    HW228092   5.849   3.632   0.287
 9065SOL     OW28093   2.355   1.244   0.073
 9065SOL    HW128094   2.395   1.196   0.151
 9065SOL    HW228095   2.367   1.343   0.085
 9066SOL     OW28096   4.832   6.898   0.357
 9066SOL    HW128097   4.766   6.920   0.429
 9066SOL    HW228098   4.924   6.895   0.395
 9067SOL     OW28099   1.464   6.410   2.542
 9067SOL    HW128100   1.379   6.373   2.578
 9067SOL    HW228101   1.522   6.441   2.618
 9068SOL     OW28102   1.648   6.204   7.004
 9068SOL    HW128103   1.640   6.110   6.971
 9068SOL    HW228104   1.559   6.249   7.000
 9069SOL     OW28105   1.582   2.211   6.566
 9069SOL    HW128106   1.498   2.157   6.555
 9069SOL    HW228107   1.596   2.267   6.484
 9070SOL     OW28108   1.271   4.101   3.490
 9070SOL    HW128109   1.196   4.050   3.447
 9070SOL    HW228110   1.270   4.084   3.588
 9071SOL     OW28111   4.727   6.560   0.358
 9071SOL    HW128112   4.704   6.603   0.271
 9071SOL    HW228113   4.688   6.613   0.433
 9072SOL     OW28114   5.172   5.429   6.856
 9072SOL    HW128115   5.173   5.501   6.926
 9072SOL    HW228116   5.192   5.341   6.899
 9073SOL     OW28117   1.951   0.668   1.783
 9073SOL    HW128118   1.998   0.729   1.719
 9073SOL    HW228119   1.871   0.628   1.738
 9074SOL     OW28120   0.970   6.988   3.270
 9074SOL    HW128121   0.935   0.014   3.352
 9074SOL    HW228122   1.041   0.027   3.229
 9075SOL     OW28123   0.901   0.879   2.630
 9075SOL    HW128124   0.997   0.866   2.605
 9075SOL    HW228125   0.864   0.959   2.583
 9076SOL     OW28126   6.602   1.453   5.237
 9076SOL    HW128127   6.611   1.549   5.266
 9076SOL    HW228128   6.517   1.416   5.272
 9077SOL     OW28129   6.045   6.675   1.935
 9077SOL    HW128130   5.975   6.614   1.973
 9077SOL    HW228131   6.009   6.718   1.852
 9078SOL     OW28132   3.286   2.994   4.810
 9078SOL    HW128133   3.328   2.908   4.836
 9078SOL    HW228134   3.247   2.986   4.718
 9079SOL     OW28135   3.849   0.455   6.127
 9079SOL    HW128136   3.834   0.554   6.123
 9079SOL    HW228137   3.924   0.435   6.189
 9080SOL     OW28138   4.939   1.570   0.853
 9080SOL    HW128139   4.901   1.605   0.767
 9080SOL    HW228140   5.032   1.538   0.837
 9081SOL     OW28141   5.515   0.139   2.259
 9081SOL    HW128142   5.602   0.095   2.235
 9081SOL    HW228143   5.495   0.211   2.192
 9082SOL     OW28144   3.069   1.043   3.416
 9082SOL    HW128145   3.146   1.100   3.444
 9082SOL    HW228146   3.102   0.972   3.354
 9083SOL     OW28147   4.237   4.716   4.477
 9083SOL    HW128148   4.251   4.718   4.576
 9083SOL    HW228149   4.321   4.747   4.431
 9084SOL     OW28150   3.646   3.426   2.953
 9084SOL    HW128151   3.650   3.479   2.868
 9084SOL    HW228152   3.595   3.342   2.937
 9085SOL     OW28153   1.396   1.822   0.743
 9085SOL    HW128154   1.465   1.753   0.767
 9085SOL    HW228155   1.440   1.895   0.690
 9086SOL     OW28156   0.212   3.859   0.518
 9086SOL    HW128157   0.119   3.887   0.492
 9086SOL    HW228158   0.238   3.778   0.465
 9087SOL     OW28159   4.660   3.773   1.607
 9087SOL    HW128160   4.703   3.849   1.559
 9087SOL    HW228161   4.663   3.691   1.550
 9088SOL     OW28162   5.392   6.577   0.971
 9088SOL    HW128163   5.341   6.661   0.952
 9088SOL    HW228164   5.434   6.544   0.887
 9089SOL     OW28165   4.240   0.038   6.030
 9089SOL    HW128166   4.335   0.031   5.999
 9089SOL    HW228167   4.220   6.985   6.097
 9090SOL     OW28168   5.868   1.430   3.810
 9090SOL    HW128169   5.956   1.440   3.763
 9090SOL    HW228170   5.870   1.348   3.867
 9091SOL     OW28171   2.998   2.777   6.766
 9091SOL    HW128172   2.928   2.846   6.784
 9091SOL    HW228173   3.066   2.778   6.840
 9092SOL     OW28174   0.011   2.753   6.351
 9092SOL    HW128175   0.063   2.790   6.273
 9092SOL    HW228176   6.977   2.826   6.394
 9093SOL     OW28177   1.745   6.374   5.342
 9093SOL    HW128178   1.787   6.371   5.433
 9093SOL    HW228179   1.779   6.298   5.286
 9094SOL     OW28180   0.831   3.682   1.837
 9094SOL    HW128181   0.905   3.668   1.771
 9094SOL    HW228182   0.838   3.775   1.875
 9095SOL     OW28183   6.759   6.458   5.401
 9095SOL    HW128184   6.752   6.387   5.471
 9095SOL    HW228185   6.702   6.433   5.323
 9096SOL     OW28186   6.686   5.352   3.681
 9096SOL    HW128187   6.683   5.441   3.637
 9096SOL    HW228188   6.688   5.363   3.780
 9097SOL     OW28189   1.351   2.048   6.440
 9097SOL    HW128190   1.271   2.049   6.500
 9097SOL    HW228191   1.351   1.964   6.386
 9098SOL     OW28192   2.132   4.493   3.979
 9098SOL    HW128193   2.204   4.538   4.031
 9098SOL    HW228194   2.140   4.394   3.990
 9099SOL     OW28195   2.494   2.123   0.242
 9099SOL    HW128196   2.499   2.222   0.244
 9099SOL    HW228197   2.526   2.086   0.330
 9100SOL     OW28198   0.964   4.506   3.230
 9100SOL    HW128199   1.018   4.538   3.309
 9100SOL    HW228200   1.017   4.438   3.179
 9101SOL     OW28201   1.199   2.493   0.429
 9101SOL    HW128202   1.230   2.584   0.457
 9101SOL    HW228203   1.244   2.423   0.485
 9102SOL     OW28204   3.871   6.871   2.977
 9102SOL    HW128205   3.939   6.915   2.918
 9102SOL    HW228206   3.918   6.818   3.048
 9103SOL     OW28207   6.486   0.814   1.003
 9103SOL    HW128208   6.572   0.822   0.953
 9103SOL    HW228209   6.505   0.808   1.101
 9104SOL     OW28210   5.851   2.083   6.101
 9104SOL    HW128211   5.920   2.154   6.117
 9104SOL    HW228212   5.858   2.050   6.007
 9105SOL     OW28213   1.880   1.148   5.337
 9105SOL    HW128214   1.799   1.093   5.314
 9105SOL    HW228215   1.855   1.217   5.405
 9106SOL     OW28216   1.415   3.669   7.006
 9106SOL    HW128217   1.331   3.659   0.041
 9106SOL    HW228218   1.492   3.631   0.039
 9107SOL     OW28219   2.947   1.737   0.438
 9107SOL    HW128220   2.925   1.688   0.523
 9107SOL    HW228221   2.927   1.834   0.450
 9108SOL     OW28222   5.875   5.480   6.021
 9108SOL    HW128223   5.816   5.425   5.963
 9108SOL    HW228224   5.858   5.457   6.117
 9109SOL     OW28225   5.846   3.856   2.515
 9109SOL    HW128226   5.917   3.822   2.577
 9109SOL    HW228227   5.758   3.817   2.541
 9110SOL     OW28228   2.307   5.775   3.442
 9110SOL    HW128229   2.215   5.804   3.414
 9110SOL    HW228230   2.336   5.697   3.385
 9111SOL     OW28231   4.266   2.497   6.338
 9111SOL    HW128232   4.225   2.506   6.429
 9111SOL    HW228233   4.279   2.400   6.317
 9112SOL     OW28234   0.812   5.052   1.181
 9112SOL    HW128235   0.790   5.078   1.275
 9112SOL    HW228236   0.888   5.108   1.147
 9113SOL     OW28237   5.869   1.015   4.061
 9113SOL    HW128238   5.843   0.929   4.105
 9113SOL    HW228239   5.967   1.029   4.071
 9114SOL     OW28240   1.489   6.077   5.772
 9114SOL    HW128241   1.532   6.152   5.822
 9114SOL    HW228242   1.532   6.068   5.683
 9115SOL     OW28243   4.740   4.402   4.599
 9115SOL    HW128244   4.753   4.313   4.555
 9115SOL    HW228245   4.655   4.400   4.652
 9116SOL     OW28246   1.924   0.481   3.002
 9116SOL    HW128247   1.865   0.550   2.960
 9116SOL    HW228248   1.898   0.390   2.968
 9117SOL     OW28249   2.354   6.094   0.266
 9117SOL    HW128250   2.420   6.030   0.306
 9117SOL    HW228251   2.389   6.188   0.278
 9118SOL     OW28252   6.541   4.093   2.306
 9118SOL    HW128253   6.517   4.088   2.403
 9118SOL    HW228254   6.633   4.057   2.292
 9119SOL     OW28255   3.224   0.123   0.068
 9119SOL    HW128256   3.222   0.071   0.154
 9119SOL    HW228257   3.214   0.221   0.088
 9120SOL     OW28258   6.630   3.824   4.489
 9120SOL    HW128259   6.567   3.790   4.419
 9120SOL    HW228260   6.653   3.919   4.470
 9121SOL     OW28261   3.936   0.558   4.734
 9121SOL    HW128262   3.944   0.521   4.827
 9121SOL    HW228263   3.920   0.483   4.670
 9122SOL     OW28264   1.161   3.652   1.628
 9122SOL    HW128265   1.218   3.727   1.595
 9122SOL    HW228266   1.219   3.572   1.646
 9123SOL     OW28267   6.516   6.637   4.266
 9123SOL    HW128268   6.506   6.689   4.351
 9123SOL    HW228269   6.426   6.609   4.232
 9124SOL     OW28270   2.739   4.962   0.539
 9124SOL    HW128271   2.639   4.968   0.541
 9124SOL    HW228272   2.769   4.890   0.601
 9125SOL     OW28273   5.407   6.395   1.761
 9125SOL    HW128274   5.437   6.349   1.845
 9125SOL    HW228275   5.429   6.338   1.682
 9126SOL     OW28276   4.470   4.530   1.162
 9126SOL    HW128277   4.396   4.463   1.173
 9126SOL    HW228278   4.519   4.540   1.249
 9127SOL     OW28279   6.677   4.985   5.258
 9127SOL    HW128280   6.689   4.894   5.297
 9127SOL    HW228281   6.683   5.054   5.330
 9128SOL     OW28282   5.934   4.129   5.849
 9128SOL    HW128283   5.856   4.113   5.788
 9128SOL    HW228284   6.005   4.061   5.832
 9129SOL     OW28285   1.343   2.649   0.897
 9129SOL    HW128286   1.361   2.692   0.986
 9129SOL    HW228287   1.251   2.675   0.866
 9130SOL     OW28288   2.820   3.448   5.107
 9130SOL    HW128289   2.882   3.386   5.058
 9130SOL    HW228290   2.798   3.409   5.196
 9131SOL     OW28291   4.687   2.499   0.352
 9131SOL    HW128292   4.726   2.589   0.331
 9131SOL    HW228293   4.608   2.511   0.413
 9132SOL     OW28294   0.728   3.767   3.883
 9132SOL    HW128295   0.628   3.777   3.878
 9132SOL    HW228296   0.752   3.728   3.972
 9133SOL     OW28297   5.693   0.508   0.971
 9133SOL    HW128298   5.602   0.526   1.008
 9133SOL    HW228299   5.713   0.574   0.899
 9134SOL     OW28300   5.072   5.018   0.927
 9134SOL    HW128301   5.050   5.017   1.024
 9134SOL    HW228302   5.127   5.099   0.906
 9135SOL     OW28303   6.244   6.639   2.955
 9135SOL    HW128304   6.155   6.666   2.991
 9135SOL    HW228305   6.261   6.687   2.869
 9136SOL     OW28306   6.563   4.540   0.280
 9136SOL    HW128307   6.630   4.478   0.322
 9136SOL    HW228308   6.602   4.631   0.273
 9137SOL     OW28309   5.276   6.606   5.560
 9137SOL    HW128310   5.251   6.533   5.495
 9137SOL    HW228311   5.375   6.622   5.554
 9138SOL     OW28312   2.153   3.501   0.041
 9138SOL    HW128313   2.185   3.550   6.977
 9138SOL    HW228314   2.102   3.420   0.014
 9139SOL     OW28315   6.501   0.303   1.074
 9139SOL    HW128316   6.545   0.304   0.984
 9139SOL    HW228317   6.550   0.239   1.134
 9140SOL     OW28318   2.152   3.698   2.847
 9140SOL    HW128319   2.175   3.606   2.877
 9140SOL    HW228320   2.092   3.742   2.914
 9141SOL     OW28321   6.973   5.461   4.965
 9141SOL    HW128322   6.967   5.364   4.940
 9141SOL    HW228323   6.958   5.517   4.884
 9142SOL     OW28324   0.836   4.807   4.399
 9142SOL    HW128325   0.812   4.804   4.496
 9142SOL    HW228326   0.871   4.898   4.377
 9143SOL     OW28327   6.652   4.371   2.702
 9143SOL    HW128328   6.670   4.334   2.793
 9143SOL    HW228329   6.583   4.442   2.708
 9144SOL     OW28330   3.072   4.450   5.383
 9144SOL    HW128331   3.010   4.495   5.318
 9144SOL    HW228332   3.061   4.350   5.374
 9145SOL     OW28333   1.382   5.733   5.783
 9145SOL    HW128334   1.370   5.832   5.789
 9145SOL    HW228335   1.479   5.711   5.775
 9146SOL     OW28336   5.637   2.824   3.548
 9146SOL    HW128337   5.649   2.760   3.623
 9146SOL    HW228338   5.608   2.774   3.466
 9147SOL     OW28339   4.149   0.300   5.357
 9147SOL    HW128340   4.078   0.305   5.427
 9147SOL    HW228341   4.115   0.249   5.278
 9148SOL     OW28342   5.445   5.608   1.558
 9148SOL    HW128343   5.530   5.560   1.537
 9148SOL    HW228344   5.378   5.589   1.487
 9149SOL     OW28345   0.498   3.829   0.699
 9149SOL    HW128346   0.532   3.754   0.757
 9149SOL    HW228347   0.421   3.796   0.646
 9150SOL     OW28348   2.462   3.599   7.018
 9150SOL    HW128349   2.438   3.620   0.095
 9150SOL    HW228350   2.552   3.637   6.997
 9151SOL     OW28351   1.680   2.897   4.025
 9151SOL    HW128352   1.606   2.868   4.086
 9151SOL    HW228353   1.768   2.878   4.067
 9152SOL     OW28354   1.981   4.069   2.717
 9152SOL    HW128355   1.985   3.980   2.670
 9152SOL    HW228356   1.997   4.142   2.651
 9153SOL     OW28357   0.644   2.934   6.253
 9153SOL    HW128358   0.730   2.921   6.303
 9153SOL    HW228359   0.575   2.971   6.315
 9154SOL     OW28360   5.368   4.733   3.179
 9154SOL    HW128361   5.337   4.640   3.197
 9154SOL    HW228362   5.420   4.767   3.258
 9155SOL     OW28363   1.105   5.954   2.300
 9155SOL    HW128364   1.155   5.882   2.251
 9155SOL    HW228365   1.085   6.029   2.237
 9156SOL     OW28366   0.002   3.321   6.028
 9156SOL    HW128367   6.999   3.417   6.008
 9156SOL    HW228368   0.076   3.290   5.967
 9157SOL     OW28369   1.773   4.906   5.818
 9157SOL    HW128370   1.690   4.927   5.870
 9157SOL    HW228371   1.751   4.837   5.749
 9158SOL     OW28372   6.885   4.071   4.591
 9158SOL    HW128373   6.894   4.148   4.528
 9158SOL    HW228374   6.838   4.101   4.674
 9159SOL     OW28375   2.461   1.105   3.657
 9159SOL    HW128376   2.493   1.055   3.577
 9159SOL    HW228377   2.533   1.105   3.727
 9160SOL     OW28378   1.385   3.691   0.446
 9160SOL    HW128379   1.332   3.743   0.379
 9160SOL    HW228380   1.333   3.683   0.531
 9161SOL     OW28381   6.317   3.821   2.549
 9161SOL    HW128382   6.289   3.877   2.627
 9161SOL    HW228383   6.280   3.861   2.465
 9162SOL     OW28384   3.867   2.423   1.721
 9162SOL    HW128385   3.908   2.339   1.685
 9162SOL    HW228386   3.788   2.400   1.777
 9163SOL     OW28387   2.602   2.109   4.049
 9163SOL    HW128388   2.648   2.031   4.092
 9163SOL    HW228389   2.581   2.178   4.118
 9164SOL     OW28390   2.354   6.504   6.537
 9164SOL    HW128391   2.401   6.434   6.590
 9164SOL    HW228392   2.291   6.460   6.472
 9165SOL     OW28393   5.418   1.935   5.952
 9165SOL    HW128394   5.385   2.016   5.905
 9165SOL    HW228395   5.418   1.951   6.051
 9166SOL     OW28396   4.715   6.423   1.741
 9166SOL    HW128397   4.773   6.503   1.725
 9166SOL    HW228398   4.694   6.416   1.839
 9167SOL     OW28399   1.429   1.162   4.350
 9167SOL    HW128400   1.369   1.211   4.286
 9167SOL    HW228401   1.517   1.146   4.306
 9168SOL     OW28402   6.918   6.192   5.154
 9168SOL    HW128403   6.904   6.275   5.100
 9168SOL    HW228404   7.014   6.165   5.150
 9169SOL     OW28405   6.849   5.856   0.913
 9169SOL    HW128406   6.903   5.779   0.878
 9169SOL    HW228407   6.817   5.835   1.005
 9170SOL     OW28408   1.452   0.864   5.495
 9170SOL    HW128409   1.511   0.798   5.449
 9170SOL    HW228410   1.367   0.820   5.522
 9171SOL     OW28411   3.460   5.127   6.871
 9171SOL    HW128412   3.492   5.192   6.803
 9171SOL    HW228413   3.501   5.037   6.853
 9172SOL     OW28414   4.679   1.866   5.149
 9172SOL    HW128415   4.650   1.773   5.168
 9172SOL    HW228416   4.639   1.897   5.062
 9173SOL     OW28417   5.636   3.698   5.066
 9173SOL    HW128418   5.577   3.654   5.134
 9173SOL    HW228419   5.720   3.645   5.055
 9174SOL     OW28420   6.828   4.709   1.387
 9174SOL    HW128421   6.749   4.658   1.419
 9174SOL    HW228422   6.880   4.745   1.465
 9175SOL     OW28423   2.048   6.935   1.125
 9175SOL    HW128424   2.111   7.013   1.120
 9175SOL    HW228425   2.086   6.866   1.187
 9176SOL     OW28426   1.526   1.071   2.040
 9176SOL    HW128427   1.462   1.065   2.116
 9176SOL    HW228428   1.550   1.167   2.023
 9177SOL     OW28429   0.645   6.708   3.838
 9177SOL    HW128430   0.689   6.789   3.877
 9177SOL    HW228431   0.617   6.647   3.912
 9178SOL     OW28432   1.217   4.739   1.134
 9178SOL    HW128433   1.205   4.643   1.107
 9178SOL    HW228434   1.208   4.747   1.233
 9179SOL     OW28435   3.709   5.158   3.983
 9179SOL    HW128436   3.612   5.179   3.967
 9179SOL    HW228437   3.718   5.061   4.007
 9180SOL     OW28438   0.046   1.326   5.369
 9180SOL    HW128439   6.973   1.359   5.347
 9180SOL    HW228440   0.041   1.229   5.395
 9181SOL     OW28441   2.558   2.094   3.648
 9181SOL    HW128442   2.477   2.147   3.627
 9181SOL    HW228443   2.620   2.094   3.569
 9182SOL     OW28444   0.582   1.777   2.217
 9182SOL    HW128445   0.656   1.768   2.150
 9182SOL    HW228446   0.575   1.872   2.247
 9183SOL     OW28447   1.877   1.398   6.129
 9183SOL    HW128448   1.856   1.393   6.227
 9183SOL    HW228449   1.961   1.450   6.116
 9184SOL     OW28450   3.218   3.720   1.018
 9184SOL    HW128451   3.274   3.672   1.086
 9184SOL    HW228452   3.145   3.770   1.063
 9185SOL     OW28453   1.525   0.413   5.992
 9185SOL    HW128454   1.438   0.403   6.039
 9185SOL    HW228455   1.591   0.458   6.053
 9186SOL     OW28456   4.669   0.191   6.670
 9186SOL    HW128457   4.648   0.181   6.573
 9186SOL    HW228458   4.587   0.172   6.724
 9187SOL     OW28459   5.570   2.684   0.730
 9187SOL    HW128460   5.662   2.713   0.754
 9187SOL    HW228461   5.529   2.752   0.670
 9188SOL     OW28462   1.872   0.503   1.560
 9188SOL    HW128463   1.862   0.595   1.522
 9188SOL    HW228464   1.829   0.437   1.499
 9189SOL     OW28465   3.517   0.398   5.671
 9189SOL    HW128466   3.527   0.330   5.598
 9189SOL    HW228467   3.520   0.352   5.760
 9190SOL     OW28468   4.621   0.961   5.108
 9190SOL    HW128469   4.589   1.041   5.057
 9190SOL    HW228470   4.601   0.974   5.205
 9191SOL     OW28471   5.551   6.981   1.905
 9191SOL    HW128472   5.511   0.045   1.864
 9191SOL    HW228473   5.641   6.965   1.865
 9192SOL     OW28474   4.894   3.490   4.350
 9192SOL    HW128475   4.901   3.471   4.448
 9192SOL    HW228476   4.838   3.419   4.306
 9193SOL     OW28477   3.906   3.274   3.186
 9193SOL    HW128478   3.915   3.222   3.101
 9193SOL    HW228479   3.810   3.288   3.207
 9194SOL     OW28480   3.703   4.900   2.781
 9194SOL    HW128481   3.606   4.903   2.803
 9194SOL    HW228482   3.748   4.984   2.814
 9195SOL     OW28483   0.468   2.731   2.787
 9195SOL    HW128484   0.559   2.725   2.744
 9195SOL    HW228485   0.446   2.643   2.830
 9196SOL     OW28486   4.880   6.869   4.184
 9196SOL    HW128487   4.879   6.913   4.094
 9196SOL    HW228488   4.789   6.832   4.204
 9197SOL     OW28489   4.429   1.678   6.033
 9197SOL    HW128490   4.358   1.638   5.975
 9197SOL    HW228491   4.389   1.704   6.121
 9198SOL     OW28492   6.210   2.302   5.339
 9198SOL    HW128493   6.289   2.304   5.277
 9198SOL    HW228494   6.206   2.213   5.384
 9199SOL     OW28495   1.422   3.075   5.951
 9199SOL    HW128496   1.458   3.153   6.003
 9199SOL    HW228497   1.462   2.990   5.986
 9200SOL     OW28498   5.202   5.910   0.682
 9200SOL    HW128499   5.254   5.963   0.615
 9200SOL    HW228500   5.159   5.832   0.636
 9201SOL     OW28501   0.687   4.204   2.708
 9201SOL    HW128502   0.730   4.232   2.622
 9201SOL    HW228503   0.649   4.112   2.698
 9202SOL     OW28504   2.445   5.967   3.946
 9202SOL    HW128505   2.473   6.003   3.857
 9202SOL    HW228506   2.392   6.036   3.995
 9203SOL     OW28507   5.049   0.836   0.283
 9203SOL    HW128508   4.982   0.814   0.354
 9203SOL    HW228509   5.103   0.916   0.312
 9204SOL     OW28510   5.112   4.207   2.631
 9204SOL    HW128511   5.108   4.302   2.600
 9204SOL    HW228512   5.026   4.182   2.674
 9205SOL     OW28513   4.502   2.528   1.745
 9205SOL    HW128514   4.599   2.546   1.731
 9205SOL    HW228515   4.486   2.508   1.842
 9206SOL     OW28516   6.649   5.999   4.138
 9206SOL    HW128517   6.665   5.930   4.067
 9206SOL    HW228518   6.705   6.080   4.119
 9207SOL     OW28519   3.901   5.987   6.706
 9207SOL    HW128520   3.893   5.895   6.670
 9207SOL    HW228521   3.817   6.011   6.755
 9208SOL     OW28522   4.253   4.106   1.643
 9208SOL    HW128523   4.325   4.129   1.708
 9208SOL    HW228524   4.185   4.179   1.643
 9209SOL     OW28525   4.053   0.416   2.843
 9209SOL    HW128526   4.042   0.325   2.804
 9209SOL    HW228527   4.132   0.417   2.904
 9210SOL     OW28528   1.286   6.895   0.421
 9210SOL    HW128529   1.188   6.884   0.431
 9210SOL    HW228530   1.305   6.981   0.373
 9211SOL     OW28531   5.088   1.473   6.173
 9211SOL    HW128532   5.069   1.551   6.114
 9211SOL    HW228533   5.165   1.421   6.136
 9212SOL     OW28534   5.633   4.408   5.466
 9212SOL    HW128535   5.588   4.370   5.386
 9212SOL    HW228536   5.664   4.334   5.525
 9213SOL     OW28537   6.407   6.423   2.003
 9213SOL    HW128538   6.384   6.504   1.949
 9213SOL    HW228539   6.389   6.341   1.948
 9214SOL     OW28540   2.033   1.943   5.859
 9214SOL    HW128541   2.004   1.877   5.789
 9214SOL    HW228542   2.076   2.021   5.814
 9215SOL     OW28543   0.209   3.657   3.374
 9215SOL    HW128544   0.171   3.597   3.303
 9215SOL    HW228545   0.159   3.645   3.459
 9216SOL     OW28546   2.607   5.897   3.233
 9216SOL    HW128547   2.613   5.969   3.164
 9216SOL    HW228548   2.641   5.933   3.321
 9217SOL     OW28549   3.994   1.413   6.842
 9217SOL    HW128550   4.055   1.492   6.855
 9217SOL    HW228551   3.900   1.441   6.862
 9218SOL     OW28552   5.545   5.381   6.702
 9218SOL    HW128553   5.483   5.337   6.637
 9218SOL    HW228554   5.525   5.347   6.794
 9219SOL     OW28555   3.102   2.466   5.606
 9219SOL    HW128556   3.172   2.487   5.538
 9219SOL    HW228557   3.029   2.413   5.563
 9220SOL     OW28558   0.341   6.341   3.139
 9220SOL    HW128559   0.355   6.368   3.234
 9220SOL    HW228560   0.319   6.244   3.134
 9221SOL     OW28561   2.863   1.487   1.070
 9221SOL    HW128562   2.778   1.532   1.044
 9221SOL    HW228563   2.920   1.550   1.123
 9222SOL     OW28564   1.751   4.666   4.644
 9222SOL    HW128565   1.736   4.575   4.604
 9222SOL    HW228566   1.789   4.726   4.574
 9223SOL     OW28567   6.957   3.425   4.614
 9223SOL    HW128568   7.000   3.489   4.550
 9223SOL    HW228569   6.911   3.353   4.563
 9224SOL     OW28570   2.157   4.785   2.815
 9224SOL    HW128571   2.236   4.741   2.857
 9224SOL    HW228572   2.188   4.844   2.739
 9225SOL     OW28573   6.196   5.314   6.103
 9225SOL    HW128574   6.249   5.251   6.046
 9225SOL    HW228575   6.164   5.391   6.046
 9226SOL     OW28576   1.308   0.394   6.185
 9226SOL    HW128577   1.220   0.346   6.192
 9226SOL    HW228578   1.377   0.344   6.238
 9227SOL     OW28579   2.820   4.002   0.382
 9227SOL    HW128580   2.826   3.936   0.457
 9227SOL    HW228581   2.903   3.996   0.326
 9228SOL     OW28582   3.608   3.003   4.986
 9228SOL    HW128583   3.597   3.102   4.993
 9228SOL    HW228584   3.520   2.959   5.003
 9229SOL     OW28585   6.799   5.635   0.600
 9229SOL    HW128586   6.804   5.627   0.699
 9229SOL    HW228587   6.774   5.729   0.575
 9230SOL     OW28588   4.299   0.951   5.152
 9230SOL    HW128589   4.320   0.957   5.055
 9230SOL    HW228590   4.233   0.877   5.168
 9231SOL     OW28591   6.306   5.900   1.725
 9231SOL    HW128592   6.293   5.989   1.768
 9231SOL    HW228593   6.369   5.845   1.780
 9232SOL     OW28594   1.166   5.190   1.750
 9232SOL    HW128595   1.199   5.168   1.658
 9232SOL    HW228596   1.151   5.288   1.757
 9233SOL     OW28597   1.313   6.372   5.836
 9233SOL    HW128598   1.304   6.471   5.829
 9233SOL    HW228599   1.410   6.348   5.837
 9234SOL     OW28600   2.621   3.836   6.253
 9234SOL    HW128601   2.715   3.801   6.252
 9234SOL    HW228602   2.601   3.874   6.343
 9235SOL     OW28603   2.028   2.066   3.322
 9235SOL    HW128604   2.079   2.148   3.298
 9235SOL    HW228605   2.045   1.994   3.254
 9236SOL     OW28606   1.611   3.227   6.104
 9236SOL    HW128607   1.621   3.128   6.094
 9236SOL    HW228608   1.681   3.261   6.167
 9237SOL     OW28609   6.189   5.791   2.783
 9237SOL    HW128610   6.213   5.704   2.740
 9237SOL    HW228611   6.247   5.806   2.862
 9238SOL     OW28612   1.799   2.644   4.744
 9238SOL    HW128613   1.853   2.698   4.680
 9238SOL    HW228614   1.785   2.552   4.707
 9239SOL     OW28615   0.785   4.738   6.002
 9239SOL    HW128616   0.757   4.750   6.097
 9239SOL    HW228617   0.884   4.725   5.998
 9240SOL     OW28618   3.939   1.700   3.279
 9240SOL    HW128619   3.899   1.759   3.349
 9240SOL    HW228620   3.921   1.605   3.302
 9241SOL     OW28621   5.311   6.610   0.337
 9241SOL    HW128622   5.281   6.698   0.374
 9241SOL    HW228623   5.242   6.540   0.359
 9242SOL     OW28624   1.803   2.518   0.842
 9242SOL    HW128625   1.844   2.604   0.813
 9242SOL    HW228626   1.707   2.515   0.814
 9243SOL     OW28627   1.827   0.316   6.852
 9243SOL    HW128628   1.846   0.218   6.845
 9243SOL    HW228629   1.758   0.341   6.784
 9244SOL     OW28630   2.748   6.127   6.182
 9244SOL    HW128631   2.813   6.138   6.257
 9244SOL    HW228632   2.719   6.217   6.150
 9245SOL     OW28633   1.552   5.123   2.905
 9245SOL    HW128634   1.476   5.078   2.952
 9245SOL    HW228635   1.623   5.148   2.971
 9246SOL     OW28636   4.790   5.988   6.510
 9246SOL    HW128637   4.874   6.031   6.544
 9246SOL    HW228638   4.800   5.967   6.412
 9247SOL     OW28639   3.985   6.420   2.577
 9247SOL    HW128640   4.036   6.370   2.646
 9247SOL    HW228641   3.919   6.359   2.534
 9248SOL     OW28642   2.699   0.529   6.677
 9248SOL    HW128643   2.789   0.484   6.675
 9248SOL    HW228644   2.708   0.622   6.644
 9249SOL     OW28645   2.157   6.941   6.989
 9249SOL    HW128646   2.226   6.890   0.021
 9249SOL    HW228647   2.193   6.967   6.899
 9250SOL     OW28648   0.282   2.856   3.579
 9250SOL    HW128649   0.379   2.879   3.592
 9250SOL    HW228650   0.232   2.875   3.664
 9251SOL     OW28651   3.683   1.827   1.362
 9251SOL    HW128652   3.696   1.756   1.293
 9251SOL    HW228653   3.675   1.917   1.317
 9252SOL     OW28654   5.803   1.404   4.577
 9252SOL    HW128655   5.833   1.379   4.669
 9252SOL    HW228656   5.779   1.321   4.526
 9253SOL     OW28657   1.696   5.547   4.501
 9253SOL    HW128658   1.615   5.606   4.501
 9253SOL    HW228659   1.772   5.596   4.543
 9254SOL     OW28660   0.066   5.166   2.587
 9254SOL    HW128661   0.008   5.169   2.506
 9254SOL    HW228662   0.149   5.219   2.572
 9255SOL     OW28663   6.691   4.382   0.785
 9255SOL    HW128664   6.720   4.335   0.868
 9255SOL    HW228665   6.660   4.474   0.808
 9256SOL     OW28666   2.991   6.643   1.060
 9256SOL    HW128667   3.068   6.639   1.124
 9256SOL    HW228668   3.025   6.635   0.966
 9257SOL     OW28669   6.079   5.706   4.763
 9257SOL    HW128670   6.084   5.696   4.863
 9257SOL    HW228671   6.082   5.616   4.720
 9258SOL     OW28672   3.973   5.543   1.415
 9258SOL    HW128673   3.921   5.554   1.331
 9258SOL    HW228674   3.916   5.497   1.484
 9259SOL     OW28675   0.872   2.067   6.540
 9259SOL    HW128676   0.818   2.150   6.553
 9259SOL    HW228677   0.866   2.010   6.622
 9260SOL     OW28678   5.000   3.769   4.559
 9260SOL    HW128679   5.092   3.806   4.550
 9260SOL    HW228680   4.954   3.813   4.637
 9261SOL     OW28681   1.850   1.889   1.545
 9261SOL    HW128682   1.803   1.939   1.619
 9261SOL    HW228683   1.844   1.943   1.461
 9262SOL     OW28684   6.516   6.624   5.976
 9262SOL    HW128685   6.564   6.648   6.060
 9262SOL    HW228686   6.455   6.547   5.993
 9263SOL     OW28687   1.973   4.669   3.015
 9263SOL    HW128688   2.035   4.727   2.963
 9263SOL    HW228689   1.903   4.632   2.955
 9264SOL     OW28690   6.015   3.826   6.517
 9264SOL    HW128691   6.087   3.895   6.518
 9264SOL    HW228692   6.045   3.746   6.569
 9265SOL     OW28693   5.362   0.783   1.532
 9265SOL    HW128694   5.285   0.830   1.489
 9265SOL    HW228695   5.327   0.714   1.596
 9266SOL     OW28696   1.715   4.553   0.646
 9266SOL    HW128697   1.763   4.465   0.645
 9266SOL    HW228698   1.622   4.540   0.679
 9267SOL     OW28699   0.803   1.257   4.298
 9267SOL    HW128700   0.781   1.169   4.341
 9267SOL    HW228701   0.876   1.301   4.350
 9268SOL     OW28702   0.299   0.584   1.495
 9268SOL    HW128703   0.345   0.560   1.580
 9268SOL    HW228704   0.336   0.671   1.461
 9269SOL     OW28705   3.945   0.811   0.103
 9269SOL    HW128706   3.874   0.824   0.035
 9269SOL    HW228707   4.022   0.761   0.062
 9270SOL     OW28708   2.917   0.600   6.364
 9270SOL    HW128709   2.903   0.669   6.434
 9270SOL    HW228710   2.940   0.644   6.277
 9271SOL     OW28711   1.325   4.791   5.667
 9271SOL    HW128712   1.227   4.772   5.672
 9271SOL    HW228713   1.372   4.715   5.623
 9272SOL     OW28714   6.135   6.166   5.952
 9272SOL    HW128715   6.143   6.179   5.853
 9272SOL    HW228716   6.218   6.122   5.987
 9273SOL     OW28717   5.782   3.657   3.572
 9273SOL    HW128718   5.858   3.639   3.635
 9273SOL    HW228719   5.697   3.665   3.625
 9274SOL     OW28720   0.698   3.465   0.912
 9274SOL    HW128721   0.735   3.375   0.937
 9274SOL    HW228722   0.739   3.495   0.825
 9275SOL     OW28723   5.877   0.896   1.066
 9275SOL    HW128724   5.925   0.823   1.112
 9275SOL    HW228725   5.927   0.923   0.984
 9276SOL     OW28726   2.383   5.040   6.968
 9276SOL    HW128727   2.373   5.134   6.999
 9276SOL    HW228728   2.424   5.039   6.877
 9277SOL     OW28729   4.801   4.815   2.327
 9277SOL    HW128730   4.738   4.786   2.254
 9277SOL    HW228731   4.885   4.761   2.322
 9278SOL     OW28732   0.534   6.909   5.831
 9278SOL    HW128733   0.506   6.880   5.739
 9278SOL    HW228734   0.577   6.999   5.826
 9279SOL     OW28735   3.160   6.191   1.825
 9279SOL    HW128736   3.240   6.136   1.802
 9279SOL    HW228737   3.105   6.205   1.743
 9280SOL     OW28738   1.628   5.611   2.853
 9280SOL    HW128739   1.546   5.667   2.845
 9280SOL    HW228740   1.663   5.615   2.946
 9281SOL     OW28741   1.632   5.469   0.840
 9281SOL    HW128742   1.723   5.502   0.813
 9281SOL    HW228743   1.642   5.399   0.911
 9282SOL     OW28744   3.040   6.808   4.798
 9282SOL    HW128745   2.966   6.782   4.737
 9282SOL    HW228746   3.078   6.896   4.769
 9283SOL     OW28747   4.452   6.558   1.037
 9283SOL    HW128748   4.532   6.498   1.035
 9283SOL    HW228749   4.421   6.575   0.944
 9284SOL     OW28750   3.759   4.671   6.496
 9284SOL    HW128751   3.660   4.673   6.512
 9284SOL    HW228752   3.783   4.587   6.448
 9285SOL     OW28753   0.079   6.062   2.960
 9285SOL    HW128754   0.091   6.068   3.059
 9285SOL    HW228755   0.168   6.049   2.917
 9286SOL     OW28756   4.367   0.098   1.934
 9286SOL    HW128757   4.462   0.087   1.907
 9286SOL    HW228758   4.328   0.178   1.888
 9287SOL     OW28759   4.688   3.807   5.896
 9287SOL    HW128760   4.685   3.726   5.954
 9287SOL    HW228761   4.595   3.836   5.875
 9288SOL     OW28762   3.263   1.743   2.138
 9288SOL    HW128763   3.268   1.741   2.038
 9288SOL    HW228764   3.294   1.832   2.172
 9289SOL     OW28765   5.201   6.788   0.913
 9289SOL    HW128766   5.202   6.888   0.913
 9289SOL    HW228767   5.150   6.756   0.993
 9290SOL     OW28768   5.973   1.141   3.632
 9290SOL    HW128769   6.051   1.089   3.667
 9290SOL    HW228770   5.998   1.238   3.626
 9291SOL     OW28771   0.484   3.905   5.684
 9291SOL    HW128772   0.562   3.842   5.679
 9291SOL    HW228773   0.427   3.894   5.603
 9292SOL     OW28774   0.251   1.184   6.351
 9292SOL    HW128775   0.169   1.139   6.388
 9292SOL    HW228776   0.293   1.125   6.282
 9293SOL     OW28777   4.724   2.132   4.644
 9293SOL    HW128778   4.801   2.104   4.701
 9293SOL    HW228779   4.643   2.079   4.669
 9294SOL     OW28780   4.715   0.080   6.419
 9294SOL    HW128781   4.794   0.093   6.360
 9294SOL    HW228782   4.714   7.005   6.454
 9295SOL     OW28783   6.135   1.267   4.251
 9295SOL    HW128784   6.211   1.262   4.316
 9295SOL    HW228785   6.169   1.298   4.162
 9296SOL     OW28786   2.227   5.106   5.807
 9296SOL    HW128787   2.255   5.012   5.823
 9296SOL    HW228788   2.128   5.110   5.794
 9297SOL     OW28789   6.644   5.097   2.241
 9297SOL    HW128790   6.584   5.051   2.175
 9297SOL    HW228791   6.666   5.189   2.207
 9298SOL     OW28792   1.557   3.653   6.526
 9298SOL    HW128793   1.474   3.705   6.504
 9298SOL    HW228794   1.589   3.606   6.443
 9299SOL     OW28795   2.406   2.353   4.871
 9299SOL    HW128796   2.485   2.395   4.917
 9299SOL    HW228797   2.427   2.258   4.849
 9300SOL     OW28798   2.153   5.945   4.293
 9300SOL    HW128799   2.176   5.906   4.382
 9300SOL    HW228800   2.230   5.999   4.259
 9301SOL     OW28801   0.257   4.422   4.428
 9301SOL    HW128802   0.206   4.363   4.365
 9301SOL    HW228803   0.352   4.391   4.434
 9302SOL     OW28804   1.922   4.594   4.340
 9302SOL    HW128805   1.968   4.682   4.348
 9302SOL    HW228806   1.985   4.527   4.299
 9303SOL     OW28807   2.278   4.408   0.269
 9303SOL    HW128808   2.249   4.490   0.317
 9303SOL    HW228809   2.206   4.380   0.205
 9304SOL     OW28810   5.310   5.308   6.573
 9304SOL    HW128811   5.316   5.356   6.486
 9304SOL    HW228812   5.266   5.367   6.641
 9305SOL     OW28813   1.902   1.919   1.279
 9305SOL    HW128814   1.817   1.957   1.244
 9305SOL    HW228815   1.971   1.991   1.286
 9306SOL     OW28816   0.194   6.521   4.696
 9306SOL    HW128817   0.273   6.518   4.757
 9306SOL    HW228818   0.202   6.600   4.635
 9307SOL     OW28819   1.746   3.742   1.048
 9307SOL    HW128820   1.753   3.818   1.113
 9307SOL    HW228821   1.692   3.669   1.089
 9308SOL     OW28822   2.049   3.236   2.064
 9308SOL    HW128823   2.107   3.314   2.084
 9308SOL    HW228824   2.090   3.182   1.990
 9309SOL     OW28825   4.958   5.496   6.669
 9309SOL    HW128826   4.982   5.441   6.589
 9309SOL    HW228827   5.034   5.492   6.735
 9310SOL     OW28828   5.821   5.744   5.983
 9310SOL    HW128829   5.851   5.648   5.979
 9310SOL    HW228830   5.901   5.803   5.976
 9311SOL     OW28831   4.593   4.447   0.706
 9311SOL    HW128832   4.675   4.428   0.759
 9311SOL    HW228833   4.609   4.526   0.646
 9312SOL     OW28834   0.435   2.970   2.958
 9312SOL    HW128835   0.419   2.913   3.039
 9312SOL    HW228836   0.436   2.913   2.876
 9313SOL     OW28837   0.786   0.637   2.539
 9313SOL    HW128838   0.693   0.629   2.575
 9313SOL    HW228839   0.821   0.728   2.557
 9314SOL     OW28840   5.262   5.200   1.016
 9314SOL    HW128841   5.308   5.111   1.014
 9314SOL    HW228842   5.274   5.241   1.106
 9315SOL     OW28843   5.455   6.198   6.272
 9315SOL    HW128844   5.432   6.170   6.179
 9315SOL    HW228845   5.422   6.291   6.288
 9316SOL     OW28846   4.753   0.180   0.248
 9316SOL    HW128847   4.759   0.210   0.153
 9316SOL    HW228848   4.737   0.082   0.251
 9317SOL     OW28849   2.792   5.828   3.488
 9317SOL    HW128850   2.860   5.860   3.555
 9317SOL    HW228851   2.839   5.791   3.408
 9318SOL     OW28852   3.939   6.821   1.767
 9318SOL    HW128853   3.892   6.867   1.842
 9318SOL    HW228854   3.895   6.844   1.681
 9319SOL     OW28855   4.307   1.666   0.047
 9319SOL    HW128856   4.270   1.755   0.071
 9319SOL    HW228857   4.394   1.678   7.017
 9320SOL     OW28858   6.687   6.634   0.049
 9320SOL    HW128859   6.608   6.694   0.031
 9320SOL    HW228860   6.680   6.552   7.010
 9321SOL     OW28861   0.633   3.527   4.671
 9321SOL    HW128862   0.697   3.600   4.648
 9321SOL    HW228863   0.639   3.506   4.768
 9322SOL     OW28864   5.287   3.369   0.031
 9322SOL    HW128865   5.218   3.438   0.053
 9322SOL    HW228866   5.273   3.336   6.956
 9323SOL     OW28867   0.781   2.495   5.993
 9323SOL    HW128868   0.749   2.565   6.057
 9323SOL    HW228869   0.702   2.446   5.956
 9324SOL     OW28870   0.414   4.381   1.784
 9324SOL    HW128871   0.415   4.467   1.732
 9324SOL    HW228872   0.470   4.391   1.866
 9325SOL     OW28873   0.501   4.746   3.352
 9325SOL    HW128874   0.432   4.682   3.386
 9325SOL    HW228875   0.556   4.779   3.428
 9326SOL     OW28876   4.769   4.129   0.467
 9326SOL    HW128877   4.768   4.229   0.472
 9326SOL    HW228878   4.856   4.099   0.428
 9327SOL     OW28879   2.909   1.329   3.263
 9327SOL    HW128880   2.888   1.312   3.359
 9327SOL    HW228881   2.971   1.258   3.229
 9328SOL     OW28882   2.024   0.763   3.570
 9328SOL    HW128883   2.063   0.792   3.658
 9328SOL    HW228884   2.096   0.763   3.501
 9329SOL     OW28885   0.348   5.590   6.854
 9329SOL    HW128886   0.348   5.658   6.927
 9329SOL    HW228887   0.272   5.527   6.867
 9330SOL     OW28888   0.199   6.697   0.417
 9330SOL    HW128889   0.133   6.665   0.349
 9330SOL    HW228890   0.186   6.646   0.503
 9331SOL     OW28891   1.919   3.927   4.317
 9331SOL    HW128892   1.828   3.917   4.276
 9331SOL    HW228893   1.909   3.957   4.412
 9332SOL     OW28894   6.349   5.013   0.594
 9332SOL    HW128895   6.297   5.037   0.677
 9332SOL    HW228896   6.297   5.040   0.513
 9333SOL     OW28897   3.281   3.921   1.604
 9333SOL    HW128898   3.283   3.863   1.685
 9333SOL    HW228899   3.189   3.958   1.591
 9334SOL     OW28900   6.547   5.864   6.052
 9334SOL    HW128901   6.618   5.853   5.982
 9334SOL    HW228902   6.502   5.776   6.068
 9335SOL     OW28903   0.598   3.708   1.593
 9335SOL    HW128904   0.660   3.783   1.570
 9335SOL    HW228905   0.611   3.682   1.688
 9336SOL     OW28906   5.318   0.196   6.246
 9336SOL    HW128907   5.269   0.115   6.215
 9336SOL    HW228908   5.365   0.238   6.169
 9337SOL     OW28909   2.518   0.995   5.618
 9337SOL    HW128910   2.493   1.092   5.619
 9337SOL    HW228911   2.438   0.941   5.644
 9338SOL     OW28912   5.494   6.092   0.241
 9338SOL    HW128913   5.445   6.055   0.320
 9338SOL    HW228914   5.465   6.186   0.225
 9339SOL     OW28915   6.971   3.938   5.112
 9339SOL    HW128916   6.966   4.034   5.137
 9339SOL    HW228917   6.935   3.926   5.019
 9340SOL     OW28918   2.526   4.826   1.827
 9340SOL    HW128919   2.530   4.904   1.765
 9340SOL    HW228920   2.439   4.826   1.875
 9341SOL     OW28921   5.213   5.006   6.335
 9341SOL    HW128922   5.282   5.058   6.285
 9341SOL    HW228923   5.154   4.957   6.271
 9342SOL     OW28924   2.978   0.290   4.595
 9342SOL    HW128925   2.893   0.269   4.545
 9342SOL    HW228926   3.057   0.267   4.538
 9343SOL     OW28927   4.913   3.758   0.495
 9343SOL    HW128928   4.962   3.844   0.479
 9343SOL    HW228929   4.947   3.716   0.579
 9344SOL     OW28930   5.547   0.546   5.216
 9344SOL    HW128931   5.565   0.575   5.122
 9344SOL    HW228932   5.630   0.557   5.270
 9345SOL     OW28933   0.233   4.566   0.560
 9345SOL    HW128934   0.250   4.563   0.462
 9345SOL    HW228935   0.148   4.519   0.582
 9346SOL     OW28936   5.407   6.929   2.128
 9346SOL    HW128937   5.437   7.002   2.190
 9346SOL    HW228938   5.451   6.942   2.039
 9347SOL     OW28939   4.094   6.129   1.205
 9347SOL    HW128940   4.165   6.170   1.148
 9347SOL    HW228941   4.088   6.031   1.185
 9348SOL     OW28942   2.037   5.502   1.649
 9348SOL    HW128943   1.979   5.441   1.594
 9348SOL    HW228944   2.053   5.587   1.598
 9349SOL     OW28945   0.023   6.091   1.657
 9349SOL    HW128946   0.090   6.162   1.635
 9349SOL    HW228947   6.977   6.081   1.581
 9350SOL     OW28948   6.433   0.608   0.157
 9350SOL    HW128949   6.440   0.708   0.157
 9350SOL    HW228950   6.352   0.581   0.105
 9351SOL     OW28951   4.224   2.956   5.452
 9351SOL    HW128952   4.124   2.961   5.449
 9351SOL    HW228953   4.252   2.880   5.510
 9352SOL     OW28954   3.158   2.721   6.451
 9352SOL    HW128955   3.132   2.817   6.457
 9352SOL    HW228956   3.180   2.687   6.542
 9353SOL     OW28957   0.258   3.172   1.437
 9353SOL    HW128958   0.182   3.176   1.373
 9353SOL    HW228959   0.287   3.264   1.462
 9354SOL     OW28960   5.375   1.663   1.513
 9354SOL    HW128961   5.318   1.741   1.487
 9354SOL    HW228962   5.386   1.602   1.435
 9355SOL     OW28963   6.265   1.214   2.775
 9355SOL    HW128964   6.305   1.135   2.823
 9355SOL    HW228965   6.317   1.296   2.796
 9356SOL     OW28966   5.042   3.713   2.594
 9356SOL    HW128967   5.043   3.628   2.646
 9356SOL    HW228968   4.948   3.745   2.584
 9357SOL     OW28969   3.283   3.479   0.651
 9357SOL    HW128970   3.336   3.470   0.734
 9357SOL    HW228971   3.292   3.397   0.595
 9358SOL     OW28972   5.113   4.182   1.932
 9358SOL    HW128973   5.023   4.186   1.889
 9358SOL    HW228974   5.120   4.099   1.987
 9359SOL     OW28975   5.796   4.647   6.114
 9359SOL    HW128976   5.768   4.551   6.118
 9359SOL    HW228977   5.808   4.674   6.019
 9360SOL     OW28978   1.171   0.522   5.453
 9360SOL    HW128979   1.169   0.622   5.447
 9360SOL    HW228980   1.250   0.494   5.507
 9361SOL     OW28981   2.330   1.175   2.370
 9361SOL    HW128982   2.373   1.257   2.408
 9361SOL    HW228983   2.306   1.192   2.274
 9362SOL     OW28984   1.602   1.681   3.098
 9362SOL    HW128985   1.624   1.616   3.025
 9362SOL    HW228986   1.670   1.673   3.171
 9363SOL     OW28987   2.467   6.736   1.667
 9363SOL    HW128988   2.390   6.769   1.722
 9363SOL    HW228989   2.553   6.760   1.714
 9364SOL     OW28990   5.565   5.047   1.187
 9364SOL    HW128991   5.570   4.958   1.233
 9364SOL    HW228992   5.559   5.120   1.255
 9365SOL     OW28993   1.886   1.275   5.023
 9365SOL    HW128994   1.854   1.266   5.118
 9365SOL    HW228995   1.893   1.372   4.999
 9366SOL     OW28996   3.059   1.100   2.050
 9366SOL    HW128997   2.991   1.048   2.102
 9366SOL    HW228998   3.017   1.136   1.967
 9367SOL     OW28999   6.642   5.805   3.909
 9367SOL    HW129000   6.554   5.843   3.880
 9367SOL    HW229001   6.678   5.746   3.837
 9368SOL     OW29002   4.596   2.904   1.398
 9368SOL    HW129003   4.534   2.971   1.358
 9368SOL    HW229004   4.574   2.894   1.496
 9369SOL     OW29005   6.846   2.092   5.569
 9369SOL    HW129006   6.860   2.047   5.481
 9369SOL    HW229007   6.933   2.099   5.618
 9370SOL     OW29008   6.072   6.915   3.348
 9370SOL    HW129009   6.053   6.992   3.409
 9370SOL    HW229010   6.164   6.925   3.310
 9371SOL     OW29011   0.824   6.877   0.214
 9371SOL    HW129012   0.862   6.869   0.122
 9371SOL    HW229013   0.895   6.910   0.276
 9372SOL     OW29014   6.122   6.301   6.591
 9372SOL    HW129015   6.059   6.224   6.592
 9372SOL    HW229016   6.181   6.295   6.511
 9373SOL     OW29017   4.358   2.275   3.994
 9373SOL    HW129018   4.336   2.283   4.091
 9373SOL    HW229019   4.432   2.210   3.982
 9374SOL     OW29020   5.255   4.216   0.259
 9374SOL    HW129021   5.322   4.154   0.300
 9374SOL    HW229022   5.278   4.230   0.162
 9375SOL     OW29023   0.918   1.385   3.727
 9375SOL    HW129024   0.917   1.451   3.802
 9375SOL    HW229025   0.937   1.433   3.641
 9376SOL     OW29026   2.310   2.776   2.624
 9376SOL    HW129027   2.286   2.763   2.721
 9376SOL    HW229028   2.381   2.710   2.599
 9377SOL     OW29029   5.881   5.226   2.855
 9377SOL    HW129030   5.788   5.263   2.865
 9377SOL    HW229031   5.948   5.296   2.878
 9378SOL     OW29032   3.574   5.971   1.027
 9378SOL    HW129033   3.515   6.031   0.973
 9378SOL    HW229034   3.578   5.880   0.984
 9379SOL     OW29035   5.491   4.618   5.593
 9379SOL    HW129036   5.529   4.542   5.542
 9379SOL    HW229037   5.563   4.686   5.610
 9380SOL     OW29038   6.254   5.890   6.257
 9380SOL    HW129039   6.157   5.915   6.261
 9380SOL    HW229040   6.291   5.885   6.350
 9381SOL     OW29041   2.566   1.061   0.142
 9381SOL    HW129042   2.665   1.069   0.155
 9381SOL    HW229043   2.538   0.966   0.159
 9382SOL     OW29044   5.380   2.426   2.431
 9382SOL    HW129045   5.334   2.483   2.499
 9382SOL    HW229046   5.426   2.350   2.477
 9383SOL     OW29047   5.956   5.772   5.374
 9383SOL    HW129048   5.918   5.800   5.462
 9383SOL    HW229049   6.042   5.820   5.358
 9384SOL     OW29050   4.512   6.040   1.920
 9384SOL    HW129051   4.427   6.033   1.973
 9384SOL    HW229052   4.533   5.952   1.878
 9385SOL     OW29053   3.955   1.473   3.880
 9385SOL    HW129054   4.047   1.505   3.904
 9385SOL    HW229055   3.922   1.522   3.799
 9386SOL     OW29056   3.909   0.348   4.547
 9386SOL    HW129057   3.858   0.271   4.508
 9386SOL    HW229058   3.928   0.415   4.475
 9387SOL     OW29059   4.108   6.958   0.538
 9387SOL    HW129060   4.036   6.902   0.578
 9387SOL    HW229061   4.150   7.015   0.609
 9388SOL     OW29062   6.849   6.962   2.282
 9388SOL    HW129063   6.813   6.875   2.248
 9388SOL    HW229064   6.913   7.000   2.215
 9389SOL     OW29065   2.992   1.109   0.032
 9389SOL    HW129066   3.044   1.154   6.977
 9389SOL    HW229067   3.043   1.113   0.117
 9390SOL     OW29068   3.060   6.556   2.148
 9390SOL    HW129069   3.134   6.588   2.088
 9390SOL    HW229070   2.977   6.545   2.094
 9391SOL     OW29071   0.608   1.052   5.393
 9391SOL    HW129072   0.704   1.079   5.384
 9391SOL    HW229073   0.597   0.994   5.473
 9392SOL     OW29074   1.397   6.462   3.766
 9392SOL    HW129075   1.464   6.535   3.778
 9392SOL    HW229076   1.442   6.383   3.723
 9393SOL     OW29077   3.793   2.305   5.416
 9393SOL    HW129078   3.799   2.256   5.328
 9393SOL    HW229079   3.873   2.363   5.428
 9394SOL     OW29080   5.422   2.092   2.147
 9394SOL    HW129081   5.337   2.143   2.132
 9394SOL    HW229082   5.422   2.055   2.240
 9395SOL     OW29083   1.800   2.213   6.729
 9395SOL    HW129084   1.716   2.227   6.677
 9395SOL    HW229085   1.877   2.254   6.679
 9396SOL     OW29086   6.228   0.223   6.928
 9396SOL    HW129087   6.134   0.234   6.898
 9396SOL    HW229088   6.247   0.285   7.004
 9397SOL     OW29089   2.998   1.157   0.702
 9397SOL    HW129090   2.988   1.243   0.751
 9397SOL    HW229091   2.907   1.123   0.675
 9398SOL     OW29092   2.347   1.864   6.815
 9398SOL    HW129093   2.257   1.907   6.806
 9398SOL    HW229094   2.413   1.912   6.756
 9399SOL     OW29095   6.603   0.847   5.249
 9399SOL    HW129096   6.633   0.843   5.154
 9399SOL    HW229097   6.675   0.889   5.305
 9400SOL     OW29098   4.932   2.309   3.527
 9400SOL    HW129099   4.875   2.235   3.563
 9400SOL    HW229100   4.999   2.337   3.595
 9401SOL     OW29101   3.600   0.301   3.102
 9401SOL    HW129102   3.510   0.266   3.078
 9401SOL    HW229103   3.637   0.352   3.025
 9402SOL     OW29104   1.905   4.993   6.681
 9402SOL    HW129105   1.834   4.938   6.637
 9402SOL    HW229106   1.939   4.945   6.762
 9403SOL     OW29107   5.500   1.431   4.455
 9403SOL    HW129108   5.401   1.434   4.451
 9403SOL    HW229109   5.532   1.478   4.537
 9404SOL     OW29110   0.511   4.188   5.823
 9404SOL    HW129111   0.512   4.279   5.782
 9404SOL    HW229112   0.429   4.139   5.792
 9405SOL     OW29113   6.223   0.141   0.709
 9405SOL    HW129114   6.285   0.217   0.731
 9405SOL    HW229115   6.197   0.093   0.792
 9406SOL     OW29116   6.985   1.175   5.760
 9406SOL    HW129117   0.017   1.150   5.677
 9406SOL    HW229118   6.934   1.260   5.744
 9407SOL     OW29119   2.979   6.250   3.037
 9407SOL    HW129120   3.017   6.157   3.030
 9407SOL    HW229121   2.987   6.296   2.948
 9408SOL     OW29122   3.747   1.748   6.480
 9408SOL    HW129123   3.695   1.664   6.465
 9408SOL    HW229124   3.843   1.726   6.498
 9409SOL     OW29125   5.515   3.817   3.137
 9409SOL    HW129126   5.421   3.804   3.168
 9409SOL    HW229127   5.562   3.880   3.199
 9410SOL     OW29128   4.835   6.793   2.839
 9410SOL    HW129129   4.894   6.716   2.864
 9410SOL    HW229130   4.779   6.818   2.918
 9411SOL     OW29131   5.091   5.764   1.174
 9411SOL    HW129132   5.012   5.719   1.133
 9411SOL    HW229133   5.061   5.843   1.226
 9412SOL     OW29134   6.374   2.911   1.403
 9412SOL    HW129135   6.329   2.992   1.439
 9412SOL    HW229136   6.367   2.836   1.469
 9413SOL     OW29137   3.586   5.880   5.087
 9413SOL    HW129138   3.574   5.866   5.186
 9413SOL    HW229139   3.666   5.827   5.057
 9414SOL     OW29140   2.686   1.699   2.086
 9414SOL    HW129141   2.722   1.615   2.126
 9414SOL    HW229142   2.738   1.721   2.004
 9415SOL     OW29143   3.125   0.646   2.314
 9415SOL    HW129144   3.083   0.556   2.332
 9415SOL    HW229145   3.203   0.634   2.252
 9416SOL     OW29146   0.872   2.465   1.234
 9416SOL    HW129147   0.894   2.525   1.158
 9416SOL    HW229148   0.905   2.505   1.320
 9417SOL     OW29149   2.032   6.367   4.608
 9417SOL    HW129150   1.947   6.324   4.637
 9417SOL    HW229151   2.033   6.378   4.509
 9418SOL     OW29152   3.509   4.132   1.136
 9418SOL    HW129153   3.564   4.056   1.170
 9418SOL    HW229154   3.442   4.158   1.204
 9419SOL     OW29155   3.734   6.112   5.413
 9419SOL    HW129156   3.773   6.120   5.321
 9419SOL    HW229157   3.674   6.190   5.431
 9420SOL     OW29158   0.836   1.413   4.046
 9420SOL    HW129159   0.828   1.366   4.134
 9420SOL    HW229160   0.855   1.510   4.063
 9421SOL     OW29161   1.537   4.960   4.824
 9421SOL    HW129162   1.606   5.000   4.885
 9421SOL    HW229163   1.562   4.981   4.729
 9422SOL     OW29164   4.129   1.925   1.850
 9422SOL    HW129165   4.064   1.849   1.855
 9422SOL    HW229166   4.083   2.010   1.874
 9423SOL     OW29167   4.604   0.653   5.010
 9423SOL    HW129168   4.515   0.617   5.036
 9423SOL    HW229169   4.600   0.753   5.003
 9424SOL     OW29170   3.018   6.303   4.255
 9424SOL    HW129171   2.924   6.335   4.263
 9424SOL    HW229172   3.041   6.245   4.333
 9425SOL     OW29173   1.256   4.083   3.741
 9425SOL    HW129174   1.175   4.141   3.736
 9425SOL    HW229175   1.296   4.089   3.833
 9426SOL     OW29176   3.477   6.698   0.270
 9426SOL    HW129177   3.510   6.610   0.304
 9426SOL    HW229178   3.423   6.683   0.187
 9427SOL     OW29179   2.868   4.891   4.219
 9427SOL    HW129180   2.831   4.975   4.258
 9427SOL    HW229181   2.965   4.884   4.239
 9428SOL     OW29182   4.698   6.303   2.671
 9428SOL    HW129183   4.673   6.212   2.638
 9428SOL    HW229184   4.797   6.309   2.681
 9429SOL     OW29185   0.253   3.805   2.546
 9429SOL    HW129186   0.318   3.868   2.503
 9429SOL    HW229187   0.171   3.799   2.490
 9430SOL     OW29188   6.455   6.944   2.218
 9430SOL    HW129189   6.357   6.925   2.207
 9430SOL    HW229190   6.478   0.009   2.167
 9431SOL     OW29191   6.698   4.670   1.997
 9431SOL    HW129192   6.652   4.583   2.011
 9431SOL    HW229193   6.760   4.688   2.075
 9432SOL     OW29194   6.477   6.872   4.493
 9432SOL    HW129195   6.434   6.955   4.458
 9432SOL    HW229196   6.425   6.838   4.572
 9433SOL     OW29197   2.498   4.578   4.948
 9433SOL    HW129198   2.501   4.527   4.862
 9433SOL    HW229199   2.578   4.637   4.955
 9434SOL     OW29200   5.332   5.182   3.008
 9434SOL    HW129201   5.334   5.255   3.078
 9434SOL    HW229202   5.260   5.201   2.942
 9435SOL     OW29203   1.457   0.768   4.496
 9435SOL    HW129204   1.516   0.767   4.415
 9435SOL    HW229205   1.379   0.706   4.481
 9436SOL     OW29206   1.828   2.641   6.649
 9436SOL    HW129207   1.851   2.553   6.608
 9436SOL    HW229208   1.907   2.676   6.699
 9437SOL     OW29209   0.792   5.253   4.042
 9437SOL    HW129210   0.773   5.190   4.118
 9437SOL    HW229211   0.731   5.331   4.048
 9438SOL     OW29212   1.508   6.337   2.021
 9438SOL    HW129213   1.574   6.306   1.952
 9438SOL    HW229214   1.531   6.296   2.109
 9439SOL     OW29215   0.595   2.804   1.225
 9439SOL    HW129216   0.578   2.891   1.271
 9439SOL    HW229217   0.630   2.821   1.133
 9440SOL     OW29218   4.833   5.883   5.690
 9440SOL    HW129219   4.823   5.829   5.606
 9440SOL    HW229220   4.814   5.979   5.670
 9441SOL     OW29221   1.035   4.883   4.727
 9441SOL    HW129222   1.009   4.843   4.815
 9441SOL    HW229223   0.976   4.961   4.707
 9442SOL     OW29224   0.553   3.485   1.420
 9442SOL    HW129225   0.566   3.543   1.500
 9442SOL    HW229226   0.630   3.422   1.412
 9443SOL     OW29227   1.639   3.193   1.813
 9443SOL    HW129228   1.566   3.145   1.863
 9443SOL    HW229229   1.692   3.248   1.877
 9444SOL     OW29230   0.040   3.776   6.725
 9444SOL    HW129231   7.012   3.689   6.712
 9444SOL    HW229232   0.080   3.779   6.817
 9445SOL     OW29233   5.969   3.764   1.545
 9445SOL    HW129234   6.053   3.728   1.505
 9445SOL    HW229235   5.973   3.755   1.645
 9446SOL     OW29236   6.135   5.482   1.408
 9446SOL    HW129237   6.192   5.403   1.427
 9446SOL    HW229238   6.191   5.557   1.372
 9447SOL     OW29239   6.054   2.594   1.585
 9447SOL    HW129240   6.049   2.495   1.598
 9447SOL    HW229241   6.047   2.640   1.673
 9448SOL     OW29242   6.411   6.456   0.333
 9448SOL    HW129243   6.334   6.411   0.288
 9448SOL    HW229244   6.403   6.445   0.432
 9449SOL     OW29245   6.950   5.399   5.218
 9449SOL    HW129246   6.948   5.433   5.124
 9449SOL    HW229247   6.942   5.300   5.218
 9450SOL     OW29248   2.940   4.866   4.493
 9450SOL    HW129249   2.852   4.820   4.501
 9450SOL    HW229250   2.937   4.954   4.540
 9451SOL     OW29251   4.251   4.602   5.942
 9451SOL    HW129252   4.170   4.560   5.983
 9451SOL    HW229253   4.295   4.661   6.010
 9452SOL     OW29254   2.816   4.386   1.354
 9452SOL    HW129255   2.747   4.453   1.385
 9452SOL    HW229256   2.780   4.293   1.368
 9453SOL     OW29257   3.433   5.083   1.768
 9453SOL    HW129258   3.446   5.007   1.703
 9453SOL    HW229259   3.496   5.072   1.844
 9454SOL     OW29260   2.365   2.625   5.021
 9454SOL    HW129261   2.433   2.636   5.094
 9454SOL    HW229262   2.285   2.577   5.058
 9455SOL     OW29263   3.353   1.860   2.606
 9455SOL    HW129264   3.261   1.865   2.566
 9455SOL    HW229265   3.396   1.773   2.580
 9456SOL     OW29266   1.674   2.968   1.281
 9456SOL    HW129267   1.761   3.014   1.268
 9456SOL    HW229268   1.633   2.948   1.192
 9457SOL     OW29269   0.238   3.515   0.509
 9457SOL    HW129270   0.257   3.576   0.431
 9457SOL    HW229271   0.321   3.463   0.531
 9458SOL     OW29272   0.286   5.804   4.769
 9458SOL    HW129273   0.263   5.752   4.851
 9458SOL    HW229274   0.342   5.883   4.793
 9459SOL     OW29275   5.091   5.872   1.622
 9459SOL    HW129276   5.190   5.882   1.614
 9459SOL    HW229277   5.054   5.946   1.678
 9460SOL     OW29278   0.546   2.183   5.386
 9460SOL    HW129279   0.490   2.259   5.353
 9460SOL    HW229280   0.556   2.190   5.486
 9461SOL     OW29281   1.560   0.348   3.267
 9461SOL    HW129282   1.650   0.343   3.312
 9461SOL    HW229283   1.491   0.309   3.327
 9462SOL     OW29284   0.574   3.361   2.829
 9462SOL    HW129285   0.645   3.343   2.897
 9462SOL    HW229286   0.486   3.372   2.875
 9463SOL     OW29287   5.157   1.490   0.490
 9463SOL    HW129288   5.235   1.452   0.440
 9463SOL    HW229289   5.164   1.590   0.490
 9464SOL     OW29290   5.054   0.044   6.400
 9464SOL    HW129291   4.985   0.057   6.472
 9464SOL    HW229292   5.144   0.040   6.442
 9465SOL     OW29293   5.933   0.298   4.166
 9465SOL    HW129294   5.995   0.297   4.088
 9465SOL    HW229295   5.959   0.226   4.230
 9466SOL     OW29296   2.952   2.507   6.831
 9466SOL    HW129297   2.874   2.455   6.797
 9466SOL    HW229298   2.953   2.598   6.788
 9467SOL     OW29299   2.068   3.499   2.280
 9467SOL    HW129300   2.138   3.481   2.211
 9467SOL    HW229301   1.978   3.491   2.239
 9468SOL     OW29302   0.020   2.864   5.629
 9468SOL    HW129303   0.063   2.920   5.701
 9468SOL    HW229304   6.942   2.848   5.652
 9469SOL     OW29305   6.471   4.522   2.098
 9469SOL    HW129306   6.372   4.532   2.088
 9469SOL    HW229307   6.500   4.562   2.185
 9470SOL     OW29308   4.931   4.206   0.764
 9470SOL    HW129309   5.031   4.199   0.755
 9470SOL    HW229310   4.903   4.163   0.850
 9471SOL     OW29311   6.459   1.933   6.256
 9471SOL    HW129312   6.363   1.925   6.283
 9471SOL    HW229313   6.495   2.021   6.285
 9472SOL     OW29314   6.688   3.803   4.192
 9472SOL    HW129315   6.728   3.817   4.101
 9472SOL    HW229316   6.591   3.827   4.190
 9473SOL     OW29317   3.599   5.430   4.958
 9473SOL    HW129318   3.531   5.426   5.031
 9473SOL    HW229319   3.565   5.488   4.884
 9474SOL     OW29320   4.176   5.175   2.401
 9474SOL    HW129321   4.077   5.176   2.391
 9474SOL    HW229322   4.207   5.262   2.440
 9475SOL     OW29323   1.630   3.563   1.198
 9475SOL    HW129324   1.564   3.599   1.264
 9475SOL    HW229325   1.706   3.520   1.247
 9476SOL     OW29326   3.727   3.826   5.641
 9476SOL    HW129327   3.787   3.750   5.665
 9476SOL    HW229328   3.706   3.879   5.723
 9477SOL     OW29329   1.312   2.975   0.985
 9477SOL    HW129330   1.353   3.066   0.993
 9477SOL    HW229331   1.241   2.964   1.054
 9478SOL     OW29332   5.526   4.912   5.148
 9478SOL    HW129333   5.465   4.833   5.154
 9478SOL    HW229334   5.621   4.880   5.145
 9479SOL     OW29335   6.772   5.834   5.904
 9479SOL    HW129336   6.800   5.930   5.912
 9479SOL    HW229337   6.831   5.788   5.838
 9480SOL     OW29338   6.049   5.014   0.155
 9480SOL    HW129339   6.075   5.067   0.075
 9480SOL    HW229340   6.121   5.021   0.224
 9481SOL     OW29341   6.819   3.464   2.091
 9481SOL    HW129342   6.743   3.399   2.088
 9481SOL    HW229343   6.875   3.446   2.171
 9482SOL     OW29344   4.174   0.644   2.720
 9482SOL    HW129345   4.121   0.568   2.756
 9482SOL    HW229346   4.185   0.635   2.621
 9483SOL     OW29347   1.478   1.626   6.866
 9483SOL    HW129348   1.546   1.619   6.793
 9483SOL    HW229349   1.451   1.722   6.878
 9484SOL     OW29350   6.477   1.273   3.303
 9484SOL    HW129351   6.497   1.299   3.208
 9484SOL    HW229352   6.446   1.354   3.353
 9485SOL     OW29353   1.064   0.270   3.303
 9485SOL    HW129354   1.093   0.212   3.227
 9485SOL    HW229355   1.141   0.326   3.334
 9486SOL     OW29356   3.382   6.014   1.930
 9486SOL    HW129357   3.312   5.943   1.922
 9486SOL    HW229358   3.454   5.997   1.862
 9487SOL     OW29359   2.937   3.378   3.845
 9487SOL    HW129360   2.975   3.452   3.790
 9487SOL    HW229361   2.961   3.290   3.805
 9488SOL     OW29362   1.383   0.135   1.157
 9488SOL    HW129363   1.316   0.208   1.169
 9488SOL    HW229364   1.423   0.140   1.066
 9489SOL     OW29365   3.415   3.991   0.592
 9489SOL    HW129366   3.315   3.996   0.587
 9489SOL    HW229367   3.443   3.964   0.684
 9490SOL     OW29368   5.221   1.015   0.592
 9490SOL    HW129369   5.187   0.952   0.662
 9490SOL    HW229370   5.153   1.088   0.577
 9491SOL     OW29371   6.134   5.227   6.450
 9491SOL    HW129372   6.040   5.209   6.420
 9491SOL    HW229373   6.164   5.316   6.414
 9492SOL     OW29374   3.045   3.958   2.023
 9492SOL    HW129375   3.042   4.039   1.964
 9492SOL    HW229376   3.002   3.980   2.111
 9493SOL     OW29377   5.045   5.923   3.081
 9493SOL    HW129378   5.051   5.904   2.983
 9493SOL    HW229379   5.137   5.936   3.118
 9494SOL     OW29380   4.305   3.419   5.513
 9494SOL    HW129381   4.339   3.480   5.441
 9494SOL    HW229382   4.291   3.327   5.475
 9495SOL     OW29383   5.757   2.607   5.326
 9495SOL    HW129384   5.850   2.573   5.335
 9495SOL    HW229385   5.698   2.559   5.392
 9496SOL     OW29386   5.671   4.112   6.952
 9496SOL    HW129387   5.680   4.176   0.010
 9496SOL    HW229388   5.729   4.142   6.876
 9497SOL     OW29389   6.718   6.222   6.115
 9497SOL    HW129390   6.710   6.204   6.213
 9497SOL    HW229391   6.764   6.146   6.070
 9498SOL     OW29392   4.689   0.254   5.943
 9498SOL    HW129393   4.741   0.189   5.887
 9498SOL    HW229394   4.592   0.248   5.920
 9499SOL     OW29395   4.437   4.235   5.723
 9499SOL    HW129396   4.417   4.262   5.629
 9499SOL    HW229397   4.534   4.213   5.732
 9500SOL     OW29398   5.461   6.020   1.799
 9500SOL    HW129399   5.472   6.105   1.852
 9500SOL    HW229400   5.417   5.951   1.855
 9501SOL     OW29401   3.266   1.984   4.771
 9501SOL    HW129402   3.223   2.047   4.837
 9501SOL    HW229403   3.200   1.963   4.698
 9502SOL     OW29404   6.017   3.274   5.395
 9502SOL    HW129405   5.996   3.187   5.441
 9502SOL    HW229406   5.996   3.350   5.457
 9503SOL     OW29407   1.885   6.748   1.358
 9503SOL    HW129408   1.833   6.701   1.430
 9503SOL    HW229409   1.868   6.702   1.270
 9504SOL     OW29410   1.010   2.733   6.786
 9504SOL    HW129411   1.079   2.663   6.769
 9504SOL    HW229412   1.034   2.785   6.868
 9505SOL     OW29413   5.903   3.419   2.726
 9505SOL    HW129414   5.876   3.340   2.671
 9505SOL    HW229415   6.000   3.439   2.710
 9506SOL     OW29416   6.299   3.599   0.648
 9506SOL    HW129417   6.332   3.693   0.652
 9506SOL    HW229418   6.200   3.597   0.658
 9507SOL     OW29419   1.348   1.943   3.972
 9507SOL    HW129420   1.394   1.964   3.885
 9507SOL    HW229421   1.328   2.028   4.020
 9508SOL     OW29422   5.120   2.188   0.325
 9508SOL    HW129423   5.105   2.149   0.234
 9508SOL    HW229424   5.034   2.222   0.362
 9509SOL     OW29425   2.483   6.748   5.228
 9509SOL    HW129426   2.554   6.785   5.288
 9509SOL    HW229427   2.424   6.822   5.197
 9510SOL     OW29428   6.001   4.398   2.995
 9510SOL    HW129429   5.932   4.445   2.940
 9510SOL    HW229430   6.089   4.400   2.948
 9511SOL     OW29431   0.889   1.360   0.805
 9511SOL    HW129432   0.887   1.442   0.863
 9511SOL    HW229433   0.978   1.315   0.814
 9512SOL     OW29434   1.223   2.403   3.920
 9512SOL    HW129435   1.267   2.481   3.964
 9512SOL    HW229436   1.140   2.379   3.969
 9513SOL     OW29437   2.292   4.366   3.613
 9513SOL    HW129438   2.262   4.364   3.517
 9513SOL    HW229439   2.255   4.286   3.660
 9514SOL     OW29440   2.575   2.832   6.313
 9514SOL    HW129441   2.499   2.891   6.339
 9514SOL    HW229442   2.545   2.765   6.246
 9515SOL     OW29443   1.955   5.633   6.653
 9515SOL    HW129444   1.940   5.720   6.606
 9515SOL    HW229445   2.051   5.625   6.679
 9516SOL     OW29446   5.165   3.543   4.275
 9516SOL    HW129447   5.085   3.576   4.324
 9516SOL    HW229448   5.178   3.597   4.192
 9517SOL     OW29449   0.268   5.680   2.095
 9517SOL    HW129450   0.347   5.620   2.081
 9517SOL    HW229451   0.298   5.775   2.102
 9518SOL     OW29452   0.644   2.848   5.835
 9518SOL    HW129453   0.710   2.905   5.786
 9518SOL    HW229454   0.666   2.752   5.820
 9519SOL     OW29455   3.675   3.252   2.629
 9519SOL    HW129456   3.584   3.226   2.598
 9519SOL    HW229457   3.684   3.234   2.727
 9520SOL     OW29458   5.743   0.442   6.030
 9520SOL    HW129459   5.713   0.470   6.121
 9520SOL    HW229460   5.685   0.367   5.997
 9521SOL     OW29461   3.686   0.485   1.045
 9521SOL    HW129462   3.638   0.562   1.003
 9521SOL    HW229463   3.675   0.488   1.144
 9522SOL     OW29464   3.774   0.005   2.220
 9522SOL    HW129465   3.828   6.959   2.166
 9522SOL    HW229466   3.712   6.972   2.279
 9523SOL     OW29467   2.892   4.834   3.955
 9523SOL    HW129468   2.897   4.849   4.054
 9523SOL    HW229469   2.838   4.906   3.912
 9524SOL     OW29470   2.633   4.167   1.182
 9524SOL    HW129471   2.660   4.092   1.241
 9524SOL    HW229472   2.588   4.131   1.100
 9525SOL     OW29473   2.174   3.188   5.166
 9525SOL    HW129474   2.230   3.136   5.101
 9525SOL    HW229475   2.200   3.164   5.259
 9526SOL     OW29476   5.188   5.152   6.941
 9526SOL    HW129477   5.093   5.159   6.971
 9526SOL    HW229478   5.207   5.058   6.912
 9527SOL     OW29479   4.173   0.171   3.161
 9527SOL    HW129480   4.073   0.172   3.158
 9527SOL    HW229481   4.204   0.166   3.256
 9528SOL     OW29482   5.548   2.450   1.064
 9528SOL    HW129483   5.505   2.514   1.000
 9528SOL    HW229484   5.486   2.374   1.080
 9529SOL     OW29485   6.206   1.247   1.403
 9529SOL    HW129486   6.304   1.267   1.392
 9529SOL    HW229487   6.196   1.163   1.457
 9530SOL     OW29488   1.030   5.417   3.750
 9530SOL    HW129489   0.969   5.484   3.706
 9530SOL    HW229490   1.044   5.442   3.845
 9531SOL     OW29491   3.654   5.177   2.681
 9531SOL    HW129492   3.560   5.201   2.708
 9531SOL    HW229493   3.652   5.127   2.594
 9532SOL     OW29494   6.543   5.300   3.136
 9532SOL    HW129495   6.601   5.226   3.171
 9532SOL    HW229496   6.598   5.384   3.130
 9533SOL     OW29497   2.035   3.958   3.319
 9533SOL    HW129498   2.042   3.862   3.294
 9533SOL    HW229499   2.074   4.015   3.246
 9534SOL     OW29500   5.414   4.773   4.817
 9534SOL    HW129501   5.336   4.768   4.754
 9534SOL    HW229502   5.387   4.735   4.906
 9535SOL     OW29503   0.778   1.243   5.531
 9535SOL    HW129504   0.826   1.269   5.447
 9535SOL    HW229505   0.756   1.326   5.583
 9536SOL     OW29506   3.706   4.061   5.113
 9536SOL    HW129507   3.722   4.000   5.191
 9536SOL    HW229508   3.613   4.047   5.079
 9537SOL     OW29509   0.827   1.418   3.176
 9537SOL    HW129510   0.882   1.499   3.196
 9537SOL    HW229511   0.886   1.338   3.170
 9538SOL     OW29512   4.208   1.020   5.734
 9538SOL    HW129513   4.116   0.985   5.752
 9538SOL    HW229514   4.245   0.975   5.652
 9539SOL     OW29515   3.513   3.403   2.362
 9539SOL    HW129516   3.459   3.385   2.444
 9539SOL    HW229517   3.562   3.490   2.374
 9540SOL     OW29518   4.712   4.639   3.691
 9540SOL    HW129519   4.734   4.734   3.714
 9540SOL    HW229520   4.640   4.638   3.621
 9541SOL     OW29521   1.793   5.363   5.565
 9541SOL    HW129522   1.755   5.312   5.488
 9541SOL    HW229523   1.729   5.359   5.642
 9542SOL     OW29524   6.215   4.051   4.437
 9542SOL    HW129525   6.132   4.041   4.382
 9542SOL    HW229526   6.259   4.138   4.416
 9543SOL     OW29527   2.959   6.893   5.653
 9543SOL    HW129528   2.928   6.935   5.738
 9543SOL    HW229529   2.974   6.795   5.668
 9544SOL     OW29530   5.778   3.494   4.211
 9544SOL    HW129531   5.707   3.424   4.206
 9544SOL    HW229532   5.835   3.490   4.129
 9545SOL     OW29533   0.885   4.234   1.665
 9545SOL    HW129534   0.864   4.138   1.683
 9545SOL    HW229535   0.965   4.261   1.718
 9546SOL     OW29536   2.381   2.675   6.827
 9546SOL    HW129537   2.439   2.747   6.788
 9546SOL    HW229538   2.305   2.655   6.765
 9547SOL     OW29539   4.058   6.591   4.259
 9547SOL    HW129540   4.102   6.596   4.348
 9547SOL    HW229541   3.969   6.546   4.267
 9548SOL     OW29542   0.954   4.749   0.180
 9548SOL    HW129543   0.925   4.839   0.212
 9548SOL    HW229544   1.035   4.759   0.123
 9549SOL     OW29545   5.169   3.083   0.977
 9549SOL    HW129546   5.212   3.135   0.903
 9549SOL    HW229547   5.070   3.087   0.967
 9550SOL     OW29548   5.597   3.332   1.544
 9550SOL    HW129549   5.686   3.376   1.536
 9550SOL    HW229550   5.538   3.386   1.604
 9551SOL     OW29551   6.548   3.093   6.653
 9551SOL    HW129552   6.584   3.068   6.563
 9551SOL    HW229553   6.599   3.171   6.689
 9552SOL     OW29554   3.272   2.209   6.947
 9552SOL    HW129555   3.188   2.170   6.987
 9552SOL    HW229556   3.317   2.268   7.014
 9553SOL     OW29557   5.475   1.495   6.494
 9553SOL    HW129558   5.556   1.548   6.468
 9553SOL    HW229559   5.449   1.520   6.587
 9554SOL     OW29560   2.523   6.617   3.877
 9554SOL    HW129561   2.441   6.587   3.828
 9554SOL    HW229562   2.604   6.596   3.822
 9555SOL     OW29563   6.510   0.739   3.724
 9555SOL    HW129564   6.585   0.779   3.778
 9555SOL    HW229565   6.539   0.650   3.689
 9556SOL     OW29566   1.817   4.388   0.172
 9556SOL    HW129567   1.914   4.366   0.174
 9556SOL    HW229568   1.781   4.371   0.080
 9557SOL     OW29569   4.900   0.753   1.366
 9557SOL    HW129570   4.802   0.758   1.386
 9557SOL    HW229571   4.939   0.675   1.414
 9558SOL     OW29572   4.789   6.377   6.580
 9558SOL    HW129573   4.878   6.378   6.535
 9558SOL    HW229574   4.747   6.287   6.569
 9559SOL     OW29575   1.511   4.268   0.420
 9559SOL    HW129576   1.590   4.223   0.377
 9559SOL    HW229577   1.478   4.341   0.361
 9560SOL     OW29578   3.832   0.115   1.871
 9560SOL    HW129579   3.770   0.036   1.864
 9560SOL    HW229580   3.811   0.168   1.953
 9561SOL     OW29581   0.837   0.844   0.557
 9561SOL    HW129582   0.865   0.923   0.611
 9561SOL    HW229583   0.752   0.807   0.593
 9562SOL     OW29584   3.224   5.769   3.219
 9562SOL    HW129585   3.185   5.724   3.299
 9562SOL    HW229586   3.161   5.761   3.142
 9563SOL     OW29587   0.497   6.244   1.189
 9563SOL    HW129588   0.552   6.223   1.270
 9563SOL    HW229589   0.505   6.169   1.124
 9564SOL     OW29590   1.012   0.689   0.122
 9564SOL    HW129591   1.029   0.639   0.037
 9564SOL    HW229592   1.071   0.770   0.125
 9565SOL     OW29593   2.994   1.476   3.599
 9565SOL    HW129594   3.042   1.551   3.644
 9565SOL    HW229595   3.059   1.423   3.544
 9566SOL     OW29596   2.938   0.739   0.274
 9566SOL    HW129597   2.846   0.706   0.296
 9566SOL    HW229598   2.972   0.690   0.193
 9567SOL     OW29599   6.577   3.979   1.100
 9567SOL    HW129600   6.555   4.062   1.048
 9567SOL    HW229601   6.644   3.924   1.050
 9568SOL     OW29602   4.968   1.203   6.788
 9568SOL    HW129603   4.967   1.290   6.838
 9568SOL    HW229604   4.932   1.131   6.847
 9569SOL     OW29605   5.398   0.922   2.160
 9569SOL    HW129606   5.463   0.911   2.085
 9569SOL    HW229607   5.444   0.965   2.238
 9570SOL     OW29608   0.530   3.170   1.126
 9570SOL    HW129609   0.443   3.220   1.120
 9570SOL    HW229610   0.531   3.116   1.210
 9571SOL     OW29611   2.730   1.856   6.790
 9571SOL    HW129612   2.700   1.906   6.872
 9571SOL    HW229613   2.822   1.885   6.766
 9572SOL     OW29614   2.186   4.221   4.028
 9572SOL    HW129615   2.111   4.155   4.022
 9572SOL    HW229616   2.240   4.203   4.109
 9573SOL     OW29617   6.244   0.860   4.422
 9573SOL    HW129618   6.165   0.802   4.442
 9573SOL    HW229619   6.249   0.934   4.489
 9574SOL     OW29620   3.067   3.549   1.379
 9574SOL    HW129621   3.125   3.481   1.424
 9574SOL    HW229622   2.991   3.504   1.332
 9575SOL     OW29623   6.458   6.711   1.388
 9575SOL    HW129624   6.490   6.621   1.358
 9575SOL    HW229625   6.362   6.722   1.363
 9576SOL     OW29626   0.937   6.816   6.960
 9576SOL    HW129627   0.966   6.802   6.865
 9576SOL    HW229628   0.892   6.733   6.993
 9577SOL     OW29629   6.246   5.225   2.066
 9577SOL    HW129630   6.216   5.320   2.063
 9577SOL    HW229631   6.278   5.202   2.158
 9578SOL     OW29632   1.923   2.629   3.023
 9578SOL    HW129633   1.924   2.721   2.984
 9578SOL    HW229634   1.968   2.565   2.960
 9579SOL     OW29635   5.766   6.096   2.118
 9579SOL    HW129636   5.742   6.155   2.195
 9579SOL    HW229637   5.862   6.110   2.094
 9580SOL     OW29638   4.939   4.892   2.712
 9580SOL    HW129639   4.927   4.794   2.701
 9580SOL    HW229640   5.025   4.921   2.672
 9581SOL     OW29641   6.267   1.363   0.134
 9581SOL    HW129642   6.341   1.299   0.113
 9581SOL    HW229643   6.305   1.447   0.171
 9582SOL     OW29644   4.947   6.163   4.421
 9582SOL    HW129645   4.945   6.192   4.326
 9582SOL    HW229646   4.951   6.244   4.480
 9583SOL     OW29647   3.429   4.532   1.666
 9583SOL    HW129648   3.497   4.576   1.725
 9583SOL    HW229649   3.347   4.589   1.662
 9584SOL     OW29650   2.208   5.470   4.909
 9584SOL    HW129651   2.261   5.438   4.988
 9584SOL    HW229652   2.177   5.392   4.855
 9585SOL     OW29653   4.465   5.664   1.486
 9585SOL    HW129654   4.541   5.723   1.513
 9585SOL    HW229655   4.380   5.701   1.522
 9586SOL     OW29656   4.783   5.099   2.068
 9586SOL    HW129657   4.796   5.074   2.164
 9586SOL    HW229658   4.798   5.018   2.011
 9587SOL     OW29659   2.678   5.940   1.647
 9587SOL    HW129660   2.703   5.970   1.555
 9587SOL    HW229661   2.730   5.858   1.670
 9588SOL     OW29662   6.498   5.617   0.476
 9588SOL    HW129663   6.558   5.575   0.408
 9588SOL    HW229664   6.536   5.705   0.504
 9589SOL     OW29665   2.024   3.663   6.134
 9589SOL    HW129666   2.122   3.675   6.120
 9589SOL    HW229667   1.983   3.750   6.162
 9590SOL     OW29668   5.351   1.649   2.036
 9590SOL    HW129669   5.284   1.695   2.094
 9590SOL    HW229670   5.392   1.573   2.086
 9591SOL     OW29671   3.638   0.556   6.540
 9591SOL    HW129672   3.705   0.486   6.514
 9591SOL    HW229673   3.558   0.550   6.480
 9592SOL     OW29674   2.378   5.241   5.979
 9592SOL    HW129675   2.322   5.214   5.902
 9592SOL    HW229676   2.461   5.185   5.983
 9593SOL     OW29677   1.820   1.827   4.444
 9593SOL    HW129678   1.798   1.908   4.388
 9593SOL    HW229679   1.774   1.835   4.533
 9594SOL     OW29680   0.334   6.233   4.039
 9594SOL    HW129681   0.416   6.257   3.987
 9594SOL    HW229682   0.315   6.304   4.107
 9595SOL     OW29683   0.061   3.373   3.751
 9595SOL    HW129684   0.122   3.296   3.769
 9595SOL    HW229685   0.060   3.433   3.832
 9596SOL     OW29686   0.446   6.490   0.690
 9596SOL    HW129687   0.464   6.470   0.594
 9596SOL    HW229688   0.370   6.434   0.722
 9597SOL     OW29689   0.581   3.976   2.638
 9597SOL    HW129690   0.561   3.949   2.544
 9597SOL    HW229691   0.551   3.905   2.701
 9598SOL     OW29692   1.060   3.950   3.340
 9598SOL    HW129693   0.994   3.915   3.407
 9598SOL    HW229694   1.028   3.928   3.248
 9599SOL     OW29695   3.714   0.055   4.047
 9599SOL    HW129696   3.726   0.035   3.950
 9599SOL    HW229697   3.652   7.006   4.088
 9600SOL     OW29698   3.085   0.829   1.270
 9600SOL    HW129699   3.044   0.907   1.223
 9600SOL    HW229700   3.161   0.861   1.327
 9601SOL     OW29701   6.822   4.262   1.565
 9601SOL    HW129702   6.857   4.241   1.656
 9601SOL    HW229703   6.737   4.211   1.549
 9602SOL     OW29704   4.701   4.342   5.839
 9602SOL    HW129705   4.717   4.247   5.866
 9602SOL    HW229706   4.634   4.383   5.902
 9603SOL     OW29707   5.817   6.061   5.411
 9603SOL    HW129708   5.916   6.074   5.415
 9603SOL    HW229709   5.791   5.982   5.467
 9604SOL     OW29710   5.198   6.821   0.479
 9604SOL    HW129711   5.135   6.897   0.464
 9604SOL    HW229712   5.284   6.856   0.515
 9605SOL     OW29713   6.473   6.436   3.627
 9605SOL    HW129714   6.467   6.527   3.668
 9605SOL    HW229715   6.484   6.445   3.528
 9606SOL     OW29716   1.705   1.639   6.689
 9606SOL    HW129717   1.775   1.570   6.705
 9606SOL    HW229718   1.746   1.730   6.694
 9607SOL     OW29719   3.177   2.831   6.134
 9607SOL    HW129720   3.092   2.882   6.148
 9607SOL    HW229721   3.162   2.734   6.155
 9608SOL     OW29722   6.720   3.769   3.489
 9608SOL    HW129723   6.624   3.758   3.461
 9608SOL    HW229724   6.778   3.711   3.433
 9609SOL     OW29725   3.925   2.500   5.797
 9609SOL    HW129726   3.831   2.534   5.793
 9609SOL    HW229727   3.953   2.491   5.893
 9610SOL     OW29728   1.455   4.178   2.523
 9610SOL    HW129729   1.448   4.156   2.426
 9610SOL    HW229730   1.541   4.144   2.560
 9611SOL     OW29731   1.167   0.567   0.497
 9611SOL    HW129732   1.164   0.499   0.424
 9611SOL    HW229733   1.127   0.528   0.581
 9612SOL     OW29734   0.653   3.071   3.089
 9612SOL    HW129735   0.583   3.056   3.019
 9612SOL    HW229736   0.694   3.161   3.076
 9613SOL     OW29737   5.848   5.563   3.302
 9613SOL    HW129738   5.942   5.546   3.333
 9613SOL    HW229739   5.812   5.481   3.259
 9614SOL     OW29740   5.280   2.089   3.030
 9614SOL    HW129741   5.220   2.019   3.070
 9614SOL    HW229742   5.358   2.104   3.090
 9615SOL     OW29743   2.422   2.993   1.378
 9615SOL    HW129744   2.512   2.984   1.421
 9615SOL    HW229745   2.355   3.020   1.447
 9616SOL     OW29746   3.291   2.691   6.690
 9616SOL    HW129747   3.320   2.774   6.643
 9616SOL    HW229748   3.259   2.713   6.782
 9617SOL     OW29749   2.683   2.465   4.017
 9617SOL    HW129750   2.709   2.393   3.953
 9617SOL    HW229751   2.663   2.425   4.107
 9618SOL     OW29752   3.109   0.925   0.595
 9618SOL    HW129753   3.088   0.982   0.674
 9618SOL    HW229754   3.058   0.957   0.516
 9619SOL     OW29755   2.631   0.917   4.902
 9619SOL    HW129756   2.535   0.893   4.919
 9619SOL    HW229757   2.639   0.963   4.814
 9620SOL     OW29758   5.603   0.114   5.538
 9620SOL    HW129759   5.568   0.200   5.575
 9620SOL    HW229760   5.552   0.090   5.456
 9621SOL     OW29761   1.666   2.644   2.741
 9621SOL    HW129762   1.635   2.666   2.833
 9621SOL    HW229763   1.765   2.635   2.740
 9622SOL     OW29764   5.727   0.519   1.544
 9622SOL    HW129765   5.697   0.613   1.528
 9622SOL    HW229766   5.826   0.519   1.562
 9623SOL     OW29767   3.498   3.570   6.643
 9623SOL    HW129768   3.466   3.620   6.563
 9623SOL    HW229769   3.554   3.630   6.700
 9624SOL     OW29770   6.091   3.082   3.226
 9624SOL    HW129771   6.097   2.985   3.253
 9624SOL    HW229772   6.016   3.125   3.276
 9625SOL     OW29773   6.212   6.245   0.238
 9625SOL    HW129774   6.297   6.192   0.241
 9625SOL    HW229775   6.174   6.241   0.146
 9626SOL     OW29776   3.699   6.478   6.743
 9626SOL    HW129777   3.672   6.392   6.700
 9626SOL    HW229778   3.799   6.489   6.736
 9627SOL     OW29779   1.055   6.429   6.669
 9627SOL    HW129780   0.976   6.436   6.608
 9627SOL    HW229781   1.131   6.482   6.633
 9628SOL     OW29782   4.297   5.894   1.637
 9628SOL    HW129783   4.345   5.963   1.582
 9628SOL    HW229784   4.221   5.857   1.584
 9629SOL     OW29785   2.897   6.466   1.260
 9629SOL    HW129786   2.937   6.513   1.182
 9629SOL    HW229787   2.837   6.528   1.310
 9630SOL     OW29788   6.167   1.047   5.863
 9630SOL    HW129789   6.100   0.991   5.816
 9630SOL    HW229790   6.246   0.991   5.887
 9631SOL     OW29791   5.960   6.069   6.629
 9631SOL    HW129792   5.934   6.014   6.708
 9631SOL    HW229793   5.886   6.133   6.608
 9632SOL     OW29794   1.813   6.402   1.687
 9632SOL    HW129795   1.732   6.355   1.654
 9632SOL    HW229796   1.820   6.391   1.787
 9633SOL     OW29797   6.917   5.454   6.575
 9633SOL    HW129798   6.893   5.504   6.491
 9633SOL    HW229799   7.008   5.483   6.605
 9634SOL     OW29800   1.336   6.344   4.580
 9634SOL    HW129801   1.265   6.407   4.548
 9634SOL    HW229802   1.365   6.369   4.672
 9635SOL     OW29803   1.915   5.263   5.178
 9635SOL    HW129804   1.969   5.335   5.222
 9635SOL    HW229805   1.975   5.190   5.148
 9636SOL     OW29806   4.153   1.273   5.793
 9636SOL    HW129807   4.090   1.282   5.870
 9636SOL    HW229808   4.181   1.177   5.784
 9637SOL     OW29809   1.981   1.520   6.455
 9637SOL    HW129810   2.070   1.476   6.467
 9637SOL    HW229811   1.911   1.469   6.505
 9638SOL     OW29812   6.485   1.852   5.224
 9638SOL    HW129813   6.411   1.794   5.259
 9638SOL    HW229814   6.484   1.852   5.124
 9639SOL     OW29815   4.381   1.276   2.563
 9639SOL    HW129816   4.410   1.362   2.521
 9639SOL    HW229817   4.448   1.248   2.632
 9640SOL     OW29818   2.095   2.028   2.485
 9640SOL    HW129819   1.997   2.038   2.501
 9640SOL    HW229820   2.140   2.116   2.504
 9641SOL     OW29821   6.309   5.849   6.951
 9641SOL    HW129822   6.266   5.896   6.874
 9641SOL    HW229823   6.361   5.915   7.005
 9642SOL     OW29824   3.226   0.515   4.279
 9642SOL    HW129825   3.230   0.505   4.379
 9642SOL    HW229826   3.131   0.502   4.249
 9643SOL     OW29827   4.658   4.271   3.754
 9643SOL    HW129828   4.668   4.177   3.785
 9643SOL    HW229829   4.678   4.334   3.829
 9644SOL     OW29830   1.910   2.192   6.002
 9644SOL    HW129831   1.832   2.174   5.942
 9644SOL    HW229832   1.971   2.112   6.002
 9645SOL     OW29833   2.991   5.418   5.104
 9645SOL    HW129834   2.989   5.404   5.005
 9645SOL    HW229835   2.987   5.515   5.125
 9646SOL     OW29836   4.339   4.677   2.866
 9646SOL    HW129837   4.342   4.624   2.781
 9646SOL    HW229838   4.247   4.714   2.879
 9647SOL     OW29839   6.624   2.938   0.373
 9647SOL    HW129840   6.540   2.948   0.320
 9647SOL    HW229841   6.626   3.007   0.446
 9648SOL     OW29842   4.446   2.865   1.043
 9648SOL    HW129843   4.419   2.897   1.134
 9648SOL    HW229844   4.485   2.942   0.992
 9649SOL     OW29845   2.151   6.108   0.696
 9649SOL    HW129846   2.154   6.148   0.605
 9649SOL    HW229847   2.103   6.171   0.758
 9650SOL     OW29848   6.801   6.412   1.918
 9650SOL    HW129849   6.887   6.388   1.872
 9650SOL    HW229850   6.816   6.414   2.017
 9651SOL     OW29851   0.090   1.555   5.790
 9651SOL    HW129852   0.111   1.509   5.876
 9651SOL    HW229853   0.075   1.652   5.808
 9652SOL     OW29854   0.438   5.817   3.033
 9652SOL    HW129855   0.438   5.726   3.074
 9652SOL    HW229856   0.487   5.881   3.093
 9653SOL     OW29857   5.935   5.268   4.529
 9653SOL    HW129858   5.899   5.175   4.513
 9653SOL    HW229859   5.865   5.335   4.504
 9654SOL     OW29860   2.298   2.668   2.254
 9654SOL    HW129861   2.355   2.670   2.337
 9654SOL    HW229862   2.356   2.649   2.175
 9655SOL     OW29863   6.422   2.776   6.663
 9655SOL    HW129864   6.403   2.868   6.629
 9655SOL    HW229865   6.354   2.712   6.627
 9656SOL     OW29866   4.002   0.872   2.858
 9656SOL    HW129867   4.074   0.805   2.840
 9656SOL    HW229868   3.980   0.920   2.773
 9657SOL     OW29869   0.040   0.066   4.562
 9657SOL    HW129870   7.013   0.000   4.502
 9657SOL    HW229871   7.000   0.147   4.573
 9658SOL     OW29872   6.749   2.314   2.793
 9658SOL    HW129873   6.668   2.289   2.739
 9658SOL    HW229874   6.721   2.333   2.887
 9659SOL     OW29875   0.412   4.732   6.923
 9659SOL    HW129876   0.503   4.699   6.949
 9659SOL    HW229877   0.358   4.656   6.886
 9660SOL     OW29878   0.720   5.706   0.115
 9660SOL    HW129879   0.664   5.724   0.035
 9660SOL    HW229880   0.719   5.608   0.136
 9661SOL     OW29881   4.355   6.561   1.329
 9661SOL    HW129882   4.385   6.553   1.234
 9661SOL    HW229883   4.268   6.610   1.333
 9662SOL     OW29884   5.704   0.755   4.491
 9662SOL    HW129885   5.763   0.781   4.567
 9662SOL    HW229886   5.647   0.677   4.518
 9663SOL     OW29887   2.541   5.390   2.145
 9663SOL    HW129888   2.457   5.402   2.092
 9663SOL    HW229889   2.541   5.300   2.189
 9664SOL     OW29890   3.041   6.502   1.709
 9664SOL    HW129891   2.985   6.466   1.783
 9664SOL    HW229892   3.138   6.488   1.729
 9665SOL     OW29893   5.379   4.031   4.344
 9665SOL    HW129894   5.378   3.945   4.395
 9665SOL    HW229895   5.288   4.071   4.343
 9666SOL     OW29896   5.608   4.841   4.248
 9666SOL    HW129897   5.564   4.761   4.287
 9666SOL    HW229898   5.549   4.921   4.259
 9667SOL     OW29899   4.131   3.489   3.904
 9667SOL    HW129900   4.152   3.522   3.812
 9667SOL    HW229901   4.107   3.567   3.962
 9668SOL     OW29902   0.545   0.854   5.206
 9668SOL    HW129903   0.519   0.900   5.121
 9668SOL    HW229904   0.588   0.919   5.268
 9669SOL     OW29905   1.781   5.874   0.603
 9669SOL    HW129906   1.843   5.871   0.682
 9669SOL    HW229907   1.688   5.853   0.634
 9670SOL     OW29908   5.633   5.169   0.099
 9670SOL    HW129909   5.559   5.170   0.165
 9670SOL    HW229910   5.720   5.151   0.146
 9671SOL     OW29911   6.722   6.683   6.149
 9671SOL    HW129912   6.813   6.659   6.115
 9671SOL    HW229913   6.730   6.718   6.242
 9672SOL     OW29914   0.646   6.692   5.149
 9672SOL    HW129915   0.630   6.740   5.063
 9672SOL    HW229916   0.743   6.675   5.161
 9673SOL     OW29917   2.886   3.268   6.428
 9673SOL    HW129918   2.934   3.208   6.363
 9673SOL    HW229919   2.949   3.295   6.501
 9674SOL     OW29920   3.185   6.628   2.377
 9674SOL    HW129921   3.140   6.599   2.461
 9674SOL    HW229922   3.130   6.599   2.298
 9675SOL     OW29923   6.859   2.314   2.227
 9675SOL    HW129924   6.808   2.306   2.312
 9675SOL    HW229925   6.800   2.290   2.150
 9676SOL     OW29926   0.355   3.203   4.601
 9676SOL    HW129927   0.376   3.114   4.641
 9676SOL    HW229928   0.440   3.249   4.576
 9677SOL     OW29929   1.889   3.676   5.204
 9677SOL    HW129930   1.866   3.579   5.197
 9677SOL    HW229931   1.987   3.686   5.222
 9678SOL     OW29932   3.197   3.582   3.204
 9678SOL    HW129933   3.258   3.566   3.282
 9678SOL    HW229934   3.221   3.669   3.160
 9679SOL     OW29935   1.128   3.373   1.896
 9679SOL    HW129936   1.066   3.312   1.945
 9679SOL    HW229937   1.221   3.358   1.928
 9680SOL     OW29938   6.073   5.455   3.428
 9680SOL    HW129939   6.060   5.543   3.474
 9680SOL    HW229940   6.171   5.434   3.423
 9681SOL     OW29941   1.687   0.894   2.750
 9681SOL    HW129942   1.716   0.799   2.750
 9681SOL    HW229943   1.675   0.926   2.844
 9682SOL     OW29944   5.888   3.942   3.174
 9682SOL    HW129945   5.824   3.922   3.248
 9682SOL    HW229946   5.851   3.909   3.087
 9683SOL     OW29947   4.572   5.934   6.869
 9683SOL    HW129948   4.563   5.904   6.774
 9683SOL    HW229949   4.626   6.018   6.872
 9684SOL     OW29950   1.584   3.687   4.137
 9684SOL    HW129951   1.509   3.626   4.117
 9684SOL    HW229952   1.647   3.690   4.059
 9685SOL     OW29953   1.877   2.320   6.976
 9685SOL    HW129954   1.814   2.393   7.003
 9685SOL    HW229955   1.843   2.275   6.893
 9686SOL     OW29956   5.945   1.040   1.844
 9686SOL    HW129957   5.932   1.056   1.747
 9686SOL    HW229958   5.956   1.127   1.892
 9687SOL     OW29959   3.588   0.406   3.827
 9687SOL    HW129960   3.611   0.311   3.844
 9687SOL    HW229961   3.569   0.419   3.729
 9688SOL     OW29962   0.412   1.666   3.385
 9688SOL    HW129963   0.360   1.706   3.309
 9688SOL    HW229964   0.485   1.728   3.412
 9689SOL     OW29965   1.952   5.904   6.119
 9689SOL    HW129966   1.880   5.876   6.183
 9689SOL    HW229967   1.929   5.871   6.027
 9690SOL     OW29968   6.363   4.267   1.383
 9690SOL    HW129969   6.343   4.246   1.479
 9690SOL    HW229970   6.304   4.212   1.324
 9691SOL     OW29971   1.527   4.102   1.634
 9691SOL    HW129972   1.604   4.094   1.698
 9691SOL    HW229973   1.543   4.041   1.556
 9692SOL     OW29974   2.563   5.663   1.402
 9692SOL    HW129975   2.588   5.588   1.342
 9692SOL    HW229976   2.637   5.679   1.468
 9693SOL     OW29977   5.961   6.051   1.619
 9693SOL    HW129978   5.988   5.956   1.632
 9693SOL    HW229979   5.868   6.064   1.652
 9694SOL     OW29980   2.129   2.169   6.962
 9694SOL    HW129981   2.110   2.081   6.919
 9694SOL    HW229982   2.043   2.220   6.971
 9695SOL     OW29983   6.105   4.052   1.341
 9695SOL    HW129984   6.186   4.045   1.283
 9695SOL    HW229985   6.129   4.029   1.435
 9696SOL     OW29986   4.172   3.083   1.202
 9696SOL    HW129987   4.084   3.035   1.210
 9696SOL    HW229988   4.160   3.179   1.227
 9697SOL     OW29989   1.061   6.011   0.146
 9697SOL    HW129990   1.040   6.051   0.057
 9697SOL    HW229991   1.105   6.080   0.204
 9698SOL     OW29992   5.918   1.955   4.854
 9698SOL    HW129993   5.972   1.934   4.773
 9698SOL    HW229994   5.975   1.945   4.936
 9699SOL     OW29995   1.688   3.098   0.001
 9699SOL    HW129996   1.714   3.021   6.960
 9699SOL    HW229997   1.749   3.101   0.081
 9700SOL     OW29998   3.595   4.152   4.526
 9700SOL    HW129999   3.544   4.204   4.595
 9700SOL    HW230000   3.690   4.140   4.557
 9701SOL     OW30001   5.774   4.771   5.188
 9701SOL    HW130002   5.860   4.753   5.140
 9701SOL    HW230003   5.769   4.715   5.270
 9702SOL     OW30004   4.289   0.797   1.054
 9702SOL    HW130005   4.330   0.882   1.083
 9702SOL    HW230006   4.244   0.810   0.965
 9703SOL     OW30007   2.890   6.608   3.679
 9703SOL    HW130008   2.950   6.643   3.607
 9703SOL    HW230009   2.938   6.537   3.731
 9704SOL     OW30010   2.947   0.674   3.591
 9704SOL    HW130011   2.916   0.671   3.496
 9704SOL    HW230012   3.044   0.648   3.595
 9705SOL     OW30013   3.744   3.966   0.767
 9705SOL    HW130014   3.715   3.880   0.727
 9705SOL    HW230015   3.799   4.017   0.701
 9706SOL     OW30016   5.631   2.980   2.878
 9706SOL    HW130017   5.600   2.922   2.803
 9706SOL    HW230018   5.633   2.927   2.963
 9707SOL     OW30019   2.328   5.368   2.448
 9707SOL    HW130020   2.413   5.321   2.425
 9707SOL    HW230021   2.253   5.301   2.455
 9708SOL     OW30022   2.756   1.888   2.715
 9708SOL    HW130023   2.804   1.931   2.792
 9708SOL    HW230024   2.811   1.899   2.632
 9709SOL     OW30025   1.925   5.327   2.563
 9709SOL    HW130026   1.908   5.252   2.499
 9709SOL    HW230027   1.870   5.313   2.646
 9710SOL     OW30028   0.264   0.485   3.382
 9710SOL    HW130029   0.317   0.444   3.308
 9710SOL    HW230030   0.248   0.582   3.362
 9711SOL     OW30031   1.061   4.106   5.231
 9711SOL    HW130032   1.039   4.156   5.147
 9711SOL    HW230033   1.015   4.149   5.308
 9712SOL     OW30034   4.698   2.338   3.880
 9712SOL    HW130035   4.637   2.411   3.849
 9712SOL    HW230036   4.643   2.257   3.903
 9713SOL     OW30037   6.729   5.161   2.535
 9713SOL    HW130038   6.712   5.093   2.606
 9713SOL    HW230039   6.799   5.128   2.472
 9714SOL     OW30040   1.854   2.256   1.588
 9714SOL    HW130041   1.767   2.303   1.573
 9714SOL    HW230042   1.841   2.182   1.654
 9715SOL     OW30043   4.917   5.636   5.164
 9715SOL    HW130044   4.980   5.571   5.204
 9715SOL    HW230045   4.893   5.706   5.231
 9716SOL     OW30046   4.290   1.791   6.460
 9716SOL    HW130047   4.260   1.818   6.368
 9716SOL    HW230048   4.371   1.733   6.453
 9717SOL     OW30049   5.624   4.755   3.820
 9717SOL    HW130050   5.558   4.699   3.869
 9717SOL    HW230051   5.679   4.698   3.760
 9718SOL     OW30052   4.687   3.213   1.556
 9718SOL    HW130053   4.640   3.126   1.564
 9718SOL    HW230054   4.778   3.198   1.517
 9719SOL     OW30055   0.357   1.426   0.147
 9719SOL    HW130056   0.455   1.441   0.132
 9719SOL    HW230057   0.317   1.505   0.192
 9720SOL     OW30058   6.925   0.058   1.928
 9720SOL    HW130059   6.979   0.089   2.006
 9720SOL    HW230060   6.982   0.001   1.869
 9721SOL     OW30061   6.834   3.898   2.691
 9721SOL    HW130062   6.737   3.896   2.714
 9721SOL    HW230063   6.849   3.963   2.616
 9722SOL     OW30064   0.812   0.032   4.086
 9722SOL    HW130065   0.743   6.984   4.116
 9722SOL    HW230066   0.865   7.012   4.011
 9723SOL     OW30067   0.162   1.139   3.918
 9723SOL    HW130068   0.196   1.222   3.875
 9723SOL    HW230069   0.124   1.078   3.849
 9724SOL     OW30070   3.749   2.919   1.224
 9724SOL    HW130071   3.699   2.912   1.310
 9724SOL    HW230072   3.836   2.870   1.231
 9725SOL     OW30073   4.372   3.174   5.392
 9725SOL    HW130074   4.327   3.094   5.432
 9725SOL    HW230075   4.470   3.158   5.387
 9726SOL     OW30076   5.500   6.865   4.951
 9726SOL    HW130077   5.436   6.904   5.017
 9726SOL    HW230078   5.449   6.822   4.876
 9727SOL     OW30079   1.640   2.371   5.727
 9727SOL    HW130080   1.554   2.405   5.688
 9727SOL    HW230081   1.714   2.433   5.704
 9728SOL     OW30082   3.070   4.901   6.909
 9728SOL    HW130083   3.036   4.868   6.997
 9728SOL    HW230084   3.086   4.999   6.915
 9729SOL     OW30085   3.247   5.154   2.323
 9729SOL    HW130086   3.172   5.177   2.261
 9729SOL    HW230087   3.252   5.054   2.333
 9730SOL     OW30088   6.635   3.668   3.195
 9730SOL    HW130089   6.564   3.611   3.236
 9730SOL    HW230090   6.723   3.646   3.236
 9731SOL     OW30091   4.748   5.320   1.000
 9731SOL    HW130092   4.819   5.327   1.070
 9731SOL    HW230093   4.735   5.224   0.975
 9732SOL     OW30094   6.442   6.181   2.797
 9732SOL    HW130095   6.411   6.124   2.720
 9732SOL    HW230096   6.365   6.234   2.832
 9733SOL     OW30097   5.790   4.296   6.518
 9733SOL    HW130098   5.857   4.239   6.472
 9733SOL    HW230099   5.807   4.295   6.617
 9734SOL     OW30100   5.264   2.389   4.600
 9734SOL    HW130101   5.338   2.323   4.593
 9734SOL    HW230102   5.295   2.468   4.654
 9735SOL     OW30103   1.212   4.462   1.103
 9735SOL    HW130104   1.287   4.497   1.158
 9735SOL    HW230105   1.245   4.388   1.044
 9736SOL     OW30106   3.511   1.604   0.776
 9736SOL    HW130107   3.529   1.516   0.821
 9736SOL    HW230108   3.413   1.624   0.782
 9737SOL     OW30109   4.080   2.200   5.116
 9737SOL    HW130110   4.080   2.193   5.216
 9737SOL    HW230111   4.112   2.291   5.089
 9738SOL     OW30112   2.004   0.283   2.365
 9738SOL    HW130113   1.993   0.321   2.273
 9738SOL    HW230114   1.950   0.338   2.430
 9739SOL     OW30115   5.194   4.825   1.594
 9739SOL    HW130116   5.142   4.903   1.559
 9739SOL    HW230117   5.233   4.849   1.683
 9740SOL     OW30118   6.582   4.287   3.275
 9740SOL    HW130119   6.599   4.215   3.343
 9740SOL    HW230120   6.610   4.375   3.313
 9741SOL     OW30121   4.714   2.266   1.724
 9741SOL    HW130122   4.758   2.294   1.809
 9741SOL    HW230123   4.655   2.187   1.742
 9742SOL     OW30124   4.733   2.095   4.384
 9742SOL    HW130125   4.711   2.179   4.334
 9742SOL    HW230126   4.758   2.118   4.478
 9743SOL     OW30127   1.866   2.532   5.654
 9743SOL    HW130128   1.847   2.623   5.691
 9743SOL    HW230129   1.874   2.538   5.554
 9744SOL     OW30130   1.479   0.733   1.583
 9744SOL    HW130131   1.380   0.724   1.573
 9744SOL    HW230132   1.519   0.643   1.596
 9745SOL     OW30133   0.016   2.364   4.682
 9745SOL    HW130134   6.955   2.421   4.706
 9745SOL    HW230135   0.029   2.294   4.753
 9746SOL     OW30136   6.016   1.633   4.535
 9746SOL    HW130137   6.038   1.614   4.440
 9746SOL    HW230138   5.918   1.616   4.551
 9747SOL     OW30139   0.374   0.192   0.038
 9747SOL    HW130140   0.421   0.280   0.035
 9747SOL    HW230141   0.381   0.147   6.967
 9748SOL     OW30142   0.006   5.873   4.193
 9748SOL    HW130143   0.053   5.961   4.186
 9748SOL    HW230144   6.943   5.882   4.250
 9749SOL     OW30145   0.746   4.400   4.457
 9749SOL    HW130146   0.726   4.463   4.532
 9749SOL    HW230147   0.791   4.450   4.383
 9750SOL     OW30148   4.249   4.747   3.561
 9750SOL    HW130149   4.304   4.825   3.533
 9750SOL    HW230150   4.239   4.684   3.485
 9751SOL     OW30151   2.107   2.601   0.399
 9751SOL    HW130152   2.183   2.570   0.342
 9751SOL    HW230153   2.022   2.560   0.366
 9752SOL     OW30154   3.457   1.074   5.488
 9752SOL    HW130155   3.548   1.033   5.494
 9752SOL    HW230156   3.387   1.002   5.494
 9753SOL     OW30157   6.716   5.807   5.258
 9753SOL    HW130158   6.631   5.818   5.309
 9753SOL    HW230159   6.706   5.848   5.167
 9754SOL     OW30160   0.463   2.057   6.343
 9754SOL    HW130161   0.534   1.991   6.319
 9754SOL    HW230162   0.388   2.052   6.277
 9755SOL     OW30163   4.101   5.028   5.371
 9755SOL    HW130164   4.128   5.023   5.467
 9755SOL    HW230165   4.176   5.064   5.317
 9756SOL     OW30166   5.962   2.825   5.979
 9756SOL    HW130167   6.014   2.770   6.045
 9756SOL    HW230168   5.883   2.866   6.025
 9757SOL     OW30169   6.153   2.377   3.805
 9757SOL    HW130170   6.188   2.463   3.842
 9757SOL    HW230171   6.229   2.323   3.768
 9758SOL     OW30172   2.945   0.377   0.290
 9758SOL    HW130173   2.921   0.423   0.204
 9758SOL    HW230174   3.040   0.398   0.314
 9759SOL     OW30175   3.545   5.859   1.302
 9759SOL    HW130176   3.633   5.833   1.340
 9759SOL    HW230177   3.540   5.831   1.206
 9760SOL     OW30178   5.982   4.126   6.407
 9760SOL    HW130179   6.077   4.111   6.434
 9760SOL    HW230180   5.979   4.151   6.310
 9761SOL     OW30181   5.493   5.698   2.573
 9761SOL    HW130182   5.413   5.659   2.527
 9761SOL    HW230183   5.514   5.787   2.532
 9762SOL     OW30184   2.310   1.711   4.081
 9762SOL    HW130185   2.256   1.780   4.128
 9762SOL    HW230186   2.260   1.679   4.000
 9763SOL     OW30187   2.260   1.486   1.489
 9763SOL    HW130188   2.289   1.572   1.447
 9763SOL    HW230189   2.161   1.479   1.487
 9764SOL     OW30190   1.364   2.433   2.109
 9764SOL    HW130191   1.437   2.373   2.142
 9764SOL    HW230192   1.390   2.528   2.124
 9765SOL     OW30193   6.824   1.392   5.690
 9765SOL    HW130194   6.733   1.351   5.691
 9765SOL    HW230195   6.855   1.402   5.595
 9766SOL     OW30196   2.880   0.790   2.261
 9766SOL    HW130197   2.972   0.752   2.259
 9766SOL    HW230198   2.825   0.741   2.329
 9767SOL     OW30199   4.827   0.523   5.458
 9767SOL    HW130200   4.921   0.492   5.441
 9767SOL    HW230201   4.821   0.622   5.443
 9768SOL     OW30202   4.294   2.341   2.582
 9768SOL    HW130203   4.364   2.385   2.526
 9768SOL    HW230204   4.336   2.280   2.649
 9769SOL     OW30205   0.345   1.941   1.476
 9769SOL    HW130206   0.412   1.975   1.411
 9769SOL    HW230207   0.393   1.907   1.558
 9770SOL     OW30208   6.373   4.369   6.131
 9770SOL    HW130209   6.275   4.392   6.128
 9770SOL    HW230210   6.401   4.332   6.042
 9771SOL     OW30211   3.630   5.928   5.586
 9771SOL    HW130212   3.632   5.983   5.670
 9771SOL    HW230213   3.696   5.964   5.520
 9772SOL     OW30214   6.488   0.292   1.729
 9772SOL    HW130215   6.437   0.356   1.671
 9772SOL    HW230216   6.564   0.253   1.677
 9773SOL     OW30217   5.621   5.687   3.409
 9773SOL    HW130218   5.708   5.638   3.407
 9773SOL    HW230219   5.606   5.731   3.320
 9774SOL     OW30220   6.776   5.203   3.232
 9774SOL    HW130221   6.773   5.199   3.332
 9774SOL    HW230222   6.847   5.267   3.203
 9775SOL     OW30223   2.760   2.181   4.973
 9775SOL    HW130224   2.727   2.265   5.016
 9775SOL    HW230225   2.711   2.165   4.888
 9776SOL     OW30226   0.376   4.958   4.980
 9776SOL    HW130227   0.358   5.056   4.983
 9776SOL    HW230228   0.313   4.914   4.917
 9777SOL     OW30229   5.573   4.728   6.769
 9777SOL    HW130230   5.547   4.821   6.743
 9777SOL    HW230231   5.492   4.669   6.769
 9778SOL     OW30232   3.768   0.912   3.509
 9778SOL    HW130233   3.845   0.975   3.503
 9778SOL    HW230234   3.788   0.842   3.578
 9779SOL     OW30235   2.862   1.877   6.129
 9779SOL    HW130236   2.794   1.840   6.193
 9779SOL    HW230237   2.840   1.848   6.036
 9780SOL     OW30238   3.471   4.182   0.385
 9780SOL    HW130239   3.464   4.253   0.455
 9780SOL    HW230240   3.435   4.096   0.422
 9781SOL     OW30241   1.898   5.057   4.011
 9781SOL    HW130242   1.971   5.081   3.947
 9781SOL    HW230243   1.929   4.982   4.070
 9782SOL     OW30244   6.503   0.744   1.310
 9782SOL    HW130245   6.561   0.771   1.387
 9782SOL    HW230246   6.534   0.656   1.274
 9783SOL     OW30247   5.225   1.315   2.811
 9783SOL    HW130248   5.318   1.335   2.782
 9783SOL    HW230249   5.166   1.393   2.792
 9784SOL     OW30250   5.191   0.948   4.393
 9784SOL    HW130251   5.209   0.951   4.491
 9784SOL    HW230252   5.275   0.921   4.345
 9785SOL     OW30253   1.094   2.897   1.151
 9785SOL    HW130254   1.127   2.873   1.242
 9785SOL    HW230255   1.060   2.815   1.106
 9786SOL     OW30256   2.610   6.631   4.503
 9786SOL    HW130257   2.644   6.677   4.421
 9786SOL    HW230258   2.544   6.690   4.549
 9787SOL     OW30259   5.310   4.583   2.213
 9787SOL    HW130260   5.272   4.509   2.156
 9787SOL    HW230261   5.398   4.612   2.175
 9788SOL     OW30262   0.257   1.027   5.355
 9788SOL    HW130263   0.282   1.119   5.323
 9788SOL    HW230264   0.337   0.967   5.349
 9789SOL     OW30265   1.662   5.930   4.284
 9789SOL    HW130266   1.751   5.969   4.308
 9789SOL    HW230267   1.596   5.952   4.355
 9790SOL     OW30268   6.376   1.802   4.397
 9790SOL    HW130269   6.382   1.861   4.317
 9790SOL    HW230270   6.416   1.713   4.376
 9791SOL     OW30271   1.275   2.810   1.382
 9791SOL    HW130272   1.264   2.716   1.416
 9791SOL    HW230273   1.305   2.869   1.457
 9792SOL     OW30274   4.357   5.797   2.153
 9792SOL    HW130275   4.443   5.822   2.197
 9792SOL    HW230276   4.302   5.880   2.137
 9793SOL     OW30277   4.644   5.918   2.835
 9793SOL    HW130278   4.608   5.826   2.852
 9793SOL    HW230279   4.630   5.942   2.739
 9794SOL     OW30280   3.734   3.013   6.559
 9794SOL    HW130281   3.751   3.109   6.583
 9794SOL    HW230282   3.714   3.006   6.461
 9795SOL     OW30283   2.236   4.448   4.372
 9795SOL    HW130284   2.188   4.425   4.457
 9795SOL    HW230285   2.315   4.506   4.392
 9796SOL     OW30286   3.332   4.599   0.295
 9796SOL    HW130287   3.336   4.618   0.393
 9796SOL    HW230288   3.295   4.678   0.247
 9797SOL     OW30289   4.737   2.902   4.863
 9797SOL    HW130290   4.683   2.819   4.877
 9797SOL    HW230291   4.752   2.916   4.765
 9798SOL     OW30292   2.122   2.306   1.693
 9798SOL    HW130293   2.159   2.363   1.619
 9798SOL    HW230294   2.035   2.267   1.664
 9799SOL     OW30295   3.051   3.981   2.300
 9799SOL    HW130296   3.111   4.022   2.368
 9799SOL    HW230297   3.007   3.899   2.339
 9800SOL     OW30298   3.282   4.960   0.234
 9800SOL    HW130299   3.215   4.898   0.193
 9800SOL    HW230300   3.274   5.050   0.193
 9801SOL     OW30301   4.509   5.198   0.009
 9801SOL    HW130302   4.563   5.142   6.964
 9801SOL    HW230303   4.508   5.155   0.099
 9802SOL     OW30304   0.469   4.485   1.450
 9802SOL    HW130305   0.555   4.442   1.478
 9802SOL    HW230306   0.393   4.423   1.471
 9803SOL     OW30307   5.263   0.777   6.631
 9803SOL    HW130308   5.321   0.858   6.622
 9803SOL    HW230309   5.182   0.800   6.685
 9804SOL     OW30310   5.682   5.382   4.460
 9804SOL    HW130311   5.599   5.406   4.510
 9804SOL    HW230312   5.658   5.330   4.378
 9805SOL     OW30313   3.243   4.156   0.888
 9805SOL    HW130314   3.176   4.226   0.860
 9805SOL    HW230315   3.335   4.190   0.870
 9806SOL     OW30316   6.497   2.214   2.745
 9806SOL    HW130317   6.431   2.211   2.669
 9806SOL    HW230318   6.447   2.221   2.831
 9807SOL     OW30319   3.717   2.716   0.886
 9807SOL    HW130320   3.799   2.682   0.840
 9807SOL    HW230321   3.727   2.703   0.985
 9808SOL     OW30322   0.952   1.685   5.357
 9808SOL    HW130323   0.994   1.626   5.288
 9808SOL    HW230324   0.856   1.659   5.370
 9809SOL     OW30325   1.142   0.513   4.816
 9809SOL    HW130326   1.173   0.436   4.759
 9809SOL    HW230327   1.101   0.478   4.900
 9810SOL     OW30328   3.999   1.178   3.625
 9810SOL    HW130329   3.995   1.175   3.525
 9810SOL    HW230330   3.950   1.258   3.658
 9811SOL     OW30331   1.469   6.791   2.725
 9811SOL    HW130332   1.498   6.867   2.783
 9811SOL    HW230333   1.476   6.818   2.629
 9812SOL     OW30334   5.009   3.119   5.220
 9812SOL    HW130335   4.963   3.208   5.224
 9812SOL    HW230336   5.050   3.107   5.130
 9813SOL     OW30337   6.727   4.819   0.332
 9813SOL    HW130338   6.814   4.867   0.344
 9813SOL    HW230339   6.662   4.848   0.402
 9814SOL     OW30340   6.832   0.765   5.570
 9814SOL    HW130341   6.875   0.690   5.520
 9814SOL    HW230342   6.866   0.767   5.663
 9815SOL     OW30343   6.711   3.902   3.034
 9815SOL    HW130344   6.787   3.936   3.089
 9815SOL    HW230345   6.680   3.814   3.069
 9816SOL     OW30346   6.547   0.660   5.905
 9816SOL    HW130347   6.606   0.655   5.986
 9816SOL    HW230348   6.600   0.635   5.824
 9817SOL     OW30349   2.750   0.106   0.048
 9817SOL    HW130350   2.715   0.188   0.094
 9817SOL    HW230351   2.823   0.132   7.002
 9818SOL     OW30352   0.853   6.733   3.209
 9818SOL    HW130353   0.841   6.739   3.110
 9818SOL    HW230354   0.894   6.818   3.243
 9819SOL     OW30355   6.824   2.832   4.624
 9819SOL    HW130356   6.871   2.854   4.538
 9819SOL    HW230357   6.744   2.891   4.633
 9820SOL     OW30358   3.510   2.380   5.888
 9820SOL    HW130359   3.465   2.352   5.803
 9820SOL    HW230360   3.560   2.302   5.926
 9821SOL     OW30361   3.715   3.056   1.501
 9821SOL    HW130362   3.808   3.033   1.472
 9821SOL    HW230363   3.706   3.040   1.599
 9822SOL     OW30364   3.538   6.459   4.702
 9822SOL    HW130365   3.445   6.467   4.738
 9822SOL    HW230366   3.596   6.414   4.771
 9823SOL     OW30367   3.287   7.011   3.148
 9823SOL    HW130368   3.199   7.003   3.195
 9823SOL    HW230369   3.352   6.946   3.187
 9824SOL     OW30370   1.215   6.005   5.764
 9824SOL    HW130371   1.301   6.055   5.757
 9824SOL    HW230372   1.139   6.066   5.742
 9825SOL     OW30373   6.793   6.550   5.026
 9825SOL    HW130374   6.887   6.516   5.035
 9825SOL    HW230375   6.783   6.631   5.084
 9826SOL     OW30376   2.417   5.625   5.180
 9826SOL    HW130377   2.372   5.699   5.229
 9826SOL    HW230378   2.392   5.629   5.083
 9827SOL     OW30379   1.666   4.804   1.783
 9827SOL    HW130380   1.599   4.846   1.845
 9827SOL    HW230381   1.620   4.739   1.724
 9828SOL     OW30382   4.748   1.789   4.740
 9828SOL    HW130383   4.671   1.852   4.726
 9828SOL    HW230384   4.715   1.707   4.787
 9829SOL     OW30385   4.714   5.273   5.725
 9829SOL    HW130386   4.797   5.249   5.676
 9829SOL    HW230387   4.635   5.264   5.665
 9830SOL     OW30388   5.488   1.443   4.106
 9830SOL    HW130389   5.491   1.344   4.121
 9830SOL    HW230390   5.423   1.484   4.169
 9831SOL     OW30391   0.722   4.531   2.531
 9831SOL    HW130392   0.793   4.602   2.541
 9831SOL    HW230393   0.766   4.443   2.512
 9832SOL     OW30394   4.294   5.943   4.766
 9832SOL    HW130395   4.233   5.879   4.721
 9832SOL    HW230396   4.363   5.892   4.819
 9833SOL     OW30397   4.165   3.579   3.641
 9833SOL    HW130398   4.150   3.497   3.586
 9833SOL    HW230399   4.144   3.660   3.587
 9834SOL     OW30400   2.733   6.391   5.457
 9834SOL    HW130401   2.793   6.313   5.438
 9834SOL    HW230402   2.747   6.421   5.551
 9835SOL     OW30403   4.021   3.497   4.296
 9835SOL    HW130404   4.017   3.545   4.383
 9835SOL    HW230405   3.940   3.518   4.242
 9836SOL     OW30406   6.951   3.528   5.691
 9836SOL    HW130407   6.930   3.547   5.787
 9836SOL    HW230408   7.008   3.447   5.684
 9837SOL     OW30409   5.768   1.924   3.710
 9837SOL    HW130410   5.860   1.911   3.674
 9837SOL    HW230411   5.703   1.871   3.655
 9838SOL     OW30412   1.743   6.593   1.539
 9838SOL    HW130413   1.660   6.625   1.585
 9838SOL    HW230414   1.777   6.512   1.587
 9839SOL     OW30415   4.708   6.523   3.719
 9839SOL    HW130416   4.655   6.536   3.635
 9839SOL    HW230417   4.706   6.606   3.774
 9840SOL     OW30418   6.354   1.801   6.769
 9840SOL    HW130419   6.442   1.754   6.764
 9840SOL    HW230420   6.348   1.853   6.854
 9841SOL     OW30421   6.534   5.960   3.297
 9841SOL    HW130422   6.489   5.991   3.213
 9841SOL    HW230423   6.540   6.036   3.361
 9842SOL     OW30424   3.606   0.243   6.782
 9842SOL    HW130425   3.672   0.179   6.820
 9842SOL    HW230426   3.647   0.335   6.779
 9843SOL     OW30427   0.025   0.537   1.518
 9843SOL    HW130428   0.120   0.565   1.503
 9843SOL    HW230429   0.016   0.439   1.498
 9844SOL     OW30430   4.543   0.246   4.579
 9844SOL    HW130431   4.490   0.183   4.522
 9844SOL    HW230432   4.640   0.226   4.569
 9845SOL     OW30433   1.554   3.692   2.223
 9845SOL    HW130434   1.576   3.703   2.320
 9845SOL    HW230435   1.639   3.696   2.169
 9846SOL     OW30436   6.134   2.719   1.109
 9846SOL    HW130437   6.174   2.810   1.122
 9846SOL    HW230438   6.207   2.650   1.111
 9847SOL     OW30439   4.245   3.694   6.819
 9847SOL    HW130440   4.223   3.642   6.902
 9847SOL    HW230441   4.334   3.666   6.785
 9848SOL     OW30442   3.750   3.825   5.934
 9848SOL    HW130443   3.678   3.762   5.904
 9848SOL    HW230444   3.830   3.773   5.963
 9849SOL     OW30445   0.851   2.171   4.514
 9849SOL    HW130446   0.763   2.154   4.557
 9849SOL    HW230447   0.917   2.103   4.543
 9850SOL     OW30448   1.737   6.821   3.924
 9850SOL    HW130449   1.832   6.800   3.898
 9850SOL    HW230450   1.710   6.763   4.001
 9851SOL     OW30451   3.476   5.459   3.803
 9851SOL    HW130452   3.386   5.501   3.815
 9851SOL    HW230453   3.520   5.449   3.892
 9852SOL     OW30454   1.972   0.038   0.407
 9852SOL    HW130455   2.034   0.088   0.467
 9852SOL    HW230456   1.878   0.069   0.423
 9853SOL     OW30457   0.161   4.396   3.438
 9853SOL    HW130458   0.201   4.483   3.465
 9853SOL    HW230459   0.075   4.412   3.390
 9854SOL     OW30460   0.395   3.627   6.526
 9854SOL    HW130461   0.347   3.714   6.538
 9854SOL    HW230462   0.488   3.644   6.492
 9855SOL     OW30463   1.025   5.473   0.342
 9855SOL    HW130464   1.028   5.518   0.253
 9855SOL    HW230465   0.995   5.538   0.412
 9856SOL     OW30466   5.652   3.198   3.193
 9856SOL    HW130467   5.561   3.230   3.221
 9856SOL    HW230468   5.660   3.206   3.094
 9857SOL     OW30469   4.653   0.325   5.545
 9857SOL    HW130470   4.731   0.377   5.513
 9857SOL    HW230471   4.569   0.377   5.531
 9858SOL     OW30472   6.495   5.804   1.890
 9858SOL    HW130473   6.549   5.734   1.937
 9858SOL    HW230474   6.550   5.886   1.878
 9859SOL     OW30475   6.925   5.579   3.343
 9859SOL    HW130476   6.982   5.558   3.422
 9859SOL    HW230477   6.945   5.514   3.269
 9860SOL     OW30478   1.404   3.313   4.410
 9860SOL    HW130479   1.483   3.343   4.463
 9860SOL    HW230480   1.322   3.362   4.441
 9861SOL     OW30481   3.635   2.091   2.934
 9861SOL    HW130482   3.694   2.170   2.916
 9861SOL    HW230483   3.645   2.025   2.860
 9862SOL     OW30484   1.444   4.132   6.721
 9862SOL    HW130485   1.434   4.227   6.693
 9862SOL    HW230486   1.538   4.102   6.703
 9863SOL     OW30487   4.138   6.631   1.710
 9863SOL    HW130488   4.084   6.549   1.697
 9863SOL    HW230489   4.078   6.707   1.736
 9864SOL     OW30490   2.225   5.826   5.798
 9864SOL    HW130491   2.258   5.765   5.725
 9864SOL    HW230492   2.269   5.915   5.789
 9865SOL     OW30493   1.612   5.068   5.613
 9865SOL    HW130494   1.622   5.147   5.674
 9865SOL    HW230495   1.702   5.035   5.586
 9866SOL     OW30496   6.835   5.270   5.641
 9866SOL    HW130497   6.868   5.239   5.552
 9866SOL    HW230498   6.831   5.193   5.704
 9867SOL     OW30499   3.960   1.715   2.186
 9867SOL    HW130500   4.043   1.771   2.188
 9867SOL    HW230501   3.884   1.770   2.150
 9868SOL     OW30502   2.507   4.470   3.368
 9868SOL    HW130503   2.493   4.376   3.339
 9868SOL    HW230504   2.424   4.506   3.409
 9869SOL     OW30505   0.123   2.448   1.247
 9869SOL    HW130506   0.179   2.529   1.228
 9869SOL    HW230507   0.165   2.368   1.204
 9870SOL     OW30508   2.463   2.507   2.720
 9870SOL    HW130509   2.469   2.408   2.712
 9870SOL    HW230510   2.453   2.533   2.816
 9871SOL     OW30511   5.549   5.394   3.386
 9871SOL    HW130512   5.559   5.493   3.383
 9871SOL    HW230513   5.622   5.352   3.332
 9872SOL     OW30514   0.723   4.978   5.858
 9872SOL    HW130515   0.731   4.893   5.911
 9872SOL    HW230516   0.807   5.031   5.867
 9873SOL     OW30517   0.964   0.975   5.248
 9873SOL    HW130518   0.974   0.893   5.192
 9873SOL    HW230519   1.039   1.038   5.228
 9874SOL     OW30520   0.089   2.175   4.473
 9874SOL    HW130521   0.182   2.142   4.458
 9874SOL    HW230522   0.090   2.246   4.544
 9875SOL     OW30523   6.502   6.253   0.735
 9875SOL    HW130524   6.464   6.287   0.821
 9875SOL    HW230525   6.489   6.154   0.729
 9876SOL     OW30526   0.517   6.600   3.616
 9876SOL    HW130527   0.561   6.660   3.684
 9876SOL    HW230528   0.545   6.627   3.524
 9877SOL     OW30529   1.073   5.860   5.502
 9877SOL    HW130530   0.976   5.874   5.486
 9877SOL    HW230531   1.086   5.787   5.569
 9878SOL     OW30532   3.436   2.461   6.705
 9878SOL    HW130533   3.366   2.392   6.689
 9878SOL    HW230534   3.396   2.552   6.691
 9879SOL     OW30535   0.092   5.697   6.185
 9879SOL    HW130536   7.011   5.689   6.179
 9879SOL    HW230537   0.133   5.677   6.096
 9880SOL     OW30538   2.821   1.218   1.115
 9880SOL    HW130539   2.819   1.316   1.098
 9880SOL    HW230540   2.745   1.194   1.177
 9881SOL     OW30541   6.091   1.410   3.638
 9881SOL    HW130542   6.084   1.464   3.554
 9881SOL    HW230543   6.157   1.452   3.700
 9882SOL     OW30544   3.769   3.377   4.932
 9882SOL    HW130545   3.725   3.289   4.913
 9882SOL    HW230546   3.831   3.366   5.010
 9883SOL     OW30547   2.073   6.986   2.604
 9883SOL    HW130548   1.977   7.005   2.584
 9883SOL    HW230549   2.128   0.049   2.587
 9884SOL     OW30550   2.851   2.667   5.647
 9884SOL    HW130551   2.933   2.610   5.648
 9884SOL    HW230552   2.841   2.710   5.557
 9885SOL     OW30553   4.712   2.758   5.408
 9885SOL    HW130554   4.793   2.774   5.465
 9885SOL    HW230555   4.728   2.795   5.316
 9886SOL     OW30556   3.568   5.680   1.004
 9886SOL    HW130557   3.622   5.701   0.922
 9886SOL    HW230558   3.506   5.604   0.984
 9887SOL     OW30559   3.465   1.904   0.289
 9887SOL    HW130560   3.511   1.933   0.373
 9887SOL    HW230561   3.378   1.862   0.311
 9888SOL     OW30562   6.349   6.772   3.401
 9888SOL    HW130563   6.320   6.795   3.494
 9888SOL    HW230564   6.350   6.673   3.389
 9889SOL     OW30565   6.693   5.828   2.838
 9889SOL    HW130566   6.677   5.871   2.927
 9889SOL    HW230567   6.787   5.846   2.808
 9890SOL     OW30568   0.576   3.541   2.623
 9890SOL    HW130569   0.664   3.544   2.576
 9890SOL    HW230570   0.586   3.487   2.707
 9891SOL     OW30571   5.045   6.106   1.807
 9891SOL    HW130572   5.014   6.097   1.901
 9891SOL    HW230573   5.100   6.189   1.798
 9892SOL     OW30574   1.271   5.605   3.792
 9892SOL    HW130575   1.200   5.538   3.770
 9892SOL    HW230576   1.325   5.572   3.869
 9893SOL     OW30577   5.659   5.248   4.855
 9893SOL    HW130578   5.713   5.332   4.847
 9893SOL    HW230579   5.671   5.209   4.946
 9894SOL     OW30580   4.410   3.568   5.285
 9894SOL    HW130581   4.340   3.543   5.218
 9894SOL    HW230582   4.500   3.562   5.242
 9895SOL     OW30583   5.469   2.078   6.781
 9895SOL    HW130584   5.504   2.111   6.868
 9895SOL    HW230585   5.378   2.117   6.765
 9896SOL     OW30586   4.018   3.358   0.338
 9896SOL    HW130587   3.959   3.426   0.382
 9896SOL    HW230588   3.968   3.314   0.263
 9897SOL     OW30589   6.764   1.412   3.541
 9897SOL    HW130590   6.806   1.424   3.451
 9897SOL    HW230591   6.749   1.502   3.583
 9898SOL     OW30592   1.748   4.512   6.313
 9898SOL    HW130593   1.719   4.452   6.239
 9898SOL    HW230594   1.670   4.530   6.373
 9899SOL     OW30595   5.202   4.928   2.576
 9899SOL    HW130596   5.294   4.890   2.575
 9899SOL    HW230597   5.180   4.965   2.486
 9900SOL     OW30598   1.457   4.284   3.589
 9900SOL    HW130599   1.405   4.361   3.627
 9900SOL    HW230600   1.393   4.216   3.554
 9901SOL     OW30601   2.547   1.609   6.089
 9901SOL    HW130602   2.601   1.625   6.006
 9901SOL    HW230603   2.466   1.667   6.087
 9902SOL     OW30604   4.983   3.738   6.646
 9902SOL    HW130605   4.901   3.732   6.588
 9902SOL    HW230606   4.994   3.653   6.697
 9903SOL     OW30607   3.523   1.233   1.569
 9903SOL    HW130608   3.621   1.243   1.554
 9903SOL    HW230609   3.493   1.299   1.638
 9904SOL     OW30610   0.290   0.120   1.977
 9904SOL    HW130611   0.248   0.208   1.955
 9904SOL    HW230612   0.315   0.073   1.893
 9905SOL     OW30613   1.650   6.649   6.208
 9905SOL    HW130614   1.730   6.708   6.225
 9905SOL    HW230615   1.681   6.556   6.188
 9906SOL     OW30616   4.027   3.906   5.959
 9906SOL    HW130617   4.072   3.817   5.946
 9906SOL    HW230618   3.995   3.941   5.871
 9907SOL     OW30619   1.210   6.731   2.670
 9907SOL    HW130620   1.301   6.697   2.694
 9907SOL    HW230621   1.219   6.816   2.617
 9908SOL     OW30622   0.391   3.193   5.109
 9908SOL    HW130623   0.486   3.210   5.082
 9908SOL    HW230624   0.335   3.273   5.088
 9909SOL     OW30625   3.399   6.916   2.611
 9909SOL    HW130626   3.383   6.958   2.700
 9909SOL    HW230627   3.409   6.988   2.542
 9910SOL     OW30628   0.721   4.552   0.705
 9910SOL    HW130629   0.786   4.482   0.675
 9910SOL    HW230630   0.724   4.559   0.805
 9911SOL     OW30631   3.739   5.229   2.922
 9911SOL    HW130632   3.828   5.270   2.944
 9911SOL    HW230633   3.734   5.213   2.824
 9912SOL     OW30634   3.903   6.800   1.131
 9912SOL    HW130635   3.859   6.814   1.042
 9912SOL    HW230636   3.916   6.888   1.176
 9913SOL     OW30637   4.069   2.197   2.448
 9913SOL    HW130638   3.983   2.239   2.477
 9913SOL    HW230639   4.145   2.248   2.487
 9914SOL     OW30640   2.076   5.475   5.262
 9914SOL    HW130641   2.143   5.424   5.208
 9914SOL    HW230642   2.105   5.476   5.357
 9915SOL     OW30643   5.966   3.424   4.013
 9915SOL    HW130644   6.028   3.496   4.042
 9915SOL    HW230645   6.014   3.336   4.015
 9916SOL     OW30646   2.795   2.916   0.758
 9916SOL    HW130647   2.792   2.889   0.662
 9916SOL    HW230648   2.818   2.837   0.814
 9917SOL     OW30649   2.370   2.696   4.755
 9917SOL    HW130650   2.466   2.712   4.730
 9917SOL    HW230651   2.365   2.671   4.851
 9918SOL     OW30652   2.383   0.843   4.943
 9918SOL    HW130653   2.401   0.753   4.903
 9918SOL    HW230654   2.307   0.887   4.894
 9919SOL     OW30655   0.355   5.605   2.500
 9919SOL    HW130656   0.427   5.592   2.432
 9919SOL    HW230657   0.321   5.699   2.495
 9920SOL     OW30658   3.963   6.878   2.588
 9920SOL    HW130659   3.936   6.969   2.558
 9920SOL    HW230660   4.031   6.886   2.661
 9921SOL     OW30661   4.873   6.848   3.571
 9921SOL    HW130662   4.970   6.862   3.552
 9921SOL    HW230663   4.821   6.855   3.486
 9922SOL     OW30664   5.074   3.126   1.765
 9922SOL    HW130665   4.979   3.154   1.757
 9922SOL    HW230666   5.131   3.182   1.704
 9923SOL     OW30667   6.208   0.977   6.304
 9923SOL    HW130668   6.114   0.993   6.273
 9923SOL    HW230669   6.263   0.946   6.227
 9924SOL     OW30670   4.874   1.260   3.205
 9924SOL    HW130671   4.893   1.296   3.114
 9924SOL    HW230672   4.941   1.188   3.226
 9925SOL     OW30673   3.372   2.083   5.163
 9925SOL    HW130674   3.291   2.129   5.126
 9925SOL    HW230675   3.361   1.984   5.150
 9926SOL     OW30676   1.702   0.602   6.107
 9926SOL    HW130677   1.661   0.623   6.196
 9926SOL    HW230678   1.732   0.686   6.063
 9927SOL     OW30679   1.120   2.409   1.959
 9927SOL    HW130680   1.211   2.440   1.984
 9927SOL    HW230681   1.059   2.488   1.950
 9928SOL     OW30682   6.966   3.218   2.853
 9928SOL    HW130683   6.915   3.190   2.934
 9928SOL    HW230684   6.905   3.222   2.774
 9929SOL     OW30685   1.516   4.357   5.639
 9929SOL    HW130686   1.485   4.285   5.578
 9929SOL    HW230687   1.597   4.326   5.690
 9930SOL     OW30688   0.162   5.514   0.286
 9930SOL    HW130689   0.229   5.578   0.323
 9930SOL    HW230690   0.204   5.457   0.216
 9931SOL     OW30691   2.938   4.691   6.716
 9931SOL    HW130692   2.934   4.596   6.748
 9931SOL    HW230693   2.971   4.750   6.790
 9932SOL     OW30694   2.139   2.415   0.844
 9932SOL    HW130695   2.082   2.417   0.926
 9932SOL    HW230696   2.084   2.387   0.765
 9933SOL     OW30697   0.519   1.248   2.203
 9933SOL    HW130698   0.530   1.339   2.161
 9933SOL    HW230699   0.494   1.258   2.299
 9934SOL     OW30700   4.992   0.963   6.633
 9934SOL    HW130701   4.938   0.948   6.715
 9934SOL    HW230702   5.052   1.042   6.647
 9935SOL     OW30703   2.621   2.157   0.784
 9935SOL    HW130704   2.537   2.194   0.822
 9935SOL    HW230705   2.682   2.129   0.859
 9936SOL     OW30706   5.309   6.470   6.065
 9936SOL    HW130707   5.244   6.513   6.002
 9936SOL    HW230708   5.308   6.371   6.051
 9937SOL     OW30709   1.971   6.498   3.242
 9937SOL    HW130710   1.891   6.522   3.297
 9937SOL    HW230711   1.941   6.461   3.154
 9938SOL     OW30712   6.909   1.118   3.370
 9938SOL    HW130713   6.932   1.065   3.452
 9938SOL    HW230714   6.809   1.125   3.362
 9939SOL     OW30715   2.783   4.222   1.707
 9939SOL    HW130716   2.797   4.156   1.633
 9939SOL    HW230717   2.870   4.261   1.735
 9940SOL     OW30718   6.872   0.977   3.657
 9940SOL    HW130719   6.972   0.983   3.657
 9940SOL    HW230720   6.839   0.954   3.748
 9941SOL     OW30721   5.682   4.438   0.744
 9941SOL    HW130722   5.689   4.395   0.834
 9941SOL    HW230723   5.712   4.533   0.750
 9942SOL     OW30724   5.581   5.956   2.972
 9942SOL    HW130725   5.578   6.044   2.925
 9942SOL    HW230726   5.656   5.901   2.934
 9943SOL     OW30727   1.580   3.458   5.431
 9943SOL    HW130728   1.641   3.396   5.482
 9943SOL    HW230729   1.485   3.429   5.444
 9944SOL     OW30730   1.522   5.667   6.071
 9944SOL    HW130731   1.492   5.573   6.089
 9944SOL    HW230732   1.555   5.674   5.977
 9945SOL     OW30733   6.680   3.621   6.968
 9945SOL    HW130734   6.634   3.695   7.017
 9945SOL    HW230735   6.645   3.616   6.875
 9946SOL     OW30736   5.122   2.267   1.594
 9946SOL    HW130737   5.039   2.227   1.634
 9946SOL    HW230738   5.100   2.307   1.505
 9947SOL     OW30739   0.576   1.279   2.845
 9947SOL    HW130740   0.530   1.363   2.817
 9947SOL    HW230741   0.651   1.302   2.907
 9948SOL     OW30742   5.719   0.827   4.916
 9948SOL    HW130743   5.672   0.869   4.994
 9948SOL    HW230744   5.809   0.795   4.945
 9949SOL     OW30745   6.652   4.114   3.460
 9949SOL    HW130746   6.630   4.032   3.513
 9949SOL    HW230747   6.741   4.149   3.488
 9950SOL     OW30748   4.559   4.134   5.265
 9950SOL    HW130749   4.611   4.049   5.254
 9950SOL    HW230750   4.605   4.208   5.215
 9951SOL     OW30751   0.265   2.100   3.142
 9951SOL    HW130752   0.206   2.107   3.223
 9951SOL    HW230753   0.253   2.180   3.084
 9952SOL     OW30754   1.312   4.828   1.652
 9952SOL    HW130755   1.375   4.752   1.637
 9952SOL    HW230756   1.319   4.859   1.747
 9953SOL     OW30757   5.908   3.680   3.815
 9953SOL    HW130758   5.887   3.609   3.883
 9953SOL    HW230759   5.887   3.770   3.853
 9954SOL     OW30760   3.301   0.924   1.392
 9954SOL    HW130761   3.340   0.948   1.481
 9954SOL    HW230762   3.364   0.862   1.344
 9955SOL     OW30763   5.392   5.083   1.493
 9955SOL    HW130764   5.420   5.178   1.497
 9955SOL    HW230765   5.465   5.024   1.528
 9956SOL     OW30766   2.050   2.671   3.721
 9956SOL    HW130767   2.096   2.687   3.808
 9956SOL    HW230768   1.983   2.743   3.705
 9957SOL     OW30769   5.499   0.547   0.389
 9957SOL    HW130770   5.590   0.564   0.352
 9957SOL    HW230771   5.506   0.520   0.485
 9958SOL     OW30772   6.115   5.362   0.061
 9958SOL    HW130773   6.138   5.340   0.155
 9958SOL    HW230774   6.118   5.461   0.048
 9959SOL     OW30775   5.739   5.283   0.741
 9959SOL    HW130776   5.748   5.374   0.703
 9959SOL    HW230777   5.657   5.238   0.705
 9960SOL     OW30778   6.286   6.889   0.197
 9960SOL    HW130779   6.378   6.863   0.225
 9960SOL    HW230780   6.283   6.898   0.097
 9961SOL     OW30781   3.282   5.688   0.791
 9961SOL    HW130782   3.279   5.690   0.691
 9961SOL    HW230783   3.309   5.777   0.826
 9962SOL     OW30784   3.238   0.294   1.685
 9962SOL    HW130785   3.315   0.349   1.651
 9962SOL    HW230786   3.208   0.231   1.613
 9963SOL     OW30787   0.805   0.243   5.615
 9963SOL    HW130788   0.780   0.149   5.640
 9963SOL    HW230789   0.851   0.243   5.527
 9964SOL     OW30790   4.496   4.450   5.970
 9964SOL    HW130791   4.492   4.382   6.044
 9964SOL    HW230792   4.409   4.497   5.963
 9965SOL     OW30793   3.013   5.250   3.991
 9965SOL    HW130794   2.994   5.262   3.893
 9965SOL    HW230795   2.935   5.203   4.033
 9966SOL     OW30796   3.711   5.139   3.293
 9966SOL    HW130797   3.798   5.125   3.340
 9966SOL    HW230798   3.659   5.211   3.338
 9967SOL     OW30799   0.052   0.573   2.961
 9967SOL    HW130800   0.104   0.629   2.896
 9967SOL    HW230801   0.037   0.626   3.045
 9968SOL     OW30802   4.273   6.666   0.542
 9968SOL    HW130803   4.290   6.638   0.447
 9968SOL    HW230804   4.178   6.647   0.566
 9969SOL     OW30805   6.964   5.771   3.928
 9969SOL    HW130806   6.882   5.816   3.895
 9969SOL    HW230807   6.988   5.807   4.018
 9970SOL     OW30808   6.787   3.288   2.437
 9970SOL    HW130809   6.855   3.349   2.395
 9970SOL    HW230810   6.833   3.205   2.469
 9971SOL     OW30811   0.036   5.268   4.501
 9971SOL    HW130812   0.108   5.222   4.554
 9971SOL    HW230813   0.017   5.215   4.419
 9972SOL     OW30814   3.369   4.355   5.827
 9972SOL    HW130815   3.293   4.402   5.872
 9972SOL    HW230816   3.334   4.301   5.751
 9973SOL     OW30817   2.456   1.870   3.483
 9973SOL    HW130818   2.421   1.923   3.406
 9973SOL    HW230819   2.481   1.931   3.557
 9974SOL     OW30820   1.373   2.557   3.259
 9974SOL    HW130821   1.416   2.624   3.320
 9974SOL    HW230822   1.443   2.510   3.207
 9975SOL     OW30823   2.506   4.526   6.723
 9975SOL    HW130824   2.550   4.603   6.769
 9975SOL    HW230825   2.549   4.441   6.753
 9976SOL     OW30826   4.119   5.360   6.133
 9976SOL    HW130827   4.216   5.385   6.127
 9976SOL    HW230828   4.087   5.326   6.045
 9977SOL     OW30829   4.276   0.057   5.549
 9977SOL    HW130830   4.242   0.151   5.561
 9977SOL    HW230831   4.374   0.060   5.526
 9978SOL     OW30832   0.885   3.095   0.018
 9978SOL    HW130833   0.825   3.081   0.096
 9978SOL    HW230834   0.928   3.185   0.023
 9979SOL     OW30835   3.447   3.990   5.092
 9979SOL    HW130836   3.354   4.022   5.102
 9979SOL    HW230837   3.452   3.923   5.018
 9980SOL     OW30838   1.354   1.448   1.299
 9980SOL    HW130839   1.445   1.416   1.275
 9980SOL    HW230840   1.361   1.537   1.346
 9981SOL     OW30841   5.837   1.546   0.292
 9981SOL    HW130842   5.884   1.470   0.248
 9981SOL    HW230843   5.862   1.632   0.247
 9982SOL     OW30844   1.679   2.189   4.541
 9982SOL    HW130845   1.749   2.186   4.613
 9982SOL    HW230846   1.702   2.122   4.470
 9983SOL     OW30847   1.010   3.714   2.264
 9983SOL    HW130848   0.912   3.715   2.249
 9983SOL    HW230849   1.031   3.754   2.353
 9984SOL     OW30850   0.336   5.168   0.712
 9984SOL    HW130851   0.289   5.094   0.760
 9984SOL    HW230852   0.376   5.232   0.779
 9985SOL     OW30853   5.100   4.468   0.034
 9985SOL    HW130854   5.078   4.552   7.003
 9985SOL    HW230855   5.063   4.473   0.127
 9986SOL     OW30856   5.877   5.743   0.132
 9986SOL    HW130857   5.805   5.682   0.097
 9986SOL    HW230858   5.837   5.806   0.199
 9987SOL     OW30859   5.692   2.920   1.348
 9987SOL    HW130860   5.775   2.886   1.304
 9987SOL    HW230861   5.616   2.917   1.283
 9988SOL     OW30862   5.941   0.122   3.504
 9988SOL    HW130863   5.964   0.217   3.481
 9988SOL    HW230864   5.971   0.102   3.597
 9989SOL     OW30865   6.906   6.117   2.758
 9989SOL    HW130866   6.861   6.051   2.697
 9989SOL    HW230867   6.972   6.068   2.815
 9990SOL     OW30868   0.023   6.973   3.175
 9990SOL    HW130869   7.006   0.036   3.221
 9990SOL    HW230870   7.011   6.972   3.080
 9991SOL     OW30871   1.802   4.381   2.582
 9991SOL    HW130872   1.840   4.290   2.568
 9991SOL    HW230873   1.716   4.390   2.532
 9992SOL     OW30874   2.277   5.081   0.515
 9992SOL    HW130875   2.281   4.999   0.572
 9992SOL    HW230876   2.240   5.157   0.568
 9993SOL     OW30877   4.012   0.177   4.865
 9993SOL    HW130878   3.969   0.086   4.862
 9993SOL    HW230879   4.054   0.197   4.777
 9994SOL     OW30880   5.870   5.497   4.857
 9994SOL    HW130881   5.930   5.423   4.884
 9994SOL    HW230882   5.924   5.572   4.819
 9995SOL     OW30883   3.582   1.577   6.372
 9995SOL    HW130884   3.504   1.584   6.310
 9995SOL    HW230885   3.637   1.496   6.347
 9996SOL     OW30886   2.825   3.857   0.653
 9996SOL    HW130887   2.901   3.795   0.633
 9996SOL    HW230888   2.842   3.902   0.741
 9997SOL     OW30889   6.661   1.976   3.885
 9997SOL    HW130890   6.605   1.911   3.935
 9997SOL    HW230891   6.619   1.996   3.797
 9998SOL     OW30892   4.855   4.122   2.228
 9998SOL    HW130893   4.937   4.178   2.219
 9998SOL    HW230894   4.877   4.037   2.276
 9999SOL     OW30895   0.519   6.517   4.048
 9999SOL    HW130896   0.446   6.461   4.088
 9999SOL    HW230897   0.606   6.469   4.058
10000SOL     OW30898   4.417   2.397   1.322
10000SOL    HW130899   4.455   2.473   1.270
10000SOL    HW230900   4.387   2.430   1.412
10001SOL     OW30901   3.819   6.119   1.339
10001SOL    HW130902   3.813   6.107   1.240
10001SOL    HW230903   3.914   6.139   1.364
10002SOL     OW30904   2.765   0.739   2.026
10002SOL    HW130905   2.815   0.660   1.989
10002SOL    HW230906   2.804   0.765   2.114
10003SOL     OW30907   1.283   1.016   3.138
10003SOL    HW130908   1.298   0.926   3.096
10003SOL    HW230909   1.263   1.083   3.067
10004SOL     OW30910   6.770   4.807   4.247
10004SOL    HW130911   6.782   4.775   4.153
10004SOL    HW230912   6.841   4.766   4.305
10005SOL     OW30913   2.884   5.171   3.409
10005SOL    HW130914   2.904   5.076   3.436
10005SOL    HW230915   2.970   5.217   3.386
10006SOL     OW30916   5.649   1.000   5.130
10006SOL    HW130917   5.652   1.086   5.080
10006SOL    HW230918   5.658   1.019   5.228
10007SOL     OW30919   1.109   5.031   4.248
10007SOL    HW130920   1.048   5.015   4.171
10007SOL    HW230921   1.194   4.979   4.235
10008SOL     OW30922   3.417   1.532   5.837
10008SOL    HW130923   3.473   1.565   5.761
10008SOL    HW230924   3.322   1.522   5.806
10009SOL     OW30925   1.018   3.920   1.958
10009SOL    HW130926   1.071   3.840   1.984
10009SOL    HW230927   1.018   3.987   2.032
10010SOL     OW30928   2.337   4.417   0.631
10010SOL    HW130929   2.279   4.361   0.690
10010SOL    HW230930   2.366   4.362   0.552
10011SOL     OW30931   2.212   3.088   0.080
10011SOL    HW130932   2.243   3.099   7.003
10011SOL    HW230933   2.168   2.999   0.090
10012SOL     OW30934   5.772   2.338   3.159
10012SOL    HW130935   5.762   2.391   3.243
10012SOL    HW230936   5.839   2.265   3.173
10013SOL     OW30937   0.527   6.265   4.815
10013SOL    HW130938   0.591   6.313   4.875
10013SOL    HW230939   0.433   6.290   4.840
10014SOL     OW30940   0.812   0.872   2.891
10014SOL    HW130941   0.861   0.851   2.806
10014SOL    HW230942   0.723   0.911   2.869
10015SOL     OW30943   4.133   6.000   6.287
10015SOL    HW130944   4.132   5.944   6.204
10015SOL    HW230945   4.193   6.079   6.273
10016SOL     OW30946   2.315   0.402   4.118
10016SOL    HW130947   2.414   0.393   4.108
10016SOL    HW230948   2.293   0.433   4.210
10017SOL     OW30949   2.727   2.294   2.872
10017SOL    HW130950   2.749   2.239   2.953
10017SOL    HW230951   2.793   2.275   2.800
10018SOL     OW30952   6.678   3.756   5.111
10018SOL    HW130953   6.731   3.711   5.182
10018SOL    HW230954   6.737   3.817   5.058
10019SOL     OW30955   0.394   2.452   1.905
10019SOL    HW130956   0.332   2.529   1.919
10019SOL    HW230957   0.368   2.402   1.823
10020SOL     OW30958   6.244   1.375   2.006
10020SOL    HW130959   6.229   1.343   1.913
10020SOL    HW230960   6.334   1.345   2.037
10021SOL     OW30961   0.682   3.060   2.197
10021SOL    HW130962   0.591   3.020   2.188
10021SOL    HW230963   0.677   3.159   2.186
10022SOL     OW30964   2.097   4.799   6.073
10022SOL    HW130965   2.063   4.802   6.167
10022SOL    HW230966   2.068   4.714   6.029
10023SOL     OW30967   0.947   1.050   6.030
10023SOL    HW130968   0.917   0.990   6.104
10023SOL    HW230969   1.045   1.037   6.015
10024SOL     OW30970   1.596   4.737   2.692
10024SOL    HW130971   1.690   4.763   2.712
10024SOL    HW230972   1.582   4.734   2.593
10025SOL     OW30973   1.194   3.952   0.534
10025SOL    HW130974   1.235   3.955   0.443
10025SOL    HW230975   1.239   3.883   0.590
10026SOL     OW30976   5.188   1.803   4.748
10026SOL    HW130977   5.101   1.831   4.707
10026SOL    HW230978   5.264   1.848   4.700
10027SOL     OW30979   2.986   1.887   5.267
10027SOL    HW130980   3.010   1.951   5.194
10027SOL    HW230981   3.044   1.806   5.261
10028SOL     OW30982   4.342   0.120   1.361
10028SOL    HW130983   4.328   0.101   1.264
10028SOL    HW230984   4.301   0.208   1.383
10029SOL     OW30985   0.098   4.393   4.677
10029SOL    HW130986   0.180   4.425   4.726
10029SOL    HW230987   0.120   4.381   4.580
10030SOL     OW30988   2.315   6.921   4.128
10030SOL    HW130989   2.401   6.922   4.179
10030SOL    HW230990   2.335   6.906   4.031
10031SOL     OW30991   2.772   5.175   3.127
10031SOL    HW130992   2.841   5.175   3.199
10031SOL    HW230993   2.798   5.108   3.057
10032SOL     OW30994   3.099   6.444   4.645
10032SOL    HW130995   3.074   6.348   4.639
10032SOL    HW230996   3.180   6.454   4.702
10033SOL     OW30997   3.182   0.947   4.357
10033SOL    HW130998   3.124   0.901   4.423
10033SOL    HW230999   3.225   0.879   4.297
10034SOL     OW31000   2.270   0.957   4.092
10034SOL    HW131001   2.186   0.913   4.060
10034SOL    HW231002   2.259   0.982   4.189
10035SOL     OW31003   6.435   2.561   2.542
10035SOL    HW131004   6.425   2.656   2.513
10035SOL    HW231005   6.346   2.523   2.564
10036SOL     OW31006   0.102   0.693   6.769
10036SOL    HW131007   0.016   0.653   6.739
10036SOL    HW231008   0.086   0.747   6.852
10037SOL     OW31009   5.964   6.467   6.873
10037SOL    HW131010   6.052   6.498   6.837
10037SOL    HW231011   5.912   6.425   6.798
10038SOL     OW31012   4.356   6.468   6.346
10038SOL    HW131013   4.286   6.516   6.398
10038SOL    HW231014   4.442   6.468   6.397
10039SOL     OW31015   6.911   5.497   2.322
10039SOL    HW131016   6.893   5.504   2.420
10039SOL    HW231017   6.968   5.573   2.292
10040SOL     OW31018   2.921   0.332   1.019
10040SOL    HW131019   3.009   0.290   1.038
10040SOL    HW231020   2.875   0.281   0.945
10041SOL     OW31021   6.644   5.421   5.295
10041SOL    HW131022   6.585   5.427   5.214
10041SOL    HW231023   6.720   5.360   5.275
10042SOL     OW31024   0.336   0.334   4.822
10042SOL    HW131025   0.306   0.411   4.879
10042SOL    HW231026   0.405   0.281   4.872
10043SOL     OW31027   0.600   0.561   4.016
10043SOL    HW131028   0.595   0.635   4.084
10043SOL    HW231029   0.550   0.482   4.050
10044SOL     OW31030   3.029   1.594   6.806
10044SOL    HW131031   2.962   1.526   6.776
10044SOL    HW231032   3.119   1.570   6.770
10045SOL     OW31033   3.899   6.459   5.177
10045SOL    HW131034   3.913   6.379   5.118
10045SOL    HW231035   3.815   6.446   5.230
10046SOL     OW31036   0.210   2.696   1.966
10046SOL    HW131037   0.212   2.747   1.880
10046SOL    HW231038   0.166   2.751   2.037
10047SOL     OW31039   0.593   1.773   3.637
10047SOL    HW131040   0.543   1.734   3.715
10047SOL    HW231041   0.679   1.724   3.625
10048SOL     OW31042   3.514   2.472   1.689
10048SOL    HW131043   3.552   2.564   1.680
10048SOL    HW231044   3.575   2.416   1.746
10049SOL     OW31045   1.680   6.546   4.796
10049SOL    HW131046   1.759   6.491   4.823
10049SOL    HW231047   1.596   6.500   4.826
10050SOL     OW31048   5.211   2.868   3.662
10050SOL    HW131049   5.226   2.919   3.747
10050SOL    HW231050   5.114   2.849   3.651
10051SOL     OW31051   6.032   2.732   5.736
10051SOL    HW131052   5.950   2.743   5.678
10051SOL    HW231053   6.019   2.783   5.821
10052SOL     OW31054   0.931   3.524   1.570
10052SOL    HW131055   0.900   3.573   1.488
10052SOL    HW231056   1.030   3.535   1.580
10053SOL     OW31057   3.378   5.970   3.351
10053SOL    HW131058   3.313   6.044   3.370
10053SOL    HW231059   3.337   5.905   3.287
10054SOL     OW31060   3.893   5.425   4.243
10054SOL    HW131061   3.798   5.447   4.221
10054SOL    HW231062   3.943   5.406   4.159
10055SOL     OW31063   6.533   3.329   5.960
10055SOL    HW131064   6.478   3.249   5.985
10055SOL    HW231065   6.629   3.303   5.955
10056SOL     OW31066   6.734   4.943   1.586
10056SOL    HW131067   6.807   4.991   1.539
10056SOL    HW231068   6.770   4.903   1.671
10057SOL     OW31069   3.092   2.199   3.832
10057SOL    HW131070   2.997   2.210   3.863
10057SOL    HW231071   3.151   2.263   3.881
10058SOL     OW31072   0.689   5.367   3.615
10058SOL    HW131073   0.758   5.328   3.555
10058SOL    HW231074   0.605   5.385   3.563
10059SOL     OW31075   5.579   0.165   0.893
10059SOL    HW131076   5.611   0.076   0.860
10059SOL    HW231077   5.627   0.238   0.844
10060SOL     OW31078   2.086   3.053   1.839
10060SOL    HW131079   2.163   2.989   1.830
10060SOL    HW231080   2.004   3.003   1.867
10061SOL     OW31081   5.992   1.929   4.589
10061SOL    HW131082   6.000   2.007   4.527
10061SOL    HW231083   5.963   1.848   4.537
10062SOL     OW31084   5.922   6.188   2.740
10062SOL    HW131085   6.004   6.196   2.684
10062SOL    HW231086   5.932   6.243   2.822
10063SOL     OW31087   1.077   2.865   2.829
10063SOL    HW131088   1.094   2.923   2.748
10063SOL    HW231089   1.022   2.786   2.802
10064SOL     OW31090   5.527   6.806   4.596
10064SOL    HW131091   5.604   6.752   4.630
10064SOL    HW231092   5.447   6.790   4.653
10065SOL     OW31093   1.024   6.253   3.144
10065SOL    HW131094   1.105   6.211   3.186
10065SOL    HW231095   1.005   6.340   3.189
10066SOL     OW31096   0.852   0.153   3.418
10066SOL    HW131097   0.759   0.166   3.385
10066SOL    HW231098   0.913   0.218   3.372
10067SOL     OW31099   3.773   5.211   3.597
10067SOL    HW131100   3.810   5.134   3.544
10067SOL    HW231101   3.673   5.206   3.599
10068SOL     OW31102   4.834   3.966   5.118
10068SOL    HW131103   4.919   4.009   5.149
10068SOL    HW231104   4.780   3.938   5.198
10069SOL     OW31105   3.604   0.952   3.309
10069SOL    HW131106   3.517   0.953   3.357
10069SOL    HW231107   3.676   0.985   3.370
10070SOL     OW31108   0.966   6.618   4.805
10070SOL    HW131109   0.993   6.667   4.888
10070SOL    HW231110   0.929   6.683   4.739
10071SOL     OW31111   5.179   5.969   5.026
10071SOL    HW131112   5.254   6.026   5.060
10071SOL    HW231113   5.091   6.012   5.047
10072SOL     OW31114   0.751   0.052   3.118
10072SOL    HW131115   0.736   0.151   3.125
10072SOL    HW231116   0.844   0.030   3.147
10073SOL     OW31117   0.325   4.527   6.561
10073SOL    HW131118   0.398   4.459   6.567
10073SOL    HW231119   0.364   4.618   6.547
10074SOL     OW31120   2.512   0.085   5.797
10074SOL    HW131121   2.491   0.165   5.853
10074SOL    HW231122   2.532   0.114   5.703
10075SOL     OW31123   1.082   2.673   4.057
10075SOL    HW131124   0.992   2.687   4.015
10075SOL    HW231125   1.128   2.761   4.069
10076SOL     OW31126   5.454   0.124   4.698
10076SOL    HW131127   5.425   0.202   4.643
10076SOL    HW231128   5.548   0.100   4.675
10077SOL     OW31129   3.778   1.349   6.323
10077SOL    HW131130   3.685   1.323   6.296
10077SOL    HW231131   3.837   1.268   6.319
10078SOL     OW31132   5.733   6.155   5.998
10078SOL    HW131133   5.796   6.172   5.922
10078SOL    HW231134   5.681   6.239   6.016
10079SOL     OW31135   0.178   4.206   0.118
10079SOL    HW131136   0.079   4.193   0.109
10079SOL    HW231137   0.199   4.243   0.208
10080SOL     OW31138   1.939   2.996   6.188
10080SOL    HW131139   1.998   3.030   6.115
10080SOL    HW231140   1.912   3.072   6.247
10081SOL     OW31141   6.968   0.715   6.434
10081SOL    HW131142   6.979   0.640   6.500
10081SOL    HW231143   6.958   0.678   6.342
10082SOL     OW31144   6.497   1.323   1.345
10082SOL    HW131145   6.566   1.276   1.291
10082SOL    HW231146   6.535   1.350   1.433
10083SOL     OW31147   4.824   0.715   4.351
10083SOL    HW131148   4.785   0.793   4.400
10083SOL    HW231149   4.920   0.703   4.378
10084SOL     OW31150   2.323   1.146   6.235
10084SOL    HW131151   2.324   1.082   6.158
10084SOL    HW231152   2.385   1.222   6.215
10085SOL     OW31153   0.559   5.427   2.672
10085SOL    HW131154   0.559   5.370   2.754
10085SOL    HW231155   0.638   5.487   2.672
10086SOL     OW31156   6.525   3.788   2.374
10086SOL    HW131157   6.479   3.815   2.458
10086SOL    HW231158   6.530   3.689   2.368
10087SOL     OW31159   1.408   0.247   4.005
10087SOL    HW131160   1.325   0.228   3.954
10087SOL    HW231161   1.463   0.163   4.011
10088SOL     OW31162   0.649   0.215   4.649
10088SOL    HW131163   0.654   0.269   4.733
10088SOL    HW231164   0.738   0.215   4.603
10089SOL     OW31165   1.370   3.529   2.089
10089SOL    HW131166   1.416   3.511   2.002
10089SOL    HW231167   1.422   3.596   2.142
10090SOL     OW31168   0.640   4.821   0.562
10090SOL    HW131169   0.540   4.816   0.566
10090SOL    HW231170   0.679   4.735   0.595
10091SOL     OW31171   0.803   2.661   4.737
10091SOL    HW131172   0.827   2.750   4.700
10091SOL    HW231173   0.721   2.668   4.793
10092SOL     OW31174   2.062   4.282   5.331
10092SOL    HW131175   2.126   4.299   5.256
10092SOL    HW231176   2.002   4.205   5.307
10093SOL     OW31177   6.446   4.370   6.396
10093SOL    HW131178   6.520   4.437   6.400
10093SOL    HW231179   6.397   4.381   6.309
10094SOL     OW31180   1.364   1.532   1.839
10094SOL    HW131181   1.441   1.503   1.895
10094SOL    HW231182   1.353   1.469   1.762
10095SOL     OW31183   6.747   1.072   5.988
10095SOL    HW131184   6.807   1.140   5.945
10095SOL    HW231185   6.655   1.078   5.949
10096SOL     OW31186   0.667   5.245   2.385
10096SOL    HW131187   0.645   5.332   2.429
10096SOL    HW231188   0.721   5.263   2.303
10097SOL     OW31189   1.102   1.026   6.917
10097SOL    HW131190   1.003   1.043   6.923
10097SOL    HW231191   1.121   0.975   6.833
10098SOL     OW31192   2.594   4.916   6.528
10098SOL    HW131193   2.675   4.944   6.476
10098SOL    HW231194   2.512   4.938   6.475
10099SOL     OW31195   6.856   4.425   4.749
10099SOL    HW131196   6.952   4.404   4.732
10099SOL    HW231197   6.833   4.512   4.705
10100SOL     OW31198   5.556   1.418   5.109
10100SOL    HW131199   5.506   1.351   5.164
10100SOL    HW231200   5.528   1.510   5.136
10101SOL     OW31201   0.220   4.592   2.411
10101SOL    HW131202   0.319   4.605   2.423
10101SOL    HW231203   0.182   4.672   2.364
10102SOL     OW31204   2.556   1.600   2.697
10102SOL    HW131205   2.581   1.556   2.784
10102SOL    HW231206   2.489   1.672   2.715
10103SOL     OW31207   2.997   2.372   0.044
10103SOL    HW131208   2.964   2.395   6.971
10103SOL    HW231209   3.014   2.274   0.049
10104SOL     OW31210   1.295   6.063   5.076
10104SOL    HW131211   1.229   6.005   5.124
10104SOL    HW231212   1.286   6.049   4.977
10105SOL     OW31213   2.382   0.627   6.605
10105SOL    HW131214   2.400   0.708   6.660
10105SOL    HW231215   2.465   0.600   6.557
10106SOL     OW31216   5.372   5.548   0.274
10106SOL    HW131217   5.399   5.623   0.335
10106SOL    HW231218   5.400   5.461   0.314
10107SOL     OW31219   5.593   1.480   5.816
10107SOL    HW131220   5.634   1.508   5.902
10107SOL    HW231221   5.493   1.488   5.822
10108SOL     OW31222   6.231   6.758   0.688
10108SOL    HW131223   6.199   6.783   0.597
10108SOL    HW231224   6.298   6.825   0.719
10109SOL     OW31225   4.664   4.940   3.281
10109SOL    HW131226   4.740   4.950   3.345
10109SOL    HW231227   4.579   4.924   3.332
10110SOL     OW31228   3.420   0.623   5.850
10110SOL    HW131229   3.465   0.548   5.801
10110SOL    HW231230   3.439   0.709   5.803
10111SOL     OW31231   0.487   2.247   2.731
10111SOL    HW131232   0.409   2.206   2.685
10111SOL    HW231233   0.522   2.185   2.801
10112SOL     OW31234   4.424   4.398   5.494
10112SOL    HW131235   4.474   4.390   5.408
10112SOL    HW231236   4.350   4.465   5.483
10113SOL     OW31237   3.937   6.578   6.833
10113SOL    HW131238   3.966   6.492   6.874
10113SOL    HW231239   3.931   6.649   6.904
10114SOL     OW31240   4.093   0.633   1.148
10114SOL    HW131241   4.056   0.586   1.068
10114SOL    HW231242   4.157   0.705   1.117
10115SOL     OW31243   2.063   1.911   3.853
10115SOL    HW131244   2.061   1.822   3.899
10115SOL    HW231245   2.157   1.945   3.852
10116SOL     OW31246   1.178   1.265   1.209
10116SOL    HW131247   1.161   1.199   1.283
10116SOL    HW231248   1.217   1.349   1.247
10117SOL     OW31249   5.074   0.847   5.712
10117SOL    HW131250   5.001   0.807   5.767
10117SOL    HW231251   5.078   0.945   5.728
10118SOL     OW31252   6.907   5.256   1.689
10118SOL    HW131253   6.833   5.229   1.751
10118SOL    HW231254   6.919   5.186   1.618
10119SOL     OW31255   2.540   0.718   5.768
10119SOL    HW131256   2.638   0.728   5.752
10119SOL    HW231257   2.525   0.672   5.855
10120SOL     OW31258   6.877   2.950   3.559
10120SOL    HW131259   6.944   2.876   3.572
10120SOL    HW231260   6.842   2.979   3.648
10121SOL     OW31261   6.663   4.772   5.044
10121SOL    HW131262   6.635   4.788   5.139
10121SOL    HW231263   6.725   4.693   5.040
10122SOL     OW31264   5.477   3.465   0.452
10122SOL    HW131265   5.483   3.565   0.453
10122SOL    HW231266   5.569   3.427   0.441
10123SOL     OW31267   0.050   6.493   0.278
10123SOL    HW131268   0.034   6.567   0.213
10123SOL    HW231269   6.992   6.489   0.343
10124SOL     OW31270   2.915   4.197   0.663
10124SOL    HW131271   2.827   4.156   0.638
10124SOL    HW231272   2.907   4.240   0.753
10125SOL     OW31273   1.214   0.494   1.597
10125SOL    HW131274   1.231   0.405   1.639
10125SOL    HW231275   1.178   0.557   1.665
10126SOL     OW31276   6.579   5.309   0.750
10126SOL    HW131277   6.576   5.210   0.742
10126SOL    HW231278   6.639   5.346   0.679
10127SOL     OW31279   3.871   5.250   5.311
10127SOL    HW131280   3.934   5.186   5.353
10127SOL    HW231281   3.922   5.324   5.266
10128SOL     OW31282   0.277   2.344   0.882
10128SOL    HW131283   0.326   2.342   0.969
10128SOL    HW231284   0.325   2.406   0.819
10129SOL     OW31285   6.099   2.396   3.140
10129SOL    HW131286   6.103   2.377   3.238
10129SOL    HW231287   6.074   2.492   3.126
10130SOL     OW31288   6.558   5.272   1.357
10130SOL    HW131289   6.567   5.363   1.316
10130SOL    HW231290   6.597   5.204   1.295
10131SOL     OW31291   0.128   1.212   1.180
10131SOL    HW131292   0.098   1.288   1.123
10131SOL    HW231293   0.123   1.239   1.277
10132SOL     OW31294   2.971   6.864   2.562
10132SOL    HW131295   2.929   6.914   2.487
10132SOL    HW231296   3.035   6.796   2.525
10133SOL     OW31297   5.108   5.517   3.546
10133SOL    HW131298   5.045   5.581   3.503
10133SOL    HW231299   5.092   5.425   3.511
10134SOL     OW31300   0.019   1.451   2.890
10134SOL    HW131301   6.957   1.392   2.889
10134SOL    HW231302   0.047   1.468   2.984
10135SOL     OW31303   4.251   4.912   3.220
10135SOL    HW131304   4.302   4.986   3.177
10135SOL    HW231305   4.278   4.825   3.180
10136SOL     OW31306   5.737   6.620   3.294
10136SOL    HW131307   5.663   6.682   3.322
10136SOL    HW231308   5.782   6.584   3.376
10137SOL     OW31309   6.246   4.962   4.039
10137SOL    HW131310   6.148   4.978   4.051
10137SOL    HW231311   6.260   4.877   3.988
10138SOL     OW31312   5.389   2.529   6.430
10138SOL    HW131313   5.393   2.619   6.387
10138SOL    HW231314   5.460   2.523   6.501
10139SOL     OW31315   3.837   2.934   3.158
10139SOL    HW131316   3.923   2.910   3.204
10139SOL    HW231317   3.854   2.947   3.060
10140SOL     OW31318   0.414   4.976   6.136
10140SOL    HW131319   0.432   4.881   6.163
10140SOL    HW231320   0.324   4.982   6.093
10141SOL     OW31321   1.632   0.753   3.946
10141SOL    HW131322   1.694   0.675   3.949
10141SOL    HW231323   1.540   0.723   3.922
10142SOL     OW31324   4.421   6.177   4.818
10142SOL    HW131325   4.486   6.187   4.743
10142SOL    HW231326   4.354   6.106   4.795
10143SOL     OW31327   4.736   0.094   1.153
10143SOL    HW131328   4.742   0.176   1.210
10143SOL    HW231329   4.648   0.050   1.167
10144SOL     OW31330   3.207   5.348   4.147
10144SOL    HW131331   3.127   5.313   4.098
10144SOL    HW231332   3.207   5.448   4.144
10145SOL     OW31333   2.592   6.204   5.814
10145SOL    HW131334   2.643   6.135   5.864
10145SOL    HW231335   2.617   6.295   5.847
10146SOL     OW31336   4.317   5.259   4.399
10146SOL    HW131337   4.294   5.167   4.429
10146SOL    HW231338   4.292   5.270   4.302
10147SOL     OW31339   4.626   4.943   4.935
10147SOL    HW131340   4.709   4.922   4.987
10147SOL    HW231341   4.620   4.883   4.855
10148SOL     OW31342   5.754   5.848   0.715
10148SOL    HW131343   5.695   5.768   0.705
10148SOL    HW231344   5.761   5.873   0.812
10149SOL     OW31345   4.216   2.558   0.969
10149SOL    HW131346   4.156   2.637   0.956
10149SOL    HW231347   4.159   2.476   0.980
10150SOL     OW31348   4.284   4.335   1.234
10150SOL    HW131349   4.193   4.309   1.267
10150SOL    HW231350   4.353   4.279   1.280
10151SOL     OW31351   2.261   6.908   5.766
10151SOL    HW131352   2.277   6.826   5.711
10151SOL    HW231353   2.348   6.948   5.793
10152SOL     OW31354   0.036   5.576   3.593
10152SOL    HW131355   0.060   5.562   3.689
10152SOL    HW231356   0.072   5.499   3.539
10153SOL     OW31357   5.287   6.380   4.421
10153SOL    HW131358   5.384   6.393   4.404
10153SOL    HW231359   5.274   6.302   4.483
10154SOL     OW31360   6.833   5.215   5.932
10154SOL    HW131361   6.825   5.151   6.008
10154SOL    HW231362   6.833   5.309   5.968
10155SOL     OW31363   4.004   0.713   6.104
10155SOL    HW131364   4.057   0.658   6.039
10155SOL    HW231365   4.039   0.697   6.196
10156SOL     OW31366   5.724   0.836   2.270
10156SOL    HW131367   5.804   0.848   2.211
10156SOL    HW231368   5.681   0.748   2.251
10157SOL     OW31369   5.656   1.225   6.225
10157SOL    HW131370   5.591   1.296   6.198
10157SOL    HW231371   5.689   1.176   6.144
10158SOL     OW31372   4.166   3.412   6.936
10158SOL    HW131373   4.105   3.489   6.952
10158SOL    HW231374   4.179   3.362   0.004
10159SOL     OW31375   1.372   1.781   6.304
10159SOL    HW131376   1.425   1.699   6.327
10159SOL    HW231377   1.426   1.838   6.242
10160SOL     OW31378   0.348   5.549   3.897
10160SOL    HW131379   0.423   5.483   3.902
10160SOL    HW231380   0.279   5.526   3.966
10161SOL     OW31381   3.176   5.499   6.207
10161SOL    HW131382   3.209   5.586   6.170
10161SOL    HW231383   3.251   5.450   6.250
10162SOL     OW31384   3.172   2.331   6.750
10162SOL    HW131385   3.143   2.414   6.798
10162SOL    HW231386   3.215   2.268   6.815
10163SOL     OW31387   5.953   3.473   5.579
10163SOL    HW131388   5.937   3.540   5.652
10163SOL    HW231389   6.030   3.502   5.523
10164SOL     OW31390   6.771   3.052   4.855
10164SOL    HW131391   6.728   3.106   4.927
10164SOL    HW231392   6.775   2.956   4.883
10165SOL     OW31393   0.375   1.828   4.518
10165SOL    HW131394   0.467   1.808   4.482
10165SOL    HW231395   0.359   1.927   4.514
10166SOL     OW31396   2.287   1.197   2.098
10166SOL    HW131397   2.383   1.214   2.076
10166SOL    HW231398   2.230   1.229   2.023
10167SOL     OW31399   4.926   0.420   0.147
10167SOL    HW131400   4.929   0.342   0.085
10167SOL    HW231401   4.978   0.496   0.109
10168SOL     OW31402   0.089   4.292   3.705
10168SOL    HW131403   0.119   4.200   3.731
10168SOL    HW231404   0.138   4.322   3.623
10169SOL     OW31405   6.609   4.070   3.805
10169SOL    HW131406   6.569   4.150   3.850
10169SOL    HW231407   6.552   4.043   3.728
10170SOL     OW31408   1.748   4.619   5.116
10170SOL    HW131409   1.714   4.658   5.031
10170SOL    HW231410   1.837   4.659   5.138
10171SOL     OW31411   6.812   4.186   6.260
10171SOL    HW131412   6.886   4.245   6.228
10171SOL    HW231413   6.735   4.192   6.198
10172SOL     OW31414   4.992   0.750   2.350
10172SOL    HW131415   4.999   0.650   2.358
10172SOL    HW231416   4.950   0.773   2.262
10173SOL     OW31417   1.853   1.861   2.277
10173SOL    HW131418   1.846   1.951   2.319
10173SOL    HW231419   1.926   1.808   2.321
10174SOL     OW31420   6.800   4.952   2.711
10174SOL    HW131421   6.885   4.904   2.691
10174SOL    HW231422   6.807   4.995   2.802
10175SOL     OW31423   6.359   2.353   5.731
10175SOL    HW131424   6.267   2.324   5.757
10175SOL    HW231425   6.408   2.276   5.691
10176SOL     OW31426   2.043   3.852   6.947
10176SOL    HW131427   1.956   3.895   6.974
10176SOL    HW231428   2.101   3.842   0.010
10177SOL     OW31429   2.925   6.256   0.115
10177SOL    HW131430   2.937   6.354   0.103
10177SOL    HW231431   2.844   6.226   0.065
10178SOL     OW31432   6.300   2.788   4.473
10178SOL    HW131433   6.332   2.777   4.567
10178SOL    HW231434   6.330   2.709   4.418
10179SOL     OW31435   1.432   2.766   5.952
10179SOL    HW131436   1.374   2.740   6.029
10179SOL    HW231437   1.375   2.795   5.875
10180SOL     OW31438   2.391   5.684   5.636
10180SOL    HW131439   2.422   5.602   5.685
10180SOL    HW231440   2.453   5.760   5.656
10181SOL     OW31441   5.776   3.588   1.444
10181SOL    HW131442   5.837   3.661   1.475
10181SOL    HW231443   5.827   3.503   1.437
10182SOL     OW31444   5.833   1.445   1.308
10182SOL    HW131445   5.840   1.396   1.221
10182SOL    HW231446   5.744   1.490   1.313
10183SOL     OW31447   1.742   1.714   6.063
10183SOL    HW131448   1.840   1.702   6.048
10183SOL    HW231449   1.701   1.628   6.091
10184SOL     OW31450   4.431   0.930   5.913
10184SOL    HW131451   4.354   0.961   5.858
10184SOL    HW231452   4.446   0.993   5.989
10185SOL     OW31453   4.860   6.715   1.034
10185SOL    HW131454   4.853   6.717   0.934
10185SOL    HW231455   4.785   6.768   1.074
10186SOL     OW31456   4.723   2.346   2.649
10186SOL    HW131457   4.683   2.389   2.568
10186SOL    HW231458   4.738   2.416   2.719
10187SOL     OW31459   0.758   2.414   1.653
10187SOL    HW131460   0.725   2.389   1.744
10187SOL    HW231461   0.701   2.370   1.583
10188SOL     OW31462   4.206   6.116   0.766
10188SOL    HW131463   4.241   6.094   0.675
10188SOL    HW231464   4.118   6.071   0.780
10189SOL     OW31465   1.766   6.570   5.145
10189SOL    HW131466   1.777   6.510   5.066
10189SOL    HW231467   1.747   6.515   5.226
10190SOL     OW31468   5.018   2.407   0.094
10190SOL    HW131469   4.928   2.369   0.116
10190SOL    HW231470   5.057   2.358   0.016
10191SOL     OW31471   5.831   4.780   0.379
10191SOL    HW131472   5.857   4.850   0.445
10191SOL    HW231473   5.889   4.699   0.390
10192SOL     OW31474   3.706   0.811   5.847
10192SOL    HW131475   3.639   0.881   5.821
10192SOL    HW231476   3.705   0.737   5.779
10193SOL     OW31477   5.047   4.009   0.413
10193SOL    HW131478   5.091   3.979   0.328
10193SOL    HW231479   5.116   4.018   0.485
10194SOL     OW31480   5.764   4.063   5.626
10194SOL    HW131481   5.836   4.086   5.560
10194SOL    HW231482   5.770   3.966   5.650
10195SOL     OW31483   6.810   4.497   1.675
10195SOL    HW131484   6.812   4.429   1.602
10195SOL    HW231485   6.826   4.452   1.763
10196SOL     OW31486   0.185   1.666   4.609
10196SOL    HW131487   0.230   1.594   4.661
10196SOL    HW231488   0.253   1.729   4.573
10197SOL     OW31489   5.881   0.629   5.818
10197SOL    HW131490   5.977   0.607   5.834
10197SOL    HW231491   5.823   0.562   5.865
10198SOL     OW31492   3.680   0.012   2.838
10198SOL    HW131493   3.745   6.967   2.881
10198SOL    HW231494   3.727   0.098   2.815
10199SOL     OW31495   1.304   2.898   5.754
10199SOL    HW131496   1.355   2.977   5.787
10199SOL    HW231497   1.210   2.901   5.790
10200SOL     OW31498   6.188   3.603   1.428
10200SOL    HW131499   6.148   3.527   1.377
10200SOL    HW231500   6.273   3.572   1.471
10201SOL     OW31501   1.114   3.345   0.935
10201SOL    HW131502   1.058   3.268   0.906
10201SOL    HW231503   1.192   3.312   0.988
10202SOL     OW31504   3.662   0.619   5.644
10202SOL    HW131505   3.760   0.607   5.627
10202SOL    HW231506   3.613   0.536   5.619
10203SOL     OW31507   6.423   2.803   4.712
10203SOL    HW131508   6.362   2.749   4.771
10203SOL    HW231509   6.492   2.743   4.671
10204SOL     OW31510   5.027   6.531   6.837
10204SOL    HW131511   5.041   6.554   6.934
10204SOL    HW231512   5.068   6.442   6.818
10205SOL     OW31513   1.255   0.643   6.099
10205SOL    HW131514   1.279   0.558   6.144
10205SOL    HW231515   1.172   0.681   6.140
10206SOL     OW31516   1.205   0.771   5.568
10206SOL    HW131517   1.183   0.755   5.664
10206SOL    HW231518   1.135   0.831   5.527
10207SOL     OW31519   1.087   1.413   5.430
10207SOL    HW131520   1.047   1.485   5.487
10207SOL    HW231521   1.099   1.447   5.337
10208SOL     OW31522   6.575   5.125   5.478
10208SOL    HW131523   6.553   5.028   5.483
10208SOL    HW231524   6.546   5.171   5.562
10209SOL     OW31525   6.692   6.794   6.548
10209SOL    HW131526   6.778   6.754   6.517
10209SOL    HW231527   6.623   6.784   6.476
10210SOL     OW31528   3.899   6.080   1.981
10210SOL    HW131529   3.883   6.158   2.042
10210SOL    HW231530   3.934   6.003   2.034
10211SOL     OW31531   4.416   5.594   5.370
10211SOL    HW131532   4.481   5.647   5.315
10211SOL    HW231533   4.465   5.549   5.445
10212SOL     OW31534   0.839   0.570   6.013
10212SOL    HW131535   0.767   0.565   6.082
10212SOL    HW231536   0.872   0.664   6.005
10213SOL     OW31537   5.370   1.527   1.058
10213SOL    HW131538   5.336   1.621   1.050
10213SOL    HW231539   5.295   1.463   1.040
10214SOL     OW31540   1.024   2.446   0.711
10214SOL    HW131541   1.058   2.369   0.765
10214SOL    HW231542   0.949   2.416   0.653
10215SOL     OW31543   3.157   3.435   2.182
10215SOL    HW131544   3.197   3.479   2.262
10215SOL    HW231545   3.119   3.504   2.121
10216SOL     OW31546   6.642   6.784   2.558
10216SOL    HW131547   6.689   6.797   2.645
10216SOL    HW231548   6.598   6.869   2.530
10217SOL     OW31549   3.379   0.940   3.503
10217SOL    HW131550   3.291   0.984   3.484
10217SOL    HW231551   3.418   0.979   3.587
10218SOL     OW31552   1.111   2.430   2.274
10218SOL    HW131553   1.040   2.491   2.239
10218SOL    HW231554   1.182   2.418   2.205
10219SOL     OW31555   0.022   0.563   2.376
10219SOL    HW131556   7.011   0.497   2.308
10219SOL    HW231557   7.001   0.539   2.465
10220SOL     OW31558   3.364   2.901   1.762
10220SOL    HW131559   3.417   2.887   1.846
10220SOL    HW231560   3.267   2.884   1.780
10221SOL     OW31561   0.645   6.170   3.526
10221SOL    HW131562   0.743   6.152   3.515
10221SOL    HW231563   0.633   6.253   3.581
10222SOL     OW31564   2.953   3.958   4.398
10222SOL    HW131565   2.915   3.991   4.484
10222SOL    HW231566   3.036   3.905   4.416
10223SOL     OW31567   0.666   5.494   1.499
10223SOL    HW131568   0.647   5.423   1.567
10223SOL    HW231569   0.750   5.542   1.523
10224SOL     OW31570   5.726   3.934   3.584
10224SOL    HW131571   5.761   3.841   3.592
10224SOL    HW231572   5.728   3.978   3.674
10225SOL     OW31573   2.353   3.840   6.143
10225SOL    HW131574   2.293   3.887   6.207
10225SOL    HW231575   2.448   3.852   6.172
10226SOL     OW31576   4.792   2.417   6.828
10226SOL    HW131577   4.776   2.412   6.927
10226SOL    HW231578   4.837   2.503   6.806
10227SOL     OW31579   5.307   3.787   1.162
10227SOL    HW131580   5.317   3.700   1.209
10227SOL    HW231581   5.286   3.859   1.229
10228SOL     OW31582   5.427   0.548   1.023
10228SOL    HW131583   5.450   0.562   1.120
10228SOL    HW231584   5.395   0.635   0.984
10229SOL     OW31585   6.788   3.555   4.290
10229SOL    HW131586   6.871   3.523   4.335
10229SOL    HW231587   6.782   3.654   4.297
10230SOL     OW31588   0.057   6.309   2.269
10230SOL    HW131589   0.036   6.305   2.367
10230SOL    HW231590   6.994   6.343   2.220
10231SOL     OW31591   1.386   5.334   2.916
10231SOL    HW131592   1.295   5.318   2.879
10231SOL    HW231593   1.435   5.247   2.924
10232SOL     OW31594   5.034   5.290   3.947
10232SOL    HW131595   5.083   5.376   3.964
10232SOL    HW231596   4.970   5.273   4.021
10233SOL     OW31597   3.627   4.341   5.840
10233SOL    HW131598   3.527   4.352   5.836
10233SOL    HW231599   3.651   4.251   5.805
10234SOL     OW31600   7.006   1.140   1.897
10234SOL    HW131601   7.009   1.078   1.975
10234SOL    HW231602   7.017   1.087   1.812
10235SOL     OW31603   1.554   1.037   2.575
10235SOL    HW131604   1.563   0.956   2.632
10235SOL    HW231605   1.618   1.107   2.607
10236SOL     OW31606   2.706   0.094   1.461
10236SOL    HW131607   2.778   0.107   1.392
10236SOL    HW231608   2.745   0.107   1.552
10237SOL     OW31609   0.609   3.267   6.044
10237SOL    HW131610   0.585   3.172   6.022
10237SOL    HW231611   0.645   3.271   6.137
10238SOL     OW31612   3.201   6.639   1.233
10238SOL    HW131613   3.218   6.640   1.331
10238SOL    HW231614   3.241   6.557   1.192
10239SOL     OW31615   1.609   2.799   4.624
10239SOL    HW131616   1.697   2.807   4.670
10239SOL    HW231617   1.561   2.718   4.658
10240SOL     OW31618   2.440   6.808   1.082
10240SOL    HW131619   2.455   6.711   1.062
10240SOL    HW231620   2.483   6.831   1.170
10241SOL     OW31621   3.891   2.688   1.651
10241SOL    HW131622   3.805   2.736   1.640
10241SOL    HW231623   3.876   2.603   1.702
10242SOL     OW31624   0.206   2.741   6.903
10242SOL    HW131625   0.208   2.672   6.831
10242SOL    HW231626   0.118   2.789   6.901
10243SOL     OW31627   2.589   5.236   1.059
10243SOL    HW131628   2.629   5.321   1.094
10243SOL    HW231629   2.638   5.207   0.977
10244SOL     OW31630   2.716   4.797   1.293
10244SOL    HW131631   2.782   4.770   1.223
10244SOL    HW231632   2.643   4.851   1.252
10245SOL     OW31633   4.595   4.089   0.678
10245SOL    HW131634   4.617   4.090   0.581
10245SOL    HW231635   4.650   4.159   0.725
10246SOL     OW31636   3.023   3.904   4.107
10246SOL    HW131637   2.927   3.909   4.078
10246SOL    HW231638   3.033   3.948   4.196
10247SOL     OW31639   0.592   2.618   4.939
10247SOL    HW131640   0.558   2.691   4.999
10247SOL    HW231641   0.624   2.542   4.994
10248SOL     OW31642   1.252   0.423   3.414
10248SOL    HW131643   1.335   0.378   3.449
10248SOL    HW231644   1.260   0.522   3.425
10249SOL     OW31645   2.539   5.337   6.686
10249SOL    HW131646   2.526   5.313   6.590
10249SOL    HW231647   2.629   5.380   6.697
10250SOL     OW31648   4.290   2.388   0.772
10250SOL    HW131649   4.265   2.435   0.857
10250SOL    HW231650   4.381   2.347   0.782
10251SOL     OW31651   1.901   0.205   4.209
10251SOL    HW131652   1.832   0.160   4.265
10251SOL    HW231653   1.991   0.166   4.230
10252SOL     OW31654   5.936   4.190   6.152
10252SOL    HW131655   5.878   4.120   6.192
10252SOL    HW231656   5.975   4.155   6.067
10253SOL     OW31657   3.779   6.361   6.237
10253SOL    HW131658   3.804   6.447   6.191
10253SOL    HW231659   3.683   6.341   6.221
10254SOL     OW31660   5.746   1.275   5.243
10254SOL    HW131661   5.710   1.344   5.179
10254SOL    HW231662   5.817   1.222   5.197
10255SOL     OW31663   3.990   4.976   2.024
10255SOL    HW131664   4.053   4.939   2.092
10255SOL    HW231665   4.009   5.074   2.012
10256SOL     OW31666   4.235   1.395   2.966
10256SOL    HW131667   4.171   1.464   2.999
10256SOL    HW231668   4.253   1.328   3.038
10257SOL     OW31669   3.415   5.242   2.773
10257SOL    HW131670   3.338   5.288   2.729
10257SOL    HW231671   3.433   5.284   2.862
10258SOL     OW31672   1.500   1.200   1.778
10258SOL    HW131673   1.596   1.178   1.757
10258SOL    HW231674   1.497   1.262   1.856
10259SOL     OW31675   1.823   4.050   3.477
10259SOL    HW131676   1.915   4.036   3.440
10259SOL    HW231677   1.805   4.148   3.485
10260SOL     OW31678   1.065   0.686   3.700
10260SOL    HW131679   1.000   0.610   3.696
10260SOL    HW231680   1.127   0.681   3.622
10261SOL     OW31681   6.818   3.576   0.997
10261SOL    HW131682   6.783   3.564   1.089
10261SOL    HW231683   6.818   3.674   0.973
10262SOL     OW31684   4.268   1.041   0.629
10262SOL    HW131685   4.209   1.121   0.617
10262SOL    HW231686   4.361   1.064   0.600
10263SOL     OW31687   6.100   0.808   1.710
10263SOL    HW131688   6.049   0.764   1.784
10263SOL    HW231689   6.069   0.903   1.700
10264SOL     OW31690   0.142   6.151   6.014
10264SOL    HW131691   0.217   6.183   6.071
10264SOL    HW231692   0.178   6.123   5.925
10265SOL     OW31693   2.024   1.860   0.514
10265SOL    HW131694   1.929   1.868   0.543
10265SOL    HW231695   2.046   1.933   0.449
10266SOL     OW31696   3.025   3.666   2.041
10266SOL    HW131697   3.114   3.671   1.994
10266SOL    HW231698   2.979   3.754   2.035
10267SOL     OW31699   5.778   0.955   1.316
10267SOL    HW131700   5.819   0.875   1.359
10267SOL    HW231701   5.824   0.973   1.229
10268SOL     OW31702   3.913   0.289   1.574
10268SOL    HW131703   3.942   0.384   1.564
10268SOL    HW231704   3.970   0.243   1.642
10269SOL     OW31705   2.697   2.474   0.686
10269SOL    HW131706   2.646   2.395   0.650
10269SOL    HW231707   2.795   2.457   0.677
10270SOL     OW31708   2.500   6.960   2.231
10270SOL    HW131709   2.413   6.936   2.187
10270SOL    HW231710   2.574   6.949   2.165
10271SOL     OW31711   1.386   1.873   6.984
10271SOL    HW131712   1.304   1.875   6.927
10271SOL    HW231713   1.409   1.966   7.013
10272SOL     OW31714   6.511   0.287   4.969
10272SOL    HW131715   6.429   0.281   4.913
10272SOL    HW231716   6.582   0.337   4.920
10273SOL     OW31717   2.353   5.163   3.251
10273SOL    HW131718   2.388   5.081   3.206
10273SOL    HW231719   2.410   5.242   3.226
10274SOL     OW31720   0.427   5.204   5.246
10274SOL    HW131721   0.378   5.236   5.166
10274SOL    HW231722   0.509   5.154   5.217
10275SOL     OW31723   6.736   0.170   2.347
10275SOL    HW131724   6.680   0.149   2.427
10275SOL    HW231725   6.766   0.085   2.304
10276SOL     OW31726   3.489   5.937   5.921
10276SOL    HW131727   3.481   5.851   5.871
10276SOL    HW231728   3.578   5.941   5.967
10277SOL     OW31729   0.317   6.423   4.223
10277SOL    HW131730   0.336   6.400   4.319
10277SOL    HW231731   0.298   6.521   4.216
10278SOL     OW31732   6.780   0.391   5.298
10278SOL    HW131733   6.693   0.441   5.297
10278SOL    HW231734   6.844   0.435   5.361
10279SOL     OW31735   2.198   5.745   4.044
10279SOL    HW131736   2.221   5.735   4.141
10279SOL    HW231737   2.192   5.842   4.021
10280SOL     OW31738   5.735   4.142   0.625
10280SOL    HW131739   5.728   4.142   0.725
10280SOL    HW231740   5.734   4.236   0.592
10281SOL     OW31741   0.112   1.745   3.975
10281SOL    HW131742   0.046   1.670   3.986
10281SOL    HW231743   0.062   1.830   3.957
10282SOL     OW31744   5.260   3.493   3.573
10282SOL    HW131745   5.191   3.453   3.633
10282SOL    HW231746   5.349   3.450   3.591
10283SOL     OW31747   0.754   3.199   0.991
10283SOL    HW131748   0.668   3.163   1.025
10283SOL    HW231749   0.829   3.139   1.018
10284SOL     OW31750   0.237   3.191   3.846
10284SOL    HW131751   0.214   3.094   3.848
10284SOL    HW231752   0.311   3.207   3.781
10285SOL     OW31753   5.389   6.150   5.074
10285SOL    HW131754   5.468   6.116   5.124
10285SOL    HW231755   5.418   6.227   5.016
10286SOL     OW31756   2.641   1.183   3.842
10286SOL    HW131757   2.581   1.165   3.919
10286SOL    HW231758   2.626   1.275   3.808
10287SOL     OW31759   2.758   5.577   2.544
10287SOL    HW131760   2.691   5.581   2.618
10287SOL    HW231761   2.712   5.585   2.456
10288SOL     OW31762   3.630   6.871   5.551
10288SOL    HW131763   3.552   6.861   5.489
10288SOL    HW231764   3.705   6.916   5.504
10289SOL     OW31765   3.014   5.628   6.617
10289SOL    HW131766   3.076   5.562   6.574
10289SOL    HW231767   3.066   5.708   6.646
10290SOL     OW31768   3.156   3.204   2.334
10290SOL    HW131769   3.136   3.265   2.257
10290SOL    HW231770   3.255   3.188   2.339
10291SOL     OW31771   1.999   1.773   2.656
10291SOL    HW131772   2.011   1.759   2.558
10291SOL    HW231773   2.008   1.686   2.703
10292SOL     OW31774   6.223   6.514   6.768
10292SOL    HW131775   6.297   6.574   6.736
10292SOL    HW231776   6.207   6.442   6.700
10293SOL     OW31777   1.149   3.916   4.086
10293SOL    HW131778   1.224   3.983   4.082
10293SOL    HW231779   1.187   3.825   4.102
10294SOL     OW31780   3.964   1.469   2.370
10294SOL    HW131781   4.058   1.433   2.373
10294SOL    HW231782   3.958   1.541   2.301
10295SOL     OW31783   1.179   1.832   6.812
10295SOL    HW131784   1.102   1.829   6.876
10295SOL    HW231785   1.187   1.744   6.765
10296SOL     OW31786   5.712   1.607   5.612
10296SOL    HW131787   5.715   1.521   5.561
10296SOL    HW231788   5.659   1.594   5.696
10297SOL     OW31789   3.128   1.285   6.882
10297SOL    HW131790   3.048   1.340   6.858
10297SOL    HW231791   3.183   1.334   6.950
10298SOL     OW31792   0.934   2.447   2.683
10298SOL    HW131793   0.885   2.441   2.595
10298SOL    HW231794   0.940   2.355   2.723
10299SOL     OW31795   4.189   6.367   2.789
10299SOL    HW131796   4.288   6.376   2.788
10299SOL    HW231797   4.149   6.436   2.849
10300SOL     OW31798   0.613   3.519   1.837
10300SOL    HW131799   0.708   3.551   1.838
10300SOL    HW231800   0.610   3.423   1.864
10301SOL     OW31801   4.276   0.435   6.294
10301SOL    HW131802   4.331   0.448   6.211
10301SOL    HW231803   4.316   0.488   6.368
10302SOL     OW31804   2.738   5.950   4.775
10302SOL    HW131805   2.797   5.882   4.732
10302SOL    HW231806   2.748   6.037   4.728
10303SOL     OW31807   0.952   6.028   4.890
10303SOL    HW131808   0.956   5.929   4.877
10303SOL    HW231809   0.871   6.064   4.845
10304SOL     OW31810   6.110   6.551   0.182
10304SOL    HW131811   6.195   6.586   0.144
10304SOL    HW231812   6.129   6.499   0.265
10305SOL     OW31813   2.392   4.395   5.817
10305SOL    HW131814   2.368   4.329   5.745
10305SOL    HW231815   2.485   4.377   5.848
10306SOL     OW31816   4.710   0.478   1.132
10306SOL    HW131817   4.623   0.473   1.083
10306SOL    HW231818   4.769   0.547   1.088
10307SOL     OW31819   2.429   6.827   4.599
10307SOL    HW131820   2.361   6.784   4.539
10307SOL    HW231821   2.405   6.923   4.612
10308SOL     OW31822   2.867   5.046   2.472
10308SOL    HW131823   2.887   5.138   2.505
10308SOL    HW231824   2.943   4.985   2.495
10309SOL     OW31825   6.197   1.337   4.737
10309SOL    HW131826   6.133   1.341   4.813
10309SOL    HW231827   6.220   1.429   4.708
10310SOL     OW31828   2.655   3.733   5.883
10310SOL    HW131829   2.606   3.813   5.917
10310SOL    HW231830   2.708   3.693   5.958
10311SOL     OW31831   5.075   5.794   0.466
10311SOL    HW131832   5.012   5.730   0.510
10311SOL    HW231833   5.029   5.837   0.388
10312SOL     OW31834   4.382   0.526   1.911
10312SOL    HW131835   4.354   0.505   2.005
10312SOL    HW231836   4.373   0.624   1.895
10313SOL     OW31837   4.733   6.454   3.239
10313SOL    HW131838   4.707   6.414   3.327
10313SOL    HW231839   4.830   6.479   3.242
10314SOL     OW31840   0.588   0.641   1.082
10314SOL    HW131841   0.597   0.618   1.179
10314SOL    HW231842   0.573   0.739   1.072
10315SOL     OW31843   5.856   5.977   3.874
10315SOL    HW131844   5.820   5.889   3.906
10315SOL    HW231845   5.792   6.050   3.896
10316SOL     OW31846   0.878   1.923   6.756
10316SOL    HW131847   0.938   1.882   6.825
10316SOL    HW231848   0.795   1.956   6.800
10317SOL     OW31849   3.950   5.615   6.202
10317SOL    HW131850   3.952   5.636   6.104
10317SOL    HW231851   3.910   5.525   6.216
10318SOL     OW31852   6.003   0.007   0.239
10318SOL    HW131853   6.089   6.978   0.221
10318SOL    HW231854   6.006   0.046   0.331
10319SOL     OW31855   0.383   4.485   4.767
10319SOL    HW131856   0.351   4.547   4.839
10319SOL    HW231857   0.463   4.525   4.722
10320SOL     OW31858   0.636   6.873   4.109
10320SOL    HW131859   0.715   6.825   4.148
10320SOL    HW231860   0.568   6.888   4.180
10321SOL     OW31861   5.538   2.384   1.915
10321SOL    HW131862   5.603   2.313   1.943
10321SOL    HW231863   5.469   2.344   1.855
10322SOL     OW31864   4.585   4.550   4.825
10322SOL    HW131865   4.493   4.560   4.865
10322SOL    HW231866   4.643   4.625   4.856
10323SOL     OW31867   0.661   4.378   5.128
10323SOL    HW131868   0.631   4.306   5.191
10323SOL    HW231869   0.672   4.339   5.036
10324SOL     OW31870   3.437   3.201   2.212
10324SOL    HW131871   3.475   3.277   2.265
10324SOL    HW231872   3.481   3.198   2.122
10325SOL     OW31873   0.093   5.771   3.246
10325SOL    HW131874   0.012   5.727   3.283
10325SOL    HW231875   0.102   5.862   3.286
10326SOL     OW31876   5.777   3.321   6.776
10326SOL    HW131877   5.875   3.308   6.791
10326SOL    HW231878   5.760   3.334   6.678
10327SOL     OW31879   2.325   4.120   0.906
10327SOL    HW131880   2.421   4.116   0.878
10327SOL    HW231881   2.281   4.034   0.885
10328SOL     OW31882   6.364   2.599   1.898
10328SOL    HW131883   6.295   2.530   1.875
10328SOL    HW231884   6.342   2.639   1.988
10329SOL     OW31885   3.684   1.315   2.772
10329SOL    HW131886   3.602   1.370   2.762
10329SOL    HW231887   3.688   1.278   2.865
10330SOL     OW31888   4.264   0.813   1.460
10330SOL    HW131889   4.326   0.891   1.464
10330SOL    HW231890   4.205   0.820   1.379
10331SOL     OW31891   6.446   5.620   6.867
10331SOL    HW131892   6.492   5.561   6.933
10331SOL    HW231893   6.413   5.703   6.912
10332SOL     OW31894   1.058   0.923   6.679
10332SOL    HW131895   1.097   0.887   6.595
10332SOL    HW231896   0.970   0.878   6.696
10333SOL     OW31897   1.203   5.507   4.700
10333SOL    HW131898   1.208   5.558   4.785
10333SOL    HW231899   1.288   5.457   4.686
10334SOL     OW31900   3.124   0.193   4.031
10334SOL    HW131901   3.162   0.129   4.097
10334SOL    HW231902   3.043   0.237   4.069
10335SOL     OW31903   0.532   3.015   6.005
10335SOL    HW131904   0.525   2.978   6.097
10335SOL    HW231905   0.581   2.951   5.946
10336SOL     OW31906   5.145   0.045   3.451
10336SOL    HW131907   5.225   7.006   3.432
10336SOL    HW231908   5.110   0.083   3.366
10337SOL     OW31909   6.214   5.485   6.666
10337SOL    HW131910   6.224   5.520   6.573
10337SOL    HW231911   6.271   5.539   6.728
10338SOL     OW31912   2.262   6.288   1.636
10338SOL    HW131913   2.179   6.343   1.634
10338SOL    HW231914   2.247   6.207   1.693
10339SOL     OW31915   6.590   2.159   5.648
10339SOL    HW131916   6.575   2.107   5.733
10339SOL    HW231917   6.687   2.156   5.625
10340SOL     OW31918   2.245   3.908   6.374
10340SOL    HW131919   2.279   3.931   6.465
10340SOL    HW231920   2.179   3.832   6.381
10341SOL     OW31921   2.319   2.544   2.966
10341SOL    HW131922   2.408   2.528   3.008
10341SOL    HW231923   2.302   2.643   2.959
10342SOL     OW31924   1.107   1.200   2.966
10342SOL    HW131925   1.046   1.153   2.902
10342SOL    HW231926   1.156   1.273   2.919
10343SOL     OW31927   2.390   5.460   1.154
10343SOL    HW131928   2.401   5.388   1.222
10343SOL    HW231929   2.463   5.453   1.086
10344SOL     OW31930   4.330   5.048   6.086
10344SOL    HW131931   4.235   5.031   6.060
10344SOL    HW231932   4.339   5.141   6.122
10345SOL     OW31933   1.479   3.467   4.676
10345SOL    HW131934   1.553   3.444   4.739
10345SOL    HW231935   1.510   3.538   4.613
10346SOL     OW31936   0.006   5.650   1.132
10346SOL    HW131937   0.060   5.733   1.120
10346SOL    HW231938   0.009   5.623   1.229
10347SOL     OW31939   4.543   1.430   3.633
10347SOL    HW131940   4.608   1.493   3.675
10347SOL    HW231941   4.553   1.340   3.675
10348SOL     OW31942   6.370   4.240   0.562
10348SOL    HW131943   6.283   4.276   0.527
10348SOL    HW231944   6.352   4.180   0.641
10349SOL     OW31945   0.802   6.834   6.387
10349SOL    HW131946   0.729   6.896   6.417
10349SOL    HW231947   0.767   6.741   6.384
10350SOL     OW31948   2.893   0.050   5.874
10350SOL    HW131949   2.811   0.097   5.906
10350SOL    HW231950   2.964   0.117   5.854
10351SOL     OW31951   4.994   5.239   5.613
10351SOL    HW131952   5.021   5.312   5.676
10351SOL    HW231953   5.060   5.163   5.620
10352SOL     OW31954   3.735   2.973   5.997
10352SOL    HW131955   3.712   2.881   6.028
10352SOL    HW231956   3.762   3.029   6.075
10353SOL     OW31957   6.874   2.585   4.741
10353SOL    HW131958   6.856   2.676   4.703
10353SOL    HW231959   6.863   2.588   4.840
10354SOL     OW31960   5.999   1.791   1.958
10354SOL    HW131961   6.002   1.692   1.962
10354SOL    HW231962   5.941   1.826   2.031
10355SOL     OW31963   2.225   5.734   2.091
10355SOL    HW131964   2.196   5.727   2.187
10355SOL    HW231965   2.146   5.724   2.031
10356SOL     OW31966   0.129   3.427   4.821
10356SOL    HW131967   0.063   3.386   4.758
10356SOL    HW231968   0.150   3.520   4.791
10357SOL     OW31969   2.117   1.774   0.136
10357SOL    HW131970   2.021   1.771   0.164
10357SOL    HW231971   2.143   1.869   0.117
10358SOL     OW31972   0.334   1.601   1.621
10358SOL    HW131973   0.241   1.572   1.602
10358SOL    HW231974   0.339   1.638   1.714
10359SOL     OW31975   0.109   1.270   1.469
10359SOL    HW131976   0.175   1.333   1.510
10359SOL    HW231977   0.017   1.295   1.498
10360SOL     OW31978   5.944   6.244   3.522
10360SOL    HW131979   5.994   6.158   3.526
10360SOL    HW231980   5.846   6.226   3.514
10361SOL     OW31981   2.054   4.721   1.180
10361SOL    HW131982   2.057   4.670   1.094
10361SOL    HW231983   1.978   4.787   1.177
10362SOL     OW31984   1.482   4.525   4.423
10362SOL    HW131985   1.431   4.492   4.503
10362SOL    HW231986   1.563   4.469   4.410
10363SOL     OW31987   5.023   1.027   4.192
10363SOL    HW131988   5.083   1.065   4.122
10363SOL    HW231989   5.078   1.003   4.273
10364SOL     OW31990   1.529   3.982   1.380
10364SOL    HW131991   1.613   3.969   1.327
10364SOL    HW231992   1.477   4.058   1.342
10365SOL     OW31993   4.206   5.598   0.148
10365SOL    HW131994   4.160   5.640   0.070
10365SOL    HW231995   4.302   5.580   0.125
10366SOL     OW31996   3.229   6.786   3.720
10366SOL    HW131997   3.276   6.723   3.659
10366SOL    HW231998   3.189   6.860   3.667
10367SOL     OW31999   6.979   2.025   3.591
10367SOL    HW132000   6.943   1.933   3.574
10367SOL    HW232001   6.903   2.090   3.596
10368SOL     OW32002   2.214   0.552   1.539
10368SOL    HW132003   2.211   0.652   1.546
10368SOL    HW232004   2.309   0.522   1.542
10369SOL     OW32005   3.934   2.768   0.315
10369SOL    HW132006   3.909   2.747   0.220
10369SOL    HW232007   3.965   2.863   0.320
10370SOL     OW32008   3.456   0.440   4.868
10370SOL    HW132009   3.493   0.485   4.949
10370SOL    HW232010   3.406   0.507   4.813
10371SOL     OW32011   5.055   6.637   6.249
10371SOL    HW132012   4.972   6.691   6.265
10371SOL    HW232013   5.070   6.627   6.151
10372SOL     OW32014   1.360   0.803   3.008
10372SOL    HW132015   1.396   0.725   3.059
10372SOL    HW232016   1.336   0.775   2.915
10373SOL     OW32017   1.204   6.036   4.825
10373SOL    HW132018   1.108   6.044   4.851
10373SOL    HW232019   1.211   6.041   4.725
10374SOL     OW32020   3.190   2.087   3.598
10374SOL    HW132021   3.115   2.058   3.539
10374SOL    HW232022   3.154   2.138   3.676
10375SOL     OW32023   6.207   2.346   0.163
10375SOL    HW132024   6.134   2.338   0.231
10375SOL    HW232025   6.241   2.255   0.140
10376SOL     OW32026   0.455   1.060   3.872
10376SOL    HW132027   0.522   1.130   3.895
10376SOL    HW232028   0.363   1.101   3.871
10377SOL     OW32029   1.172   6.854   4.321
10377SOL    HW132030   1.085   6.899   4.343
10377SOL    HW232031   1.155   6.756   4.307
10378SOL     OW32032   7.001   6.843   6.778
10378SOL    HW132033   0.043   6.827   6.857
10378SOL    HW232034   0.034   6.893   6.708
10379SOL     OW32035   5.152   1.779   4.375
10379SOL    HW132036   5.095   1.775   4.457
10379SOL    HW232037   5.105   1.833   4.305
10380SOL     OW32038   5.262   0.544   2.725
10380SOL    HW132039   5.319   0.584   2.796
10380SOL    HW232040   5.239   0.450   2.750
10381SOL     OW32041   4.296   4.958   4.938
10381SOL    HW132042   4.354   4.975   4.858
10381SOL    HW232043   4.235   4.881   4.919
10382SOL     OW32044   2.292   5.695   0.664
10382SOL    HW132045   2.318   5.615   0.718
10382SOL    HW232046   2.274   5.772   0.725
10383SOL     OW32047   6.905   2.606   6.753
10383SOL    HW132048   6.811   2.622   6.782
10383SOL    HW232049   6.957   2.692   6.758
10384SOL     OW32050   6.365   0.141   0.286
10384SOL    HW132051   6.437   0.202   0.254
10384SOL    HW232052   6.367   0.057   0.232
10385SOL     OW32053   5.708   1.944   0.017
10385SOL    HW132054   5.639   1.944   0.090
10385SOL    HW232055   5.744   2.037   0.006
10386SOL     OW32056   5.792   2.984   6.148
10386SOL    HW132057   5.786   2.977   6.247
10386SOL    HW232058   5.834   3.071   6.123
10387SOL     OW32059   2.233   2.819   3.482
10387SOL    HW132060   2.275   2.831   3.572
10387SOL    HW232061   2.206   2.724   3.470
10388SOL     OW32062   1.492   4.583   3.079
10388SOL    HW132063   1.496   4.556   3.176
10388SOL    HW232064   1.471   4.503   3.023
10389SOL     OW32065   0.494   5.598   3.244
10389SOL    HW132066   0.542   5.679   3.278
10389SOL    HW232067   0.559   5.524   3.229
10390SOL     OW32068   1.639   3.301   3.670
10390SOL    HW132069   1.618   3.216   3.717
10390SOL    HW232070   1.731   3.295   3.631
10391SOL     OW32071   3.191   6.563   5.538
10391SOL    HW132072   3.233   6.653   5.552
10391SOL    HW232073   3.104   6.559   5.586
10392SOL     OW32074   6.944   4.842   6.582
10392SOL    HW132075   6.864   4.821   6.638
10392SOL    HW232076   0.008   4.837   6.639
10393SOL     OW32077   1.333   1.021   3.994
10393SOL    HW132078   1.297   1.005   3.902
10393SOL    HW232079   1.274   1.087   4.041
10394SOL     OW32080   2.350   6.440   6.847
10394SOL    HW132081   2.281   6.408   6.783
10394SOL    HW232082   2.309   6.453   6.938
10395SOL     OW32083   0.995   1.369   4.767
10395SOL    HW132084   1.010   1.466   4.783
10395SOL    HW232085   0.975   1.323   4.854
10396SOL     OW32086   0.319   0.229   5.468
10396SOL    HW132087   0.391   0.207   5.402
10396SOL    HW232088   0.301   0.148   5.525
10397SOL     OW32089   4.325   1.747   2.433
10397SOL    HW132090   4.298   1.800   2.513
10397SOL    HW232091   4.411   1.782   2.396
10398SOL     OW32092   6.803   2.547   2.671
10398SOL    HW132093   6.798   2.460   2.720
10398SOL    HW232094   6.714   2.566   2.630
10399SOL     OW32095   6.160   2.051   5.418
10399SOL    HW132096   6.193   1.965   5.379
10399SOL    HW232097   6.171   2.049   5.517
10400SOL     OW32098   2.399   4.289   1.460
10400SOL    HW132099   2.323   4.332   1.411
10400SOL    HW232100   2.480   4.347   1.456
10401SOL     OW32101   0.870   6.429   1.130
10401SOL    HW132102   0.785   6.476   1.109
10401SOL    HW232103   0.856   6.366   1.206
10402SOL     OW32104   0.287   2.818   4.084
10402SOL    HW132105   0.385   2.820   4.100
10402SOL    HW232106   0.238   2.842   4.168
10403SOL     OW32107   5.188   1.570   1.711
10403SOL    HW132108   5.243   1.627   1.650
10403SOL    HW232109   5.213   1.591   1.806
10404SOL     OW32110   0.274   6.648   3.735
10404SOL    HW132111   0.252   6.551   3.751
10404SOL    HW232112   0.366   6.655   3.698
10405SOL     OW32113   1.698   6.952   6.697
10405SOL    HW132114   1.688   6.922   6.602
10405SOL    HW232115   1.688   6.873   6.758
10406SOL     OW32116   2.584   5.077   5.975
10406SOL    HW132117   2.646   5.036   5.908
10406SOL    HW232118   2.560   5.009   6.045
10407SOL     OW32119   1.097   1.061   6.340
10407SOL    HW132120   1.051   1.114   6.411
10407SOL    HW232121   1.121   1.122   6.264
10408SOL     OW32122   4.002   5.352   2.980
10408SOL    HW132123   3.968   5.415   3.050
10408SOL    HW232124   4.008   5.259   3.018
10409SOL     OW32125   5.943   4.746   2.421
10409SOL    HW132126   5.850   4.748   2.385
10409SOL    HW232127   6.008   4.769   2.349
10410SOL     OW32128   5.757   6.972   0.663
10410SOL    HW132129   5.725   6.945   0.572
10410SOL    HW232130   5.853   6.999   0.658
10411SOL     OW32131   1.589   4.488   2.466
10411SOL    HW132132   1.554   4.580   2.480
10411SOL    HW232133   1.540   4.444   2.390
10412SOL     OW32134   0.602   2.087   0.056
10412SOL    HW132135   0.607   2.087   6.974
10412SOL    HW232136   0.692   2.111   0.093
10413SOL     OW32137   7.001   2.039   6.079
10413SOL    HW132138   0.022   2.121   6.038
10413SOL    HW232139   6.932   2.001   6.017
10414SOL     OW32140   5.432   0.381   5.497
10414SOL    HW132141   5.490   0.425   5.429
10414SOL    HW232142   5.339   0.417   5.490
10415SOL     OW32143   0.659   5.943   3.648
10415SOL    HW132144   0.687   5.961   3.743
10415SOL    HW232145   0.655   6.029   3.598
10416SOL     OW32146   4.633   0.276   0.032
10416SOL    HW132147   4.693   0.334   6.994
10416SOL    HW232148   4.565   0.334   0.077
10417SOL     OW32149   4.019   4.861   4.399
10417SOL    HW132150   4.094   4.811   4.443
10417SOL    HW232151   3.934   4.844   4.448
10418SOL     OW32152   6.392   3.461   6.777
10418SOL    HW132153   6.487   3.490   6.775
10418SOL    HW232154   6.359   3.458   6.871
10419SOL     OW32155   2.400   1.452   4.219
10419SOL    HW132156   2.362   1.523   4.160
10419SOL    HW232157   2.491   1.479   4.251
10420SOL     OW32158   5.509   3.333   3.592
10420SOL    HW132159   5.490   3.236   3.607
10420SOL    HW232160   5.580   3.364   3.655
10421SOL     OW32161   0.870   4.838   3.373
10421SOL    HW132162   0.931   4.763   3.400
10421SOL    HW232163   0.913   4.926   3.397
10422SOL     OW32164   5.784   3.187   5.049
10422SOL    HW132165   5.870   3.234   5.026
10422SOL    HW232166   5.781   3.168   5.147
10423SOL     OW32167   2.737   5.003   3.820
10423SOL    HW132168   2.735   4.946   3.738
10423SOL    HW232169   2.655   5.061   3.822
10424SOL     OW32170   3.397   1.704   0.520
10424SOL    HW132171   3.394   1.782   0.583
10424SOL    HW232172   3.352   1.729   0.434
10425SOL     OW32173   1.887   3.394   0.744
10425SOL    HW132174   1.812   3.457   0.724
10425SOL    HW232175   1.948   3.435   0.813
10426SOL     OW32176   6.080   2.344   6.113
10426SOL    HW132177   6.049   2.313   6.203
10426SOL    HW232178   6.169   2.303   6.094
10427SOL     OW32179   5.615   1.191   4.385
10427SOL    HW132180   5.578   1.281   4.410
10427SOL    HW232181   5.617   1.133   4.467
10428SOL     OW32182   1.850   6.844   4.792
10428SOL    HW132183   1.826   6.748   4.804
10428SOL    HW232184   1.827   6.895   4.875
10429SOL     OW32185   1.399   2.711   1.173
10429SOL    HW132186   1.349   2.765   1.240
10429SOL    HW232187   1.359   2.619   1.168
10430SOL     OW32188   3.458   0.802   4.162
10430SOL    HW132189   3.491   0.708   4.169
10430SOL    HW232190   3.385   0.807   4.094
10431SOL     OW32191   3.966   1.045   3.093
10431SOL    HW132192   3.939   0.952   3.119
10431SOL    HW232193   4.062   1.045   3.063
10432SOL     OW32194   0.918   5.609   6.236
10432SOL    HW132195   0.921   5.703   6.203
10432SOL    HW232196   0.893   5.609   6.333
10433SOL     OW32197   3.474   6.673   3.630
10433SOL    HW132198   3.560   6.631   3.601
10433SOL    HW232199   3.485   6.772   3.634
10434SOL     OW32200   5.040   0.954   6.366
10434SOL    HW132201   4.946   0.948   6.332
10434SOL    HW232202   5.039   0.960   6.466
10435SOL     OW32203   2.836   1.655   0.661
10435SOL    HW132204   2.836   1.574   0.720
10435SOL    HW232205   2.748   1.703   0.670
10436SOL     OW32206   0.110   3.902   4.831
10436SOL    HW132207   0.154   3.823   4.874
10436SOL    HW232208   0.065   3.872   4.746
10437SOL     OW32209   5.981   6.397   4.568
10437SOL    HW132210   5.967   6.312   4.619
10437SOL    HW232211   5.893   6.443   4.555
10438SOL     OW32212   6.839   6.123   6.914
10438SOL    HW132213   6.814   6.120   6.817
10438SOL    HW232214   6.821   6.034   6.956
10439SOL     OW32215   6.342   5.059   4.959
10439SOL    HW132216   6.307   5.108   5.039
10439SOL    HW232217   6.431   5.019   4.981
10440SOL     OW32218   5.816   2.731   0.878
10440SOL    HW132219   5.893   2.669   0.864
10440SOL    HW232220   5.850   2.821   0.904
10441SOL     OW32221   4.703   1.892   6.708
10441SOL    HW132222   4.713   1.930   6.616
10441SOL    HW232223   4.635   1.944   6.759
10442SOL     OW32224   1.923   1.500   4.632
10442SOL    HW132225   1.835   1.544   4.615
10442SOL    HW232226   1.985   1.518   4.556
10443SOL     OW32227   1.324   1.151   1.020
10443SOL    HW132228   1.422   1.151   1.038
10443SOL    HW232229   1.276   1.195   1.095
10444SOL     OW32230   3.812   4.877   4.609
10444SOL    HW132231   3.759   4.892   4.525
10444SOL    HW232232   3.811   4.961   4.664
10445SOL     OW32233   1.156   3.234   3.668
10445SOL    HW132234   1.134   3.169   3.595
10445SOL    HW232235   1.137   3.327   3.636
10446SOL     OW32236   2.431   5.216   5.627
10446SOL    HW132237   2.347   5.205   5.680
10446SOL    HW232238   2.493   5.140   5.647
10447SOL     OW32239   0.595   2.030   2.383
10447SOL    HW132240   0.674   2.009   2.440
10447SOL    HW232241   0.568   2.125   2.396
10448SOL     OW32242   2.707   6.539   2.004
10448SOL    HW132243   2.612   6.568   2.009
10448SOL    HW232244   2.729   6.482   2.084
10449SOL     OW32245   3.957   5.214   4.649
10449SOL    HW132246   3.891   5.141   4.668
10449SOL    HW232247   4.043   5.174   4.618
10450SOL     OW32248   6.860   0.647   4.528
10450SOL    HW132249   6.862   0.726   4.467
10450SOL    HW232250   6.780   0.653   4.588
10451SOL     OW32251   3.117   1.692   3.721
10451SOL    HW132252   3.041   1.750   3.750
10451SOL    HW232253   3.203   1.741   3.735
10452SOL     OW32254   6.613   2.970   4.650
10452SOL    HW132255   6.647   3.030   4.722
10452SOL    HW232256   6.523   2.933   4.676
10453SOL     OW32257   4.176   6.001   3.854
10453SOL    HW132258   4.123   6.036   3.777
10453SOL    HW232259   4.121   6.006   3.937
10454SOL     OW32260   6.283   1.187   6.838
10454SOL    HW132261   6.320   1.106   6.883
10454SOL    HW232262   6.187   1.198   6.863
10455SOL     OW32263   0.416   6.045   3.413
10455SOL    HW132264   0.476   6.115   3.452
10455SOL    HW232265   0.391   5.979   3.484
10456SOL     OW32266   1.323   5.584   6.508
10456SOL    HW132267   1.331   5.571   6.607
10456SOL    HW232268   1.337   5.681   6.485
10457SOL     OW32269   4.078   2.176   6.346
10457SOL    HW132270   4.003   2.237   6.373
10457SOL    HW232271   4.088   2.178   6.246
10458SOL     OW32272   0.698   6.185   6.870
10458SOL    HW132273   0.685   6.271   6.822
10458SOL    HW232274   0.694   6.109   6.805
10459SOL     OW32275   6.048   5.366   1.730
10459SOL    HW132276   6.147   5.371   1.713
10459SOL    HW232277   6.005   5.453   1.702
10460SOL     OW32278   6.736   0.595   0.581
10460SOL    HW132279   6.764   0.645   0.663
10460SOL    HW232280   6.673   0.522   0.607
10461SOL     OW32281   0.032   4.448   6.575
10461SOL    HW132282   0.006   4.354   6.595
10461SOL    HW232283   0.131   4.458   6.583
10462SOL     OW32284   3.866   3.165   6.167
10462SOL    HW132285   3.931   3.203   6.102
10462SOL    HW232286   3.799   3.235   6.192
10463SOL     OW32287   5.149   2.454   6.559
10463SOL    HW132288   5.237   2.484   6.521
10463SOL    HW232289   5.079   2.458   6.487
10464SOL     OW32290   6.492   4.576   2.756
10464SOL    HW132291   6.474   4.524   2.839
10464SOL    HW232292   6.420   4.558   2.689
10465SOL     OW32293   5.362   4.945   1.020
10465SOL    HW132294   5.357   4.850   0.990
10465SOL    HW232295   5.426   4.951   1.097
10466SOL     OW32296   6.632   4.159   6.049
10466SOL    HW132297   6.643   4.111   5.961
10466SOL    HW232298   6.645   4.257   6.035
10467SOL     OW32299   0.645   2.846   0.015
10467SOL    HW132300   0.552   2.816   0.039
10467SOL    HW232301   0.683   2.785   6.963
10468SOL     OW32302   1.448   4.652   3.477
10468SOL    HW132303   1.421   4.577   3.416
10468SOL    HW232304   1.548   4.656   3.482
10469SOL     OW32305   1.013   1.576   4.431
10469SOL    HW132306   0.988   1.482   4.453
10469SOL    HW232307   1.044   1.582   4.336
10470SOL     OW32308   1.960   3.732   3.043
10470SOL    HW132309   1.995   3.715   3.135
10470SOL    HW232310   1.866   3.698   3.036
10471SOL     OW32311   2.803   6.097   6.812
10471SOL    HW132312   2.736   6.147   6.868
10471SOL    HW232313   2.862   6.163   6.765
10472SOL     OW32314   3.279   4.714   6.692
10472SOL    HW132315   3.243   4.757   6.774
10472SOL    HW232316   3.290   4.783   6.620
10473SOL     OW32317   5.785   4.730   1.206
10473SOL    HW132318   5.874   4.712   1.163
10473SOL    HW232319   5.795   4.725   1.305
10474SOL     OW32320   5.977   0.269   5.148
10474SOL    HW132321   5.879   0.285   5.159
10474SOL    HW232322   6.005   0.299   5.057
10475SOL     OW32323   1.113   5.125   1.093
10475SOL    HW132324   1.205   5.088   1.106
10475SOL    HW232325   1.072   5.086   1.011
10476SOL     OW32326   4.946   6.518   1.235
10476SOL    HW132327   5.040   6.516   1.269
10476SOL    HW232328   4.943   6.572   1.151
10477SOL     OW32329   0.057   5.880   3.607
10477SOL    HW132330   7.014   5.803   3.625
10477SOL    HW232331   0.139   5.872   3.664
10478SOL     OW32332   6.537   0.913   6.510
10478SOL    HW132333   6.460   0.970   6.538
10478SOL    HW232334   6.542   0.833   6.569
10479SOL     OW32335   1.067   2.728   1.716
10479SOL    HW132336   1.071   2.827   1.704
10479SOL    HW232337   1.160   2.691   1.721
10480SOL     OW32338   2.381   0.578   3.658
10480SOL    HW132339   2.336   0.549   3.743
10480SOL    HW232340   2.350   0.520   3.583
10481SOL     OW32341   6.836   1.351   1.367
10481SOL    HW132342   6.840   1.255   1.342
10481SOL    HW232343   6.770   1.364   1.440
10482SOL     OW32344   5.473   2.858   3.932
10482SOL    HW132345   5.499   2.809   4.016
10482SOL    HW232346   5.385   2.902   3.946
10483SOL     OW32347   6.862   6.493   0.454
10483SOL    HW132348   6.826   6.409   0.494
10483SOL    HW232349   6.787   6.547   0.417
10484SOL     OW32350   6.125   1.136   2.496
10484SOL    HW132351   6.185   1.162   2.571
10484SOL    HW232352   6.031   1.162   2.518
10485SOL     OW32353   5.157   3.617   5.590
10485SOL    HW132354   5.067   3.652   5.564
10485SOL    HW232355   5.146   3.552   5.665
10486SOL     OW32356   5.549   3.107   2.409
10486SOL    HW132357   5.565   3.121   2.311
10486SOL    HW232358   5.463   3.059   2.423
10487SOL     OW32359   5.938   6.883   1.751
10487SOL    HW132360   6.000   6.938   1.807
10487SOL    HW232361   5.910   6.936   1.671
10488SOL     OW32362   2.576   3.289   0.170
10488SOL    HW132363   2.606   3.230   0.095
10488SOL    HW232364   2.476   3.287   0.176
10489SOL     OW32365   1.447   5.677   4.886
10489SOL    HW132366   1.357   5.688   4.844
10489SOL    HW232367   1.467   5.580   4.897
10490SOL     OW32368   6.894   0.220   3.847
10490SOL    HW132369   6.965   0.231   3.777
10490SOL    HW232370   6.804   0.234   3.805
10491SOL     OW32371   0.497   4.429   5.679
10491SOL    HW132372   0.497   4.523   5.715
10491SOL    HW232373   0.408   4.410   5.638
10492SOL     OW32374   3.746   4.084   5.850
10492SOL    HW132375   3.835   4.097   5.808
10492SOL    HW232376   3.744   3.998   5.901
10493SOL     OW32377   3.584   1.135   0.657
10493SOL    HW132378   3.519   1.081   0.604
10493SOL    HW232379   3.667   1.082   0.674
10494SOL     OW32380   5.653   2.379   4.436
10494SOL    HW132381   5.722   2.357   4.506
10494SOL    HW232382   5.627   2.295   4.388
10495SOL     OW32383   1.751   6.771   0.138
10495SOL    HW132384   1.698   6.754   0.221
10495SOL    HW232385   1.836   6.817   0.161
10496SOL     OW32386   6.405   0.607   5.514
10496SOL    HW132387   6.362   0.517   5.513
10496SOL    HW232388   6.483   0.607   5.577
10497SOL     OW32389   1.129   1.274   0.494
10497SOL    HW132390   1.178   1.301   0.411
10497SOL    HW232391   1.038   1.241   0.470
10498SOL     OW32392   2.863   5.359   5.998
10498SOL    HW132393   2.887   5.293   6.070
10498SOL    HW232394   2.775   5.401   6.020
10499SOL     OW32395   3.275   5.204   3.116
10499SOL    HW132396   3.371   5.215   3.092
10499SOL    HW232397   3.263   5.122   3.171
10500SOL     OW32398   1.228   2.482   6.961
10500SOL    HW132399   1.140   2.434   6.965
10500SOL    HW232400   1.229   2.556   0.010
10501SOL     OW32401   1.295   2.476   2.632
10501SOL    HW132402   1.271   2.472   2.729
10501SOL    HW232403   1.289   2.384   2.592
10502SOL     OW32404   3.128   6.246   5.820
10502SOL    HW132405   3.108   6.201   5.907
10502SOL    HW232406   3.097   6.189   5.744
10503SOL     OW32407   2.515   3.508   5.859
10503SOL    HW132408   2.539   3.428   5.805
10503SOL    HW232409   2.591   3.573   5.858
10504SOL     OW32410   3.002   3.048   0.852
10504SOL    HW132411   2.916   3.021   0.808
10504SOL    HW232412   3.021   2.987   0.930
10505SOL     OW32413   0.333   6.990   1.262
10505SOL    HW132414   0.423   6.953   1.241
10505SOL    HW232415   0.283   7.007   1.177
10506SOL     OW32416   0.287   4.149   5.670
10506SOL    HW132417   0.232   4.217   5.621
10506SOL    HW232418   0.309   4.074   5.608
10507SOL     OW32419   0.868   0.147   4.977
10507SOL    HW132420   0.909   0.126   4.889
10507SOL    HW232421   0.870   0.246   4.992
10508SOL     OW32422   5.078   4.221   2.953
10508SOL    HW132423   5.015   4.214   2.876
10508SOL    HW232424   5.135   4.302   2.942
10509SOL     OW32425   1.697   0.165   5.514
10509SOL    HW132426   1.714   0.085   5.572
10509SOL    HW232427   1.699   0.247   5.570
10510SOL     OW32428   6.513   6.060   7.007
10510SOL    HW132429   6.486   6.157   7.012
10510SOL    HW232430   6.551   6.032   0.077
10511SOL     OW32431   6.016   2.325   0.347
10511SOL    HW132432   5.946   2.255   0.359
10511SOL    HW232433   6.041   2.362   0.436
10512SOL     OW32434   3.553   6.205   6.600
10512SOL    HW132435   3.454   6.209   6.591
10512SOL    HW232436   3.593   6.166   6.517
10513SOL     OW32437   6.989   2.487   7.016
10513SOL    HW132438   6.974   2.389   7.004
10513SOL    HW232439   6.968   2.534   6.930
10514SOL     OW32440   6.770   3.786   1.575
10514SOL    HW132441   6.763   3.814   1.480
10514SOL    HW232442   6.849   3.726   1.587
10515SOL     OW32443   6.496   2.248   4.232
10515SOL    HW132444   6.491   2.230   4.331
10515SOL    HW232445   6.426   2.316   4.207
10516SOL     OW32446   3.997   0.222   6.710
10516SOL    HW132447   4.084   0.250   6.668
10516SOL    HW232448   4.005   0.128   6.743
10517SOL     OW32449   0.513   2.093   3.235
10517SOL    HW132450   0.431   2.084   3.179
10517SOL    HW232451   0.504   2.039   3.318
10518SOL     OW32452   0.576   0.225   1.272
10518SOL    HW132453   0.573   0.133   1.312
10518SOL    HW232454   0.671   0.258   1.272
10519SOL     OW32455   3.124   4.005   5.556
10519SOL    HW132456   3.106   3.964   5.645
10519SOL    HW232457   3.136   3.933   5.487
10520SOL     OW32458   4.151   3.697   6.374
10520SOL    HW132459   4.161   3.785   6.329
10520SOL    HW232460   4.109   3.710   6.464
10521SOL     OW32461   6.591   5.430   1.669
10521SOL    HW132462   6.549   5.456   1.756
10521SOL    HW232463   6.592   5.331   1.661
10522SOL     OW32464   6.254   0.559   1.876
10522SOL    HW132465   6.245   0.470   1.920
10522SOL    HW232466   6.351   0.583   1.870
10523SOL     OW32467   0.178   5.800   6.738
10523SOL    HW132468   0.083   5.807   6.706
10523SOL    HW232469   0.239   5.798   6.659
10524SOL     OW32470   4.082   1.266   4.155
10524SOL    HW132471   3.983   1.260   4.169
10524SOL    HW232472   4.128   1.275   4.243
10525SOL     OW32473   2.715   6.189   4.590
10525SOL    HW132474   2.711   6.145   4.500
10525SOL    HW232475   2.732   6.287   4.579
10526SOL     OW32476   5.820   6.814   2.189
10526SOL    HW132477   5.793   6.910   2.189
10526SOL    HW232478   5.917   6.806   2.165
10527SOL     OW32479   1.744   2.459   4.542
10527SOL    HW132480   1.762   2.511   4.459
10527SOL    HW232481   1.741   2.361   4.520
10528SOL     OW32482   6.241   4.929   5.569
10528SOL    HW132483   6.336   4.901   5.586
10528SOL    HW232484   6.179   4.864   5.613
10529SOL     OW32485   6.131   6.306   3.705
10529SOL    HW132486   6.051   6.275   3.654
10529SOL    HW232487   6.105   6.382   3.765
10530SOL     OW32488   1.963   1.700   5.722
10530SOL    HW132489   2.057   1.670   5.735
10530SOL    HW232490   1.904   1.620   5.711
10531SOL     OW32491   2.189   2.685   5.480
10531SOL    HW132492   2.193   2.722   5.573
10531SOL    HW232493   2.200   2.759   5.413
10532SOL     OW32494   3.516   3.034   5.311
10532SOL    HW132495   3.436   3.056   5.367
10532SOL    HW232496   3.503   3.073   5.220
10533SOL     OW32497   2.294   0.777   6.129
10533SOL    HW132498   2.280   0.728   6.215
10533SOL    HW232499   2.205   0.794   6.085
10534SOL     OW32500   5.962   5.754   1.237
10534SOL    HW132501   5.946   5.768   1.334
10534SOL    HW232502   5.955   5.842   1.189
10535SOL     OW32503   0.151   1.037   2.865
10535SOL    HW132504   0.249   1.052   2.875
10535SOL    HW232505   0.103   1.080   2.942
10536SOL     OW32506   4.598   0.062   3.428
10536SOL    HW132507   4.627   0.146   3.382
10536SOL    HW232508   4.630   0.063   3.522
10537SOL     OW32509   0.533   4.789   1.286
10537SOL    HW132510   0.534   4.832   1.195
10537SOL    HW232511   0.518   4.691   1.276
10538SOL     OW32512   5.081   3.550   0.055
10538SOL    HW132513   4.988   3.583   0.037
10538SOL    HW232514   5.101   3.557   0.153
10539SOL     OW32515   0.909   3.107   6.120
10539SOL    HW132516   0.820   3.102   6.166
10539SOL    HW232517   0.980   3.076   6.183
10540SOL     OW32518   2.886   0.463   0.069
10540SOL    HW132519   2.950   0.458   7.010
10540SOL    HW232520   2.792   0.465   0.034
10541SOL     OW32521   4.152   2.568   0.643
10541SOL    HW132522   4.202   2.501   0.698
10541SOL    HW232523   4.195   2.658   0.653
10542SOL     OW32524   1.189   2.672   0.140
10542SOL    HW132525   1.281   2.699   0.169
10542SOL    HW232526   1.139   2.753   0.109
10543SOL     OW32527   2.170   1.171   5.393
10543SOL    HW132528   2.189   1.115   5.474
10543SOL    HW232529   2.071   1.183   5.384
10544SOL     OW32530   0.849   2.513   1.962
10544SOL    HW132531   0.829   2.610   1.956
10544SOL    HW232532   0.765   2.461   1.943
10545SOL     OW32533   5.440   0.592   2.516
10545SOL    HW132534   5.404   0.656   2.448
10545SOL    HW232535   5.370   0.572   2.585
10546SOL     OW32536   3.707   1.020   4.655
10546SOL    HW132537   3.766   0.939   4.660
10546SOL    HW232538   3.761   1.099   4.630
10547SOL     OW32539   4.273   1.367   0.597
10547SOL    HW132540   4.367   1.336   0.609
10547SOL    HW232541   4.238   1.401   0.684
10548SOL     OW32542   4.652   4.334   5.002
10548SOL    HW132543   4.617   4.370   5.088
10548SOL    HW232544   4.638   4.401   4.929
10549SOL     OW32545   1.288   1.042   1.671
10549SOL    HW132546   1.352   1.102   1.719
10549SOL    HW232547   1.275   0.958   1.722
10550SOL     OW32548   5.026   6.934   5.422
10550SOL    HW132549   5.023   6.893   5.513
10550SOL    HW232550   5.047   0.013   5.430
10551SOL     OW32551   1.413   2.416   5.584
10551SOL    HW132552   1.411   2.407   5.485
10551SOL    HW232553   1.345   2.483   5.613
10552SOL     OW32554   2.930   2.232   5.195
10552SOL    HW132555   2.863   2.214   5.123
10552SOL    HW232556   3.010   2.278   5.155
10553SOL     OW32557   2.969   4.354   6.497
10553SOL    HW132558   2.900   4.425   6.507
10553SOL    HW232559   3.031   4.377   6.422
10554SOL     OW32560   6.488   4.625   5.543
10554SOL    HW132561   6.554   4.578   5.602
10554SOL    HW232562   6.397   4.620   5.584
10555SOL     OW32563   3.174   2.073   1.143
10555SOL    HW132564   3.081   2.062   1.180
10555SOL    HW232565   3.239   2.027   1.204
10556SOL     OW32566   1.977   3.146   4.178
10556SOL    HW132567   1.982   3.139   4.277
10556SOL    HW232568   2.040   3.217   4.146
10557SOL     OW32569   6.313   2.220   3.669
10557SOL    HW132570   6.386   2.160   3.702
10557SOL    HW232571   6.334   2.251   3.577
10558SOL     OW32572   5.004   6.486   5.227
10558SOL    HW132573   5.010   6.532   5.139
10558SOL    HW232574   4.941   6.537   5.287
10559SOL     OW32575   4.457   2.503   0.522
10559SOL    HW132576   4.367   2.539   0.546
10559SOL    HW232577   4.493   2.450   0.599
10560SOL     OW32578   0.399   2.577   4.705
10560SOL    HW132579   0.452   2.621   4.778
10560SOL    HW232580   0.302   2.573   4.731
10561SOL     OW32581   2.732   4.226   6.554
10561SOL    HW132582   2.659   4.196   6.493
10561SOL    HW232583   2.819   4.227   6.504
10562SOL     OW32584   3.463   1.317   0.413
10562SOL    HW132585   3.384   1.297   0.470
10562SOL    HW232586   3.489   1.235   0.361
10563SOL     OW32587   1.739   1.420   4.158
10563SOL    HW132588   1.671   1.369   4.210
10563SOL    HW232589   1.823   1.367   4.150
10564SOL     OW32590   6.759   2.144   2.448
10564SOL    HW132591   6.756   2.058   2.499
10564SOL    HW232592   6.667   2.182   2.440
10565SOL     OW32593   5.221   1.880   5.002
10565SOL    HW132594   5.132   1.874   5.048
10565SOL    HW232595   5.207   1.873   4.903
10566SOL     OW32596   4.002   4.299   6.810
10566SOL    HW132597   4.005   4.235   6.887
10566SOL    HW232598   3.950   4.380   6.837
10567SOL     OW32599   1.369   5.283   3.909
10567SOL    HW132600   1.391   5.358   3.972
10567SOL    HW232601   1.434   5.283   3.833
10568SOL     OW32602   4.109   1.474   3.205
10568SOL    HW132603   4.121   1.572   3.218
10568SOL    HW232604   4.141   1.425   3.286
10569SOL     OW32605   6.297   2.790   3.448
10569SOL    HW132606   6.368   2.800   3.378
10569SOL    HW232607   6.265   2.881   3.475
10570SOL     OW32608   1.144   4.336   2.142
10570SOL    HW132609   1.233   4.345   2.187
10570SOL    HW232610   1.104   4.247   2.165
10571SOL     OW32611   6.009   6.872   4.473
10571SOL    HW132612   5.953   6.797   4.438
10571SOL    HW232613   5.959   6.920   4.546
10572SOL     OW32614   6.625   3.262   2.136
10572SOL    HW132615   6.569   3.218   2.066
10572SOL    HW232616   6.566   3.314   2.198
10573SOL     OW32617   6.271   4.577   5.679
10573SOL    HW132618   6.266   4.655   5.741
10573SOL    HW232619   6.239   4.495   5.726
10574SOL     OW32620   0.539   1.674   2.948
10574SOL    HW132621   0.538   1.627   3.036
10574SOL    HW232622   0.508   1.611   2.877
10575SOL     OW32623   1.113   6.922   5.593
10575SOL    HW132624   1.022   6.879   5.592
10575SOL    HW232625   1.175   6.870   5.534
10576SOL     OW32626   1.833   4.660   3.256
10576SOL    HW132627   1.788   4.750   3.256
10576SOL    HW232628   1.876   4.644   3.168
10577SOL     OW32629   0.878   2.603   5.521
10577SOL    HW132630   0.929   2.550   5.453
10577SOL    HW232631   0.782   2.575   5.521
10578SOL     OW32632   5.972   0.905   5.755
10578SOL    HW132633   5.968   0.920   5.656
10578SOL    HW232634   5.913   0.829   5.779
10579SOL     OW32635   4.532   0.858   0.519
10579SOL    HW132636   4.552   0.764   0.546
10579SOL    HW232637   4.433   0.867   0.504
10580SOL     OW32638   6.706   6.107   0.423
10580SOL    HW132639   6.726   6.176   0.493
10580SOL    HW232640   6.784   6.100   0.360
10581SOL     OW32641   4.427   1.529   3.951
10581SOL    HW132642   4.512   1.571   3.984
10581SOL    HW232643   4.445   1.433   3.926
10582SOL     OW32644   3.227   4.379   6.951
10582SOL    HW132645   3.179   4.346   6.870
10582SOL    HW232646   3.255   4.302   7.008
10583SOL     OW32647   4.472   2.114   0.595
10583SOL    HW132648   4.502   2.095   0.688
10583SOL    HW232649   4.376   2.144   0.596
10584SOL     OW32650   6.431   0.523   1.582
10584SOL    HW132651   6.467   0.468   1.506
10584SOL    HW232652   6.332   0.534   1.570
10585SOL     OW32653   1.462   4.120   6.412
10585SOL    HW132654   1.520   4.169   6.477
10585SOL    HW232655   1.516   4.051   6.364
10586SOL     OW32656   3.842   0.995   0.419
10586SOL    HW132657   3.778   0.919   0.428
10586SOL    HW232658   3.824   1.063   0.491
10587SOL     OW32659   5.926   3.756   1.083
10587SOL    HW132660   5.869   3.702   1.021
10587SOL    HW232661   6.015   3.712   1.092
10588SOL     OW32662   0.499   5.341   2.916
10588SOL    HW132663   0.427   5.410   2.912
10588SOL    HW232664   0.463   5.253   2.885
10589SOL     OW32665   6.418   1.990   4.180
10589SOL    HW132666   6.338   2.009   4.236
10589SOL    HW232667   6.468   2.075   4.162
10590SOL     OW32668   1.614   0.827   4.258
10590SOL    HW132669   1.693   0.800   4.204
10590SOL    HW232670   1.531   0.820   4.202
10591SOL     OW32671   1.563   2.594   0.729
10591SOL    HW132672   1.516   2.528   0.669
10591SOL    HW232673   1.506   2.611   0.810
10592SOL     OW32674   6.319   1.962   6.984
10592SOL    HW132675   6.260   2.039   6.960
10592SOL    HW232676   6.292   1.925   0.055
10593SOL     OW32677   2.261   4.889   1.119
10593SOL    HW132678   2.290   4.863   1.027
10593SOL    HW232679   2.196   4.822   1.154
10594SOL     OW32680   1.163   2.067   4.443
10594SOL    HW132681   1.189   2.157   4.409
10594SOL    HW232682   1.103   2.022   4.376
10595SOL     OW32683   2.498   6.266   5.566
10595SOL    HW132684   2.527   6.245   5.659
10595SOL    HW232685   2.574   6.307   5.516
10596SOL     OW32686   3.510   1.029   1.902
10596SOL    HW132687   3.503   1.075   1.991
10596SOL    HW232688   3.556   0.941   1.914
10597SOL     OW32689   1.809   6.719   4.384
10597SOL    HW132690   1.905   6.744   4.384
10597SOL    HW232691   1.791   6.656   4.460
10598SOL     OW32692   1.732   1.961   0.215
10598SOL    HW132693   1.784   2.045   0.230
10598SOL    HW232694   1.666   1.976   0.141
10599SOL     OW32695   4.878   0.941   6.896
10599SOL    HW132696   4.791   0.898   6.923
10599SOL    HW232697   4.952   0.905   6.952
10600SOL     OW32698   1.695   2.645   6.031
10600SOL    HW132699   1.605   2.680   6.056
10600SOL    HW232700   1.687   2.548   6.005
10601SOL     OW32701   3.680   6.156   5.729
10601SOL    HW132702   3.773   6.121   5.731
10601SOL    HW232703   3.676   6.246   5.773
10602SOL     OW32704   4.589   1.002   1.873
10602SOL    HW132705   4.596   0.903   1.883
10602SOL    HW232706   4.494   1.031   1.880
10603SOL     OW32707   1.395   5.486   4.294
10603SOL    HW132708   1.455   5.523   4.365
10603SOL    HW232709   1.357   5.398   4.324
10604SOL     OW32710   0.006   4.606   5.160
10604SOL    HW132711   7.002   4.682   5.222
10604SOL    HW232712   6.940   4.565   5.127
10605SOL     OW32713   2.092   4.496   6.517
10605SOL    HW132714   2.178   4.450   6.496
10605SOL    HW232715   2.052   4.532   6.433
10606SOL     OW32716   0.716   0.703   3.081
10606SOL    HW132717   0.634   0.684   3.026
10606SOL    HW232718   0.758   0.788   3.049
10607SOL     OW32719   5.837   5.154   0.261
10607SOL    HW132720   5.909   5.092   0.231
10607SOL    HW232721   5.850   5.177   0.357
10608SOL     OW32722   5.886   1.205   3.264
10608SOL    HW132723   5.982   1.215   3.293
10608SOL    HW232724   5.829   1.182   3.343
10609SOL     OW32725   4.100   6.531   1.996
10609SOL    HW132726   4.137   6.573   1.914
10609SOL    HW232727   4.071   6.437   1.975
10610SOL     OW32728   1.513   3.094   5.062
10610SOL    HW132729   1.572   3.111   5.141
10610SOL    HW232730   1.568   3.088   4.979
10611SOL     OW32731   4.947   2.429   6.359
10611SOL    HW132732   4.933   2.528   6.366
10611SOL    HW232733   4.960   2.404   6.263
10612SOL     OW32734   1.486   0.156   0.860
10612SOL    HW132735   1.390   0.149   0.833
10612SOL    HW232736   1.544   0.145   0.779
10613SOL     OW32737   0.613   7.015   6.481
10613SOL    HW132738   0.573   0.058   6.413
10613SOL    HW232739   0.669   0.050   6.544
10614SOL     OW32740   6.226   1.083   4.606
10614SOL    HW132741   6.172   1.155   4.648
10614SOL    HW232742   6.251   1.015   4.675
10615SOL     OW32743   6.573   5.598   5.482
10615SOL    HW132744   6.606   5.529   5.418
10615SOL    HW232745   6.650   5.644   5.525
10616SOL     OW32746   3.004   6.073   0.372
10616SOL    HW132747   2.905   6.057   0.373
10616SOL    HW232748   3.048   6.004   0.315
10617SOL     OW32749   0.953   2.297   6.292
10617SOL    HW132750   1.022   2.339   6.232
10617SOL    HW232751   0.879   2.259   6.236
10618SOL     OW32752   5.903   4.272   1.348
10618SOL    HW132753   5.954   4.193   1.383
10618SOL    HW232754   5.886   4.337   1.422
10619SOL     OW32755   1.130   4.618   4.131
10619SOL    HW132756   1.217   4.581   4.165
10619SOL    HW232757   1.130   4.618   4.031
10620SOL     OW32758   1.155   5.616   4.200
10620SOL    HW132759   1.230   5.580   4.256
10620SOL    HW232760   1.143   5.560   4.119
10621SOL     OW32761   2.830   6.316   0.819
10621SOL    HW132762   2.744   6.307   0.870
10621SOL    HW232763   2.839   6.239   0.756
10622SOL     OW32764   4.490   1.588   1.540
10622SOL    HW132765   4.581   1.567   1.574
10622SOL    HW232766   4.466   1.682   1.563
10623SOL     OW32767   6.766   1.205   3.733
10623SOL    HW132768   6.808   1.129   3.683
10623SOL    HW232769   6.735   1.275   3.669
10624SOL     OW32770   2.451   0.933   4.442
10624SOL    HW132771   2.454   1.004   4.372
10624SOL    HW232772   2.372   0.948   4.502
10625SOL     OW32773   0.143   3.435   0.118
10625SOL    HW132774   0.186   3.472   0.200
10625SOL    HW232775   0.045   3.426   0.133
10626SOL     OW32776   6.885   1.841   1.073
10626SOL    HW132777   6.945   1.819   0.996
10626SOL    HW232778   6.904   1.934   1.104
10627SOL     OW32779   6.190   5.224   4.351
10627SOL    HW132780   6.169   5.256   4.259
10627SOL    HW232781   6.113   5.243   4.412
10628SOL     OW32782   6.756   5.933   6.197
10628SOL    HW132783   6.679   5.904   6.140
10628SOL    HW232784   6.724   5.999   6.265
10629SOL     OW32785   2.734   5.722   6.046
10629SOL    HW132786   2.761   5.691   6.137
10629SOL    HW232787   2.634   5.718   6.037
10630SOL     OW32788   6.718   1.165   2.961
10630SOL    HW132789   6.766   1.186   2.876
10630SOL    HW232790   6.698   1.249   3.011
10631SOL     OW32791   1.168   6.888   4.764
10631SOL    HW132792   1.111   6.966   4.791
10631SOL    HW232793   1.153   6.867   4.667
10632SOL     OW32794   0.525   2.843   5.045
10632SOL    HW132795   0.433   2.878   5.030
10632SOL    HW232796   0.562   2.879   5.131
10633SOL     OW32797   1.017   5.106   0.848
10633SOL    HW132798   1.097   5.152   0.810
10633SOL    HW232799   0.948   5.094   0.777
10634SOL     OW32800   3.913   6.996   1.528
10634SOL    HW132801   4.013   7.000   1.535
10634SOL    HW232802   3.872   0.047   1.587
10635SOL     OW32803   1.987   0.859   0.937
10635SOL    HW132804   2.041   0.776   0.955
10635SOL    HW232805   1.985   0.877   0.839
10636SOL     OW32806   6.630   1.742   1.109
10636SOL    HW132807   6.574   1.806   1.056
10636SOL    HW232808   6.725   1.773   1.109
10637SOL     OW32809   3.992   4.695   5.677
10637SOL    HW132810   3.984   4.596   5.691
10637SOL    HW232811   3.969   4.717   5.582
10638SOL     OW32812   6.696   0.133   5.377
10638SOL    HW132813   6.711   0.231   5.364
10638SOL    HW232814   6.719   0.108   5.471
10639SOL     OW32815   3.309   1.365   4.972
10639SOL    HW132816   3.284   1.278   4.929
10639SOL    HW232817   3.237   1.392   5.037
10640SOL     OW32818   3.422   6.882   0.481
10640SOL    HW132819   3.446   6.806   0.420
10640SOL    HW232820   3.506   6.928   0.511
10641SOL     OW32821   4.057   0.631   6.356
10641SOL    HW132822   3.993   0.648   6.432
10641SOL    HW232823   4.102   0.543   6.371
10642SOL     OW32824   0.044   3.554   0.684
10642SOL    HW132825   0.018   3.646   0.714
10642SOL    HW232826   0.128   3.559   0.631
10643SOL     OW32827   3.899   3.586   5.514
10643SOL    HW132828   3.976   3.553   5.568
10643SOL    HW232829   3.927   3.594   5.418
10644SOL     OW32830   3.745   1.599   4.983
10644SOL    HW132831   3.728   1.604   5.081
10644SOL    HW232832   3.826   1.541   4.966
10645SOL     OW32833   2.459   0.062   5.009
10645SOL    HW132834   2.533   0.111   5.055
10645SOL    HW232835   2.402   0.017   5.077
10646SOL     OW32836   0.949   3.773   6.537
10646SOL    HW132837   0.853   3.797   6.552
10646SOL    HW232838   0.959   3.674   6.534
10647SOL     OW32839   6.934   4.994   0.386
10647SOL    HW132840   6.974   5.081   0.358
10647SOL    HW232841   7.006   4.925   0.395
10648SOL     OW32842   5.205   4.253   6.436
10648SOL    HW132843   5.252   4.229   6.522
10648SOL    HW232844   5.248   4.334   6.396
10649SOL     OW32845   0.549   4.107   6.061
10649SOL    HW132846   0.591   4.016   6.058
10649SOL    HW232847   0.520   4.133   5.969
10650SOL     OW32848   2.742   0.045   4.045
10650SOL    HW132849   2.755   7.011   3.961
10650SOL    HW232850   2.817   0.109   4.057
10651SOL     OW32851   3.318   0.024   5.817
10651SOL    HW132852   3.281   0.112   5.847
10651SOL    HW232853   3.255   6.969   5.845
10652SOL     OW32854   3.490   1.125   0.227
10652SOL    HW132855   3.516   1.178   0.146
10652SOL    HW232856   3.529   1.034   0.221
10653SOL     OW32857   5.919   3.009   4.036
10653SOL    HW132858   5.835   2.977   3.992
10653SOL    HW232859   5.896   3.070   4.112
10654SOL     OW32860   4.564   0.988   1.142
10654SOL    HW132861   4.562   1.058   1.071
10654SOL    HW232862   4.500   1.012   1.215
10655SOL     OW32863   3.466   5.602   1.396
10655SOL    HW132864   3.462   5.697   1.365
10655SOL    HW232865   3.399   5.548   1.345
10656SOL     OW32866   6.218   3.266   6.003
10656SOL    HW132867   6.235   3.171   5.977
10656SOL    HW232868   6.179   3.316   5.926
10657SOL     OW32869   5.921   0.585   1.821
10657SOL    HW132870   5.940   0.495   1.782
10657SOL    HW232871   5.870   0.575   1.906
10658SOL     OW32872   0.922   6.109   4.520
10658SOL    HW132873   0.943   6.197   4.478
10658SOL    HW232874   0.827   6.110   4.553
10659SOL     OW32875   5.513   1.040   0.921
10659SOL    HW132876   5.543   1.125   0.963
10659SOL    HW232877   5.576   1.015   0.847
10660SOL     OW32878   5.198   5.037   5.584
10660SOL    HW132879   5.295   5.012   5.590
10660SOL    HW232880   5.175   5.058   5.489
10661SOL     OW32881   0.456   0.256   2.367
10661SOL    HW132882   0.371   0.282   2.413
10661SOL    HW232883   0.532   0.261   2.432
10662SOL     OW32884   5.759   1.463   0.543
10662SOL    HW132885   5.793   1.472   0.449
10662SOL    HW232886   5.795   1.538   0.598
10663SOL     OW32887   0.274   0.738   0.202
10663SOL    HW132888   0.303   0.830   0.178
10663SOL    HW232889   0.270   0.681   0.119
10664SOL     OW32890   1.962   4.474   6.733
10664SOL    HW132891   2.005   4.490   6.644
10664SOL    HW232892   1.982   4.381   6.763
10665SOL     OW32893   6.050   0.929   6.698
10665SOL    HW132894   6.015   0.954   6.788
10665SOL    HW232895   6.062   1.012   6.643
10666SOL     OW32896   1.084   0.377   6.973
10666SOL    HW132897   1.008   0.320   7.003
10666SOL    HW232898   1.168   0.347   0.001
10667SOL     OW32899   3.279   2.267   5.382
10667SOL    HW132900   3.339   2.218   5.319
10667SOL    HW232901   3.201   2.305   5.332
10668SOL     OW32902   2.202   0.884   6.460
10668SOL    HW132903   2.156   0.969   6.434
10668SOL    HW232904   2.196   0.872   6.559
10669SOL     OW32905   1.016   6.794   6.671
10669SOL    HW132906   1.056   6.885   6.661
10669SOL    HW232907   1.088   6.725   6.660
10670SOL     OW32908   0.163   4.905   5.337
10670SOL    HW132909   0.225   4.864   5.270
10670SOL    HW232910   0.216   4.936   5.416
10671SOL     OW32911   1.524   1.944   3.123
10671SOL    HW132912   1.553   1.998   3.044
10671SOL    HW232913   1.531   1.846   3.101
10672SOL     OW32914   0.416   2.673   0.883
10672SOL    HW132915   0.370   2.758   0.858
10672SOL    HW232916   0.407   2.608   0.807
10673SOL     OW32917   3.184   3.466   5.123
10673SOL    HW132918   3.177   3.399   5.197
10673SOL    HW232919   3.215   3.420   5.040
10674SOL     OW32920   4.208   1.864   2.176
10674SOL    HW132921   4.273   1.854   2.101
10674SOL    HW232922   4.245   1.821   2.258
10675SOL     OW32923   0.078   1.006   6.441
10675SOL    HW132924   0.148   0.959   6.495
10675SOL    HW232925   7.007   0.996   6.484
10676SOL     OW32926   6.823   0.320   0.100
10676SOL    HW132927   6.803   0.293   0.006
10676SOL    HW232928   6.922   0.321   0.115
10677SOL     OW32929   6.756   1.123   0.043
10677SOL    HW132930   6.730   1.095   6.968
10677SOL    HW232931   6.855   1.137   0.047
10678SOL     OW32932   2.337   5.772   2.795
10678SOL    HW132933   2.241   5.797   2.782
10678SOL    HW232934   2.357   5.689   2.744
10679SOL     OW32935   5.362   5.200   3.484
10679SOL    HW132936   5.400   5.283   3.443
10679SOL    HW232937   5.325   5.221   3.574
10680SOL     OW32938   1.684   2.212   3.640
10680SOL    HW132939   1.724   2.282   3.699
10680SOL    HW232940   1.700   2.235   3.544
10681SOL     OW32941   0.687   1.837   6.222
10681SOL    HW132942   0.730   1.811   6.308
10681SOL    HW232943   0.639   1.759   6.183
10682SOL     OW32944   6.485   1.601   3.049
10682SOL    HW132945   6.537   1.653   2.981
10682SOL    HW232946   6.393   1.639   3.058
10683SOL     OW32947   1.969   0.816   4.024
10683SOL    HW132948   1.921   0.890   3.979
10683SOL    HW232949   1.932   0.728   3.994
10684SOL     OW32950   6.175   6.183   0.486
10684SOL    HW132951   6.260   6.133   0.497
10684SOL    HW232952   6.173   6.225   0.395
10685SOL     OW32953   6.626   1.846   2.182
10685SOL    HW132954   6.564   1.777   2.146
10685SOL    HW232955   6.599   1.937   2.150
10686SOL     OW32956   4.052   4.428   0.992
10686SOL    HW132957   4.143   4.421   0.952
10686SOL    HW232958   4.010   4.337   0.996
10687SOL     OW32959   0.372   4.657   1.641
10687SOL    HW132960   0.406   4.598   1.567
10687SOL    HW232961   0.435   4.733   1.655
10688SOL     OW32962   6.669   6.007   1.575
10688SOL    HW132963   6.740   5.947   1.540
10688SOL    HW232964   6.579   5.975   1.543
10689SOL     OW32965   0.677   0.530   1.616
10689SOL    HW132966   0.635   0.611   1.658
10689SOL    HW232967   0.642   0.447   1.660
10690SOL     OW32968   4.460   6.178   2.414
10690SOL    HW132969   4.366   6.205   2.395
10690SOL    HW232970   4.521   6.223   2.350
10691SOL     OW32971   6.325   1.739   0.996
10691SOL    HW132972   6.410   1.757   0.948
10691SOL    HW232973   6.333   1.653   1.047
10692SOL     OW32974   5.269   6.184   4.594
10692SOL    HW132975   5.355   6.223   4.626
10692SOL    HW232976   5.285   6.093   4.558
10693SOL     OW32977   4.863   2.425   3.030
10693SOL    HW132978   4.864   2.445   3.128
10693SOL    HW232979   4.813   2.340   3.014
10694SOL     OW32980   3.552   6.073   0.628
10694SOL    HW132981   3.585   6.137   0.697
10694SOL    HW232982   3.455   6.092   0.609
10695SOL     OW32983   6.088   2.973   4.947
10695SOL    HW132984   6.096   2.989   5.045
10695SOL    HW232985   5.991   2.969   4.921
10696SOL     OW32986   6.250   6.902   1.587
10696SOL    HW132987   6.262   6.886   1.685
10696SOL    HW232988   6.212   6.821   1.543
10697SOL     OW32989   2.614   5.765   2.951
10697SOL    HW132990   2.517   5.785   2.943
10697SOL    HW232991   2.667   5.845   2.925
10698SOL     OW32992   2.827   0.997   3.587
10698SOL    HW132993   2.896   0.974   3.519
10698SOL    HW232994   2.755   1.052   3.545
10699SOL     OW32995   2.202   2.343   3.156
10699SOL    HW132996   2.218   2.427   3.105
10699SOL    HW232997   2.103   2.332   3.172
10700SOL     OW32998   6.614   0.865   2.064
10700SOL    HW132999   6.598   0.773   2.101
10700SOL    HW233000   6.559   0.878   1.982
10701SOL     OW33001   3.595   6.681   1.051
10701SOL    HW133002   3.665   6.733   1.002
10701SOL    HW233003   3.507   6.727   1.042
10702SOL     OW33004   5.049   3.569   0.659
10702SOL    HW133005   5.047   3.549   0.757
10702SOL    HW233006   5.111   3.505   0.613
10703SOL     OW33007   3.601   3.135   4.186
10703SOL    HW133008   3.561   3.056   4.233
10703SOL    HW233009   3.701   3.128   4.188
10704SOL     OW33010   5.713   6.271   2.317
10704SOL    HW133011   5.645   6.256   2.388
10704SOL    HW233012   5.701   6.362   2.277
10705SOL     OW33013   1.831   3.323   6.230
10705SOL    HW133014   1.825   3.258   6.306
10705SOL    HW233015   1.927   3.344   6.212
10706SOL     OW33016   3.657   2.089   1.291
10706SOL    HW133017   3.656   2.173   1.345
10706SOL    HW233018   3.685   2.111   1.197
10707SOL     OW33019   6.335   0.116   6.259
10707SOL    HW133020   6.363   0.210   6.276
10707SOL    HW233021   6.305   0.107   6.164
10708SOL     OW33022   4.666   1.240   1.571
10708SOL    HW133023   4.741   1.236   1.505
10708SOL    HW233024   4.695   1.199   1.657
10709SOL     OW33025   0.818   6.790   5.635
10709SOL    HW133026   0.895   6.764   5.577
10709SOL    HW233027   0.830   6.752   5.726
10710SOL     OW33028   6.353   5.525   3.692
10710SOL    HW133029   6.311   5.610   3.658
10710SOL    HW233030   6.291   5.449   3.674
10711SOL     OW33031   2.562   5.698   4.805
10711SOL    HW133032   2.609   5.782   4.777
10711SOL    HW233033   2.619   5.648   4.870
10712SOL     OW33034   4.160   1.255   5.489
10712SOL    HW133035   4.124   1.334   5.439
10712SOL    HW233036   4.162   1.276   5.587
10713SOL     OW33037   1.842   6.034   1.037
10713SOL    HW133038   1.753   6.071   1.010
10713SOL    HW233039   1.878   5.976   0.964
10714SOL     OW33040   6.509   5.418   6.083
10714SOL    HW133041   6.568   5.392   6.007
10714SOL    HW233042   6.456   5.500   6.057
10715SOL     OW33043   5.714   1.145   3.507
10715SOL    HW133044   5.633   1.124   3.562
10715SOL    HW233045   5.797   1.129   3.561
10716SOL     OW33046   6.470   0.893   2.439
10716SOL    HW133047   6.421   0.965   2.391
10716SOL    HW233048   6.409   0.849   2.505
10717SOL     OW33049   6.644   6.396   2.510
10717SOL    HW133050   6.694   6.414   2.595
10717SOL    HW233051   6.645   6.477   2.452
10718SOL     OW33052   0.994   3.879   5.669
10718SOL    HW133053   0.908   3.928   5.683
10718SOL    HW233054   0.988   3.789   5.712
10719SOL     OW33055   3.832   0.106   2.496
10719SOL    HW133056   3.746   0.056   2.507
10719SOL    HW233057   3.851   0.119   2.399
10720SOL     OW33058   0.299   2.841   6.573
10720SOL    HW133059   0.319   2.875   6.665
10720SOL    HW233060   0.203   2.813   6.568
10721SOL     OW33061   4.880   2.631   4.612
10721SOL    HW133062   4.903   2.596   4.703
10721SOL    HW233063   4.864   2.555   4.549
10722SOL     OW33064   0.044   4.501   0.792
10722SOL    HW133065   0.098   4.456   0.862
10722SOL    HW233066   6.991   4.557   0.835
10723SOL     OW33067   5.953   4.927   0.627
10723SOL    HW133068   6.023   4.948   0.695
10723SOL    HW233069   5.878   4.876   0.670
10724SOL     OW33070   3.495   0.088   5.602
10724SOL    HW133071   3.576   0.030   5.591
10724SOL    HW233072   3.443   0.059   5.681
10725SOL     OW33073   6.666   0.097   5.082
10725SOL    HW133074   6.705   0.147   5.160
10725SOL    HW233075   6.612   0.159   5.026
10726SOL     OW33076   5.811   1.328   4.273
10726SOL    HW133077   5.841   1.385   4.350
10726SOL    HW233078   5.750   1.257   4.307
10727SOL     OW33079   2.828   6.581   6.875
10727SOL    HW133080   2.851   6.603   6.780
10727SOL    HW233081   2.894   6.625   6.936
10728SOL     OW33082   5.742   5.704   3.952
10728SOL    HW133083   5.770   5.643   3.878
10728SOL    HW233084   5.650   5.679   3.983
10729SOL     OW33085   5.520   2.928   4.358
10729SOL    HW133086   5.440   2.958   4.410
10729SOL    HW233087   5.604   2.952   4.408
10730SOL     OW33088   1.487   5.549   3.316
10730SOL    HW133089   1.445   5.553   3.226
10730SOL    HW233090   1.424   5.588   3.384
10731SOL     OW33091   4.984   5.753   6.600
10731SOL    HW133092   4.901   5.808   6.592
10731SOL    HW233093   4.959   5.660   6.626
10732SOL     OW33094   5.931   5.914   2.760
10732SOL    HW133095   6.019   5.869   2.774
10732SOL    HW233096   5.946   6.008   2.730
10733SOL     OW33097   0.477   1.696   5.838
10733SOL    HW133098   0.452   1.792   5.849
10733SOL    HW233099   0.431   1.659   5.756
10734SOL     OW33100   1.272   0.197   5.085
10734SOL    HW133101   1.214   0.124   5.049
10734SOL    HW233102   1.368   0.169   5.081
10735SOL     OW33103   0.074   6.944   1.750
10735SOL    HW133104   0.071   6.982   1.658
10735SOL    HW233105   0.162   6.900   1.766
10736SOL     OW33106   5.061   6.149   3.688
10736SOL    HW133107   5.005   6.207   3.630
10736SOL    HW233108   5.076   6.061   3.642
10737SOL     OW33109   6.299   1.037   1.772
10737SOL    HW133110   6.344   0.969   1.713
10737SOL    HW233111   6.289   1.000   1.864
10738SOL     OW33112   2.887   0.085   1.258
10738SOL    HW133113   2.869   0.033   1.174
10738SOL    HW233114   2.941   0.166   1.236
10739SOL     OW33115   5.623   3.264   4.364
10739SOL    HW133116   5.607   3.194   4.434
10739SOL    HW233117   5.577   3.349   4.391
10740SOL     OW33118   3.084   0.268   6.180
10740SOL    HW133119   3.168   0.256   6.127
10740SOL    HW233120   3.031   0.344   6.143
10741SOL     OW33121   1.387   2.459   3.657
10741SOL    HW133122   1.352   2.427   3.745
10741SOL    HW233123   1.387   2.383   3.592
10742SOL     OW33124   6.347   6.635   1.856
10742SOL    HW133125   6.249   6.658   1.860
10742SOL    HW233126   6.401   6.717   1.868
10743SOL     OW33127   3.308   1.695   5.528
10743SOL    HW133128   3.381   1.711   5.594
10743SOL    HW233129   3.247   1.774   5.527
10744SOL     OW33130   2.873   1.413   0.823
10744SOL    HW133131   2.800   1.354   0.786
10744SOL    HW233132   2.849   1.441   0.916
10745SOL     OW33133   2.187   4.418   1.366
10745SOL    HW133134   2.198   4.460   1.456
10745SOL    HW233135   2.094   4.384   1.356
10746SOL     OW33136   2.323   5.706   6.535
10746SOL    HW133137   2.284   5.647   6.464
10746SOL    HW233138   2.277   5.688   6.622
10747SOL     OW33139   6.634   1.303   4.531
10747SOL    HW133140   6.721   1.298   4.580
10747SOL    HW233141   6.651   1.292   4.433
10748SOL     OW33142   3.374   6.891   2.077
10748SOL    HW133143   3.371   6.833   2.159
10748SOL    HW233144   3.389   6.986   2.103
10749SOL     OW33145   6.120   4.553   1.606
10749SOL    HW133146   6.090   4.571   1.699
10749SOL    HW233147   6.194   4.617   1.581
10750SOL     OW33148   4.197   2.050   4.471
10750SOL    HW133149   4.256   2.125   4.442
10750SOL    HW233150   4.109   2.087   4.502
10751SOL     OW33151   6.894   5.558   4.216
10751SOL    HW133152   6.893   5.582   4.313
10751SOL    HW233153   6.807   5.585   4.174
10752SOL     OW33154   6.755   6.293   0.627
10752SOL    HW133155   6.672   6.329   0.670
10752SOL    HW233156   6.785   6.211   0.676
10753SOL     OW33157   4.713   6.939   4.810
10753SOL    HW133158   4.786   7.007   4.804
10753SOL    HW233159   4.746   6.851   4.776
10754SOL     OW33160   0.947   5.030   1.861
10754SOL    HW133161   1.002   5.098   1.813
10754SOL    HW233162   1.006   4.975   1.920
10755SOL     OW33163   0.363   2.425   1.465
10755SOL    HW133164   0.427   2.475   1.406
10755SOL    HW233165   0.272   2.429   1.425
10756SOL     OW33166   1.503   0.693   0.212
10756SOL    HW133167   1.463   0.763   0.152
10756SOL    HW233168   1.476   0.710   0.306
10757SOL     OW33169   0.425   2.493   2.199
10757SOL    HW133170   0.349   2.556   2.179
10757SOL    HW233171   0.427   2.421   2.131
10758SOL     OW33172   0.779   0.653   6.926
10758SOL    HW133173   0.779   0.581   6.996
10758SOL    HW233174   0.690   0.699   6.926
10759SOL     OW33175   2.952   3.084   5.164
10759SOL    HW133176   2.875   3.095   5.226
10759SOL    HW233177   2.948   3.154   5.092
10760SOL     OW33178   0.895   4.738   6.873
10760SOL    HW133179   0.938   4.823   6.903
10760SOL    HW233180   0.873   4.744   6.775
10761SOL     OW33181   1.077   1.583   5.745
10761SOL    HW133182   1.125   1.663   5.781
10761SOL    HW233183   1.124   1.499   5.775
10762SOL     OW33184   2.308   6.192   6.697
10762SOL    HW133185   2.375   6.197   6.771
10762SOL    HW233186   2.322   6.108   6.644
10763SOL     OW33187   4.650   0.890   3.264
10763SOL    HW133188   4.574   0.841   3.221
10763SOL    HW233189   4.643   0.987   3.242
10764SOL     OW33190   5.083   6.472   4.941
10764SOL    HW133191   5.087   6.402   4.870
10764SOL    HW233192   5.173   6.515   4.950
10765SOL     OW33193   0.551   1.725   1.498
10765SOL    HW133194   0.461   1.693   1.528
10765SOL    HW233195   0.558   1.717   1.398
10766SOL     OW33196   2.623   5.096   6.767
10766SOL    HW133197   2.626   5.051   6.678
10766SOL    HW233198   2.597   5.191   6.755
10767SOL     OW33199   1.574   4.959   7.005
10767SOL    HW133200   1.573   4.908   0.073
10767SOL    HW233201   1.494   5.019   7.001
10768SOL     OW33202   5.141   6.279   6.745
10768SOL    HW133203   5.096   6.198   6.709
10768SOL    HW233204   5.208   6.312   6.678
10769SOL     OW33205   2.936   3.238   4.653
10769SOL    HW133206   3.000   3.166   4.625
10769SOL    HW233207   2.909   3.292   4.573
10770SOL     OW33208   5.694   0.275   3.598
10770SOL    HW133209   5.742   0.187   3.592
10770SOL    HW233210   5.678   0.297   3.694
10771SOL     OW33211   5.146   5.988   5.900
10771SOL    HW133212   5.089   6.057   5.944
10771SOL    HW233213   5.091   5.907   5.879
10772SOL     OW33214   5.853   5.063   2.140
10772SOL    HW133215   5.919   5.001   2.096
10772SOL    HW233216   5.868   5.062   2.239
10773SOL     OW33217   0.493   3.822   1.342
10773SOL    HW133218   0.559   3.792   1.411
10773SOL    HW233219   0.494   3.758   1.265
10774SOL     OW33220   1.075   3.195   0.654
10774SOL    HW133221   1.049   3.098   0.650
10774SOL    HW233222   1.172   3.202   0.677
10775SOL     OW33223   1.779   4.284   0.594
10775SOL    HW133224   1.684   4.272   0.566
10775SOL    HW233225   1.834   4.209   0.556
10776SOL     OW33226   0.540   2.942   3.587
10776SOL    HW133227   0.565   2.912   3.495
10776SOL    HW233228   0.584   3.030   3.606
10777SOL     OW33229   1.775   0.309   0.772
10777SOL    HW133230   1.703   0.368   0.735
10777SOL    HW233231   1.745   0.271   0.859
10778SOL     OW33232   4.929   0.308   3.106
10778SOL    HW133233   4.933   0.393   3.054
10778SOL    HW233234   4.859   0.248   3.067
10779SOL     OW33235   5.649   3.195   5.646
10779SOL    HW133236   5.609   3.282   5.616
10779SOL    HW233237   5.673   3.202   5.743
10780SOL     OW33238   2.094   5.300   4.137
10780SOL    HW133239   2.061   5.360   4.064
10780SOL    HW233240   2.171   5.246   4.103
10781SOL     OW33241   5.752   2.231   4.740
10781SOL    HW133242   5.822   2.296   4.708
10781SOL    HW233243   5.756   2.148   4.685
10782SOL     OW33244   0.967   2.314   5.722
10782SOL    HW133245   0.890   2.299   5.784
10782SOL    HW233246   1.049   2.334   5.775
10783SOL     OW33247   1.263   2.898   3.549
10783SOL    HW133248   1.222   2.806   3.543
10783SOL    HW233249   1.244   2.948   3.465
10784SOL     OW33250   4.331   5.805   3.756
10784SOL    HW133251   4.272   5.759   3.689
10784SOL    HW233252   4.278   5.876   3.803
10785SOL     OW33253   1.635   5.520   1.710
10785SOL    HW133254   1.653   5.613   1.679
10785SOL    HW233255   1.719   5.482   1.750
10786SOL     OW33256   4.594   1.980   2.096
10786SOL    HW133257   4.598   1.898   2.153
10786SOL    HW233258   4.511   1.977   2.040
10787SOL     OW33259   3.747   2.150   3.490
10787SOL    HW133260   3.654   2.118   3.507
10787SOL    HW233261   3.779   2.201   3.570
10788SOL     OW33262   1.865   4.034   0.486
10788SOL    HW133263   1.964   4.035   0.473
10788SOL    HW233264   1.819   4.056   0.400
10789SOL     OW33265   6.654   1.468   2.666
10789SOL    HW133266   6.736   1.438   2.618
10789SOL    HW233267   6.576   1.412   2.636
10790SOL     OW33268   0.003   1.754   5.528
10790SOL    HW133269   6.946   1.757   5.595
10790SOL    HW233270   0.071   1.823   5.552
10791SOL     OW33271   1.951   2.246   3.530
10791SOL    HW133272   1.973   2.312   3.458
10791SOL    HW233273   1.919   2.161   3.488
10792SOL     OW33274   3.432   1.616   2.510
10792SOL    HW133275   3.509   1.559   2.481
10792SOL    HW233276   3.347   1.575   2.477
10793SOL     OW33277   3.286   1.825   5.012
10793SOL    HW133278   3.256   1.866   4.926
10793SOL    HW233279   3.348   1.749   4.992
10794SOL     OW33280   5.341   2.276   0.474
10794SOL    HW133281   5.408   2.209   0.505
10794SOL    HW233282   5.266   2.228   0.427
10795SOL     OW33283   0.106   3.420   3.155
10795SOL    HW133284   0.015   3.380   3.170
10795SOL    HW233285   0.100   3.493   3.088
10796SOL     OW33286   6.973   0.370   6.365
10796SOL    HW133287   0.007   0.302   6.416
10796SOL    HW233288   0.008   0.401   6.286
10797SOL     OW33289   4.251   4.563   0.205
10797SOL    HW133290   4.350   4.560   0.220
10797SOL    HW233291   4.207   4.487   0.253
10798SOL     OW33292   2.027   6.164   6.687
10798SOL    HW133293   1.973   6.179   6.770
10798SOL    HW233294   2.124   6.170   6.710
10799SOL     OW33295   2.890   1.239   2.675
10799SOL    HW133296   2.981   1.280   2.672
10799SOL    HW233297   2.878   1.178   2.596
10800SOL     OW33298   2.305   6.970   5.194
10800SOL    HW133299   2.307   6.999   5.289
10800SOL    HW233300   2.226   6.910   5.179
10801SOL     OW33301   3.031   6.439   5.978
10801SOL    HW133302   3.103   6.505   6.000
10801SOL    HW233303   3.066   6.372   5.912
10802SOL     OW33304   0.215   5.238   4.071
10802SOL    HW133305   0.233   5.215   3.976
10802SOL    HW233306   0.191   5.335   4.078
10803SOL     OW33307   0.193   4.664   4.369
10803SOL    HW133308   0.119   4.646   4.304
10803SOL    HW233309   0.215   4.579   4.418
10804SOL     OW33310   4.834   4.459   0.818
10804SOL    HW133311   4.795   4.419   0.901
10804SOL    HW233312   4.910   4.403   0.786
10805SOL     OW33313   3.853   6.373   0.548
10805SOL    HW133314   3.875   6.351   0.453
10805SOL    HW233315   3.754   6.378   0.559
10806SOL     OW33316   6.292   4.272   6.589
10806SOL    HW133317   6.373   4.323   6.560
10806SOL    HW233318   6.212   4.306   6.539
10807SOL     OW33319   4.335   1.587   4.363
10807SOL    HW133320   4.274   1.574   4.284
10807SOL    HW233321   4.295   1.656   4.424
10808SOL     OW33322   6.947   2.138   0.202
10808SOL    HW133323   6.903   2.107   0.118
10808SOL    HW233324   0.028   2.140   0.189
10809SOL     OW33325   2.652   1.370   2.064
10809SOL    HW133326   2.723   1.390   2.131
10809SOL    HW233327   2.648   1.271   2.049
10810SOL     OW33328   1.815   1.108   6.415
10810SOL    HW133329   1.810   1.013   6.446
10810SOL    HW233330   1.910   1.132   6.397
10811SOL     OW33331   4.781   4.714   6.558
10811SOL    HW133332   4.717   4.759   6.621
10811SOL    HW233333   4.730   4.653   6.497
10812SOL     OW33334   6.557   2.651   2.156
10812SOL    HW133335   6.529   2.555   2.147
10812SOL    HW233336   6.633   2.670   2.093
10813SOL     OW33337   3.344   6.001   2.805
10813SOL    HW133338   3.386   6.079   2.759
10813SOL    HW233339   3.398   5.919   2.788
10814SOL     OW33340   2.229   5.531   4.490
10814SOL    HW133341   2.165   5.473   4.441
10814SOL    HW233342   2.190   5.557   4.579
10815SOL     OW33343   4.451   2.129   4.328
10815SOL    HW133344   4.451   2.029   4.321
10815SOL    HW233345   4.542   2.161   4.357
10816SOL     OW33346   2.387   2.251   1.842
10816SOL    HW133347   2.313   2.256   1.776
10816SOL    HW233348   2.440   2.168   1.828
10817SOL     OW33349   4.104   0.676   1.748
10817SOL    HW133350   4.026   0.621   1.778
10817SOL    HW233351   4.169   0.619   1.698
10818SOL     OW33352   4.463   2.922   0.160
10818SOL    HW133353   4.493   2.830   0.136
10818SOL    HW233354   4.460   2.979   0.078
10819SOL     OW33355   0.747   3.718   5.450
10819SOL    HW133356   0.828   3.745   5.399
10819SOL    HW233357   0.770   3.645   5.514
10820SOL     OW33358   0.192   6.754   4.545
10820SOL    HW133359   0.275   6.803   4.520
10820SOL    HW233360   0.113   6.814   4.532
10821SOL     OW33361   0.300   6.907   0.872
10821SOL    HW133362   0.293   6.948   0.782
10821SOL    HW233363   0.348   6.820   0.866
10822SOL     OW33364   0.144   4.071   6.894
10822SOL    HW133365   0.191   3.984   6.877
10822SOL    HW233366   0.143   4.091   6.992
10823SOL     OW33367   2.096   2.077   1.123
10823SOL    HW133368   2.070   2.171   1.145
10823SOL    HW233369   2.179   2.078   1.068
10824SOL     OW33370   5.121   0.747   3.503
10824SOL    HW133371   5.048   0.683   3.526
10824SOL    HW233372   5.195   0.699   3.457
10825SOL     OW33373   3.744   0.852   2.324
10825SOL    HW133374   3.828   0.874   2.274
10825SOL    HW233375   3.682   0.801   2.264
10826SOL     OW33376   6.668   2.959   1.361
10826SOL    HW133377   6.571   2.937   1.362
10826SOL    HW233378   6.712   2.923   1.444
10827SOL     OW33379   1.112   3.264   4.299
10827SOL    HW133380   1.115   3.303   4.207
10827SOL    HW233381   1.181   3.191   4.306
10828SOL     OW33382   1.431   5.880   0.563
10828SOL    HW133383   1.485   5.810   0.610
10828SOL    HW233384   1.362   5.917   0.626
10829SOL     OW33385   2.127   3.328   1.735
10829SOL    HW133386   2.191   3.388   1.783
10829SOL    HW233387   2.138   3.234   1.767
10830SOL     OW33388   4.962   1.253   3.495
10830SOL    HW133389   4.872   1.295   3.497
10830SOL    HW233390   5.029   1.320   3.464
10831SOL     OW33391   5.446   3.322   2.198
10831SOL    HW133392   5.428   3.313   2.296
10831SOL    HW233393   5.365   3.360   2.152
10832SOL     OW33394   0.377   3.632   3.020
10832SOL    HW133395   0.302   3.695   3.043
10832SOL    HW233396   0.341   3.539   3.016
10833SOL     OW33397   2.599   0.014   3.557
10833SOL    HW133398   2.552   7.011   3.471
10833SOL    HW233399   2.539   0.068   3.615
10834SOL     OW33400   6.787   1.021   5.348
10834SOL    HW133401   6.875   0.973   5.354
10834SOL    HW233402   6.800   1.111   5.307
10835SOL     OW33403   0.343   3.001   1.650
10835SOL    HW133404   0.350   2.921   1.591
10835SOL    HW233405   0.308   3.078   1.598
10836SOL     OW33406   2.141   2.866   0.866
10836SOL    HW133407   2.188   2.778   0.858
10836SOL    HW233408   2.193   2.936   0.818
10837SOL     OW33409   0.892   5.842   1.038
10837SOL    HW133410   0.944   5.762   1.066
10837SOL    HW233411   0.919   5.921   1.093
10838SOL     OW33412   6.125   6.802   0.434
10838SOL    HW133413   6.192   6.830   0.364
10838SOL    HW233414   6.112   6.703   0.430
10839SOL     OW33415   1.684   1.562   0.019
10839SOL    HW133416   1.611   1.600   6.981
10839SOL    HW233417   1.714   1.475   6.998
10840SOL     OW33418   2.977   6.321   2.365
10840SOL    HW133419   2.983   6.237   2.419
10840SOL    HW233420   3.045   6.318   2.292
10841SOL     OW33421   5.584   2.754   0.043
10841SOL    HW133422   5.516   2.693   0.083
10841SOL    HW233423   5.656   2.700   0.000
10842SOL     OW33424   5.970   2.807   1.458
10842SOL    HW133425   5.954   2.724   1.512
10842SOL    HW233426   5.928   2.796   1.368
10843SOL     OW33427   0.136   1.359   1.752
10843SOL    HW133428   0.087   1.319   1.829
10843SOL    HW233429   0.084   1.436   1.716
10844SOL     OW33430   3.912   0.323   3.347
10844SOL    HW133431   3.947   0.416   3.331
10844SOL    HW233432   3.904   0.275   3.260
10845SOL     OW33433   2.316   3.040   0.683
10845SOL    HW133434   2.388   3.040   0.752
10845SOL    HW233435   2.334   2.967   0.617
10846SOL     OW33436   3.556   1.708   1.589
10846SOL    HW133437   3.544   1.773   1.664
10846SOL    HW233438   3.581   1.757   1.506
10847SOL     OW33439   4.571   2.908   5.643
10847SOL    HW133440   4.600   2.873   5.553
10847SOL    HW233441   4.625   2.989   5.666
10848SOL     OW33442   1.439   0.770   6.565
10848SOL    HW133443   1.361   0.812   6.517
10848SOL    HW233444   1.469   0.831   6.638
10849SOL     OW33445   2.022   5.342   3.672
10849SOL    HW133446   2.107   5.386   3.641
10849SOL    HW233447   1.978   5.400   3.740
10850SOL     OW33448   5.701   0.537   2.021
10850SOL    HW133449   5.687   0.537   2.120
10850SOL    HW233450   5.649   0.611   1.979
10851SOL     OW33451   4.644   2.013   6.443
10851SOL    HW133452   4.566   2.060   6.485
10851SOL    HW233453   4.717   2.079   6.425
10852SOL     OW33454   6.883   0.694   5.838
10852SOL    HW133455   6.842   0.630   5.902
10852SOL    HW233456   6.877   0.787   5.873
10853SOL     OW33457   2.596   0.589   4.562
10853SOL    HW133458   2.530   0.577   4.488
10853SOL    HW233459   2.676   0.639   4.527
10854SOL     OW33460   0.023   6.850   0.767
10854SOL    HW133461   6.996   6.875   0.852
10854SOL    HW233462   0.120   6.877   0.771
10855SOL     OW33463   0.434   5.141   1.216
10855SOL    HW133464   0.484   5.219   1.253
10855SOL    HW233465   0.494   5.089   1.156
10856SOL     OW33466   5.635   0.408   6.595
10856SOL    HW133467   5.545   0.451   6.584
10856SOL    HW233468   5.656   0.398   6.692
10857SOL     OW33469   6.737   0.426   4.813
10857SOL    HW133470   6.690   0.507   4.776
10857SOL    HW233471   6.796   0.454   4.889
10858SOL     OW33472   2.044   2.126   0.409
10858SOL    HW133473   2.100   2.096   0.332
10858SOL    HW233474   1.969   2.183   0.376
10859SOL     OW33475   1.420   5.728   2.016
10859SOL    HW133476   1.421   5.815   2.067
10859SOL    HW233477   1.426   5.747   1.918
10860SOL     OW33478   6.154   2.896   1.633
10860SOL    HW133479   6.120   2.852   1.717
10860SOL    HW233480   6.102   2.863   1.555
10861SOL     OW33481   2.121   3.741   1.420
10861SOL    HW133482   2.125   3.840   1.434
10861SOL    HW233483   2.210   3.709   1.385
10862SOL     OW33484   3.660   4.341   5.244
10862SOL    HW133485   3.688   4.321   5.338
10862SOL    HW233486   3.683   4.263   5.185
10863SOL     OW33487   2.197   0.694   3.373
10863SOL    HW133488   2.110   0.709   3.327
10863SOL    HW233489   2.207   0.597   3.395
10864SOL     OW33490   3.104   4.144   1.810
10864SOL    HW133491   3.089   4.240   1.834
10864SOL    HW233492   3.201   4.123   1.819
10865SOL     OW33493   3.970   1.699   2.639
10865SOL    HW133494   3.996   1.662   2.728
10865SOL    HW233495   4.052   1.720   2.586
10866SOL     OW33496   0.983   3.471   3.904
10866SOL    HW133497   1.061   3.531   3.887
10866SOL    HW233498   0.938   3.497   3.989
10867SOL     OW33499   4.562   2.733   6.993
10867SOL    HW133500   4.536   2.639   6.974
10867SOL    HW233501   4.610   2.771   6.914
10868SOL     OW33502   1.612   6.787   4.947
10868SOL    HW133503   1.653   6.701   4.915
10868SOL    HW233504   1.517   6.770   4.974
10869NA      NA33505   6.744   1.093   6.237
10870NA      NA33506   4.182   4.641   5.269
10871NA      NA33507   1.481   4.753   2.911
10872NA      NA33508   5.602   3.760   2.889
10873NA      NA33509   3.595   2.682   5.594
10874NA      NA33510   2.280   4.843   0.084
10875NA      NA33511   1.777   5.487   6.651
10876NA      NA33512   4.176   4.841   1.537
10877NA      NA33513   5.190   4.540   0.514
10878NA      NA33514   3.589   1.585   0.534
10879NA      NA33515   5.456   6.788   1.773
10880NA      NA33516   2.425   6.525   5.072
10881NA      NA33517   4.360   5.028   2.434
10882NA      NA33518   4.316   3.924   6.798
   7.01798   7.01798   7.01798
